                         Program Version 6.0.0  -   RELEASE  -
|  1> ! r2scan-3c def2/J RI DEFGRID2 scfconv6 printgap
|  2> %output
|  3>     printlevel normal
|  4> end
|  5> * xyz 0 1
|  6> C 0.7276248318 -1.1920390323 -0.2319773722
|  7> C -0.7277546605 -1.1919785467 0.2318725283
|  8> N -1.3813254426 0.000155078 -0.2842984875
|  9> C -0.7275009935 1.1920589973 0.2320716395
| 10> C 0.7277472254 1.1919038328 -0.2321199043
| 11> N 1.3812028991 -6.68618e-05 0.2844276145
| 12> H 0.7414397714 -1.2274010718 -1.3347967431
| 13> H 1.2420619361 -2.0716936237 0.1585812935
| 14> H -1.2423126494 -2.0714684471 -0.1589081541
| 15> H -0.7415656091 -1.2275688141 1.3346739098
| 16> H -2.3591964543 0.0002073816 -0.0130053414
| 17> H -1.2420342192 2.071751079 -0.158264656
| 18> H -0.7409667629 1.2272457606 1.3348892686
| 19> H 0.7412160078 1.2269322879 -1.3349548615
| 20> H 1.2424412546 2.0715845191 0.1580352629
| 21> H 2.3592325414 -0.0001625678 0.0137801291
| 22> *
| 23>
| 24>                          ****END OF INPUT****

CARTESIAN COORDINATES (ANGSTROEM)
---------------------------------
  C      0.727625   -1.192039   -0.231977
  C     -0.727755   -1.191979    0.231873
  N     -1.381325    0.000155   -0.284298
  C     -0.727501    1.192059    0.232072
  C      0.727747    1.191904   -0.232120
  N      1.381203   -0.000067    0.284428
  H      0.741440   -1.227401   -1.334797
  H      1.242062   -2.071694    0.158581
  H     -1.242313   -2.071468   -0.158908
  H     -0.741566   -1.227569    1.334674
  H     -2.359196    0.000207   -0.013005
  H     -1.242034    2.071751   -0.158265
  H     -0.740967    1.227246    1.334889
  H      0.741216    1.226932   -1.334955
  H      1.242441    2.071585    0.158035
  H      2.359233   -0.000163    0.013780

 Total Charge           Charge          ....    0
 Multiplicity           Mult            ....    1
 Number of Electrons    NEL             ....   48
 Basis Dimension        Dim             ....  174

ORBITAL ENERGIES
----------------

  NO   OCC          E(Eh)            E(eV)
   0   2.0000     -14.140054      -384.7704
   1   2.0000     -14.140051      -384.7704
   2   2.0000     -10.045902      -273.3629
   3   2.0000     -10.045894      -273.3627
   4   2.0000     -10.045770      -273.3593
   5   2.0000     -10.045762      -273.3591
   6   2.0000      -0.895966       -24.3805
   7   2.0000      -0.841832       -22.9074
   8   2.0000      -0.720254       -19.5991
   9   2.0000      -0.634223       -17.2581
  10   2.0000      -0.594478       -16.1766
  11   2.0000      -0.516979       -14.0677
  12   2.0000      -0.492003       -13.3881
  13   2.0000      -0.435979       -11.8636
  14   2.0000      -0.419293       -11.4095
  15   2.0000      -0.405853       -11.0438
  16   2.0000      -0.393189       -10.6992
  17   2.0000      -0.373750       -10.1702
  18   2.0000      -0.351645        -9.5687
  19   2.0000      -0.312192        -8.4952
  20   2.0000      -0.300339        -8.1726
  21   2.0000      -0.292612        -7.9624
  22   2.0000      -0.194741        -5.2992
  23   2.0000      -0.190625        -5.1872
  24   0.0000       0.066244         1.8026
  25   0.0000       0.086070         2.3421
  26   0.0000       0.113446         3.0870
  27   0.0000       0.126837         3.4514
  28   0.0000       0.136904         3.7253

MULLIKEN ATOMIC CHARGES
-----------------------
   0 C :   -0.212831
   1 C :   -0.212764
   2 N :   -0.345547
   3 C :   -0.212751
   4 C :   -0.212814
   5 N :   -0.345437
   6 H :    0.136231
   7 H :    0.136286
   8 H :    0.136287
   9 H :    0.136220
  10 H :    0.226061
  11 H :    0.136281
  12 H :    0.136232
  13 H :    0.136241
  14 H :    0.136281
  15 H :    0.226024
Sum of atomic charges:   -0.0000000

LOEWDIN ATOMIC CHARGES
----------------------
   0 C :   -0.040796
   1 C :   -0.040797
   2 N :   -0.835919
   3 C :   -0.040786
   4 C :   -0.040787
   5 N :   -0.835949
   6 H :    0.160407
   7 H :    0.174588
   8 H :    0.174585
   9 H :    0.160405
  10 H :    0.247526
  11 H :    0.174579
  12 H :    0.160420
  13 H :    0.160420
  14 H :    0.174582
  15 H :    0.247522

  Mayer bond orders larger than 0.100000
B(  0-C ,  1-C ) :   0.9515 B(  0-C ,  5-N ) :   0.9711 B(  0-C ,  6-H ) :   0.9658
B(  0-C ,  7-H ) :   0.9586 B(  1-C ,  2-N ) :   0.9712 B(  1-C ,  8-H ) :   0.9586
B(  1-C ,  9-H ) :   0.9658 B(  2-N ,  3-C ) :   0.9711 B(  2-N , 10-H ) :   0.9099
B(  3-C ,  4-C ) :   0.9514 B(  3-C , 11-H ) :   0.9586 B(  3-C , 12-H ) :   0.9658
B(  4-C ,  5-N ) :   0.9711 B(  4-C , 13-H ) :   0.9658 B(  4-C , 14-H ) :   0.9586
B(  5-N , 15-H ) :   0.9099

Dispersion correction           -0.004174992
FINAL SINGLE POINT ENERGY      -267.845025735339

DIPOLE MOMENT
-------------

Method             : SCF
Type of density    : Electron Density
Multiplicity       :   1
Irrep              :   0
Energy             :  -267.8566393692318002 Eh
Relativity type    :
Basis              : AO
                                X                 Y                 Z
Electronic contribution:      0.000026092       0.000458086       0.000188946
Nuclear contribution   :      0.000295617      -0.000537552       0.000028953
                        -----------------------------------------
Total Dipole Moment    :      0.000321709      -0.000079466       0.000217899
                        -----------------------------------------
Magnitude (a.u.)       :      0.000396600
Magnitude (Debye)      :      0.001008077

Rotational constants in cm-1:             0.162441             0.152308             0.088638
Rotational constants in MHz :          4869.867510          4566.067088          2657.297092

                             ****ORCA TERMINATED NORMALLY****
TOTAL RUN TIME: 0 days 0 hours 0 minutes 11 seconds 801 msec
