                         Program Version 6.0.0  -   RELEASE  -
|  1> ! r2scan-3c def2/J RI DEFGRID2 scfconv6 printgap
|  2> %output
|  3>     printlevel normal
|  4> end
|  5> %cpcm
|  6>     smd true
|  7>     smdsolvent "water"
|  8> end
|  9> * xyz 0 1
| 10> C 0.7276248318 -1.1920390323 -0.2319773722
| 11> C -0.7277546605 -1.1919785467 0.2318725283
| 12> N -1.3813254426 0.000155078 -0.2842984875
| 13> C -0.7275009935 1.1920589973 0.2320716395
| 14> C 0.7277472254 1.1919038328 -0.2321199043
| 15> N 1.3812028991 -6.68618e-05 0.2844276145
| 16> H 0.7414397714 -1.2274010718 -1.3347967431
| 17> H 1.2420619361 -2.0716936237 0.1585812935
| 18> H -1.2423126494 -2.0714684471 -0.1589081541
| 19> H -0.7415656091 -1.2275688141 1.3346739098
| 20> H -2.3591964543 0.0002073816 -0.0130053414
| 21> H -1.2420342192 2.071751079 -0.158264656
| 22> H -0.7409667629 1.2272457606 1.3348892686
| 23> H 0.7412160078 1.2269322879 -1.3349548615
| 24> H 1.2424412546 2.0715845191 0.1580352629
| 25> H 2.3592325414 -0.0001625678 0.0137801291
| 26> *
| 27>
| 28>                          ****END OF INPUT****

CARTESIAN COORDINATES (ANGSTROEM)
---------------------------------
  C      0.727625   -1.192039   -0.231977
  C     -0.727755   -1.191979    0.231873
  N     -1.381325    0.000155   -0.284298
  C     -0.727501    1.192059    0.232072
  C      0.727747    1.191904   -0.232120
  N      1.381203   -0.000067    0.284428
  H      0.741440   -1.227401   -1.334797
  H      1.242062   -2.071694    0.158581
  H     -1.242313   -2.071468   -0.158908
  H     -0.741566   -1.227569    1.334674
  H     -2.359196    0.000207   -0.013005
  H     -1.242034    2.071751   -0.158265
  H     -0.740967    1.227246    1.334889
  H      0.741216    1.226932   -1.334955
  H      1.242441    2.071585    0.158035
  H      2.359233   -0.000163    0.013780

 Total Charge           Charge          ....    0
 Multiplicity           Mult            ....    1
 Number of Electrons    NEL             ....   48
 Basis Dimension        Dim             ....  174

ORBITAL ENERGIES
----------------

  NO   OCC          E(Eh)            E(eV)
   0   2.0000     -14.137798      -384.7090
   1   2.0000     -14.137792      -384.7089
   2   2.0000     -10.041197      -273.2349
   3   2.0000     -10.041190      -273.2347
   4   2.0000     -10.041065      -273.2313
   5   2.0000     -10.041059      -273.2311
   6   2.0000      -0.893066       -24.3016
   7   2.0000      -0.838575       -22.8188
   8   2.0000      -0.716309       -19.4917
   9   2.0000      -0.629742       -17.1361
  10   2.0000      -0.590067       -16.0565
  11   2.0000      -0.513541       -13.9742
  12   2.0000      -0.486897       -13.2491
  13   2.0000      -0.431651       -11.7458
  14   2.0000      -0.416678       -11.3384
  15   2.0000      -0.400708       -10.9038
  16   2.0000      -0.389747       -10.6056
  17   2.0000      -0.371144       -10.0993
  18   2.0000      -0.346131        -9.4187
  19   2.0000      -0.308117        -8.3843
  20   2.0000      -0.294998        -8.0273
  21   2.0000      -0.287246        -7.8164
  22   2.0000      -0.196551        -5.3484
  23   2.0000      -0.193155        -5.2560
  24   0.0000       0.077414         2.1065
  25   0.0000       0.097456         2.6519
  26   0.0000       0.120421         3.2768
  27   0.0000       0.131423         3.5762
  28   0.0000       0.135552         3.6886

MULLIKEN ATOMIC CHARGES
-----------------------
   0 C :   -0.242696
   1 C :   -0.242649
   2 N :   -0.390614
   3 C :   -0.242630
   4 C :   -0.242675
   5 N :   -0.390502
   6 H :    0.143624
   7 H :    0.157613
   8 H :    0.157601
   9 H :    0.143619
  10 H :    0.273450
  11 H :    0.157601
  12 H :    0.143613
  13 H :    0.143618
  14 H :    0.157613
  15 H :    0.273415
Sum of atomic charges:   -0.0000000

LOEWDIN ATOMIC CHARGES
----------------------
   0 C :   -0.044072
   1 C :   -0.044074
   2 N :   -0.853701
   3 C :   -0.044063
   4 C :   -0.044062
   5 N :   -0.853720
   6 H :    0.161119
   7 H :    0.180621
   8 H :    0.180614
   9 H :    0.161119
  10 H :    0.258373
  11 H :    0.180609
  12 H :    0.161127
  13 H :    0.161126
  14 H :    0.180617
  15 H :    0.258368

  Mayer bond orders larger than 0.100000
B(  0-C ,  1-C ) :   0.9212 B(  0-C ,  5-N ) :   0.9638 B(  0-C ,  6-H ) :   0.9721
B(  0-C ,  7-H ) :   0.9619 B(  1-C ,  2-N ) :   0.9638 B(  1-C ,  8-H ) :   0.9619
B(  1-C ,  9-H ) :   0.9721 B(  2-N ,  3-C ) :   0.9638 B(  2-N , 10-H ) :   0.8944
B(  3-C ,  4-C ) :   0.9212 B(  3-C , 11-H ) :   0.9619 B(  3-C , 12-H ) :   0.9721
B(  4-C ,  5-N ) :   0.9637 B(  4-C , 13-H ) :   0.9721 B(  4-C , 14-H ) :   0.9619
B(  5-N , 15-H ) :   0.8944

Dispersion correction           -0.004174992
FINAL SINGLE POINT ENERGY      -267.859148654760

DIPOLE MOMENT
-------------

Method             : SCF
Type of density    : Electron Density
Multiplicity       :   1
Irrep              :   0
Energy             :  -267.8707622886534523 Eh
Relativity type    :
Basis              : AO
                                X                 Y                 Z
Electronic contribution:      0.000134291       0.000418289       0.000267968
Nuclear contribution   :      0.000295617      -0.000537552       0.000028953
                        -----------------------------------------
Total Dipole Moment    :      0.000429908      -0.000119263       0.000296921
                        -----------------------------------------
Magnitude (a.u.)       :      0.000535917
Magnitude (Debye)      :      0.001362193

Rotational constants in cm-1:             0.162441             0.152308             0.088638
Rotational constants in MHz :          4869.867510          4566.067088          2657.297092

                             ****ORCA TERMINATED NORMALLY****
TOTAL RUN TIME: 0 days 0 hours 0 minutes 16 seconds 221 msec
