                         Program Version 6.0.0  -   RELEASE  -
|  1> ! pbe def2-sv(p) def2/J RI DEFGRID1 loosescf d4 GCP(DFT/SV(P)) printgap
|  2> %output
|  3>     printlevel normal
|  4> end
|  5> * xyz 0 1
|  6> C -2.2529889095 -0.9791152018 -0.3547105502
|  7> C -1.1504131042 -0.2208856539 0.39432867
|  8> H -1.5882860056 0.2260351687 1.2952349825
|  9> C -0.5659446504 0.9025070378 -0.4650396606
| 10> H -0.3968064886 0.5321095576 -1.490388064
| 11> C 0.7797641884 1.3244574824 0.1408661298
| 12> H 0.6346501451 1.5552568893 1.2024036452
| 13> C 1.7726835902 0.1612118395 0.0133384845
| 14> H 2.2242850778 0.1831789327 -0.9914887601
| 15> C 1.0429674123 -1.1932142585 0.1300399664
| 16> H 1.6819188664 -1.8577138394 0.7274122846
| 17> O -0.1482343943 -1.1263581543 0.8666549876
| 18> O 0.8454547237 -1.6824114353 -1.161474279
| 19> O 2.770984948 0.1949283521 0.9995840295
| 20> O 1.2523933651 2.5126059307 -0.4424096584
| 21> O -1.4789061384 1.9686119672 -0.492988151
| 22> O -2.9495901104 -1.8676949138 0.4823585005
| 23> H -1.8105864688 -1.5144251777 -1.2053650311
| 24> H -2.9827724873 -0.2567921665 -0.7249933116
| 25> H 0.6549833531 -2.632236998 -1.1395025433
| 26> H 3.2161742258 1.0559767637 0.9768250762
| 27> H 1.4641887827 2.3604596863 -1.3763323149
| 28> H -0.9761979454 2.797426484 -0.5722248476
| 29> H -2.3022952869 -2.3841772322 0.9849161884
| 30> *
| 31>
| 32>                          ****END OF INPUT****

CARTESIAN COORDINATES (ANGSTROEM)
---------------------------------
  C     -2.252989   -0.979115   -0.354711
  C     -1.150413   -0.220886    0.394329
  H     -1.588286    0.226035    1.295235
  C     -0.565945    0.902507   -0.465040
  H     -0.396806    0.532110   -1.490388
  C      0.779764    1.324457    0.140866
  H      0.634650    1.555257    1.202404
  C      1.772684    0.161212    0.013338
  H      2.224285    0.183179   -0.991489
  C      1.042967   -1.193214    0.130040
  H      1.681919   -1.857714    0.727412
  O     -0.148234   -1.126358    0.866655
  O      0.845455   -1.682411   -1.161474
  O      2.770985    0.194928    0.999584
  O      1.252393    2.512606   -0.442410
  O     -1.478906    1.968612   -0.492988
  O     -2.949590   -1.867695    0.482359
  H     -1.810586   -1.514425   -1.205365
  H     -2.982772   -0.256792   -0.724993
  H      0.654983   -2.632237   -1.139503
  H      3.216174    1.055977    0.976825
  H      1.464189    2.360460   -1.376332
  H     -0.976198    2.797426   -0.572225
  H     -2.302295   -2.384177    0.984916

 Total Charge           Charge          ....    0
 Multiplicity           Mult            ....    1
 Number of Electrons    NEL             ....   96
 Basis Dimension        Dim             ....  192

ORBITAL ENERGIES
----------------

  NO   OCC          E(Eh)            E(eV)
   0   2.0000     -18.777926      -510.9734
   1   2.0000     -18.774917      -510.8915
   2   2.0000     -18.773130      -510.8428
   3   2.0000     -18.760918      -510.5105
   4   2.0000     -18.750379      -510.2237
   5   2.0000     -18.736098      -509.8352
   6   2.0000      -9.994302      -271.9588
   7   2.0000      -9.951720      -270.8001
   8   2.0000      -9.950886      -270.7774
   9   2.0000      -9.944066      -270.5918
  10   2.0000      -9.940491      -270.4945
  11   2.0000      -9.921063      -269.9658
  12   2.0000      -0.987890       -26.8819
  13   2.0000      -0.961416       -26.1615
  14   2.0000      -0.936657       -25.4877
  15   2.0000      -0.927012       -25.2253
  16   2.0000      -0.920015       -25.0349
  17   2.0000      -0.908250       -24.7148
  18   2.0000      -0.710207       -19.3257
  19   2.0000      -0.696607       -18.9556
  20   2.0000      -0.623390       -16.9633
  21   2.0000      -0.584716       -15.9109
  22   2.0000      -0.573445       -15.6042
  23   2.0000      -0.529931       -14.4202
  24   2.0000      -0.522493       -14.2178
  25   2.0000      -0.484001       -13.1703
  26   2.0000      -0.472544       -12.8586
  27   2.0000      -0.463725       -12.6186
  28   2.0000      -0.453048       -12.3281
  29   2.0000      -0.423755       -11.5310
  30   2.0000      -0.414323       -11.2743
  31   2.0000      -0.404358       -11.0031
  32   2.0000      -0.391451       -10.6519
  33   2.0000      -0.378671       -10.3042
  34   2.0000      -0.370895       -10.0926
  35   2.0000      -0.351604        -9.5676
  36   2.0000      -0.335157        -9.1201
  37   2.0000      -0.319510        -8.6943
  38   2.0000      -0.308147        -8.3851
  39   2.0000      -0.298186        -8.1141
  40   2.0000      -0.284267        -7.7353
  41   2.0000      -0.272322        -7.4103
  42   2.0000      -0.259529        -7.0621
  43   2.0000      -0.250525        -6.8171
  44   2.0000      -0.236926        -6.4471
  45   2.0000      -0.230081        -6.2608
  46   2.0000      -0.213600        -5.8124
  47   2.0000      -0.201859        -5.4929
  48   0.0000       0.004932         0.1342
  49   0.0000       0.012771         0.3475
  50   0.0000       0.036311         0.9881
  51   0.0000       0.046512         1.2657
  52   0.0000       0.055078         1.4987

MULLIKEN ATOMIC CHARGES
-----------------------
   0 C :    0.083831
   1 C :    0.045189
   2 H :    0.074908
   3 C :    0.002920
   4 H :    0.056600
   5 C :    0.022650
   6 H :    0.071371
   7 C :    0.089424
   8 H :    0.054746
   9 C :    0.156943
  10 H :    0.079069
  11 O :   -0.326101
  12 O :   -0.396528
  13 O :   -0.411925
  14 O :   -0.420356
  15 O :   -0.411641
  16 O :   -0.436086
  17 H :    0.056375
  18 H :    0.095421
  19 H :    0.310047
  20 H :    0.307644
  21 H :    0.302528
  22 H :    0.299689
  23 H :    0.293282
Sum of atomic charges:   -0.0000000

LOEWDIN ATOMIC CHARGES
----------------------
   0 C :   -0.132840
   1 C :   -0.066339
   2 H :    0.120411
   3 C :   -0.083301
   4 H :    0.100541
   5 C :   -0.087650
   6 H :    0.124135
   7 C :   -0.079959
   8 H :    0.103330
   9 C :   -0.000369
  10 H :    0.108454
  11 O :   -0.149469
  12 O :   -0.309483
  13 O :   -0.315135
  14 O :   -0.309738
  15 O :   -0.319952
  16 O :   -0.340047
  17 H :    0.092510
  18 H :    0.121873
  19 H :    0.290552
  20 H :    0.289676
  21 H :    0.285942
  22 H :    0.279471
  23 H :    0.277388

  Mayer bond orders larger than 0.100000
B(  0-C ,  1-C ) :   1.0817 B(  0-C , 16-O ) :   1.0720 B(  0-C , 17-H ) :   0.8981
B(  0-C , 18-H ) :   0.9121 B(  1-C ,  2-H ) :   0.8736 B(  1-C ,  3-C ) :   0.9714
B(  1-C , 11-O ) :   0.9462 B(  3-C ,  4-H ) :   0.8720 B(  3-C ,  5-C ) :   1.0408
B(  3-C , 15-O ) :   1.0881 B(  5-C ,  6-H ) :   0.8430 B(  5-C ,  7-C ) :   1.0267
B(  5-C , 14-O ) :   1.0145 B(  7-C ,  8-H ) :   0.8761 B(  7-C ,  9-C ) :   0.9853
B(  7-C , 13-O ) :   1.0901 B(  9-C , 10-H ) :   0.8953 B(  9-C , 11-O ) :   1.0861
B(  9-C , 12-O ) :   1.0985 B( 12-O , 19-H ) :   0.8355 B( 13-O , 20-H ) :   0.8430
B( 14-O , 21-H ) :   0.8445 B( 15-O , 22-H ) :   0.8227 B( 16-O , 23-H ) :   0.8454

Dispersion correction           -0.024379738
FINAL SINGLE POINT ENERGY      -685.693410253401

DIPOLE MOMENT
-------------

Method             : SCF
Type of density    : Electron Density
Multiplicity       :   1
Irrep              :   0
Energy             :  -685.8238880507954036 Eh
Relativity type    :
Basis              : AO
                                X                 Y                 Z
Electronic contribution:      1.435207534       0.015786667       1.523861029
Nuclear contribution   :     -0.165241489       0.061068348      -2.166729913
                        -----------------------------------------
Total Dipole Moment    :      1.269966045       0.076855015      -0.642868883
                        -----------------------------------------
Magnitude (a.u.)       :      1.425482672
Magnitude (Debye)      :      3.623289005

Rotational constants in cm-1:             0.042427             0.025698             0.018683
Rotational constants in MHz :          1271.943237           770.402796           560.113866

                             ****ORCA TERMINATED NORMALLY****
TOTAL RUN TIME: 0 days 0 hours 0 minutes 12 seconds 167 msec
