                         Program Version 6.0.0  -   RELEASE  -
|  1> ! wb97x-v def2-tzvp def2/J RIJCOSX DEFGRID2 scfconv7 GCP(DFT/TZ) printgap
|  2> %output
|  3>     printlevel normal
|  4> end
|  5> * xyz 0 1
|  6> C -1.776850231104022 -0.014194129911921247 0.2035481311953339
|  7> C -0.9134930929824326 -1.2674108005359737 0.36427850118580707
|  8> C 0.2523335850174874 -1.2599503109934087 -0.6281520110407662
|  9> C 1.0940626463463572 0.006254827226832334 -0.527876033385591
| 10> C 0.23006809409172896 1.2625132373930512 -0.6312522337303322
| 11> C -0.9335123209543456 1.252599566486199 0.36261552801599456
| 12> O 1.7932130281330934 -0.04281234783222321 0.7432554596353568
| 13> H -2.5945929833974124 -0.020311074945514138 0.9333192412172637
| 14> H -2.2360371547392877 -0.018596666240514575 -0.7952312153345982
| 15> H -0.5273663252493728 -1.3127075190631106 1.390248593232411
| 16> H -1.5172775875627416 -2.1693173409529307 0.2125651709259307
| 17> H 0.8956652389507761 -2.1355663547831503 -0.48350859602669466
| 18> H -0.14182509551781664 -1.3141040697228843 -1.6508335028487326
| 19> H 1.8407211574610296 0.01143957221269968 -1.3356510759060343
| 20> H 0.8607483922705811 2.148924150312179 -0.48700491552700287
| 21> H -0.16393787695438386 1.3136651137931097 -1.655137451360282
| 22> H -0.5435676398036512 1.3012131149824149 1.387364015904747
| 23> H -1.5514635826289835 2.145600197713991 0.21553517516613258
| 24> H 2.288846195653866 0.7822930233013708 0.8261880599350648
| 25> *
| 26>
| 27>                          ****END OF INPUT****

CARTESIAN COORDINATES (ANGSTROEM)
---------------------------------
  C     -1.776850   -0.014194    0.203548
  C     -0.913493   -1.267411    0.364279
  C      0.252334   -1.259950   -0.628152
  C      1.094063    0.006255   -0.527876
  C      0.230068    1.262513   -0.631252
  C     -0.933512    1.252600    0.362616
  O      1.793213   -0.042812    0.743255
  H     -2.594593   -0.020311    0.933319
  H     -2.236037   -0.018597   -0.795231
  H     -0.527366   -1.312708    1.390249
  H     -1.517278   -2.169317    0.212565
  H      0.895665   -2.135566   -0.483509
  H     -0.141825   -1.314104   -1.650834
  H      1.840721    0.011440   -1.335651
  H      0.860748    2.148924   -0.487005
  H     -0.163938    1.313665   -1.655137
  H     -0.543568    1.301213    1.387364
  H     -1.551464    2.145600    0.215535
  H      2.288846    0.782293    0.826188

 Total Charge           Charge          ....    0
 Multiplicity           Mult            ....    1
 Number of Electrons    NEL             ....   56
 Basis Dimension        Dim             ....  289

ORBITAL ENERGIES
----------------

  NO   OCC          E(Eh)            E(eV)
   0   2.0000     -21.664665      -589.5255
   1   2.0000     -12.092103      -329.0428
   2   2.0000     -12.041828      -327.6748
   3   2.0000     -12.036774      -327.5373
   4   2.0000     -12.036154      -327.5204
   5   2.0000     -12.035353      -327.4986
   6   2.0000     -12.032446      -327.4195
   7   2.0000      -1.662205       -45.2309
   8   2.0000      -1.335682       -36.3458
   9   2.0000      -1.250860       -34.0376
  10   2.0000      -1.248040       -33.9609
  11   2.0000      -1.115321       -30.3494
  12   2.0000      -1.099173       -29.9100
  13   2.0000      -1.045927       -28.4611
  14   2.0000      -0.990660       -26.9572
  15   2.0000      -0.939660       -25.5694
  16   2.0000      -0.931179       -25.3387
  17   2.0000      -0.891097       -24.2480
  18   2.0000      -0.865245       -23.5445
  19   2.0000      -0.862120       -23.4595
  20   2.0000      -0.839193       -22.8356
  21   2.0000      -0.820609       -22.3299
  22   2.0000      -0.816849       -22.2276
  23   2.0000      -0.807845       -21.9826
  24   2.0000      -0.772522       -21.0214
  25   2.0000      -0.749653       -20.3991
  26   2.0000      -0.746686       -20.3184
  27   2.0000      -0.741163       -20.1681
  28   0.0000      -0.142197        -3.8694
  29   0.0000      -0.052992        -1.4420
  30   0.0000      -0.027268        -0.7420
  31   0.0000      -0.023817        -0.6481
  32   0.0000      -0.016432        -0.4471

MULLIKEN ATOMIC CHARGES
-----------------------
   0 C :   -0.191246
   1 C :   -0.181889
   2 C :   -0.191815
   3 C :    0.100382
   4 C :   -0.265113
   5 C :   -0.143019
   6 O :   -0.451168
   7 H :    0.099275
   8 H :    0.083890
   9 H :    0.102651
  10 H :    0.097234
  11 H :    0.103014
  12 H :    0.090254
  13 H :    0.075409
  14 H :    0.101162
  15 H :    0.091990
  16 H :    0.086764
  17 H :    0.099233
  18 H :    0.292993
Sum of atomic charges:   -0.0000000

LOEWDIN ATOMIC CHARGES
----------------------
   0 C :   -0.259823
   1 C :   -0.256513
   2 C :   -0.238805
   3 C :   -0.332994
   4 C :   -0.250184
   5 C :   -0.258946
   6 O :   -0.038143
   7 H :    0.130561
   8 H :    0.131591
   9 H :    0.138317
  10 H :    0.130166
  11 H :    0.137601
  12 H :    0.138373
  13 H :    0.129372
  14 H :    0.129464
  15 H :    0.139364
  16 H :    0.135378
  17 H :    0.130011
  18 H :    0.165210

  Mayer bond orders larger than 0.100000
B(  0-C ,  1-C ) :   0.9894 B(  0-C ,  5-C ) :   0.9923 B(  0-C ,  7-H ) :   0.9744
B(  0-C ,  8-H ) :   0.9767 B(  1-C ,  2-C ) :   1.0056 B(  1-C ,  9-H ) :   0.9688
B(  1-C , 10-H ) :   0.9756 B(  2-C ,  3-C ) :   0.9754 B(  2-C , 11-H ) :   0.9644
B(  2-C , 12-H ) :   0.9716 B(  3-C ,  4-C ) :   1.0024 B(  3-C ,  6-O ) :   1.0466
B(  3-C , 13-H ) :   0.9796 B(  4-C ,  5-C ) :   0.9834 B(  4-C , 14-H ) :   0.9771
B(  4-C , 15-H ) :   0.9705 B(  5-C , 16-H ) :   0.9657 B(  5-C , 17-H ) :   0.9765
B(  6-O , 18-H ) :   0.9061

FINAL SINGLE POINT ENERGY      -311.114720121775

DIPOLE MOMENT
-------------

Method             : SCF
Type of density    : Electron Density
Multiplicity       :   1
Irrep              :   0
Energy             :  -311.1281236435753499 Eh
Relativity type    :
Basis              : AO
                                X                 Y                 Z
Electronic contribution:      3.186556449      -0.246712769       0.974267726
Nuclear contribution   :     -3.230646049       0.707886787      -1.358447607
                        -----------------------------------------
Total Dipole Moment    :     -0.044089600       0.461174019      -0.384179881
                        -----------------------------------------
Magnitude (a.u.)       :      0.601846782
Magnitude (Debye)      :      1.529772948

Rotational constants in cm-1:             0.119012             0.087604             0.065877
Rotational constants in MHz :          3567.876741          2626.292180          1974.939247

                             ****ORCA TERMINATED NORMALLY****
TOTAL RUN TIME: 0 days 0 hours 2 minutes 33 seconds 325 msec
