                         Program Version 6.0.0  -   RELEASE  -
|  1> ! wb97x-v def2-tzvp def2/J RIJCOSX DEFGRID2 scfconv7 GCP(DFT/TZ) printgap
|  2> %output
|  3>     printlevel normal
|  4> end
|  5> %cpcm
|  6>     smd true
|  7>     smdsolvent "water"
|  8> end
|  9> * xyz 0 1
| 10> C -1.776850231104022 -0.014194129911921247 0.2035481311953339
| 11> C -0.9134930929824326 -1.2674108005359737 0.36427850118580707
| 12> C 0.2523335850174874 -1.2599503109934087 -0.6281520110407662
| 13> C 1.0940626463463572 0.006254827226832334 -0.527876033385591
| 14> C 0.23006809409172896 1.2625132373930512 -0.6312522337303322
| 15> C -0.9335123209543456 1.252599566486199 0.36261552801599456
| 16> O 1.7932130281330934 -0.04281234783222321 0.7432554596353568
| 17> H -2.5945929833974124 -0.020311074945514138 0.9333192412172637
| 18> H -2.2360371547392877 -0.018596666240514575 -0.7952312153345982
| 19> H -0.5273663252493728 -1.3127075190631106 1.390248593232411
| 20> H -1.5172775875627416 -2.1693173409529307 0.2125651709259307
| 21> H 0.8956652389507761 -2.1355663547831503 -0.48350859602669466
| 22> H -0.14182509551781664 -1.3141040697228843 -1.6508335028487326
| 23> H 1.8407211574610296 0.01143957221269968 -1.3356510759060343
| 24> H 0.8607483922705811 2.148924150312179 -0.48700491552700287
| 25> H -0.16393787695438386 1.3136651137931097 -1.655137451360282
| 26> H -0.5435676398036512 1.3012131149824149 1.387364015904747
| 27> H -1.5514635826289835 2.145600197713991 0.21553517516613258
| 28> H 2.288846195653866 0.7822930233013708 0.8261880599350648
| 29> *
| 30>
| 31>                          ****END OF INPUT****

CARTESIAN COORDINATES (ANGSTROEM)
---------------------------------
  C     -1.776850   -0.014194    0.203548
  C     -0.913493   -1.267411    0.364279
  C      0.252334   -1.259950   -0.628152
  C      1.094063    0.006255   -0.527876
  C      0.230068    1.262513   -0.631252
  C     -0.933512    1.252600    0.362616
  O      1.793213   -0.042812    0.743255
  H     -2.594593   -0.020311    0.933319
  H     -2.236037   -0.018597   -0.795231
  H     -0.527366   -1.312708    1.390249
  H     -1.517278   -2.169317    0.212565
  H      0.895665   -2.135566   -0.483509
  H     -0.141825   -1.314104   -1.650834
  H      1.840721    0.011440   -1.335651
  H      0.860748    2.148924   -0.487005
  H     -0.163938    1.313665   -1.655137
  H     -0.543568    1.301213    1.387364
  H     -1.551464    2.145600    0.215535
  H      2.288846    0.782293    0.826188

 Total Charge           Charge          ....    0
 Multiplicity           Mult            ....    1
 Number of Electrons    NEL             ....   56
 Basis Dimension        Dim             ....  289

ORBITAL ENERGIES
----------------

  NO   OCC          E(Eh)            E(eV)
   0   2.0000     -21.667665      -589.6071
   1   2.0000     -12.086467      -328.8895
   2   2.0000     -12.030702      -327.3720
   3   2.0000     -12.030362      -327.3628
   4   2.0000     -12.029360      -327.3355
   5   2.0000     -12.028758      -327.3192
   6   2.0000     -12.027721      -327.2909
   7   2.0000      -1.665612       -45.3236
   8   2.0000      -1.329504       -36.1777
   9   2.0000      -1.245427       -33.8898
  10   2.0000      -1.241193       -33.7746
  11   2.0000      -1.111801       -30.2537
  12   2.0000      -1.092950       -29.7407
  13   2.0000      -1.043642       -28.3989
  14   2.0000      -0.991222       -26.9725
  15   2.0000      -0.939210       -25.5572
  16   2.0000      -0.930112       -25.3096
  17   2.0000      -0.887200       -24.1419
  18   2.0000      -0.860835       -23.4245
  19   2.0000      -0.856079       -23.2951
  20   2.0000      -0.833195       -22.6724
  21   2.0000      -0.813895       -22.1472
  22   2.0000      -0.810095       -22.0438
  23   2.0000      -0.802449       -21.8358
  24   2.0000      -0.765699       -20.8357
  25   2.0000      -0.742629       -20.2080
  26   2.0000      -0.740466       -20.1491
  27   2.0000      -0.735297       -20.0084
  28   0.0000      -0.137958        -3.7540
  29   0.0000      -0.034219        -0.9311
  30   0.0000      -0.020371        -0.5543
  31   0.0000      -0.016353        -0.4450
  32   0.0000      -0.003451        -0.0939

MULLIKEN ATOMIC CHARGES
-----------------------
   0 C :   -0.199421
   1 C :   -0.216523
   2 C :   -0.211782
   3 C :    0.113039
   4 C :   -0.262410
   5 C :   -0.198457
   6 O :   -0.566172
   7 H :    0.111251
   8 H :    0.097910
   9 H :    0.099501
  10 H :    0.113948
  11 H :    0.113079
  12 H :    0.110960
  13 H :    0.099174
  14 H :    0.123970
  15 H :    0.108770
  16 H :    0.094301
  17 H :    0.114373
  18 H :    0.354489
Sum of atomic charges:   -0.0000000

LOEWDIN ATOMIC CHARGES
----------------------
   0 C :   -0.262198
   1 C :   -0.262515
   2 C :   -0.243846
   3 C :   -0.328742
   4 C :   -0.246570
   5 C :   -0.263139
   6 O :   -0.078951
   7 H :    0.131918
   8 H :    0.135462
   9 H :    0.133321
  10 H :    0.133272
  11 H :    0.136203
  12 H :    0.144935
  13 H :    0.136139
  14 H :    0.137027
  15 H :    0.144415
  16 H :    0.133273
  17 H :    0.133204
  18 H :    0.186790

  Mayer bond orders larger than 0.100000
B(  0-C ,  1-C ) :   0.9843 B(  0-C ,  5-C ) :   0.9879 B(  0-C ,  7-H ) :   0.9728
B(  0-C ,  8-H ) :   0.9733 B(  1-C ,  2-C ) :   0.9919 B(  1-C ,  9-H ) :   0.9756
B(  1-C , 10-H ) :   0.9740 B(  2-C ,  3-C ) :   0.9739 B(  2-C , 11-H ) :   0.9685
B(  2-C , 12-H ) :   0.9674 B(  3-C ,  4-C ) :   1.0096 B(  3-C ,  6-O ) :   0.9897
B(  3-C , 13-H ) :   0.9815 B(  4-C ,  5-C ) :   0.9814 B(  4-C , 14-H ) :   0.9717
B(  4-C , 15-H ) :   0.9666 B(  5-C , 16-H ) :   0.9738 B(  5-C , 17-H ) :   0.9738
B(  6-O , 18-H ) :   0.8711

FINAL SINGLE POINT ENERGY      -311.122199223762

DIPOLE MOMENT
-------------

Method             : SCF
Type of density    : Electron Density
Multiplicity       :   1
Irrep              :   0
Energy             :  -311.1356027455619824 Eh
Relativity type    :
Basis              : AO
                                X                 Y                 Z
Electronic contribution:      3.160039741      -0.022914757       0.713264930
Nuclear contribution   :     -3.230646049       0.707886787      -1.358447607
                        -----------------------------------------
Total Dipole Moment    :     -0.070606308       0.684972030      -0.645182677
                        -----------------------------------------
Magnitude (a.u.)       :      0.943627373
Magnitude (Debye)      :      2.398510171

Rotational constants in cm-1:             0.119012             0.087604             0.065877
Rotational constants in MHz :          3567.876741          2626.292180          1974.939247

                             ****ORCA TERMINATED NORMALLY****
TOTAL RUN TIME: 0 days 0 hours 2 minutes 54 seconds 305 msec
