                         Program Version 6.0.0  -   RELEASE  -
|  1> ! pbe def2-sv(p) def2/J RI DEFGRID1 loosescf d4 GCP(DFT/SV(P)) printgap
|  2> %output
|  3>     printlevel normal
|  4> end
|  5> * xyz 0 1
|  6> C -2.4275866967 -1.0942833453 -0.3267614454
|  7> C -1.0776517045 -0.597477068 0.2102263511
|  8> H -1.1259767937 -0.5704138573 1.3098850182
|  9> C -0.7421345154 0.8113596531 -0.3022252678
| 10> H -0.7293251079 0.7841550151 -1.4057770602
| 11> C 0.6533504668 1.2333506714 0.1955499236
| 12> H 0.6386760904 1.3085493381 1.2893158742
| 13> C 1.6763121684 0.1718768175 -0.2134148315
| 14> H 1.7394233321 0.13592527 -1.3148826869
| 15> C 1.1959557537 -1.2109152369 0.288054652
| 16> H 1.1930070176 -1.1971795764 1.3920657873
| 17> O -0.083499043 -1.5111078634 -0.2099019607
| 18> O 2.0666361943 -2.2118957193 -0.1037543941
| 19> O 2.9280295484 0.4877858305 0.3355417337
| 20> O 0.9603806801 2.5267695189 -0.2596395713
| 21> O -1.7264518466 1.7099299791 0.1398112734
| 22> O -3.5143440431 -0.4927804505 0.3207558599
| 23> H -2.5025446323 -2.1672890003 -0.1383810186
| 24> H -2.4691932796 -0.9236648028 -1.4107714594
| 25> H 1.7867701828 -2.5555803366 -0.9670955277
| 26> H 3.5075237504 -0.286902307 0.2627406804
| 27> H 1.3112526683 2.4924257675 -1.1612142199
| 28> H -1.3643419814 2.6096619054 0.089996735
| 29> H -3.396772148 0.4712090709 0.2876810537
| 30> *
| 31>
| 32>                          ****END OF INPUT****

CARTESIAN COORDINATES (ANGSTROEM)
---------------------------------
  C     -2.427587   -1.094283   -0.326761
  C     -1.077652   -0.597477    0.210226
  H     -1.125977   -0.570414    1.309885
  C     -0.742135    0.811360   -0.302225
  H     -0.729325    0.784155   -1.405777
  C      0.653350    1.233351    0.195550
  H      0.638676    1.308549    1.289316
  C      1.676312    0.171877   -0.213415
  H      1.739423    0.135925   -1.314883
  C      1.195956   -1.210915    0.288055
  H      1.193007   -1.197180    1.392066
  O     -0.083499   -1.511108   -0.209902
  O      2.066636   -2.211896   -0.103754
  O      2.928030    0.487786    0.335542
  O      0.960381    2.526770   -0.259640
  O     -1.726452    1.709930    0.139811
  O     -3.514344   -0.492780    0.320756
  H     -2.502545   -2.167289   -0.138381
  H     -2.469193   -0.923665   -1.410771
  H      1.786770   -2.555580   -0.967096
  H      3.507524   -0.286902    0.262741
  H      1.311253    2.492426   -1.161214
  H     -1.364342    2.609662    0.089997
  H     -3.396772    0.471209    0.287681

 Total Charge           Charge          ....    0
 Multiplicity           Mult            ....    1
 Number of Electrons    NEL             ....   96
 Basis Dimension        Dim             ....  192

ORBITAL ENERGIES
----------------

  NO   OCC          E(Eh)            E(eV)
   0   2.0000     -18.786934      -511.2185
   1   2.0000     -18.776345      -510.9303
   2   2.0000     -18.771485      -510.7981
   3   2.0000     -18.768915      -510.7281
   4   2.0000     -18.758890      -510.4553
   5   2.0000     -18.735360      -509.8151
   6   2.0000      -9.998747      -272.0797
   7   2.0000      -9.953876      -270.8587
   8   2.0000      -9.952489      -270.8210
   9   2.0000      -9.952076      -270.8097
  10   2.0000      -9.950573      -270.7688
  11   2.0000      -9.929310      -270.1903
  12   2.0000      -0.999472       -27.1970
  13   2.0000      -0.960393       -26.1336
  14   2.0000      -0.944808       -25.7095
  15   2.0000      -0.931275       -25.3413
  16   2.0000      -0.926421       -25.2092
  17   2.0000      -0.911576       -24.8052
  18   2.0000      -0.713807       -19.4237
  19   2.0000      -0.697552       -18.9814
  20   2.0000      -0.616066       -16.7640
  21   2.0000      -0.598171       -16.2771
  22   2.0000      -0.571422       -15.5492
  23   2.0000      -0.549761       -14.9598
  24   2.0000      -0.509501       -13.8642
  25   2.0000      -0.502124       -13.6635
  26   2.0000      -0.478051       -13.0084
  27   2.0000      -0.460860       -12.5406
  28   2.0000      -0.454837       -12.3768
  29   2.0000      -0.440856       -11.9963
  30   2.0000      -0.432388       -11.7659
  31   2.0000      -0.414687       -11.2842
  32   2.0000      -0.398946       -10.8559
  33   2.0000      -0.369807       -10.0630
  34   2.0000      -0.364035        -9.9059
  35   2.0000      -0.351523        -9.5654
  36   2.0000      -0.335236        -9.1222
  37   2.0000      -0.332567        -9.0496
  38   2.0000      -0.319213        -8.6862
  39   2.0000      -0.312624        -8.5069
  40   2.0000      -0.292239        -7.9522
  41   2.0000      -0.271282        -7.3820
  42   2.0000      -0.263806        -7.1785
  43   2.0000      -0.251213        -6.8359
  44   2.0000      -0.242329        -6.5941
  45   2.0000      -0.226414        -6.1610
  46   2.0000      -0.219213        -5.9651
  47   2.0000      -0.207556        -5.6479
  48   0.0000       0.003348         0.0911
  49   0.0000       0.018336         0.4990
  50   0.0000       0.032797         0.8924
  51   0.0000       0.046560         1.2670
  52   0.0000       0.052284         1.4227

MULLIKEN ATOMIC CHARGES
-----------------------
   0 C :    0.115079
   1 C :   -0.027039
   2 H :    0.068463
   3 C :    0.063721
   4 H :    0.038748
   5 C :    0.070151
   6 H :    0.072214
   7 C :    0.040902
   8 H :    0.024454
   9 C :    0.167237
  10 H :    0.061443
  11 O :   -0.306894
  12 O :   -0.389097
  13 O :   -0.403235
  14 O :   -0.410284
  15 O :   -0.429206
  16 O :   -0.447008
  17 H :    0.091090
  18 H :    0.060412
  19 H :    0.309631
  20 H :    0.305205
  21 H :    0.306352
  22 H :    0.314093
  23 H :    0.303567
Sum of atomic charges:    0.0000000

LOEWDIN ATOMIC CHARGES
----------------------
   0 C :   -0.116818
   1 C :   -0.068275
   2 H :    0.110397
   3 C :   -0.078665
   4 H :    0.095030
   5 C :   -0.078523
   6 H :    0.122439
   7 C :   -0.098654
   8 H :    0.090748
   9 C :   -0.001151
  10 H :    0.100572
  11 O :   -0.146412
  12 O :   -0.296537
  13 O :   -0.316426
  14 O :   -0.306738
  15 O :   -0.316217
  16 O :   -0.339446
  17 H :    0.116066
  18 H :    0.095447
  19 H :    0.292842
  20 H :    0.286120
  21 H :    0.289926
  22 H :    0.289374
  23 H :    0.274900

  Mayer bond orders larger than 0.100000
B(  0-C ,  1-C ) :   1.0325 B(  0-C , 16-O ) :   1.0934 B(  0-C , 17-H ) :   0.9203
B(  0-C , 18-H ) :   0.9047 B(  1-C ,  2-H ) :   0.8787 B(  1-C ,  3-C ) :   1.0125
B(  1-C , 11-O ) :   0.9737 B(  3-C ,  4-H ) :   0.8618 B(  3-C ,  5-C ) :   0.9962
B(  3-C , 15-O ) :   1.0488 B(  5-C ,  6-H ) :   0.8698 B(  5-C ,  7-C ) :   1.0097
B(  5-C , 14-O ) :   1.0494 B(  7-C ,  8-H ) :   0.8511 B(  7-C ,  9-C ) :   0.9793
B(  7-C , 13-O ) :   1.1042 B(  9-C , 10-H ) :   0.8806 B(  9-C , 11-O ) :   1.0237
B(  9-C , 12-O ) :   1.1180 B( 12-O , 19-H ) :   0.8378 B( 13-O , 20-H ) :   0.8324
B( 14-O , 21-H ) :   0.8451 B( 15-O , 22-H ) :   0.8187 B( 16-O , 23-H ) :   0.8212

Dispersion correction           -0.023861067
FINAL SINGLE POINT ENERGY      -685.701004556586

DIPOLE MOMENT
-------------

Method             : SCF
Type of density    : Electron Density
Multiplicity       :   1
Irrep              :   0
Energy             :  -685.8322986926323210 Eh
Relativity type    :
Basis              : AO
                                X                 Y                 Z
Electronic contribution:      2.076179793       0.063394087       0.600638309
Nuclear contribution   :     -1.314883705       0.102194220      -1.653917383
                        -----------------------------------------
Total Dipole Moment    :      0.761296089       0.165588307      -1.053279074
                        -----------------------------------------
Magnitude (a.u.)       :      1.310109931
Magnitude (Debye)      :      3.330034801

Rotational constants in cm-1:             0.043426             0.024528             0.016413
Rotational constants in MHz :          1301.892375           735.317247           492.055722

                             ****ORCA TERMINATED NORMALLY****
TOTAL RUN TIME: 0 days 0 hours 0 minutes 11 seconds 992 msec
