                         Program Version 6.0.0  -   RELEASE  -
|  1> ! pbe def2-sv(p) def2/J RI DEFGRID1 loosescf d4 GCP(DFT/SV(P)) printgap
|  2> %output
|  3>     printlevel normal
|  4> end
|  5> * xyz 0 1
|  6> C -1.6363227368 -1.3146217191 -0.649457536
|  7> C -1.1482916566 -0.5056190487 0.5617341428
|  8> H -1.9404698154 -0.5383085502 1.3178927519
|  9> C -0.8806771343 0.9714206166 0.2040402101
| 10> H -1.2905138134 1.1766660036 -0.7901800257
| 11> C 0.6290831256 1.2834807877 0.1857407193
| 12> H 0.9825368734 1.4449372545 1.217161355
| 13> C 1.4281303115 0.1128490378 -0.3910239888
| 14> H 1.1038521074 -0.0553063317 -1.4249868176
| 15> C 1.1589822901 -1.1595245124 0.4424356831
| 16> H 1.9515989733 -1.2389105519 1.2024395202
| 17> O -0.0273509187 -1.1048026597 1.1961871369
| 18> O 1.1854160271 -2.2516087327 -0.4241638497
| 19> O 2.7926375361 0.4415568425 -0.3420701895
| 20> O 0.890239916 2.4200734805 -0.5979444386
| 21> O -1.5518345538 1.8657617587 1.0587296725
| 22> O -2.8556762713 -0.7560612563 -1.0774638717
| 23> H -1.7696949958 -2.3558773766 -0.3311992163
| 24> H -0.886319444 -1.2821947448 -1.4484918754
| 25> H 1.1744835497 -3.0807072978 0.0782679471
| 26> H 3.2884191417 -0.1194287023 -0.9548732992
| 27> H 0.3493391233 3.1535819736 -0.2685403568
| 28> H -1.2941020386 1.6974329219 1.9771287584
| 29> H -3.1976126931 -1.2698196676 -1.8227805826
| 30> *
| 31>
| 32>                          ****END OF INPUT****

CARTESIAN COORDINATES (ANGSTROEM)
---------------------------------
  C     -1.636323   -1.314622   -0.649458
  C     -1.148292   -0.505619    0.561734
  H     -1.940470   -0.538309    1.317893
  C     -0.880677    0.971421    0.204040
  H     -1.290514    1.176666   -0.790180
  C      0.629083    1.283481    0.185741
  H      0.982537    1.444937    1.217161
  C      1.428130    0.112849   -0.391024
  H      1.103852   -0.055306   -1.424987
  C      1.158982   -1.159525    0.442436
  H      1.951599   -1.238911    1.202440
  O     -0.027351   -1.104803    1.196187
  O      1.185416   -2.251609   -0.424164
  O      2.792638    0.441557   -0.342070
  O      0.890240    2.420073   -0.597944
  O     -1.551835    1.865762    1.058730
  O     -2.855676   -0.756061   -1.077464
  H     -1.769695   -2.355877   -0.331199
  H     -0.886319   -1.282195   -1.448492
  H      1.174484   -3.080707    0.078268
  H      3.288419   -0.119429   -0.954873
  H      0.349339    3.153582   -0.268540
  H     -1.294102    1.697433    1.977129
  H     -3.197613   -1.269820   -1.822781

 Total Charge           Charge          ....    0
 Multiplicity           Mult            ....    1
 Number of Electrons    NEL             ....   96
 Basis Dimension        Dim             ....  192

ORBITAL ENERGIES
----------------

  NO   OCC          E(Eh)            E(eV)
   0   2.0000     -18.768550      -510.7182
   1   2.0000     -18.767238      -510.6825
   2   2.0000     -18.752032      -510.2687
   3   2.0000     -18.749381      -510.1966
   4   2.0000     -18.747742      -510.1520
   5   2.0000     -18.739131      -509.9177
   6   2.0000      -9.983063      -271.6529
   7   2.0000      -9.940817      -270.5034
   8   2.0000      -9.940772      -270.5021
   9   2.0000      -9.936631      -270.3895
  10   2.0000      -9.933636      -270.3080
  11   2.0000      -9.931260      -270.2433
  12   2.0000      -0.980755       -26.6877
  13   2.0000      -0.937060       -25.4987
  14   2.0000      -0.930216       -25.3125
  15   2.0000      -0.924783       -25.1646
  16   2.0000      -0.913539       -24.8587
  17   2.0000      -0.907637       -24.6981
  18   2.0000      -0.698426       -19.0051
  19   2.0000      -0.689747       -18.7690
  20   2.0000      -0.617382       -16.7998
  21   2.0000      -0.585996       -15.9458
  22   2.0000      -0.560174       -15.2431
  23   2.0000      -0.511451       -13.9173
  24   2.0000      -0.505945       -13.7675
  25   2.0000      -0.485978       -13.2241
  26   2.0000      -0.477032       -12.9807
  27   2.0000      -0.455636       -12.3985
  28   2.0000      -0.442792       -12.0490
  29   2.0000      -0.420673       -11.4471
  30   2.0000      -0.412194       -11.2164
  31   2.0000      -0.404346       -11.0028
  32   2.0000      -0.385457       -10.4888
  33   2.0000      -0.371405       -10.1064
  34   2.0000      -0.361064        -9.8250
  35   2.0000      -0.339256        -9.2316
  36   2.0000      -0.328235        -8.9317
  37   2.0000      -0.307427        -8.3655
  38   2.0000      -0.293400        -7.9838
  39   2.0000      -0.288892        -7.8612
  40   2.0000      -0.277379        -7.5479
  41   2.0000      -0.264442        -7.1958
  42   2.0000      -0.255742        -6.9591
  43   2.0000      -0.240647        -6.5484
  44   2.0000      -0.226108        -6.1527
  45   2.0000      -0.220108        -5.9894
  46   2.0000      -0.215047        -5.8517
  47   2.0000      -0.196772        -5.3544
  48   0.0000       0.019480         0.5301
  49   0.0000       0.022464         0.6113
  50   0.0000       0.032771         0.8917
  51   0.0000       0.035062         0.9541
  52   0.0000       0.055598         1.5129

MULLIKEN ATOMIC CHARGES
-----------------------
   0 C :    0.001414
   1 C :    0.026945
   2 H :    0.070425
   3 C :    0.058056
   4 H :    0.080779
   5 C :    0.088026
   6 H :    0.042037
   7 C :   -0.002728
   8 H :    0.073442
   9 C :    0.194130
  10 H :    0.062828
  11 O :   -0.306566
  12 O :   -0.396610
  13 O :   -0.400238
  14 O :   -0.407950
  15 O :   -0.423457
  16 O :   -0.428834
  17 H :    0.067152
  18 H :    0.091672
  19 H :    0.302401
  20 H :    0.303649
  21 H :    0.300331
  22 H :    0.297698
  23 H :    0.305399
Sum of atomic charges:    0.0000000

LOEWDIN ATOMIC CHARGES
----------------------
   0 C :   -0.143038
   1 C :   -0.067091
   2 H :    0.118515
   3 C :   -0.078636
   4 H :    0.122750
   5 C :   -0.066715
   6 H :    0.100794
   7 C :   -0.077871
   8 H :    0.110784
   9 C :   -0.013640
  10 H :    0.100390
  11 O :   -0.147769
  12 O :   -0.310059
  13 O :   -0.309129
  14 O :   -0.316407
  15 O :   -0.313597
  16 O :   -0.338287
  17 H :    0.096749
  18 H :    0.098578
  19 H :    0.285558
  20 H :    0.290783
  21 H :    0.285480
  22 H :    0.282265
  23 H :    0.289595

  Mayer bond orders larger than 0.100000
B(  0-C ,  1-C ) :   1.0519 B(  0-C , 16-O ) :   1.0722 B(  0-C , 17-H ) :   0.9073
B(  0-C , 18-H ) :   0.9046 B(  1-C ,  2-H ) :   0.8855 B(  1-C ,  3-C ) :   0.9809
B(  1-C , 11-O ) :   1.0357 B(  3-C ,  4-H ) :   0.8699 B(  3-C ,  5-C ) :   1.0104
B(  3-C , 15-O ) :   1.0184 B(  5-C ,  6-H ) :   0.8630 B(  5-C ,  7-C ) :   1.0037
B(  5-C , 14-O ) :   1.0953 B(  7-C ,  8-H ) :   0.8823 B(  7-C ,  9-C ) :   0.9762
B(  7-C , 13-O ) :   1.0969 B(  9-C , 10-H ) :   0.8873 B(  9-C , 11-O ) :   1.0568
B(  9-C , 12-O ) :   1.1194 B( 12-O , 19-H ) :   0.8406 B( 13-O , 20-H ) :   0.8484
B( 14-O , 21-H ) :   0.8413 B( 15-O , 22-H ) :   0.8508 B( 16-O , 23-H ) :   0.8494

Dispersion correction           -0.024496773
FINAL SINGLE POINT ENERGY      -685.686184490876

DIPOLE MOMENT
-------------

Method             : SCF
Type of density    : Electron Density
Multiplicity       :   1
Irrep              :   0
Energy             :  -685.8149811848862782 Eh
Relativity type    :
Basis              : AO
                                X                 Y                 Z
Electronic contribution:      1.441036709       1.092369687       1.167004365
Nuclear contribution   :     -1.427556035      -2.306233217      -1.173754386
                        -----------------------------------------
Total Dipole Moment    :      0.013480674      -1.213863529      -0.006750021
                        -----------------------------------------
Magnitude (a.u.)       :      1.213957149
Magnitude (Debye)      :      3.085633853

Rotational constants in cm-1:             0.036035             0.029313             0.019971
Rotational constants in MHz :          1080.290918           878.780913           598.707596

                             ****ORCA TERMINATED NORMALLY****
TOTAL RUN TIME: 0 days 0 hours 0 minutes 11 seconds 982 msec
