                         Program Version 6.0.0  -   RELEASE  -
|  1> ! wb97x-v def2-tzvp def2/J RIJCOSX DEFGRID2 scfconv7 GCP(DFT/TZ) printgap
|  2> %output
|  3>     printlevel normal
|  4> end
|  5> * xyz 0 1
|  6> C -2.57687866255138 -0.8640608848564489 0.3447477688433951
|  7> C -1.1472193794170256 -0.421993260884071 0.5931493720880424
|  8> H -0.9912753841099414 -0.36326630592762027 1.6835412886550092
|  9> C -0.7994414393610413 0.9250532123325462 -0.037852455499163974
| 10> H -0.9815724123727233 0.8690806988944763 -1.12258001408873
| 11> C 0.6735469866502275 1.2520680812336644 0.19725265924319704
| 12> H 0.8389169559533449 1.391436307682311 1.2736560636561156
| 13> C 1.555197225642402 0.1127111475513774 -0.29482171477658026
| 14> H 1.461338832426412 0.01633418780542167 -1.3886118225178818
| 15> C 1.0910497701775577 -1.197078085882209 0.3398346820398983
| 16> H 1.2139054433371874 -1.1589617664041842 1.4350718678386551
| 17> O -0.28783364857172183 -1.4285761570298487 0.02867690430292427
| 18> O 1.8392868412105499 -2.2447376258144476 -0.21836629036807953
| 19> O 2.902639033564057 0.40600468386166255 0.07567218873484387
| 20> O 1.018833293735514 2.5043762048378126 -0.4062177491625629
| 21> O -1.639585022178376 1.9166742618010917 0.5581549550366464
| 22> O -2.9195823031300967 -0.9091660648799297 -1.0451076103046628
| 23> H -3.259114346659289 -0.151594141032498 0.8151575199531984
| 24> H -2.727065297286639 -1.8459711256313727 0.8139297447361162
| 25> H 1.8030738719898907 -2.999234122567219 0.38488747318118793
| 26> H 3.4650859579439564 -0.2753068411063359 -0.3169406808277235
| 27> H 0.9232079229819927 2.4044994611228137 -1.3652292774931445
| 28> H -1.3265629828585939 2.7758531396889676 0.24132681709716736
| 29> H -2.3587448013632346 -1.5782884716283028 -1.4594796319267425
| 30> *
| 31>
| 32>                          ****END OF INPUT****

CARTESIAN COORDINATES (ANGSTROEM)
---------------------------------
  C     -2.576879   -0.864061    0.344748
  C     -1.147219   -0.421993    0.593149
  H     -0.991275   -0.363266    1.683541
  C     -0.799441    0.925053   -0.037852
  H     -0.981572    0.869081   -1.122580
  C      0.673547    1.252068    0.197253
  H      0.838917    1.391436    1.273656
  C      1.555197    0.112711   -0.294822
  H      1.461339    0.016334   -1.388612
  C      1.091050   -1.197078    0.339835
  H      1.213905   -1.158962    1.435072
  O     -0.287834   -1.428576    0.028677
  O      1.839287   -2.244738   -0.218366
  O      2.902639    0.406005    0.075672
  O      1.018833    2.504376   -0.406218
  O     -1.639585    1.916674    0.558155
  O     -2.919582   -0.909166   -1.045108
  H     -3.259114   -0.151594    0.815158
  H     -2.727065   -1.845971    0.813930
  H      1.803074   -2.999234    0.384887
  H      3.465086   -0.275307   -0.316941
  H      0.923208    2.404499   -1.365229
  H     -1.326563    2.775853    0.241327
  H     -2.358745   -1.578288   -1.459480

 Total Charge           Charge          ....    0
 Multiplicity           Mult            ....    1
 Number of Electrons    NEL             ....   96
 Basis Dimension        Dim             ....  444

ORBITAL ENERGIES
----------------

  NO   OCC          E(Eh)            E(eV)
   0   2.0000     -21.705826      -590.6456
   1   2.0000     -21.697151      -590.4095
   2   2.0000     -21.688175      -590.1652
   3   2.0000     -21.683631      -590.0416
   4   2.0000     -21.679329      -589.9245
   5   2.0000     -21.673251      -589.7591
   6   2.0000     -12.166485      -331.0669
   7   2.0000     -12.114192      -329.6439
   8   2.0000     -12.113436      -329.6233
   9   2.0000     -12.110840      -329.5527
  10   2.0000     -12.107288      -329.4561
  11   2.0000     -12.096548      -329.1638
  12   2.0000      -1.733228       -47.1635
  13   2.0000      -1.694158       -46.1004
  14   2.0000      -1.691366       -46.0244
  15   2.0000      -1.684681       -45.8425
  16   2.0000      -1.679235       -45.6943
  17   2.0000      -1.672659       -45.5154
  18   2.0000      -1.339604       -36.4525
  19   2.0000      -1.328275       -36.1442
  20   2.0000      -1.238334       -33.6968
  21   2.0000      -1.205297       -32.7978
  22   2.0000      -1.170230       -31.8436
  23   2.0000      -1.128284       -30.7022
  24   2.0000      -1.096583       -29.8395
  25   2.0000      -1.082617       -29.4595
  26   2.0000      -1.048613       -28.5342
  27   2.0000      -1.043507       -28.3953
  28   2.0000      -1.030240       -28.0342
  29   2.0000      -1.018082       -27.7034
  30   2.0000      -1.003365       -27.3030
  31   2.0000      -0.992858       -27.0170
  32   2.0000      -0.982255       -26.7285
  33   2.0000      -0.964724       -26.2515
  34   2.0000      -0.959345       -26.1051
  35   2.0000      -0.948843       -25.8193
  36   2.0000      -0.943066       -25.6621
  37   2.0000      -0.935810       -25.4647
  38   2.0000      -0.930771       -25.3276
  39   2.0000      -0.914553       -24.8862
  40   2.0000      -0.899649       -24.4807
  41   2.0000      -0.887535       -24.1510
  42   2.0000      -0.844007       -22.9666
  43   2.0000      -0.838863       -22.8266
  44   2.0000      -0.826987       -22.5035
  45   2.0000      -0.806550       -21.9473
  46   2.0000      -0.801279       -21.8039
  47   2.0000      -0.778827       -21.1930
  48   0.0000      -0.241668        -6.5761
  49   0.0000      -0.199899        -5.4395
  50   0.0000      -0.179864        -4.8943
  51   0.0000      -0.154643        -4.2081
  52   0.0000      -0.136271        -3.7081

MULLIKEN ATOMIC CHARGES
-----------------------
   0 C :    0.004170
   1 C :   -0.006726
   2 H :    0.074046
   3 C :    0.089869
   4 H :    0.066149
   5 C :    0.053027
   6 H :    0.098414
   7 C :    0.067474
   8 H :    0.074406
   9 C :    0.061817
  10 H :    0.076143
  11 O :   -0.272608
  12 O :   -0.413353
  13 O :   -0.416829
  14 O :   -0.426919
  15 O :   -0.442299
  16 O :   -0.458903
  17 H :    0.117454
  18 H :    0.101619
  19 H :    0.318725
  20 H :    0.310548
  21 H :    0.300225
  22 H :    0.313244
  23 H :    0.310308
Sum of atomic charges:   -0.0000000

LOEWDIN ATOMIC CHARGES
----------------------
   0 C :   -0.307496
   1 C :   -0.302074
   2 H :    0.146250
   3 C :   -0.312206
   4 H :    0.139570
   5 C :   -0.310632
   6 H :    0.154914
   7 C :   -0.318516
   8 H :    0.140610
   9 C :   -0.410821
  10 H :    0.124781
  11 O :    0.178635
  12 O :    0.012560
  13 O :   -0.002831
  14 O :   -0.010622
  15 O :   -0.009023
  16 O :   -0.044316
  17 H :    0.137487
  18 H :    0.120633
  19 H :    0.179898
  20 H :    0.174610
  21 H :    0.172442
  22 H :    0.175573
  23 H :    0.170573

  Mayer bond orders larger than 0.100000
B(  0-C ,  1-C ) :   0.9775 B(  0-C , 16-O ) :   0.9914 B(  0-C , 17-H ) :   0.9642
B(  0-C , 18-H ) :   0.9782 B(  1-C ,  2-H ) :   0.9544 B(  1-C ,  3-C ) :   0.9458
B(  1-C , 11-O ) :   0.9917 B(  1-C , 16-O ) :   0.1199 B(  3-C ,  4-H ) :   0.9394
B(  3-C ,  5-C ) :   0.9785 B(  3-C , 15-O ) :   1.0684 B(  5-C ,  6-H ) :   0.9494
B(  5-C ,  7-C ) :   0.9761 B(  5-C , 14-O ) :   0.9996 B(  7-C ,  8-H ) :   0.9534
B(  7-C ,  9-C ) :   0.9228 B(  7-C , 13-O ) :   1.1576 B(  9-C , 10-H ) :   0.9867
B(  9-C , 11-O ) :   1.0278 B(  9-C , 12-O ) :   1.2007 B( 12-O , 19-H ) :   0.8914
B( 13-O , 20-H ) :   0.8893 B( 14-O , 21-H ) :   0.8936 B( 15-O , 22-H ) :   0.8819
B( 16-O , 23-H ) :   0.8923

FINAL SINGLE POINT ENERGY      -687.247110269409

DIPOLE MOMENT
-------------

Method             : SCF
Type of density    : Electron Density
Multiplicity       :   1
Irrep              :   0
Energy             :  -687.2659461613093299 Eh
Relativity type    :
Basis              : AO
                                X                 Y                 Z
Electronic contribution:      2.204214157      -0.018204528      -0.941458276
Nuclear contribution   :     -1.692481013      -0.897311492       1.005947186
                        -----------------------------------------
Total Dipole Moment    :      0.511733144      -0.915516020       0.064488910
                        -----------------------------------------
Magnitude (a.u.)       :      1.050808837
Magnitude (Debye)      :      2.670943801

Rotational constants in cm-1:             0.039403             0.026467             0.017461
Rotational constants in MHz :          1181.266671           793.446367           523.473852

                             ****ORCA TERMINATED NORMALLY****
TOTAL RUN TIME: 0 days 0 hours 4 minutes 51 seconds 250 msec
