                         Program Version 6.0.0  -   RELEASE  -
|  1> ! wb97x-v def2-tzvp def2/J RIJCOSX DEFGRID2 scfconv7 GCP(DFT/TZ) printgap
|  2> %output
|  3>     printlevel normal
|  4> end
|  5> %cpcm
|  6>     smd true
|  7>     smdsolvent "water"
|  8> end
|  9> * xyz 0 1
| 10> C -2.57687866255138 -0.8640608848564489 0.3447477688433951
| 11> C -1.1472193794170256 -0.421993260884071 0.5931493720880424
| 12> H -0.9912753841099414 -0.36326630592762027 1.6835412886550092
| 13> C -0.7994414393610413 0.9250532123325462 -0.037852455499163974
| 14> H -0.9815724123727233 0.8690806988944763 -1.12258001408873
| 15> C 0.6735469866502275 1.2520680812336644 0.19725265924319704
| 16> H 0.8389169559533449 1.391436307682311 1.2736560636561156
| 17> C 1.555197225642402 0.1127111475513774 -0.29482171477658026
| 18> H 1.461338832426412 0.01633418780542167 -1.3886118225178818
| 19> C 1.0910497701775577 -1.197078085882209 0.3398346820398983
| 20> H 1.2139054433371874 -1.1589617664041842 1.4350718678386551
| 21> O -0.28783364857172183 -1.4285761570298487 0.02867690430292427
| 22> O 1.8392868412105499 -2.2447376258144476 -0.21836629036807953
| 23> O 2.902639033564057 0.40600468386166255 0.07567218873484387
| 24> O 1.018833293735514 2.5043762048378126 -0.4062177491625629
| 25> O -1.639585022178376 1.9166742618010917 0.5581549550366464
| 26> O -2.9195823031300967 -0.9091660648799297 -1.0451076103046628
| 27> H -3.259114346659289 -0.151594141032498 0.8151575199531984
| 28> H -2.727065297286639 -1.8459711256313727 0.8139297447361162
| 29> H 1.8030738719898907 -2.999234122567219 0.38488747318118793
| 30> H 3.4650859579439564 -0.2753068411063359 -0.3169406808277235
| 31> H 0.9232079229819927 2.4044994611228137 -1.3652292774931445
| 32> H -1.3265629828585939 2.7758531396889676 0.24132681709716736
| 33> H -2.3587448013632346 -1.5782884716283028 -1.4594796319267425
| 34> *
| 35>
| 36>                          ****END OF INPUT****

CARTESIAN COORDINATES (ANGSTROEM)
---------------------------------
  C     -2.576879   -0.864061    0.344748
  C     -1.147219   -0.421993    0.593149
  H     -0.991275   -0.363266    1.683541
  C     -0.799441    0.925053   -0.037852
  H     -0.981572    0.869081   -1.122580
  C      0.673547    1.252068    0.197253
  H      0.838917    1.391436    1.273656
  C      1.555197    0.112711   -0.294822
  H      1.461339    0.016334   -1.388612
  C      1.091050   -1.197078    0.339835
  H      1.213905   -1.158962    1.435072
  O     -0.287834   -1.428576    0.028677
  O      1.839287   -2.244738   -0.218366
  O      2.902639    0.406005    0.075672
  O      1.018833    2.504376   -0.406218
  O     -1.639585    1.916674    0.558155
  O     -2.919582   -0.909166   -1.045108
  H     -3.259114   -0.151594    0.815158
  H     -2.727065   -1.845971    0.813930
  H      1.803074   -2.999234    0.384887
  H      3.465086   -0.275307   -0.316941
  H      0.923208    2.404499   -1.365229
  H     -1.326563    2.775853    0.241327
  H     -2.358745   -1.578288   -1.459480

 Total Charge           Charge          ....    0
 Multiplicity           Mult            ....    1
 Number of Electrons    NEL             ....   96
 Basis Dimension        Dim             ....  444

ORBITAL ENERGIES
----------------

  NO   OCC          E(Eh)            E(eV)
   0   2.0000     -21.692422      -590.2808
   1   2.0000     -21.691214      -590.2479
   2   2.0000     -21.683002      -590.0245
   3   2.0000     -21.682760      -590.0179
   4   2.0000     -21.680708      -589.9620
   5   2.0000     -21.677446      -589.8733
   6   2.0000     -12.152053      -330.6742
   7   2.0000     -12.103665      -329.3575
   8   2.0000     -12.103371      -329.3495
   9   2.0000     -12.102231      -329.3184
  10   2.0000     -12.099695      -329.2494
  11   2.0000     -12.091352      -329.0224
  12   2.0000      -1.723132       -46.8888
  13   2.0000      -1.690530       -46.0016
  14   2.0000      -1.686487       -45.8917
  15   2.0000      -1.681443       -45.7544
  16   2.0000      -1.678326       -45.6696
  17   2.0000      -1.676031       -45.6071
  18   2.0000      -1.331675       -36.2367
  19   2.0000      -1.319419       -35.9032
  20   2.0000      -1.231584       -33.5131
  21   2.0000      -1.198882       -32.6232
  22   2.0000      -1.166051       -31.7298
  23   2.0000      -1.122497       -30.5447
  24   2.0000      -1.086938       -29.5771
  25   2.0000      -1.078193       -29.3391
  26   2.0000      -1.045200       -28.4413
  27   2.0000      -1.041174       -28.3318
  28   2.0000      -1.024218       -27.8704
  29   2.0000      -1.015453       -27.6319
  30   2.0000      -0.998250       -27.1638
  31   2.0000      -0.990270       -26.9466
  32   2.0000      -0.979236       -26.6464
  33   2.0000      -0.965652       -26.2767
  34   2.0000      -0.958184       -26.0735
  35   2.0000      -0.947897       -25.7936
  36   2.0000      -0.942812       -25.6552
  37   2.0000      -0.933110       -25.3912
  38   2.0000      -0.925985       -25.1973
  39   2.0000      -0.912598       -24.8331
  40   2.0000      -0.897618       -24.4254
  41   2.0000      -0.881145       -23.9772
  42   2.0000      -0.839152       -22.8345
  43   2.0000      -0.834855       -22.7175
  44   2.0000      -0.818860       -22.2823
  45   2.0000      -0.798461       -21.7272
  46   2.0000      -0.794703       -21.6250
  47   2.0000      -0.769600       -20.9419
  48   0.0000      -0.233583        -6.3561
  49   0.0000      -0.190255        -5.1771
  50   0.0000      -0.171353        -4.6627
  51   0.0000      -0.148271        -4.0347
  52   0.0000      -0.126727        -3.4484

MULLIKEN ATOMIC CHARGES
-----------------------
   0 C :   -0.013643
   1 C :    0.047818
   2 H :    0.111463
   3 C :    0.039653
   4 H :    0.097820
   5 C :    0.113641
   6 H :    0.117706
   7 C :    0.067259
   8 H :    0.111163
   9 C :    0.075370
  10 H :    0.106961
  11 O :   -0.330491
  12 O :   -0.489634
  13 O :   -0.520752
  14 O :   -0.531051
  15 O :   -0.530209
  16 O :   -0.555144
  17 H :    0.130067
  18 H :    0.131744
  19 H :    0.377866
  20 H :    0.361948
  21 H :    0.362720
  22 H :    0.357881
  23 H :    0.359846
Sum of atomic charges:   -0.0000000

LOEWDIN ATOMIC CHARGES
----------------------
   0 C :   -0.307927
   1 C :   -0.296693
   2 H :    0.158927
   3 C :   -0.305618
   4 H :    0.147393
   5 C :   -0.308554
   6 H :    0.158990
   7 C :   -0.311893
   8 H :    0.152587
   9 C :   -0.402574
  10 H :    0.138626
  11 O :    0.160541
  12 O :   -0.011391
  13 O :   -0.040288
  14 O :   -0.046643
  15 O :   -0.040801
  16 O :   -0.082085
  17 H :    0.137600
  18 H :    0.129954
  19 H :    0.201560
  20 H :    0.192514
  21 H :    0.197296
  22 H :    0.190263
  23 H :    0.188214

  Mayer bond orders larger than 0.100000
B(  0-C ,  1-C ) :   0.9630 B(  0-C , 16-O ) :   0.9632 B(  0-C , 17-H ) :   0.9674
B(  0-C , 18-H ) :   0.9802 B(  1-C ,  2-H ) :   0.9470 B(  1-C ,  3-C ) :   0.9614
B(  1-C , 11-O ) :   0.9665 B(  3-C ,  4-H ) :   0.9528 B(  3-C ,  5-C ) :   0.9928
B(  3-C , 15-O ) :   1.0215 B(  5-C ,  6-H ) :   0.9376 B(  5-C ,  7-C ) :   0.9806
B(  5-C , 14-O ) :   0.9840 B(  7-C ,  8-H ) :   0.9556 B(  7-C ,  9-C ) :   0.9479
B(  7-C , 13-O ) :   1.0882 B(  9-C , 10-H ) :   0.9827 B(  9-C , 11-O ) :   1.0142
B(  9-C , 12-O ) :   1.1916 B( 12-O , 19-H ) :   0.8530 B( 13-O , 20-H ) :   0.8583
B( 14-O , 21-H ) :   0.8601 B( 15-O , 22-H ) :   0.8562 B( 16-O , 23-H ) :   0.8622

FINAL SINGLE POINT ENERGY      -687.288084548085

DIPOLE MOMENT
-------------

Method             : SCF
Type of density    : Electron Density
Multiplicity       :   1
Irrep              :   0
Energy             :  -687.3069204399848786 Eh
Relativity type    :
Basis              : AO
                                X                 Y                 Z
Electronic contribution:      2.353624433      -0.355164409      -0.896577682
Nuclear contribution   :     -1.692481013      -0.897311492       1.005947186
                        -----------------------------------------
Total Dipole Moment    :      0.661143420      -1.252475901       0.109369504
                        -----------------------------------------
Magnitude (a.u.)       :      1.420481677
Magnitude (Debye)      :      3.610577484

Rotational constants in cm-1:             0.039403             0.026467             0.017461
Rotational constants in MHz :          1181.266671           793.446367           523.473852

                             ****ORCA TERMINATED NORMALLY****
TOTAL RUN TIME: 0 days 0 hours 5 minutes 27 seconds 11 msec
