                         Program Version 6.0.0  -   RELEASE  -
|  1> ! pbe def2-sv(p) def2/J RI DEFGRID1 loosescf d4 GCP(DFT/SV(P)) printgap
|  2> %output
|  3>     printlevel normal
|  4> end
|  5> * xyz 0 1
|  6> C -3.1842566882 -0.3313185408 0.0016782459
|  7> O -2.0887826761 0.5640969722 -0.0012517853
|  8> C -0.8239385468 0.049072946 -0.0007173111
|  9> C -0.5142107576 -1.3050173161 -0.0002682457
| 10> C 0.8160531021 -1.6959067187 0.0003035679
| 11> C 1.8362235003 -0.7687378547 0.0004460321
| 12> C 1.5259916653 0.5904775812 -5.62987e-05
| 13> C 0.2010927252 0.9938788361 -0.0006932712
| 14> O 2.5518269768 1.4811256276 0.0002693189
| 15> H -4.0695267245 0.3005423701 0.0023890201
| 16> H -3.1789642499 -0.9583958127 0.8969503117
| 17> H -3.1820481756 -0.9606763629 -0.8919480526
| 18> H -1.2868641866 -2.0554261188 -0.0004273973
| 19> H 1.0546761135 -2.748185689 0.000488053
| 20> H 2.8717995482 -1.0668581128 0.0009219903
| 21> H -0.0692157925 2.0388793377 -0.0010617333
| 22> H 2.2144271333 2.3897189623 2.8442e-05
| 23> *
| 24>
| 25>                          ****END OF INPUT****

CARTESIAN COORDINATES (ANGSTROEM)
---------------------------------
  C     -3.184257   -0.331319    0.001678
  O     -2.088783    0.564097   -0.001252
  C     -0.823939    0.049073   -0.000717
  C     -0.514211   -1.305017   -0.000268
  C      0.816053   -1.695907    0.000304
  C      1.836224   -0.768738    0.000446
  C      1.525992    0.590478   -0.000056
  C      0.201093    0.993879   -0.000693
  O      2.551827    1.481126    0.000269
  H     -4.069527    0.300542    0.002389
  H     -3.178964   -0.958396    0.896950
  H     -3.182048   -0.960676   -0.891948
  H     -1.286864   -2.055426   -0.000427
  H      1.054676   -2.748186    0.000488
  H      2.871800   -1.066858    0.000922
  H     -0.069216    2.038879   -0.001062
  H      2.214427    2.389719    0.000028

 Total Charge           Charge          ....    0
 Multiplicity           Mult            ....    1
 Number of Electrons    NEL             ....   66
 Basis Dimension        Dim             ....  142

ORBITAL ENERGIES
----------------

  NO   OCC          E(Eh)            E(eV)
   0   2.0000     -18.783952      -511.1373
   1   2.0000     -18.779742      -511.0228
   2   2.0000      -9.950096      -270.7559
   3   2.0000      -9.948934      -270.7243
   4   2.0000      -9.939851      -270.4771
   5   2.0000      -9.891455      -269.1602
   6   2.0000      -9.881819      -268.8980
   7   2.0000      -9.881324      -268.8845
   8   2.0000      -9.877560      -268.7821
   9   2.0000      -0.965395       -26.2697
  10   2.0000      -0.960735       -26.1429
  11   2.0000      -0.766440       -20.8559
  12   2.0000      -0.682914       -18.5830
  13   2.0000      -0.661341       -17.9960
  14   2.0000      -0.624509       -16.9938
  15   2.0000      -0.564583       -15.3631
  16   2.0000      -0.527623       -14.3573
  17   2.0000      -0.499461       -13.5910
  18   2.0000      -0.461041       -12.5456
  19   2.0000      -0.433299       -11.7907
  20   2.0000      -0.424098       -11.5403
  21   2.0000      -0.419295       -11.4096
  22   2.0000      -0.383014       -10.4223
  23   2.0000      -0.379082       -10.3153
  24   2.0000      -0.361675        -9.8417
  25   2.0000      -0.337047        -9.1715
  26   2.0000      -0.327198        -8.9035
  27   2.0000      -0.314318        -8.5530
  28   2.0000      -0.303990        -8.2720
  29   2.0000      -0.281169        -7.6510
  30   2.0000      -0.266376        -7.2485
  31   2.0000      -0.201035        -5.4704
  32   2.0000      -0.186182        -5.0663
  33   0.0000      -0.025280        -0.6879
  34   0.0000      -0.006590        -0.1793
  35   0.0000       0.026497         0.7210
  36   0.0000       0.045434         1.2363
  37   0.0000       0.060244         1.6393

MULLIKEN ATOMIC CHARGES
-----------------------
   0 C :   -0.114057
   1 O :   -0.274169
   2 C :    0.265409
   3 C :   -0.192228
   4 C :   -0.056844
   5 C :   -0.116261
   6 C :    0.249930
   7 C :   -0.236580
   8 O :   -0.336038
   9 H :    0.124200
  10 H :    0.111088
  11 H :    0.111103
  12 H :    0.034113
  13 H :    0.053133
  14 H :    0.040323
  15 H :    0.019904
  16 H :    0.316973
Sum of atomic charges:   -0.0000000

LOEWDIN ATOMIC CHARGES
----------------------
   0 C :   -0.201858
   1 O :   -0.095085
   2 C :    0.038822
   3 C :   -0.201378
   4 C :   -0.107230
   5 C :   -0.170458
   6 C :    0.028149
   7 C :   -0.200681
   8 O :   -0.233813
   9 H :    0.121734
  10 H :    0.109642
  11 H :    0.109622
  12 H :    0.124677
  13 H :    0.124914
  14 H :    0.129008
  15 H :    0.125849
  16 H :    0.298086

  Mayer bond orders larger than 0.100000
B(  0-C ,  1-O ) :   0.9889 B(  0-C ,  9-H ) :   0.9593 B(  0-C , 10-H ) :   0.9423
B(  0-C , 11-H ) :   0.9423 B(  1-O ,  2-C ) :   1.1332 B(  2-C ,  3-C ) :   1.3118
B(  2-C ,  7-C ) :   1.3302 B(  3-C ,  4-C ) :   1.3290 B(  3-C , 12-H ) :   0.9654
B(  4-C ,  5-C ) :   1.3873 B(  4-C , 13-H ) :   0.9612 B(  5-C ,  6-C ) :   1.3429
B(  5-C , 14-H ) :   0.9677 B(  6-C ,  7-C ) :   1.3016 B(  6-C ,  8-O ) :   1.1832
B(  7-C , 15-H ) :   0.9590 B(  8-O , 16-H ) :   0.8430

Dispersion correction           -0.016509964
FINAL SINGLE POINT ENERGY      -421.093560570285

DIPOLE MOMENT
-------------

Method             : SCF
Type of density    : Electron Density
Multiplicity       :   1
Irrep              :   0
Energy             :  -421.1523324196799649 Eh
Relativity type    :
Basis              : AO
                                X                 Y                 Z
Electronic contribution:      4.629039171       2.958423264      -0.005814122
Nuclear contribution   :     -5.289784307      -2.840880804       0.006872211
                        -----------------------------------------
Total Dipole Moment    :     -0.660745137       0.117542460       0.001058089
                        -----------------------------------------
Magnitude (a.u.)       :      0.671119576
Magnitude (Debye)      :      1.705850396

Rotational constants in cm-1:             0.121758             0.037750             0.028975
Rotational constants in MHz :          3650.213087          1131.705671           868.662274

                             ****ORCA TERMINATED NORMALLY****
TOTAL RUN TIME: 0 days 0 hours 0 minutes 8 seconds 103 msec
