                         Program Version 6.0.0  -   RELEASE  -
|  1> ! pbe def2-sv(p) def2/J RI DEFGRID1 loosescf d4 GCP(DFT/SV(P)) printgap
|  2> %output
|  3>     printlevel normal
|  4> end
|  5> * xyz 0 1
|  6> C -2.1115931692 -0.002522899 -0.3297692231
|  7> C -0.8028886906 -0.0676727521 0.4495487115
|  8> C 0.0946091258 -1.2251908549 -0.0241696518
|  9> C 1.5174147459 -0.6819569026 0.0697108992
| 10> C 1.3520380841 0.7619486704 -0.3932559136
| 11> C 0.0524476625 1.2088698852 0.2821264276
| 12> H -1.9161362402 0.1697409142 -1.3860476268
| 13> H -2.6597745054 -0.9367744473 -0.2284685367
| 14> H -2.7384079722 0.8049938778 0.0421088643
| 15> H -1.0417275048 -0.206420896 1.5081203349
| 16> H -0.0501034623 -2.126262461 0.5701583874
| 17> H -0.1346770558 -1.4637468142 -1.0642306925
| 18> H 1.8608624288 -0.7038751195 1.1053136371
| 19> H 2.2222632482 -1.2440001685 -0.5413693916
| 20> H 2.1978714662 1.3922735446 -0.1226605459
| 21> H 1.2397966115 0.7858862646 -1.4783116188
| 22> H 0.2720899247 1.6438865515 1.2575745812
| 23> H -0.4679071299 1.9620544939 -0.3079767581
| 24> *
| 25>
| 26>                          ****END OF INPUT****

CARTESIAN COORDINATES (ANGSTROEM)
---------------------------------
  C     -2.111593   -0.002523   -0.329769
  C     -0.802889   -0.067673    0.449549
  C      0.094609   -1.225191   -0.024170
  C      1.517415   -0.681957    0.069711
  C      1.352038    0.761949   -0.393256
  C      0.052448    1.208870    0.282126
  H     -1.916136    0.169741   -1.386048
  H     -2.659775   -0.936774   -0.228469
  H     -2.738408    0.804994    0.042109
  H     -1.041728   -0.206421    1.508120
  H     -0.050103   -2.126262    0.570158
  H     -0.134677   -1.463747   -1.064231
  H      1.860862   -0.703875    1.105314
  H      2.222263   -1.244000   -0.541369
  H      2.197871    1.392274   -0.122661
  H      1.239797    0.785886   -1.478312
  H      0.272090    1.643887    1.257575
  H     -0.467907    1.962054   -0.307977

 Total Charge           Charge          ....    0
 Multiplicity           Mult            ....    1
 Number of Electrons    NEL             ....   48
 Basis Dimension        Dim             ....  108

ORBITAL ENERGIES
----------------

  NO   OCC          E(Eh)            E(eV)
   0   2.0000      -9.885333      -268.9936
   1   2.0000      -9.875889      -268.7366
   2   2.0000      -9.875695      -268.7313
   3   2.0000      -9.873868      -268.6816
   4   2.0000      -9.873242      -268.6646
   5   2.0000      -9.869256      -268.5561
   6   2.0000      -0.756969       -20.5982
   7   2.0000      -0.665308       -18.1040
   8   2.0000      -0.629989       -17.1429
   9   2.0000      -0.576435       -15.6856
  10   2.0000      -0.504316       -13.7231
  11   2.0000      -0.481509       -13.1025
  12   2.0000      -0.434598       -11.8260
  13   2.0000      -0.416341       -11.3292
  14   2.0000      -0.376022       -10.2321
  15   2.0000      -0.368827       -10.0363
  16   2.0000      -0.353230        -9.6119
  17   2.0000      -0.331542        -9.0217
  18   2.0000      -0.290504        -7.9050
  19   2.0000      -0.289224        -7.8702
  20   2.0000      -0.281650        -7.6641
  21   2.0000      -0.276524        -7.5246
  22   2.0000      -0.273510        -7.4426
  23   2.0000      -0.265915        -7.2359
  24   0.0000       0.031329         0.8525
  25   0.0000       0.049552         1.3484
  26   0.0000       0.067149         1.8272
  27   0.0000       0.084460         2.2983
  28   0.0000       0.102476         2.7885

MULLIKEN ATOMIC CHARGES
-----------------------
   0 C :   -0.240545
   1 C :   -0.193708
   2 C :   -0.117231
   3 C :   -0.165326
   4 C :   -0.169414
   5 C :   -0.109976
   6 H :    0.093722
   7 H :    0.098724
   8 H :    0.099554
   9 H :    0.065969
  10 H :    0.082901
  11 H :    0.070685
  12 H :    0.080626
  13 H :    0.087309
  14 H :    0.086285
  15 H :    0.078696
  16 H :    0.075438
  17 H :    0.076290
Sum of atomic charges:   -0.0000000

LOEWDIN ATOMIC CHARGES
----------------------
   0 C :   -0.329402
   1 C :   -0.152810
   2 C :   -0.221497
   3 C :   -0.228548
   4 C :   -0.228483
   5 C :   -0.222934
   6 H :    0.113951
   7 H :    0.116639
   8 H :    0.116221
   9 H :    0.114758
  10 H :    0.116260
  11 H :    0.114184
  12 H :    0.114571
  13 H :    0.114912
  14 H :    0.115289
  15 H :    0.114542
  16 H :    0.116996
  17 H :    0.115353

  Mayer bond orders larger than 0.100000
B(  0-C ,  1-C ) :   1.1237 B(  0-C ,  6-H ) :   0.9468 B(  0-C ,  7-H ) :   0.9501
B(  0-C ,  8-H ) :   0.9505 B(  1-C ,  2-C ) :   1.1209 B(  1-C ,  5-C ) :   1.1056
B(  1-C ,  9-H ) :   0.9012 B(  2-C ,  3-C ) :   1.1331 B(  2-C , 10-H ) :   0.9210
B(  2-C , 11-H ) :   0.9142 B(  3-C ,  4-C ) :   1.1215 B(  3-C , 12-H ) :   0.9222
B(  3-C , 13-H ) :   0.9286 B(  4-C ,  5-C ) :   1.1581 B(  4-C , 14-H ) :   0.9266
B(  4-C , 15-H ) :   0.9208 B(  5-C , 16-H ) :   0.9153 B(  5-C , 17-H ) :   0.9227

Dispersion correction           -0.014391705
FINAL SINGLE POINT ENERGY      -235.267628478218

DIPOLE MOMENT
-------------

Method             : SCF
Type of density    : Electron Density
Multiplicity       :   1
Irrep              :   0
Energy             :  -235.3285375477868797 Eh
Relativity type    :
Basis              : AO
                                X                 Y                 Z
Electronic contribution:      1.154747874      -0.079874154       0.643515324
Nuclear contribution   :     -1.140665711       0.072947561      -0.605855714
                        -----------------------------------------
Total Dipole Moment    :      0.014082163      -0.006926592       0.037659610
                        -----------------------------------------
Magnitude (a.u.)       :      0.040798667
Magnitude (Debye)      :      0.103701970

Rotational constants in cm-1:             0.197020             0.103081             0.078958
Rotational constants in MHz :          5906.510629          3090.283519          2367.102232

                             ****ORCA TERMINATED NORMALLY****
TOTAL RUN TIME: 0 days 0 hours 0 minutes 5 seconds 651 msec
