                         Program Version 6.0.0  -   RELEASE  -
|  1> ! pbe def2-sv(p) def2/J RI DEFGRID1 loosescf d4 GCP(DFT/SV(P)) printgap
|  2> %output
|  3>     printlevel normal
|  4> end
|  5> * xyz 0 1
|  6> C -2.2260412362 -0.6133456321 -0.7033025353
|  7> C -1.3814164768 -0.4725603941 0.5807248284
|  8> H -2.0412641626 -0.7103133663 1.426897514
|  9> C -0.8608392785 0.9523676836 0.8168122866
| 10> H -1.6744844108 1.6460647768 0.5617931866
| 11> C 0.3458029742 1.3207806253 -0.072599392
| 12> H 1.0134353866 1.9713528834 0.5109821161
| 13> C 1.1676384669 0.0837645653 -0.4595925592
| 14> H 0.802714328 -0.3225055464 -1.4162117006
| 15> C 0.9693385363 -1.0102685207 0.6027865411
| 16> H 1.2519841918 -0.6137035418 1.5974123873
| 17> O -0.3549113052 -1.4629368625 0.6097408105
| 18> O 1.7863172853 -2.096965458 0.303963303
| 19> O 2.5183376309 0.4606304797 -0.5635672423
| 20> O -0.1460220994 2.0148989551 -1.1964194575
| 21> O -0.54367901 1.0500807668 2.1863925532
| 22> O -1.570238611 -0.2883111362 -1.8993760186
| 23> H -3.1323906525 -0.0070074915 -0.5790222118
| 24> H -2.510442763 -1.6634163765 -0.7988521984
| 25> H 1.2283862954 -2.8872801674 0.2442749864
| 26> H 3.0588911607 -0.3427840268 -0.6043568417
| 27> H 0.5997879548 2.3110331161 -1.7385074545
| 28> H -0.4465396723 1.9794256113 2.4407332212
| 29> H -1.3128949115 0.6529554125 -1.8817159659
| 30> *
| 31>
| 32>                          ****END OF INPUT****

CARTESIAN COORDINATES (ANGSTROEM)
---------------------------------
  C     -2.226041   -0.613346   -0.703303
  C     -1.381416   -0.472560    0.580725
  H     -2.041264   -0.710313    1.426898
  C     -0.860839    0.952368    0.816812
  H     -1.674484    1.646065    0.561793
  C      0.345803    1.320781   -0.072599
  H      1.013435    1.971353    0.510982
  C      1.167638    0.083765   -0.459593
  H      0.802714   -0.322506   -1.416212
  C      0.969339   -1.010269    0.602787
  H      1.251984   -0.613704    1.597412
  O     -0.354911   -1.462937    0.609741
  O      1.786317   -2.096965    0.303963
  O      2.518338    0.460630   -0.563567
  O     -0.146022    2.014899   -1.196419
  O     -0.543679    1.050081    2.186393
  O     -1.570239   -0.288311   -1.899376
  H     -3.132391   -0.007007   -0.579022
  H     -2.510443   -1.663416   -0.798852
  H      1.228386   -2.887280    0.244275
  H      3.058891   -0.342784   -0.604357
  H      0.599788    2.311033   -1.738507
  H     -0.446540    1.979426    2.440733
  H     -1.312895    0.652955   -1.881716

 Total Charge           Charge          ....    0
 Multiplicity           Mult            ....    1
 Number of Electrons    NEL             ....   96
 Basis Dimension        Dim             ....  192

ORBITAL ENERGIES
----------------

  NO   OCC          E(Eh)            E(eV)
   0   2.0000     -18.780623      -511.0467
   1   2.0000     -18.766373      -510.6590
   2   2.0000     -18.765354      -510.6312
   3   2.0000     -18.755169      -510.3541
   4   2.0000     -18.748579      -510.1748
   5   2.0000     -18.736338      -509.8417
   6   2.0000      -9.978295      -271.5232
   7   2.0000      -9.958309      -270.9794
   8   2.0000      -9.952794      -270.8293
   9   2.0000      -9.947497      -270.6852
  10   2.0000      -9.931114      -270.2393
  11   2.0000      -9.929805      -270.2037
  12   2.0000      -0.981548       -26.7093
  13   2.0000      -0.957472       -26.0541
  14   2.0000      -0.941631       -25.6231
  15   2.0000      -0.924784       -25.1647
  16   2.0000      -0.914172       -24.8759
  17   2.0000      -0.902429       -24.5563
  18   2.0000      -0.710267       -19.3273
  19   2.0000      -0.689067       -18.7505
  20   2.0000      -0.615891       -16.7592
  21   2.0000      -0.591879       -16.1058
  22   2.0000      -0.569915       -15.5082
  23   2.0000      -0.524688       -14.2775
  24   2.0000      -0.510214       -13.8836
  25   2.0000      -0.484417       -13.1817
  26   2.0000      -0.474498       -12.9118
  27   2.0000      -0.465666       -12.6714
  28   2.0000      -0.443522       -12.0689
  29   2.0000      -0.430239       -11.7074
  30   2.0000      -0.412743       -11.2313
  31   2.0000      -0.400613       -10.9012
  32   2.0000      -0.392479       -10.6799
  33   2.0000      -0.377186       -10.2638
  34   2.0000      -0.366302        -9.9676
  35   2.0000      -0.354378        -9.6431
  36   2.0000      -0.328805        -8.9472
  37   2.0000      -0.322099        -8.7648
  38   2.0000      -0.315905        -8.5962
  39   2.0000      -0.298432        -8.1207
  40   2.0000      -0.281131        -7.6500
  41   2.0000      -0.264631        -7.2010
  42   2.0000      -0.255958        -6.9650
  43   2.0000      -0.241143        -6.5618
  44   2.0000      -0.237943        -6.4748
  45   2.0000      -0.231806        -6.3078
  46   2.0000      -0.205641        -5.5958
  47   2.0000      -0.193276        -5.2593
  48   0.0000       0.011913         0.3242
  49   0.0000       0.019026         0.5177
  50   0.0000       0.039710         1.0806
  51   0.0000       0.045185         1.2295
  52   0.0000       0.063235         1.7207

MULLIKEN ATOMIC CHARGES
-----------------------
   0 C :    0.050688
   1 C :    0.069886
   2 H :    0.074942
   3 C :   -0.025229
   4 H :    0.077357
   5 C :    0.092689
   6 H :    0.058436
   7 C :    0.023190
   8 H :    0.051317
   9 C :    0.210806
  10 H :    0.051296
  11 O :   -0.331090
  12 O :   -0.409998
  13 O :   -0.430075
  14 O :   -0.422237
  15 O :   -0.405861
  16 O :   -0.439317
  17 H :    0.068056
  18 H :    0.088696
  19 H :    0.310495
  20 H :    0.309135
  21 H :    0.323130
  22 H :    0.304966
  23 H :    0.298720
Sum of atomic charges:   -0.0000000

LOEWDIN ATOMIC CHARGES
----------------------
   0 C :   -0.128202
   1 C :   -0.058669
   2 H :    0.121517
   3 C :   -0.070244
   4 H :    0.112071
   5 C :   -0.069157
   6 H :    0.111707
   7 C :   -0.107681
   8 H :    0.107717
   9 C :    0.003349
  10 H :    0.088652
  11 O :   -0.152528
  12 O :   -0.318000
  13 O :   -0.329020
  14 O :   -0.306476
  15 O :   -0.310604
  16 O :   -0.342043
  17 H :    0.097244
  18 H :    0.117288
  19 H :    0.292474
  20 H :    0.287420
  21 H :    0.299888
  22 H :    0.289118
  23 H :    0.264177

  Mayer bond orders larger than 0.100000
B(  0-C ,  1-C ) :   1.0167 B(  0-C , 16-O ) :   1.1243 B(  0-C , 17-H ) :   0.9117
B(  0-C , 18-H ) :   0.9170 B(  1-C ,  2-H ) :   0.8730 B(  1-C ,  3-C ) :   1.0334
B(  1-C , 11-O ) :   0.9742 B(  3-C ,  4-H ) :   0.8928 B(  3-C ,  5-C ) :   1.0003
B(  3-C , 15-O ) :   1.0452 B(  5-C ,  6-H ) :   0.8592 B(  5-C ,  7-C ) :   1.0186
B(  5-C , 14-O ) :   1.0126 B(  7-C ,  8-H ) :   0.8175 B(  7-C ,  9-C ) :   1.0455
B(  7-C , 13-O ) :   1.0636 B(  9-C , 10-H ) :   0.8812 B(  9-C , 11-O ) :   1.0337
B(  9-C , 12-O ) :   1.1243 B( 12-O , 19-H ) :   0.8344 B( 13-O , 20-H ) :   0.8322
B( 14-O , 21-H ) :   0.8363 B( 14-O , 23-H ) :   0.1266 B( 15-O , 22-H ) :   0.8457
B( 16-O , 23-H ) :   0.7853

Dispersion correction           -0.025449414
FINAL SINGLE POINT ENERGY      -685.692206874980

DIPOLE MOMENT
-------------

Method             : SCF
Type of density    : Electron Density
Multiplicity       :   1
Irrep              :   0
Energy             :  -685.8244413970091955 Eh
Relativity type    :
Basis              : AO
                                X                 Y                 Z
Electronic contribution:      2.821471106      -1.096230106       0.470325847
Nuclear contribution   :     -2.942227053       1.884527748      -0.230230925
                        -----------------------------------------
Total Dipole Moment    :     -0.120755947       0.788297641       0.240094922
                        -----------------------------------------
Magnitude (a.u.)       :      0.832850972
Magnitude (Debye)      :      2.116938935

Rotational constants in cm-1:             0.035484             0.028961             0.026460
Rotational constants in MHz :          1063.796663           868.229224           793.243860

                             ****ORCA TERMINATED NORMALLY****
TOTAL RUN TIME: 0 days 0 hours 0 minutes 12 seconds 191 msec
