                         Program Version 6.0.0  -   RELEASE  -
|  1> ! wb97x-v def2-tzvp def2/J RIJCOSX DEFGRID2 scfconv7 GCP(DFT/TZ) printgap
|  2> %output
|  3>     printlevel normal
|  4> end
|  5> * xyz 0 1
|  6> C -1.8323151780891185 -1.346406337982001 -2.209519942467017e-06
|  7> C -0.494266068283742 -1.7064933034644634 3.764975439113585e-05
|  8> C 0.5012409954287147 -0.7328548227289278 4.2800926626552585e-05
|  9> C 0.14031420826485116 0.6141837463451904 7.224314627439733e-06
| 10> C -1.197743853751786 0.9902945226297674 -3.103089065659881e-05
| 11> C -2.182021004221233 0.0038442964257002967 -3.5994980062796396e-05
| 12> O -3.516059787754503 0.3130804658615189 -8.069384168727417e-05
| 13> Cl 1.356934979086304 1.869606694400122 1.1379106199735862e-05
| 14> Cl 2.179303471835387 -1.225487393635444 8.25221399065005e-05
| 15> H -2.606180467021372 -2.1056158469284854 -9.959591994019885e-06
| 16> H -0.21526005796505981 -2.7540294687961455 5.991104368235955e-05
| 17> H -1.472891334343017 2.0398069094817477 -6.157262709262185e-05
| 18> H -3.6263613070565075 1.2749325460844387 -0.00013488072089718706
| 19> *
| 20>
| 21>                          ****END OF INPUT****

CARTESIAN COORDINATES (ANGSTROEM)
---------------------------------
  C     -1.832315   -1.346406   -0.000002
  C     -0.494266   -1.706493    0.000038
  C      0.501241   -0.732855    0.000043
  C      0.140314    0.614184    0.000007
  C     -1.197744    0.990295   -0.000031
  C     -2.182021    0.003844   -0.000036
  O     -3.516060    0.313080   -0.000081
  Cl     1.356935    1.869607    0.000011
  Cl     2.179303   -1.225487    0.000083
  H     -2.606180   -2.105616   -0.000010
  H     -0.215260   -2.754029    0.000060
  H     -1.472891    2.039807   -0.000062
  H     -3.626361    1.274933   -0.000135

 Total Charge           Charge          ....    0
 Multiplicity           Mult            ....    1
 Number of Electrons    NEL             ....   82
 Basis Dimension        Dim             ....  315

ORBITAL ENERGIES
----------------

  NO   OCC          E(Eh)            E(eV)
   0   2.0000    -107.154611     -2915.8252
   1   2.0000    -107.149379     -2915.6828
   2   2.0000     -21.722768      -591.1066
   3   2.0000     -12.138390      -330.3024
   4   2.0000     -12.137651      -330.2823
   5   2.0000     -12.125322      -329.9468
   6   2.0000     -12.081304      -328.7490
   7   2.0000     -12.078846      -328.6821
   8   2.0000     -12.069567      -328.4296
   9   2.0000     -11.307639      -307.6965
  10   2.0000     -11.302342      -307.5524
  11   2.0000      -9.099248      -247.6031
  12   2.0000      -9.096480      -247.5278
  13   2.0000      -9.096479      -247.5278
  14   2.0000      -9.093954      -247.4591
  15   2.0000      -9.091168      -247.3833
  16   2.0000      -9.091138      -247.3824
  17   2.0000      -1.738267       -47.3006
  18   2.0000      -1.459676       -39.7198
  19   2.0000      -1.417579       -38.5743
  20   2.0000      -1.388610       -37.7860
  21   2.0000      -1.301244       -35.4086
  22   2.0000      -1.290108       -35.1056
  23   2.0000      -1.179930       -32.1075
  24   2.0000      -1.141908       -31.0729
  25   2.0000      -1.090256       -29.6674
  26   2.0000      -1.030847       -28.0508
  27   2.0000      -0.982434       -26.7334
  28   2.0000      -0.975289       -26.5389
  29   2.0000      -0.968335       -26.3497
  30   2.0000      -0.942776       -25.6542
  31   2.0000      -0.914430       -24.8829
  32   2.0000      -0.892617       -24.2893
  33   2.0000      -0.853709       -23.2306
  34   2.0000      -0.850837       -23.1525
  35   2.0000      -0.812158       -22.1000
  36   2.0000      -0.803557       -21.8659
  37   2.0000      -0.794574       -21.6215
  38   2.0000      -0.774071       -21.0635
  39   2.0000      -0.671855       -18.2821
  40   2.0000      -0.664230       -18.0746
  41   0.0000      -0.299488        -8.1495
  42   0.0000      -0.285009        -7.7555
  43   0.0000      -0.272578        -7.4172
  44   0.0000      -0.246605        -6.7105
  45   0.0000      -0.153179        -4.1682

MULLIKEN ATOMIC CHARGES
-----------------------
   0 C :   -0.205149
   1 C :   -0.141939
   2 C :    0.052885
   3 C :    0.077296
   4 C :   -0.247943
   5 C :    0.268960
   6 O :   -0.382514
   7 Cl:   -0.066226
   8 Cl:   -0.072698
   9 H :    0.134282
  10 H :    0.139118
  11 H :    0.125946
  12 H :    0.317981
Sum of atomic charges:    0.0000000

LOEWDIN ATOMIC CHARGES
----------------------
   0 C :   -0.112954
   1 C :   -0.129177
   2 C :   -0.438375
   3 C :   -0.421361
   4 C :   -0.142881
   5 C :   -0.260413
   6 O :    0.079192
   7 Cl:    0.397912
   8 Cl:    0.386974
   9 H :    0.152494
  10 H :    0.151831
  11 H :    0.147493
  12 H :    0.189262

  Mayer bond orders larger than 0.100000
B(  0-C ,  1-C ) :   1.4486 B(  0-C ,  5-C ) :   1.4066 B(  0-C ,  9-H ) :   0.9691
B(  1-C ,  2-C ) :   1.3844 B(  1-C , 10-H ) :   0.9597 B(  2-C ,  3-C ) :   1.3227
B(  2-C ,  8-Cl) :   1.0753 B(  3-C ,  4-C ) :   1.4072 B(  3-C ,  7-Cl) :   1.0649
B(  4-C ,  5-C ) :   1.3608 B(  4-C , 11-H ) :   0.9410 B(  5-C ,  6-O ) :   1.1516
B(  6-O , 12-H ) :   0.8867

FINAL SINGLE POINT ENERGY     -1226.576849000254

DIPOLE MOMENT
-------------

Method             : SCF
Type of density    : Electron Density
Multiplicity       :   1
Irrep              :   0
Energy             : -1226.5834494181544869 Eh
Relativity type    :
Basis              : AO
                                X                 Y                 Z
Electronic contribution:     11.339148330       2.559208276       0.000232329
Nuclear contribution   :    -12.231363601      -2.310199657      -0.000278705
                        -----------------------------------------
Total Dipole Moment    :     -0.892215272       0.249008618      -0.000046377
                        -----------------------------------------
Magnitude (a.u.)       :      0.926311711
Magnitude (Debye)      :      2.354497253

Rotational constants in cm-1:             0.061038             0.029332             0.019811
Rotational constants in MHz :          1829.873892           879.338423           593.928506

                             ****ORCA TERMINATED NORMALLY****
TOTAL RUN TIME: 0 days 0 hours 2 minutes 19 seconds 0 msec
