                         Program Version 6.0.0  -   RELEASE  -
|  1> ! wb97x-v def2-tzvp def2/J RIJCOSX DEFGRID2 scfconv7 GCP(DFT/TZ) printgap
|  2> %output
|  3>     printlevel normal
|  4> end
|  5> %cpcm
|  6>     smd true
|  7>     smdsolvent "water"
|  8> end
|  9> * xyz 0 1
| 10> C -1.8323151780891185 -1.346406337982001 -2.209519942467017e-06
| 11> C -0.494266068283742 -1.7064933034644634 3.764975439113585e-05
| 12> C 0.5012409954287147 -0.7328548227289278 4.2800926626552585e-05
| 13> C 0.14031420826485116 0.6141837463451904 7.224314627439733e-06
| 14> C -1.197743853751786 0.9902945226297674 -3.103089065659881e-05
| 15> C -2.182021004221233 0.0038442964257002967 -3.5994980062796396e-05
| 16> O -3.516059787754503 0.3130804658615189 -8.069384168727417e-05
| 17> Cl 1.356934979086304 1.869606694400122 1.1379106199735862e-05
| 18> Cl 2.179303471835387 -1.225487393635444 8.25221399065005e-05
| 19> H -2.606180467021372 -2.1056158469284854 -9.959591994019885e-06
| 20> H -0.21526005796505981 -2.7540294687961455 5.991104368235955e-05
| 21> H -1.472891334343017 2.0398069094817477 -6.157262709262185e-05
| 22> H -3.6263613070565075 1.2749325460844387 -0.00013488072089718706
| 23> *
| 24>
| 25>                          ****END OF INPUT****

CARTESIAN COORDINATES (ANGSTROEM)
---------------------------------
  C     -1.832315   -1.346406   -0.000002
  C     -0.494266   -1.706493    0.000038
  C      0.501241   -0.732855    0.000043
  C      0.140314    0.614184    0.000007
  C     -1.197744    0.990295   -0.000031
  C     -2.182021    0.003844   -0.000036
  O     -3.516060    0.313080   -0.000081
  Cl     1.356935    1.869607    0.000011
  Cl     2.179303   -1.225487    0.000083
  H     -2.606180   -2.105616   -0.000010
  H     -0.215260   -2.754029    0.000060
  H     -1.472891    2.039807   -0.000062
  H     -3.626361    1.274933   -0.000135

 Total Charge           Charge          ....    0
 Multiplicity           Mult            ....    1
 Number of Electrons    NEL             ....   82
 Basis Dimension        Dim             ....  315

ORBITAL ENERGIES
----------------

  NO   OCC          E(Eh)            E(eV)
   0   2.0000    -107.155522     -2915.8500
   1   2.0000    -107.152295     -2915.7622
   2   2.0000     -21.709258      -590.7389
   3   2.0000     -12.132422      -330.1400
   4   2.0000     -12.128754      -330.0402
   5   2.0000     -12.121124      -329.8326
   6   2.0000     -12.072172      -328.5005
   7   2.0000     -12.067267      -328.3670
   8   2.0000     -12.059616      -328.1588
   9   2.0000     -11.308630      -307.7235
  10   2.0000     -11.305343      -307.6340
  11   2.0000      -9.100234      -247.6300
  12   2.0000      -9.097541      -247.5567
  13   2.0000      -9.097514      -247.5559
  14   2.0000      -9.096923      -247.5399
  15   2.0000      -9.094221      -247.4663
  16   2.0000      -9.094173      -247.4650
  17   2.0000      -1.724805       -46.9343
  18   2.0000      -1.457960       -39.6731
  19   2.0000      -1.418871       -38.6094
  20   2.0000      -1.383088       -37.6357
  21   2.0000      -1.292671       -35.1754
  22   2.0000      -1.284055       -34.9409
  23   2.0000      -1.169575       -31.8258
  24   2.0000      -1.133610       -30.8471
  25   2.0000      -1.080933       -29.4137
  26   2.0000      -1.022568       -27.8255
  27   2.0000      -0.977936       -26.6110
  28   2.0000      -0.966842       -26.3091
  29   2.0000      -0.956976       -26.0406
  30   2.0000      -0.937797       -25.5187
  31   2.0000      -0.902249       -24.5514
  32   2.0000      -0.886011       -24.1096
  33   2.0000      -0.850088       -23.1321
  34   2.0000      -0.843221       -22.9452
  35   2.0000      -0.814804       -22.1719
  36   2.0000      -0.804478       -21.8910
  37   2.0000      -0.797204       -21.6930
  38   2.0000      -0.770237       -20.9592
  39   2.0000      -0.664153       -18.0725
  40   2.0000      -0.658739       -17.9252
  41   0.0000      -0.297636        -8.0991
  42   0.0000      -0.279582        -7.6078
  43   0.0000      -0.263642        -7.1741
  44   0.0000      -0.245476        -6.6797
  45   0.0000      -0.140888        -3.8338

MULLIKEN ATOMIC CHARGES
-----------------------
   0 C :   -0.252240
   1 C :   -0.175552
   2 C :    0.056705
   3 C :    0.105220
   4 C :   -0.279799
   5 C :    0.273820
   6 O :   -0.454982
   7 Cl:   -0.086556
   8 Cl:   -0.096283
   9 H :    0.167375
  10 H :    0.175896
  11 H :    0.183116
  12 H :    0.383280
Sum of atomic charges:    0.0000000

LOEWDIN ATOMIC CHARGES
----------------------
   0 C :   -0.115069
   1 C :   -0.130583
   2 C :   -0.447681
   3 C :   -0.429262
   4 C :   -0.128189
   5 C :   -0.261205
   6 O :    0.059259
   7 Cl:    0.381351
   8 Cl:    0.368280
   9 H :    0.161207
  10 H :    0.161881
  11 H :    0.164624
  12 H :    0.215389

  Mayer bond orders larger than 0.100000
B(  0-C ,  1-C ) :   1.4543 B(  0-C ,  5-C ) :   1.3743 B(  0-C ,  9-H ) :   0.9731
B(  1-C ,  2-C ) :   1.3610 B(  1-C , 10-H ) :   0.9606 B(  2-C ,  3-C ) :   1.3073
B(  2-C ,  8-Cl) :   1.0570 B(  3-C ,  4-C ) :   1.3501 B(  3-C ,  7-Cl) :   1.0584
B(  4-C ,  5-C ) :   1.3848 B(  4-C , 11-H ) :   0.9470 B(  5-C ,  6-O ) :   1.1196
B(  6-O , 12-H ) :   0.8445

FINAL SINGLE POINT ENERGY     -1226.586472524583

DIPOLE MOMENT
-------------

Method             : SCF
Type of density    : Electron Density
Multiplicity       :   1
Irrep              :   0
Energy             : -1226.5930729424833316 Eh
Relativity type    :
Basis              : AO
                                X                 Y                 Z
Electronic contribution:     10.952684825       2.686865773       0.000212489
Nuclear contribution   :    -12.231363601      -2.310199657      -0.000278705
                        -----------------------------------------
Total Dipole Moment    :     -1.278678776       0.376666116      -0.000066216
                        -----------------------------------------
Magnitude (a.u.)       :      1.333002918
Magnitude (Debye)      :      3.388224151

Rotational constants in cm-1:             0.061038             0.029332             0.019811
Rotational constants in MHz :          1829.873892           879.338423           593.928506

                             ****ORCA TERMINATED NORMALLY****
TOTAL RUN TIME: 0 days 0 hours 2 minutes 35 seconds 457 msec
