                         Program Version 6.0.0  -   RELEASE  -
|  1> ! pbe def2-sv(p) def2/J RI DEFGRID1 loosescf d4 GCP(DFT/SV(P)) printgap
|  2> %output
|  3>     printlevel normal
|  4> end
|  5> * xyz 0 1
|  6> C -1.2568075796 -0.7367473321 -0.1281897377
|  7> C -0.0024190544 -0.0191627722 0.3683031682
|  8> C 1.2631573181 -0.7081388717 -0.1323032188
|  9> O 0.0441775332 1.3256641844 -0.0874978747
| 10> H -1.2890751659 -0.7108260866 -1.2148916202
| 11> H -1.2434882545 -1.7717028172 0.2000035756
| 12> H -2.1540897016 -0.2611227034 0.2615459085
| 13> H 0.0028109258 -0.0203538118 1.4716201046
| 14> H 1.2629281793 -0.7274602517 -1.2189255781
| 15> H 1.3125550167 -1.7236053181 0.2477091112
| 16> H 2.1371387964 -0.1557849158 0.201960111
| 17> H -0.7768640968 1.7738860623 0.1551848555
| 18> *
| 19>
| 20>                          ****END OF INPUT****

CARTESIAN COORDINATES (ANGSTROEM)
---------------------------------
  C     -1.256808   -0.736747   -0.128190
  C     -0.002419   -0.019163    0.368303
  C      1.263157   -0.708139   -0.132303
  O      0.044178    1.325664   -0.087498
  H     -1.289075   -0.710826   -1.214892
  H     -1.243488   -1.771703    0.200004
  H     -2.154090   -0.261123    0.261546
  H      0.002811   -0.020354    1.471620
  H      1.262928   -0.727460   -1.218926
  H      1.312555   -1.723605    0.247709
  H      2.137139   -0.155785    0.201960
  H     -0.776864    1.773886    0.155185

 Total Charge           Charge          ....    0
 Multiplicity           Mult            ....    1
 Number of Electrons    NEL             ....   34
 Basis Dimension        Dim             ....   72

ORBITAL ENERGIES
----------------

  NO   OCC          E(Eh)            E(eV)
   0   2.0000     -18.736311      -509.8409
   1   2.0000      -9.936764      -270.3931
   2   2.0000      -9.875463      -268.7250
   3   2.0000      -9.870012      -268.5767
   4   2.0000      -0.913137       -24.8477
   5   2.0000      -0.690835       -18.7986
   6   2.0000      -0.615941       -16.7606
   7   2.0000      -0.522396       -14.2151
   8   2.0000      -0.456460       -12.4209
   9   2.0000      -0.403024       -10.9668
  10   2.0000      -0.382950       -10.4206
  11   2.0000      -0.344590        -9.3768
  12   2.0000      -0.337335        -9.1793
  13   2.0000      -0.318192        -8.6585
  14   2.0000      -0.308801        -8.4029
  15   2.0000      -0.268134        -7.2963
  16   2.0000      -0.210072        -5.7164
  17   0.0000       0.025139         0.6841
  18   0.0000       0.068484         1.8635
  19   0.0000       0.085287         2.3208
  20   0.0000       0.092926         2.5286
  21   0.0000       0.099613         2.7106

MULLIKEN ATOMIC CHARGES
-----------------------
   0 C :   -0.272820
   1 C :   -0.001032
   2 C :   -0.248054
   3 O :   -0.430751
   4 H :    0.103834
   5 H :    0.097126
   6 H :    0.092931
   7 H :    0.060440
   8 H :    0.099897
   9 H :    0.096829
  10 H :    0.109878
  11 H :    0.291721
Sum of atomic charges:   -0.0000000

LOEWDIN ATOMIC CHARGES
----------------------
   0 C :   -0.354860
   1 C :   -0.062183
   2 C :   -0.340526
   3 O :   -0.340234
   4 H :    0.121637
   5 H :    0.122895
   6 H :    0.112765
   7 H :    0.093445
   8 H :    0.121732
   9 H :    0.121044
  10 H :    0.124384
  11 H :    0.279901

  Mayer bond orders larger than 0.100000
B(  0-C ,  1-C ) :   1.1056 B(  0-C ,  4-H ) :   0.9439 B(  0-C ,  5-H ) :   0.9403
B(  0-C ,  6-H ) :   0.9482 B(  1-C ,  2-C ) :   1.1160 B(  1-C ,  3-O ) :   1.0606
B(  1-C ,  7-H ) :   0.9126 B(  2-C ,  8-H ) :   0.9465 B(  2-C ,  9-H ) :   0.9487
B(  2-C , 10-H ) :   0.9468 B(  3-O , 11-H ) :   0.8552

Dispersion correction           -0.006556234
FINAL SINGLE POINT ENERGY      -193.879848642531

DIPOLE MOMENT
-------------

Method             : SCF
Type of density    : Electron Density
Multiplicity       :   1
Irrep              :   0
Energy             :  -193.9288927789177137 Eh
Relativity type    :
Basis              : AO
                                X                 Y                 Z
Electronic contribution:      0.216536323       3.168815067       0.181874750
Nuclear contribution   :     -0.701174038      -3.354844408       0.096461250
                        -----------------------------------------
Total Dipole Moment    :     -0.484637715      -0.186029341       0.278335999
                        -----------------------------------------
Magnitude (a.u.)       :      0.589025941
Magnitude (Debye)      :      1.497184958

Rotational constants in cm-1:             0.287229             0.271224             0.159312
Rotational constants in MHz :          8610.915332          8131.090276          4776.065282

                             ****ORCA TERMINATED NORMALLY****
TOTAL RUN TIME: 0 days 0 hours 0 minutes 4 seconds 683 msec
