                         Program Version 6.0.0  -   RELEASE  -
|  1> ! pbe def2-sv(p) def2/J RI DEFGRID1 loosescf d4 GCP(DFT/SV(P)) printgap
|  2> %output
|  3>     printlevel normal
|  4> end
|  5> * xyz 0 1
|  6> C 1.9098088321 -0.4062285259 0.9831140398
|  7> C 1.1132992856 -0.3592036375 -0.3151632753
|  8> C -0.3573740595 0.080492032 -0.172055841
|  9> C -0.4636148606 1.5227507141 0.3353245522
| 10> C -1.1419684445 -0.8611635171 0.7426679278
| 11> O -0.9857338376 -0.0238861343 -1.452239338
| 12> H 1.9438101445 0.5710894838 1.4562259038
| 13> H 2.9303650789 -0.7154587649 0.7702299672
| 14> H 1.4791943279 -1.1186936774 1.6805272756
| 15> H 1.1155974554 -1.3496531259 -0.7771901591
| 16> H 1.6080090474 0.3276782976 -1.0079837245
| 17> H -0.1375526206 1.5896443093 1.3680859352
| 18> H 0.147932861 2.1887482163 -0.2701155956
| 19> H -1.4991909133 1.8498475902 0.2769750366
| 20> H -1.0233224911 -1.8876393121 0.4061050001
| 21> H -0.8033056333 -0.773241688 1.7691060737
| 22> H -2.197203113 -0.6055077269 0.6930151684
| 23> H -0.5504644493 0.5806483611 -2.0679311138
| 24> *
| 25>
| 26>                          ****END OF INPUT****

CARTESIAN COORDINATES (ANGSTROEM)
---------------------------------
  C      1.909809   -0.406229    0.983114
  C      1.113299   -0.359204   -0.315163
  C     -0.357374    0.080492   -0.172056
  C     -0.463615    1.522751    0.335325
  C     -1.141968   -0.861164    0.742668
  O     -0.985734   -0.023886   -1.452239
  H      1.943810    0.571089    1.456226
  H      2.930365   -0.715459    0.770230
  H      1.479194   -1.118694    1.680527
  H      1.115597   -1.349653   -0.777190
  H      1.608009    0.327678   -1.007984
  H     -0.137553    1.589644    1.368086
  H      0.147933    2.188748   -0.270116
  H     -1.499191    1.849848    0.276975
  H     -1.023322   -1.887639    0.406105
  H     -0.803306   -0.773242    1.769106
  H     -2.197203   -0.605508    0.693015
  H     -0.550464    0.580648   -2.067931

 Total Charge           Charge          ....    0
 Multiplicity           Mult            ....    1
 Number of Electrons    NEL             ....   50
 Basis Dimension        Dim             ....  108

ORBITAL ENERGIES
----------------

  NO   OCC          E(Eh)            E(eV)
   0   2.0000     -18.733154      -509.7550
   1   2.0000      -9.943998      -270.5899
   2   2.0000      -9.882313      -268.9114
   3   2.0000      -9.876389      -268.7502
   4   2.0000      -9.872775      -268.6519
   5   2.0000      -9.868695      -268.5408
   6   2.0000      -0.911958       -24.8156
   7   2.0000      -0.716743       -19.5036
   8   2.0000      -0.656833       -17.8733
   9   2.0000      -0.616384       -16.7727
  10   2.0000      -0.564681       -15.3657
  11   2.0000      -0.499883       -13.6025
  12   2.0000      -0.441647       -12.0178
  13   2.0000      -0.411791       -11.2054
  14   2.0000      -0.396210       -10.7814
  15   2.0000      -0.379108       -10.3160
  16   2.0000      -0.346864        -9.4386
  17   2.0000      -0.343027        -9.3342
  18   2.0000      -0.336658        -9.1609
  19   2.0000      -0.330183        -8.9847
  20   2.0000      -0.309419        -8.4197
  21   2.0000      -0.296146        -8.0585
  22   2.0000      -0.289600        -7.8804
  23   2.0000      -0.262396        -7.1402
  24   2.0000      -0.207842        -5.6557
  25   0.0000       0.024566         0.6685
  26   0.0000       0.053172         1.4469
  27   0.0000       0.072296         1.9673
  28   0.0000       0.080684         2.1955
  29   0.0000       0.088039         2.3957

MULLIKEN ATOMIC CHARGES
-----------------------
   0 C :   -0.289620
   1 C :   -0.135840
   2 C :   -0.047567
   3 C :   -0.233471
   4 C :   -0.220090
   5 O :   -0.422801
   6 H :    0.103712
   7 H :    0.103250
   8 H :    0.107843
   9 H :    0.087676
  10 H :    0.063960
  11 H :    0.100486
  12 H :    0.083762
  13 H :    0.104799
  14 H :    0.100159
  15 H :    0.101404
  16 H :    0.103226
  17 H :    0.289112
Sum of atomic charges:    0.0000000

LOEWDIN ATOMIC CHARGES
----------------------
   0 C :   -0.343821
   1 C :   -0.234673
   2 C :   -0.015752
   3 C :   -0.340247
   4 C :   -0.326842
   5 O :   -0.324140
   6 H :    0.117254
   7 H :    0.122399
   8 H :    0.119462
   9 H :    0.117906
  10 H :    0.107227
  11 H :    0.120998
  12 H :    0.112353
  13 H :    0.122999
  14 H :    0.122327
  15 H :    0.119977
  16 H :    0.124880
  17 H :    0.277691

  Mayer bond orders larger than 0.100000
B(  0-C ,  1-C ) :   1.1373 B(  0-C ,  6-H ) :   0.9492 B(  0-C ,  7-H ) :   0.9457
B(  0-C ,  8-H ) :   0.9488 B(  1-C ,  2-C ) :   1.0523 B(  1-C ,  9-H ) :   0.9152
B(  1-C , 10-H ) :   0.9129 B(  2-C ,  3-C ) :   1.0807 B(  2-C ,  4-C ) :   1.0780
B(  2-C ,  5-O ) :   1.0183 B(  3-C , 11-H ) :   0.9332 B(  3-C , 12-H ) :   0.9418
B(  3-C , 13-H ) :   0.9427 B(  4-C , 14-H ) :   0.9438 B(  4-C , 15-H ) :   0.9402
B(  4-C , 16-H ) :   0.9415 B(  5-O , 17-H ) :   0.8550

Dispersion correction           -0.013705389
FINAL SINGLE POINT ENERGY      -272.308588117821

DIPOLE MOMENT
-------------

Method             : SCF
Type of density    : Electron Density
Multiplicity       :   1
Irrep              :   0
Energy             :  -272.3774751842546493 Eh
Relativity type    :
Basis              : AO
                                X                 Y                 Z
Electronic contribution:     -2.371138782      -0.276675365      -3.914063641
Nuclear contribution   :      2.812874192       0.616452420       4.009783913
                        -----------------------------------------
Total Dipole Moment    :      0.441735410       0.339777055       0.095720272
                        -----------------------------------------
Magnitude (a.u.)       :      0.565456444
Magnitude (Debye)      :      1.437276058

Rotational constants in cm-1:             0.148318             0.085706             0.085173
Rotational constants in MHz :          4446.470832          2569.414327          2553.434136

                             ****ORCA TERMINATED NORMALLY****
TOTAL RUN TIME: 0 days 0 hours 0 minutes 6 seconds 799 msec
