                         Program Version 6.0.0  -   RELEASE  -
|  1> ! pbe def2-sv(p) def2/J RI DEFGRID1 loosescf d4 GCP(DFT/SV(P)) printgap
|  2> %output
|  3>     printlevel normal
|  4> end
|  5> * xyz 0 1
|  6> C -1.8539872165 1.048e-06 -0.0054017261
|  7> C -1.153617633 -1.1955686363 -0.0012113053
|  8> C 0.2266503426 -1.2004907891 0.0084477458
|  9> C 0.9423028082 -7.901e-07 0.0118349678
| 10> C 0.2266532792 1.2004916585 0.0084381169
| 11> C -1.1536215422 1.1955675604 -0.0011998997
| 12> N 2.3159439984 -1.7869e-06 -0.0511889406
| 13> H -2.9335042329 1.2944e-06 -0.0104824332
| 14> H -1.6895172842 -2.1339379128 -0.0023350274
| 15> H 0.7655563367 -2.1371632733 0.01187125
| 16> H 0.7655570179 2.137163985 0.0119173345
| 17> H -1.6895161056 2.1339318057 -0.0023621577
| 18> H 2.7768434583 -0.8501353906 0.2268378492
| 19> H 2.7768392203 0.8501637113 0.2267520185
| 20> *
| 21>
| 22>                          ****END OF INPUT****

CARTESIAN COORDINATES (ANGSTROEM)
---------------------------------
  C     -1.853987    0.000001   -0.005402
  C     -1.153618   -1.195569   -0.001211
  C      0.226650   -1.200491    0.008448
  C      0.942303   -0.000001    0.011835
  C      0.226653    1.200492    0.008438
  C     -1.153622    1.195568   -0.001200
  N      2.315944   -0.000002   -0.051189
  H     -2.933504    0.000001   -0.010482
  H     -1.689517   -2.133938   -0.002335
  H      0.765556   -2.137163    0.011871
  H      0.765557    2.137164    0.011917
  H     -1.689516    2.133932   -0.002362
  H      2.776843   -0.850135    0.226838
  H      2.776839    0.850164    0.226752

 Total Charge           Charge          ....    0
 Multiplicity           Mult            ....    1
 Number of Electrons    NEL             ....   50
 Basis Dimension        Dim             ....  112

ORBITAL ENERGIES
----------------

  NO   OCC          E(Eh)            E(eV)
   0   2.0000     -13.990990      -380.7142
   1   2.0000      -9.925266      -270.0802
   2   2.0000      -9.882625      -268.9199
   3   2.0000      -9.882609      -268.9195
   4   2.0000      -9.877684      -268.7854
   5   2.0000      -9.877679      -268.7853
   6   2.0000      -9.873164      -268.6624
   7   2.0000      -0.834013       -22.6946
   8   2.0000      -0.750556       -20.4237
   9   2.0000      -0.661043       -17.9879
  10   2.0000      -0.643622       -17.5138
  11   2.0000      -0.545119       -14.8334
  12   2.0000      -0.531301       -14.4574
  13   2.0000      -0.471764       -12.8373
  14   2.0000      -0.461906       -12.5691
  15   2.0000      -0.420250       -11.4356
  16   2.0000      -0.377647       -10.2763
  17   2.0000      -0.377062       -10.2604
  18   2.0000      -0.365408        -9.9433
  19   2.0000      -0.339056        -9.2262
  20   2.0000      -0.306634        -8.3439
  21   2.0000      -0.290934        -7.9167
  22   2.0000      -0.269787        -7.3413
  23   2.0000      -0.218927        -5.9573
  24   2.0000      -0.169989        -4.6256
  25   0.0000      -0.023484        -0.6390
  26   0.0000      -0.006068        -0.1651
  27   0.0000       0.034313         0.9337
  28   0.0000       0.054913         1.4943
  29   0.0000       0.066922         1.8210

MULLIKEN ATOMIC CHARGES
-----------------------
   0 C :   -0.056500
   1 C :   -0.063080
   2 C :   -0.128460
   3 C :    0.156209
   4 C :   -0.128463
   5 C :   -0.063078
   6 N :   -0.335376
   7 H :    0.042388
   8 H :    0.046928
   9 H :    0.019542
  10 H :    0.019541
  11 H :    0.046925
  12 H :    0.221713
  13 H :    0.221712
Sum of atomic charges:    0.0000000

LOEWDIN ATOMIC CHARGES
----------------------
   0 C :   -0.161590
   1 C :   -0.117133
   2 C :   -0.164448
   3 C :   -0.006795
   4 C :   -0.164449
   5 C :   -0.117134
   6 N :   -0.313942
   7 H :    0.119121
   8 H :    0.121267
   9 H :    0.116673
  10 H :    0.116672
  11 H :    0.121267
  12 H :    0.225245
  13 H :    0.225245

  Mayer bond orders larger than 0.100000
B(  0-C ,  1-C ) :   1.3694 B(  0-C ,  5-C ) :   1.3694 B(  0-C ,  7-H ) :   0.9667
B(  1-C ,  2-C ) :   1.3958 B(  1-C ,  8-H ) :   0.9607 B(  2-C ,  3-C ) :   1.3267
B(  2-C ,  9-H ) :   0.9614 B(  3-C ,  4-C ) :   1.3267 B(  3-C ,  6-N ) :   1.2366
B(  4-C ,  5-C ) :   1.3958 B(  4-C , 10-H ) :   0.9614 B(  5-C , 11-H ) :   0.9607
B(  6-N , 12-H ) :   0.8828 B(  6-N , 13-H ) :   0.8828

Dispersion correction           -0.013231550
FINAL SINGLE POINT ENERGY      -286.963546402037

DIPOLE MOMENT
-------------

Method             : SCF
Type of density    : Electron Density
Multiplicity       :   1
Irrep              :   0
Energy             :  -287.0058843011478302 Eh
Relativity type    :
Basis              : AO
                                X                 Y                 Z
Electronic contribution:      0.011570714      -0.000009337      -0.112426661
Nuclear contribution   :      0.737267538       0.000022712       0.433340916
                        -----------------------------------------
Total Dipole Moment    :      0.748838252       0.000013376       0.320914255
                        -----------------------------------------
Magnitude (a.u.)       :      0.814705276
Magnitude (Debye)      :      2.070816242

Rotational constants in cm-1:             0.189526             0.087992             0.060155
Rotational constants in MHz :          5681.834379          2637.935724          1803.388754

                             ****ORCA TERMINATED NORMALLY****
TOTAL RUN TIME: 0 days 0 hours 0 minutes 6 seconds 490 msec
