                         Program Version 6.0.0  -   RELEASE  -
|  1> ! pbe def2-sv(p) def2/J RI DEFGRID1 loosescf d4 GCP(DFT/SV(P)) printgap
|  2> %output
|  3>     printlevel normal
|  4> end
|  5> * xyz 0 1
|  6> C -2.7238502405 0.2534371765 -0.2967877191
|  7> C -1.4553902598 -0.0969387277 0.4783485627
|  8> C -0.7419308998 -1.2902619633 -0.1745768135
|  9> C 0.7419536283 -1.2900583686 0.1753463017
| 10> C 1.4550582347 -0.0969641646 -0.4783855397
| 11> C 0.5043170436 1.1090303079 -0.5713138252
| 12> C -0.5044852446 1.1088325099 0.5719682202
| 13> C 2.7242753452 0.2532200983 0.2955129485
| 14> H -3.361006122 -0.6226431077 -0.3964971763
| 15> H -3.2859863824 1.0301848097 0.2168967734
| 16> H -2.4748938105 0.6112808507 -1.293464981
| 17> H -1.7484909734 -0.3807986178 1.4953182473
| 18> H -1.2069951742 -2.2209125217 0.1557117079
| 19> H -0.8500012789 -1.2373704993 -1.2598753754
| 20> H 0.8501579691 -1.2365673519 1.260590286
| 21> H 1.2071658867 -2.2207985914 -0.1545157965
| 22> H 1.7471123468 -0.3811214562 -1.4955799611
| 23> H 1.0848050077 2.0330891446 -0.553453686
| 24> H -0.0362609096 1.0837816051 -1.5189400359
| 25> H 0.0360516931 1.0830023577 1.5196182301
| 26> H -1.0848279843 2.0329945897 0.5546173069
| 27> H 3.2861191446 1.0297627992 -0.2188665233
| 28> H 3.3613528137 -0.6229485014 0.3947706106
| 29> H 2.4763221308 0.6113695931 1.2923340674
| 30> *
| 31>
| 32>                          ****END OF INPUT****

CARTESIAN COORDINATES (ANGSTROEM)
---------------------------------
  C     -2.723850    0.253437   -0.296788
  C     -1.455390   -0.096939    0.478349
  C     -0.741931   -1.290262   -0.174577
  C      0.741954   -1.290058    0.175346
  C      1.455058   -0.096964   -0.478386
  C      0.504317    1.109030   -0.571314
  C     -0.504485    1.108833    0.571968
  C      2.724275    0.253220    0.295513
  H     -3.361006   -0.622643   -0.396497
  H     -3.285986    1.030185    0.216897
  H     -2.474894    0.611281   -1.293465
  H     -1.748491   -0.380799    1.495318
  H     -1.206995   -2.220913    0.155712
  H     -0.850001   -1.237370   -1.259875
  H      0.850158   -1.236567    1.260590
  H      1.207166   -2.220799   -0.154516
  H      1.747112   -0.381121   -1.495580
  H      1.084805    2.033089   -0.553454
  H     -0.036261    1.083782   -1.518940
  H      0.036052    1.083002    1.519618
  H     -1.084828    2.032995    0.554617
  H      3.286119    1.029763   -0.218867
  H      3.361353   -0.622949    0.394771
  H      2.476322    0.611370    1.292334

 Total Charge           Charge          ....    0
 Multiplicity           Mult            ....    1
 Number of Electrons    NEL             ....   64
 Basis Dimension        Dim             ....  144

ORBITAL ENERGIES
----------------

  NO   OCC          E(Eh)            E(eV)
   0   2.0000      -9.886556      -269.0269
   1   2.0000      -9.886530      -269.0261
   2   2.0000      -9.874904      -268.7098
   3   2.0000      -9.874869      -268.7088
   4   2.0000      -9.874751      -268.7056
   5   2.0000      -9.874717      -268.7047
   6   2.0000      -9.868762      -268.5427
   7   2.0000      -9.868754      -268.5425
   8   2.0000      -0.757230       -20.6053
   9   2.0000      -0.696046       -18.9404
  10   2.0000      -0.658100       -17.9078
  11   2.0000      -0.626609       -17.0509
  12   2.0000      -0.573740       -15.6123
  13   2.0000      -0.547721       -14.9042
  14   2.0000      -0.505139       -13.7455
  15   2.0000      -0.458233       -12.4692
  16   2.0000      -0.430852       -11.7241
  17   2.0000      -0.430759       -11.7215
  18   2.0000      -0.386360       -10.5134
  19   2.0000      -0.369291       -10.0489
  20   2.0000      -0.366675        -9.9777
  21   2.0000      -0.356740        -9.7074
  22   2.0000      -0.335316        -9.1244
  23   2.0000      -0.332250        -9.0410
  24   2.0000      -0.324343        -8.8258
  25   2.0000      -0.310185        -8.4406
  26   2.0000      -0.298077        -8.1111
  27   2.0000      -0.289449        -7.8763
  28   2.0000      -0.288835        -7.8596
  29   2.0000      -0.254293        -6.9197
  30   2.0000      -0.251323        -6.8389
  31   2.0000      -0.251303        -6.8383
  32   0.0000       0.029479         0.8022
  33   0.0000       0.045087         1.2269
  34   0.0000       0.057902         1.5756
  35   0.0000       0.075041         2.0420
  36   0.0000       0.092769         2.5244

MULLIKEN ATOMIC CHARGES
-----------------------
   0 C :   -0.241830
   1 C :   -0.181476
   2 C :   -0.109765
   3 C :   -0.109792
   4 C :   -0.181530
   5 C :   -0.117653
   6 C :   -0.117608
   7 C :   -0.241767
   8 H :    0.097709
   9 H :    0.097046
  10 H :    0.095043
  11 H :    0.063957
  12 H :    0.079398
  13 H :    0.066035
  14 H :    0.066043
  15 H :    0.079399
  16 H :    0.063960
  17 H :    0.076900
  18 H :    0.074633
  19 H :    0.074619
  20 H :    0.076903
  21 H :    0.097051
  22 H :    0.097692
  23 H :    0.095031
Sum of atomic charges:    0.0000000

LOEWDIN ATOMIC CHARGES
----------------------
   0 C :   -0.329342
   1 C :   -0.151624
   2 C :   -0.219285
   3 C :   -0.219289
   4 C :   -0.151628
   5 C :   -0.219743
   6 C :   -0.219739
   7 C :   -0.329335
   8 H :    0.116910
   9 H :    0.115592
  10 H :    0.114608
  11 H :    0.113561
  12 H :    0.116714
  13 H :    0.113333
  14 H :    0.113333
  15 H :    0.116711
  16 H :    0.113559
  17 H :    0.115989
  18 H :    0.113294
  19 H :    0.113289
  20 H :    0.115984
  21 H :    0.115591
  22 H :    0.116906
  23 H :    0.114612

  Mayer bond orders larger than 0.100000
B(  0-C ,  1-C ) :   1.1204 B(  0-C ,  8-H ) :   0.9494 B(  0-C ,  9-H ) :   0.9476
B(  0-C , 10-H ) :   0.9458 B(  1-C ,  2-C ) :   1.0997 B(  1-C ,  6-C ) :   1.0881
B(  1-C , 11-H ) :   0.8971 B(  2-C ,  3-C ) :   1.1894 B(  2-C , 12-H ) :   0.9144
B(  2-C , 13-H ) :   0.9001 B(  3-C ,  4-C ) :   1.0998 B(  3-C , 14-H ) :   0.9000
B(  3-C , 15-H ) :   0.9144 B(  4-C ,  5-C ) :   1.0880 B(  4-C ,  7-C ) :   1.1204
B(  4-C , 16-H ) :   0.8971 B(  5-C ,  6-C ) :   1.1828 B(  5-C , 17-H ) :   0.9178
B(  5-C , 18-H ) :   0.9005 B(  6-C , 19-H ) :   0.9005 B(  6-C , 20-H ) :   0.9178
B(  7-C , 21-H ) :   0.9476 B(  7-C , 22-H ) :   0.9493 B(  7-C , 23-H ) :   0.9458

Dispersion correction           -0.022508726
FINAL SINGLE POINT ENERGY      -313.696118548611

DIPOLE MOMENT
-------------

Method             : SCF
Type of density    : Electron Density
Multiplicity       :   1
Irrep              :   0
Energy             :  -313.7767690410091745 Eh
Relativity type    :
Basis              : AO
                                X                 Y                 Z
Electronic contribution:     -0.000620706      -0.582940060       0.001293144
Nuclear contribution   :      0.000585749       0.555678755      -0.001253673
                        -----------------------------------------
Total Dipole Moment    :     -0.000034957      -0.027261305       0.000039471
                        -----------------------------------------
Magnitude (a.u.)       :      0.027261356
Magnitude (Debye)      :      0.069292859

Rotational constants in cm-1:             0.127734             0.047988             0.040398
Rotational constants in MHz :          3829.378428          1438.634528          1211.100044

                             ****ORCA TERMINATED NORMALLY****
TOTAL RUN TIME: 0 days 0 hours 0 minutes 10 seconds 15 msec
