                         Program Version 6.0.0  -   RELEASE  -
|  1> ! pbe def2-sv(p) def2/J RI DEFGRID1 loosescf d4 GCP(DFT/SV(P)) printgap
|  2> %output
|  3>     printlevel normal
|  4> end
|  5> * xyz 0 1
|  6> C -2.391045414 -1.1598430172 -0.3111699512
|  7> C -1.0693024002 -0.6233476264 0.2484204194
|  8> H -1.1112799034 -0.6116299974 1.3498645017
|  9> C -0.7770081939 0.804737494 -0.2361022379
| 10> H -0.8317605493 0.8222785778 -1.3375794973
| 11> C 0.6392481386 1.2455039308 0.1726885312
| 12> H 0.6617620899 1.3880202331 1.2643681514
| 13> C 1.6826252197 0.1877162275 -0.188922682
| 14> H 1.796697674 0.1653598972 -1.281674518
| 15> C 1.2184807752 -1.2026426443 0.2815315623
| 16> H 1.2110123903 -1.205052546 1.3928957791
| 17> O -0.0696943957 -1.5199973819 -0.19023183
| 18> O 2.1034750132 -2.1361902241 -0.2175364048
| 19> O 2.8905751054 0.5270695694 0.4379404203
| 20> O 0.9852881943 2.4411452171 -0.4779999118
| 21> O -1.6633694798 1.746485285 0.3153538951
| 22> O -3.4509775011 -0.3619843346 0.1610050937
| 23> H -2.4965496659 -2.200036158 0.0159522643
| 24> H -2.3332921888 -1.1380274009 -1.4062054418
| 25> H 1.7477023765 -3.0297415796 -0.0893078254
| 26> H 3.5742944864 -0.1012869274 0.1602147422
| 27> H 0.319129731 3.1088934973 -0.253836915
| 28> H -2.5644244257 1.3783773177 0.2888566842
| 29> H -4.2917603992 -0.7215124083 -0.1565905731
| 30> *
| 31>
| 32>                          ****END OF INPUT****

CARTESIAN COORDINATES (ANGSTROEM)
---------------------------------
  C     -2.391045   -1.159843   -0.311170
  C     -1.069302   -0.623348    0.248420
  H     -1.111280   -0.611630    1.349865
  C     -0.777008    0.804737   -0.236102
  H     -0.831761    0.822279   -1.337579
  C      0.639248    1.245504    0.172689
  H      0.661762    1.388020    1.264368
  C      1.682625    0.187716   -0.188923
  H      1.796698    0.165360   -1.281675
  C      1.218481   -1.202643    0.281532
  H      1.211012   -1.205053    1.392896
  O     -0.069694   -1.519997   -0.190232
  O      2.103475   -2.136190   -0.217536
  O      2.890575    0.527070    0.437940
  O      0.985288    2.441145   -0.478000
  O     -1.663369    1.746485    0.315354
  O     -3.450978   -0.361984    0.161005
  H     -2.496550   -2.200036    0.015952
  H     -2.333292   -1.138027   -1.406205
  H      1.747702   -3.029742   -0.089308
  H      3.574294   -0.101287    0.160215
  H      0.319130    3.108893   -0.253837
  H     -2.564424    1.378377    0.288857
  H     -4.291760   -0.721512   -0.156591

 Total Charge           Charge          ....    0
 Multiplicity           Mult            ....    1
 Number of Electrons    NEL             ....   96
 Basis Dimension        Dim             ....  192

ORBITAL ENERGIES
----------------

  NO   OCC          E(Eh)            E(eV)
   0   2.0000     -18.784778      -511.1598
   1   2.0000     -18.776331      -510.9299
   2   2.0000     -18.765627      -510.6387
   3   2.0000     -18.740692      -509.9602
   4   2.0000     -18.739904      -509.9387
   5   2.0000     -18.733558      -509.7660
   6   2.0000      -9.984385      -271.6889
   7   2.0000      -9.950443      -270.7653
   8   2.0000      -9.949784      -270.7474
   9   2.0000      -9.934371      -270.3280
  10   2.0000      -9.931499      -270.2498
  11   2.0000      -9.930854      -270.2323
  12   2.0000      -0.987492       -26.8710
  13   2.0000      -0.957556       -26.0564
  14   2.0000      -0.930134       -25.3102
  15   2.0000      -0.926310       -25.2062
  16   2.0000      -0.913337       -24.8532
  17   2.0000      -0.900949       -24.5161
  18   2.0000      -0.702362       -19.1123
  19   2.0000      -0.690944       -18.8015
  20   2.0000      -0.621021       -16.8988
  21   2.0000      -0.578557       -15.7433
  22   2.0000      -0.555724       -15.1220
  23   2.0000      -0.520609       -14.1665
  24   2.0000      -0.508685       -13.8420
  25   2.0000      -0.488510       -13.2930
  26   2.0000      -0.471210       -12.8223
  27   2.0000      -0.464882       -12.6501
  28   2.0000      -0.456478       -12.4214
  29   2.0000      -0.445017       -12.1095
  30   2.0000      -0.411429       -11.1955
  31   2.0000      -0.399275       -10.8648
  32   2.0000      -0.385981       -10.5031
  33   2.0000      -0.362554        -9.8656
  34   2.0000      -0.353737        -9.6257
  35   2.0000      -0.348075        -9.4716
  36   2.0000      -0.333704        -9.0806
  37   2.0000      -0.327673        -8.9164
  38   2.0000      -0.308229        -8.3873
  39   2.0000      -0.292300        -7.9539
  40   2.0000      -0.276741        -7.5305
  41   2.0000      -0.264813        -7.2059
  42   2.0000      -0.250906        -6.8275
  43   2.0000      -0.245059        -6.6684
  44   2.0000      -0.235318        -6.4033
  45   2.0000      -0.215608        -5.8670
  46   2.0000      -0.209382        -5.6976
  47   2.0000      -0.196284        -5.3412
  48   0.0000      -0.000472        -0.0128
  49   0.0000       0.027803         0.7566
  50   0.0000       0.039987         1.0881
  51   0.0000       0.051905         1.4124
  52   0.0000       0.065963         1.7949

MULLIKEN ATOMIC CHARGES
-----------------------
   0 C :    0.075494
   1 C :   -0.012430
   2 H :    0.062392
   3 C :    0.038531
   4 H :    0.047274
   5 C :    0.101199
   6 H :    0.055109
   7 C :    0.056285
   8 H :    0.060066
   9 C :    0.174041
  10 H :    0.036161
  11 O :   -0.314516
  12 O :   -0.386500
  13 O :   -0.408481
  14 O :   -0.411288
  15 O :   -0.437986
  16 O :   -0.444528
  17 H :    0.087172
  18 H :    0.078819
  19 H :    0.308547
  20 H :    0.304071
  21 H :    0.305513
  22 H :    0.306417
  23 H :    0.318636
Sum of atomic charges:   -0.0000000

LOEWDIN ATOMIC CHARGES
----------------------
   0 C :   -0.122647
   1 C :   -0.068758
   2 H :    0.106009
   3 C :   -0.077778
   4 H :    0.100555
   5 C :   -0.060296
   6 H :    0.106896
   7 C :   -0.075527
   8 H :    0.110242
   9 C :   -0.004973
  10 H :    0.080065
  11 O :   -0.152735
  12 O :   -0.299304
  13 O :   -0.310817
  14 O :   -0.315140
  15 O :   -0.334172
  16 O :   -0.329871
  17 H :    0.104971
  18 H :    0.103612
  19 H :    0.291292
  20 H :    0.287871
  21 H :    0.287791
  22 H :    0.274993
  23 H :    0.297721

  Mayer bond orders larger than 0.100000
B(  0-C ,  1-C ) :   1.0569 B(  0-C , 16-O ) :   1.0488 B(  0-C , 17-H ) :   0.9183
B(  0-C , 18-H ) :   0.9072 B(  1-C ,  2-H ) :   0.8751 B(  1-C ,  3-C ) :   1.0060
B(  1-C , 11-O ) :   0.9925 B(  3-C ,  4-H ) :   0.8664 B(  3-C ,  5-C ) :   1.0098
B(  3-C , 15-O ) :   1.0816 B(  5-C ,  6-H ) :   0.8742 B(  5-C ,  7-C ) :   1.0072
B(  5-C , 14-O ) :   1.1014 B(  7-C ,  8-H ) :   0.8664 B(  7-C ,  9-C ) :   0.9951
B(  7-C , 13-O ) :   1.0855 B(  9-C , 10-H ) :   0.8829 B(  9-C , 11-O ) :   0.9990
B(  9-C , 12-O ) :   1.1679 B( 12-O , 19-H ) :   0.8384 B( 13-O , 20-H ) :   0.8432
B( 14-O , 21-H ) :   0.8407 B( 15-O , 22-H ) :   0.8043 B( 16-O , 22-H ) :   0.1035
B( 16-O , 23-H ) :   0.8406

Dispersion correction           -0.023722151
FINAL SINGLE POINT ENERGY      -685.700838271847

DIPOLE MOMENT
-------------

Method             : SCF
Type of density    : Electron Density
Multiplicity       :   1
Irrep              :   0
Energy             :  -685.8314786306981432 Eh
Relativity type    :
Basis              : AO
                                X                 Y                 Z
Electronic contribution:      2.604984268       0.589424868      -0.071382567
Nuclear contribution   :     -4.039676074      -2.001453414      -0.049340351
                        -----------------------------------------
Total Dipole Moment    :     -1.434691806      -1.412028546      -0.120722918
                        -----------------------------------------
Magnitude (a.u.)       :      2.016615783
Magnitude (Debye)      :      5.125829964

Rotational constants in cm-1:             0.043987             0.024544             0.016539
Rotational constants in MHz :          1318.700179           735.795997           495.833569

                             ****ORCA TERMINATED NORMALLY****
TOTAL RUN TIME: 0 days 0 hours 0 minutes 12 seconds 127 msec
