                         Program Version 6.0.0  -   RELEASE  -
|  1> ! pbe def2-sv(p) def2/J RI DEFGRID1 loosescf d4 GCP(DFT/SV(P)) printgap
|  2> %output
|  3>     printlevel normal
|  4> end
|  5> * xyz 0 1
|  6> C -2.3578619522 -1.0029005156 0.3499080551
|  7> C -1.0852782302 -0.2550090216 0.7933213182
|  8> H -1.3112162474 0.2102717785 1.7611061584
|  9> C -0.671933184 0.8631888162 -0.1689444547
| 10> H -0.6664814061 0.5084186092 -1.2102694712
| 11> C 0.7591487452 1.2943591432 0.1802836037
| 12> H 0.7887213188 1.5550047655 1.2509555048
| 13> C 1.7318673888 0.1271764926 -0.0785405309
| 14> H 2.0894352628 0.1852539799 -1.1117873747
| 15> C 0.9927261031 -1.2225530658 0.0717327349
| 16> H 1.6979390726 -1.9741986146 0.4660182329
| 17> O -0.0149826716 -1.1678873874 1.0445398392
| 18> O 0.5284816055 -1.6004483936 -1.1850646058
| 19> O 2.8741617875 0.2058007276 0.7331261519
| 20> O 1.0592041635 2.4274109398 -0.5982667787
| 21> O -1.5869180763 1.917373279 -0.0176815372
| 22> O -2.2396356944 -1.6757328126 -0.8809186293
| 23> H -3.1797781211 -0.2817122397 0.3349445604
| 24> H -2.5651690441 -1.7758576308 1.0933305023
| 25> H -0.2340249948 -2.202809461 -1.0868617245
| 26> H 2.6322776956 0.0538414757 1.6587102959
| 27> H 1.9686383308 2.7071895292 -0.4240359229
| 28> H -1.2103512576 2.7013010272 -0.4478244075
| 29> H -2.3333237248 -1.0449597932 -1.607679233
| 30> *
| 31>
| 32>                          ****END OF INPUT****

CARTESIAN COORDINATES (ANGSTROEM)
---------------------------------
  C     -2.357862   -1.002901    0.349908
  C     -1.085278   -0.255009    0.793321
  H     -1.311216    0.210272    1.761106
  C     -0.671933    0.863189   -0.168944
  H     -0.666481    0.508419   -1.210269
  C      0.759149    1.294359    0.180284
  H      0.788721    1.555005    1.250956
  C      1.731867    0.127176   -0.078541
  H      2.089435    0.185254   -1.111787
  C      0.992726   -1.222553    0.071733
  H      1.697939   -1.974199    0.466018
  O     -0.014983   -1.167887    1.044540
  O      0.528482   -1.600448   -1.185065
  O      2.874162    0.205801    0.733126
  O      1.059204    2.427411   -0.598267
  O     -1.586918    1.917373   -0.017682
  O     -2.239636   -1.675733   -0.880919
  H     -3.179778   -0.281712    0.334945
  H     -2.565169   -1.775858    1.093331
  H     -0.234025   -2.202809   -1.086862
  H      2.632278    0.053841    1.658710
  H      1.968638    2.707190   -0.424036
  H     -1.210351    2.701301   -0.447824
  H     -2.333324   -1.044960   -1.607679

 Total Charge           Charge          ....    0
 Multiplicity           Mult            ....    1
 Number of Electrons    NEL             ....   96
 Basis Dimension        Dim             ....  192

ORBITAL ENERGIES
----------------

  NO   OCC          E(Eh)            E(eV)
   0   2.0000     -18.771895      -510.8092
   1   2.0000     -18.770417      -510.7690
   2   2.0000     -18.763643      -510.5847
   3   2.0000     -18.756268      -510.3840
   4   2.0000     -18.752527      -510.2822
   5   2.0000     -18.749127      -510.1897
   6   2.0000      -9.981334      -271.6059
   7   2.0000      -9.947253      -270.6785
   8   2.0000      -9.946122      -270.6477
   9   2.0000      -9.945180      -270.6221
  10   2.0000      -9.938577      -270.4424
  11   2.0000      -9.938539      -270.4414
  12   2.0000      -0.981634       -26.7116
  13   2.0000      -0.949495       -25.8371
  14   2.0000      -0.941026       -25.6066
  15   2.0000      -0.932092       -25.3635
  16   2.0000      -0.920663       -25.0525
  17   2.0000      -0.903880       -24.5958
  18   2.0000      -0.708097       -19.2683
  19   2.0000      -0.691258       -18.8101
  20   2.0000      -0.626933       -17.0597
  21   2.0000      -0.583412       -15.8755
  22   2.0000      -0.574484       -15.6325
  23   2.0000      -0.520117       -14.1531
  24   2.0000      -0.505384       -13.7522
  25   2.0000      -0.495560       -13.4849
  26   2.0000      -0.476090       -12.9551
  27   2.0000      -0.453711       -12.3461
  28   2.0000      -0.444431       -12.0936
  29   2.0000      -0.433492       -11.7959
  30   2.0000      -0.419178       -11.4064
  31   2.0000      -0.404975       -11.0199
  32   2.0000      -0.396615       -10.7924
  33   2.0000      -0.375842       -10.2272
  34   2.0000      -0.358456        -9.7541
  35   2.0000      -0.356764        -9.7081
  36   2.0000      -0.329615        -8.9693
  37   2.0000      -0.315936        -8.5971
  38   2.0000      -0.307246        -8.3606
  39   2.0000      -0.301171        -8.1953
  40   2.0000      -0.296096        -8.0572
  41   2.0000      -0.263160        -7.1609
  42   2.0000      -0.255912        -6.9637
  43   2.0000      -0.252348        -6.8667
  44   2.0000      -0.241947        -6.5837
  45   2.0000      -0.222398        -6.0518
  46   2.0000      -0.214234        -5.8296
  47   2.0000      -0.204352        -5.5607
  48   0.0000       0.015855         0.4314
  49   0.0000       0.019475         0.5299
  50   0.0000       0.031716         0.8630
  51   0.0000       0.054623         1.4864
  52   0.0000       0.066540         1.8107

MULLIKEN ATOMIC CHARGES
-----------------------
   0 C :    0.064108
   1 C :    0.048145
   2 H :    0.071545
   3 C :    0.023941
   4 H :    0.053375
   5 C :    0.042463
   6 H :    0.038531
   7 C :    0.092131
   8 H :    0.081504
   9 C :    0.137328
  10 H :    0.060958
  11 O :   -0.317422
  12 O :   -0.416920
  13 O :   -0.423323
  14 O :   -0.426616
  15 O :   -0.422231
  16 O :   -0.437791
  17 H :    0.094898
  18 H :    0.095246
  19 H :    0.302614
  20 H :    0.299495
  21 H :    0.312540
  22 H :    0.310514
  23 H :    0.314966
Sum of atomic charges:   -0.0000000

LOEWDIN ATOMIC CHARGES
----------------------
   0 C :   -0.130160
   1 C :   -0.067351
   2 H :    0.120923
   3 C :   -0.082079
   4 H :    0.099249
   5 C :   -0.074898
   6 H :    0.099646
   7 C :   -0.088867
   8 H :    0.126594
   9 C :   -0.008315
  10 H :    0.094431
  11 O :   -0.148543
  12 O :   -0.323733
  13 O :   -0.315122
  14 O :   -0.323848
  15 O :   -0.322861
  16 O :   -0.317810
  17 H :    0.114395
  18 H :    0.119178
  19 H :    0.272160
  20 H :    0.283638
  21 H :    0.293986
  22 H :    0.287641
  23 H :    0.291747

  Mayer bond orders larger than 0.100000
B(  0-C ,  1-C ) :   1.0418 B(  0-C , 16-O ) :   1.0631 B(  0-C , 17-H ) :   0.9163
B(  0-C , 18-H ) :   0.9195 B(  1-C ,  2-H ) :   0.8701 B(  1-C ,  3-C ) :   0.9789
B(  1-C , 11-O ) :   0.9717 B(  3-C ,  4-H ) :   0.8577 B(  3-C ,  5-C ) :   1.0554
B(  3-C , 15-O ) :   1.0689 B(  5-C ,  6-H ) :   0.8613 B(  5-C ,  7-C ) :   1.0037
B(  5-C , 14-O ) :   1.0725 B(  7-C ,  8-H ) :   0.8599 B(  7-C ,  9-C ) :   0.9928
B(  7-C , 13-O ) :   1.0334 B(  9-C , 10-H ) :   0.8977 B(  9-C , 11-O ) :   1.0708
B(  9-C , 12-O ) :   1.0927 B( 12-O , 19-H ) :   0.7896 B( 13-O , 20-H ) :   0.8474
B( 14-O , 21-H ) :   0.8405 B( 15-O , 22-H ) :   0.8302 B( 16-O , 19-H ) :   0.1016
B( 16-O , 23-H ) :   0.8381

Dispersion correction           -0.025084169
FINAL SINGLE POINT ENERGY      -685.698238914194

DIPOLE MOMENT
-------------

Method             : SCF
Type of density    : Electron Density
Multiplicity       :   1
Irrep              :   0
Energy             :  -685.8304269435636797 Eh
Relativity type    :
Basis              : AO
                                X                 Y                 Z
Electronic contribution:      2.020337181      -0.069639166      -0.349841457
Nuclear contribution   :     -2.170492109       0.603642491       0.621376348
                        -----------------------------------------
Total Dipole Moment    :     -0.150154929       0.534003325       0.271534891
                        -----------------------------------------
Magnitude (a.u.)       :      0.617606064
Magnitude (Debye)      :      1.569829859

Rotational constants in cm-1:             0.042250             0.028237             0.020666
Rotational constants in MHz :          1266.620129           846.511481           619.545481

                             ****ORCA TERMINATED NORMALLY****
TOTAL RUN TIME: 0 days 0 hours 0 minutes 12 seconds 387 msec
