                         Program Version 6.0.0  -   RELEASE  -
|  1> ! pbe def2-sv(p) def2/J RI DEFGRID1 loosescf d4 GCP(DFT/SV(P)) printgap
|  2> %output
|  3>     printlevel normal
|  4> end
|  5> * xyz 0 1
|  6> C -1.2045914805 -0.2547264984 0.0160241256
|  7> N -5.76772e-05 0.5474469218 -0.0862038837
|  8> C 1.2045767776 -0.2546832028 0.0159971332
|  9> H -1.2348743311 -0.945019972 -0.8272029703
| 10> H -2.0719502223 0.39954312 -0.0366421469
| 11> H -1.2581870115 -0.8444037855 0.9445168295
| 12> H -8.84785e-05 1.2415974827 0.6552523183
| 13> H 2.0716012151 0.3998844878 -0.0356335476
| 14> H 1.2357210825 -0.9441010316 -0.828036431
| 15> H 1.2587544496 -0.8448338905 0.9440968407
| 16> *
| 17>
| 18>                          ****END OF INPUT****

CARTESIAN COORDINATES (ANGSTROEM)
---------------------------------
  C     -1.204591   -0.254726    0.016024
  N     -0.000058    0.547447   -0.086204
  C      1.204577   -0.254683    0.015997
  H     -1.234874   -0.945020   -0.827203
  H     -2.071950    0.399543   -0.036642
  H     -1.258187   -0.844404    0.944517
  H     -0.000088    1.241597    0.655252
  H      2.071601    0.399884   -0.035634
  H      1.235721   -0.944101   -0.828036
  H      1.258754   -0.844834    0.944097

 Total Charge           Charge          ....    0
 Multiplicity           Mult            ....    1
 Number of Electrons    NEL             ....   26
 Basis Dimension        Dim             ....   56

ORBITAL ENERGIES
----------------

  NO   OCC          E(Eh)            E(eV)
   0   2.0000     -13.965759      -380.0276
   1   2.0000      -9.896363      -269.2937
   2   2.0000      -9.896348      -269.2933
   3   2.0000      -0.809385       -22.0245
   4   2.0000      -0.623988       -16.9796
   5   2.0000      -0.555746       -15.1226
   6   2.0000      -0.436629       -11.8813
   7   2.0000      -0.390208       -10.6181
   8   2.0000      -0.386437       -10.5155
   9   2.0000      -0.339337        -9.2338
  10   2.0000      -0.319455        -8.6928
  11   2.0000      -0.315837        -8.5944
  12   2.0000      -0.169698        -4.6177
  13   0.0000       0.036436         0.9915
  14   0.0000       0.076598         2.0843
  15   0.0000       0.090121         2.4523
  16   0.0000       0.105951         2.8831
  17   0.0000       0.110081         2.9955

MULLIKEN ATOMIC CHARGES
-----------------------
   0 C :   -0.190463
   1 N :   -0.370644
   2 C :   -0.190536
   3 H :    0.100476
   4 H :    0.104162
   5 H :    0.071301
   6 H :    0.199761
   7 H :    0.104087
   8 H :    0.100534
   9 H :    0.071323
Sum of atomic charges:   -0.0000000

LOEWDIN ATOMIC CHARGES
----------------------
   0 C :   -0.272669
   1 N :   -0.283254
   2 C :   -0.272697
   3 H :    0.112514
   4 H :    0.113347
   5 H :    0.085760
   6 H :    0.205369
   7 H :    0.113344
   8 H :    0.112523
   9 H :    0.085763

  Mayer bond orders larger than 0.100000
B(  0-C ,  1-N ) :   1.0893 B(  0-C ,  3-H ) :   0.9599 B(  0-C ,  4-H ) :   0.9629
B(  0-C ,  5-H ) :   0.9333 B(  1-N ,  2-C ) :   1.0894 B(  1-N ,  6-H ) :   0.8888
B(  2-C ,  7-H ) :   0.9630 B(  2-C ,  8-H ) :   0.9599 B(  2-C ,  9-H ) :   0.9332

Dispersion correction           -0.004520644
FINAL SINGLE POINT ENERGY      -134.813265714968

DIPOLE MOMENT
-------------

Method             : SCF
Type of density    : Electron Density
Multiplicity       :   1
Irrep              :   0
Energy             :  -134.8525901442152986 Eh
Relativity type    :
Basis              : AO
                                X                 Y                 Z
Electronic contribution:     -0.000819410       1.379315922      -0.392405705
Nuclear contribution   :      0.000915998      -1.439266311       0.765401906
                        -----------------------------------------
Total Dipole Moment    :      0.000096588      -0.059950390       0.372996200
                        -----------------------------------------
Magnitude (a.u.)       :      0.377783303
Magnitude (Debye)      :      0.960248844

Rotational constants in cm-1:             1.155159             0.315078             0.277959
Rotational constants in MHz :         34630.781587          9445.803773          8333.000932

                             ****ORCA TERMINATED NORMALLY****
TOTAL RUN TIME: 0 days 0 hours 0 minutes 4 seconds 204 msec
