                         Program Version 6.0.0  -   RELEASE  -
|  1> ! r2scan-3c def2/J RI DEFGRID2 scfconv6 printgap
|  2> %output
|  3>     printlevel normal
|  4> end
|  5> * xyz 0 1
|  6> C -3.168444702 -0.0192775532 1.0194754405
|  7> O -1.7594336431 0.0087316238 0.7811101756
|  8> C -1.3479008859 -0.1285976447 -0.4726166078
|  9> O -2.1113168034 -0.2753320795 -1.4062125923
| 10> C 0.1553127299 -0.0765438045 -0.5934425287
| 11> C 0.7968214076 -1.1999984163 0.2304267821
| 12> C 2.3164172712 -1.1382756953 0.1102017833
| 13> C 2.8355769982 0.2177678741 0.578100655
| 14> C 2.195068574 1.3395547516 -0.2334987911
| 15> C 0.675060921 1.2854818202 -0.1152365655
| 16> H -3.2866296806 0.1072686165 2.0909346501
| 17> H -3.5838625442 -0.9715522722 0.6877861456
| 18> H -3.6551439921 0.7887389374 0.4720455348
| 19> H 0.3976488158 -0.2113397298 -1.6521264808
| 20> H 0.5025345682 -1.0832712125 1.2747768692
| 21> H 0.4310910052 -2.1667954109 -0.1219000913
| 22> H 2.7604697871 -1.9351156663 0.7085149149
| 23> H 2.6039947751 -1.2986642449 -0.9309240353
| 24> H 2.5948502494 0.3525250944 1.6343811958
| 25> H 3.9207313814 0.2561672992 0.4718813273
| 26> H 2.551950621 2.3077386177 0.1206147892
| 27> H 2.4804139312 1.2386052665 -1.2826438213
| 28> H 0.3789015556 1.4298540459 0.9251986333
| 29> H 0.2230216378 2.0798084357 -0.7130707547
| 30> *
| 31>
| 32>                          ****END OF INPUT****

CARTESIAN COORDINATES (ANGSTROEM)
---------------------------------
  C     -3.168445   -0.019278    1.019475
  O     -1.759434    0.008732    0.781110
  C     -1.347901   -0.128598   -0.472617
  O     -2.111317   -0.275332   -1.406213
  C      0.155313   -0.076544   -0.593443
  C      0.796821   -1.199998    0.230427
  C      2.316417   -1.138276    0.110202
  C      2.835577    0.217768    0.578101
  C      2.195069    1.339555   -0.233499
  C      0.675061    1.285482   -0.115237
  H     -3.286630    0.107269    2.090935
  H     -3.583863   -0.971552    0.687786
  H     -3.655144    0.788739    0.472046
  H      0.397649   -0.211340   -1.652126
  H      0.502535   -1.083271    1.274777
  H      0.431091   -2.166795   -0.121900
  H      2.760470   -1.935116    0.708515
  H      2.603995   -1.298664   -0.930924
  H      2.594850    0.352525    1.634381
  H      3.920731    0.256167    0.471881
  H      2.551951    2.307739    0.120615
  H      2.480414    1.238605   -1.282644
  H      0.378902    1.429854    0.925199
  H      0.223022    2.079808   -0.713071

 Total Charge           Charge          ....    0
 Multiplicity           Mult            ....    1
 Number of Electrons    NEL             ....   78
 Basis Dimension        Dim             ....  270

ORBITAL ENERGIES
----------------

  NO   OCC          E(Eh)            E(eV)
   0   2.0000     -18.998430      -516.9735
   1   2.0000     -18.925863      -514.9989
   2   2.0000     -10.147321      -276.1227
   3   2.0000     -10.086746      -274.4743
   4   2.0000     -10.044779      -273.3323
   5   2.0000     -10.031817      -272.9796
   6   2.0000     -10.031579      -272.9731
   7   2.0000     -10.027936      -272.8740
   8   2.0000     -10.027877      -272.8724
   9   2.0000     -10.026368      -272.8314
  10   2.0000      -1.072686       -29.1893
  11   2.0000      -0.972551       -26.4645
  12   2.0000      -0.811612       -22.0851
  13   2.0000      -0.738108       -20.0849
  14   2.0000      -0.714834       -19.4516
  15   2.0000      -0.688711       -18.7408
  16   2.0000      -0.597114       -16.2483
  17   2.0000      -0.581910       -15.8346
  18   2.0000      -0.534381       -14.5412
  19   2.0000      -0.529705       -14.4140
  20   2.0000      -0.476165       -12.9571
  21   2.0000      -0.450393       -12.2558
  22   2.0000      -0.447849       -12.1866
  23   2.0000      -0.427482       -11.6324
  24   2.0000      -0.414684       -11.2841
  25   2.0000      -0.408465       -11.1149
  26   2.0000      -0.395762       -10.7692
  27   2.0000      -0.375607       -10.2208
  28   2.0000      -0.366275        -9.9669
  29   2.0000      -0.353308        -9.6140
  30   2.0000      -0.332304        -9.0424
  31   2.0000      -0.326504        -8.8846
  32   2.0000      -0.319368        -8.6904
  33   2.0000      -0.318470        -8.6660
  34   2.0000      -0.297071        -8.0837
  35   2.0000      -0.285815        -7.7774
  36   2.0000      -0.272757        -7.4221
  37   2.0000      -0.271985        -7.4011
  38   2.0000      -0.226583        -6.1656
  39   0.0000      -0.013082        -0.3560
  40   0.0000       0.058981         1.6050
  41   0.0000       0.091225         2.4824
  42   0.0000       0.095816         2.6073
  43   0.0000       0.107198         2.9170

MULLIKEN ATOMIC CHARGES
-----------------------
   0 C :   -0.291829
   1 O :   -0.195400
   2 C :    0.309883
   3 O :   -0.405591
   4 C :   -0.041484
   5 C :   -0.362453
   6 C :   -0.271567
   7 C :   -0.295845
   8 C :   -0.271538
   9 C :   -0.360844
  10 H :    0.149338
  11 H :    0.162155
  12 H :    0.162063
  13 H :    0.188846
  14 H :    0.168940
  15 H :    0.150456
  16 H :    0.148065
  17 H :    0.147423
  18 H :    0.144427
  19 H :    0.150020
  20 H :    0.148021
  21 H :    0.147555
  22 H :    0.168545
  23 H :    0.150814
Sum of atomic charges:   -0.0000000

LOEWDIN ATOMIC CHARGES
----------------------
   0 C :   -0.042721
   1 O :   -0.612629
   2 C :    0.358141
   3 O :   -0.419922
   4 C :   -0.152941
   5 C :   -0.271317
   6 C :   -0.299884
   7 C :   -0.303543
   8 C :   -0.299821
   9 C :   -0.270926
  10 H :    0.175457
  11 H :    0.177038
  12 H :    0.176995
  13 H :    0.182704
  14 H :    0.169425
  15 H :    0.163397
  16 H :    0.156849
  17 H :    0.156508
  18 H :    0.155306
  19 H :    0.155726
  20 H :    0.156888
  21 H :    0.156542
  22 H :    0.169120
  23 H :    0.163607

  Mayer bond orders larger than 0.100000
B(  0-C ,  1-O ) :   0.8528 B(  0-C , 10-H ) :   0.9703 B(  0-C , 11-H ) :   0.9634
B(  0-C , 12-H ) :   0.9633 B(  1-O ,  2-C ) :   1.0227 B(  2-C ,  3-O ) :   1.8572
B(  2-C ,  4-C ) :   1.0014 B(  4-C ,  5-C ) :   0.9076 B(  4-C ,  9-C ) :   0.9085
B(  4-C , 13-H ) :   0.9521 B(  5-C ,  6-C ) :   0.8912 B(  5-C , 14-H ) :   0.9981
B(  5-C , 15-H ) :   0.9370 B(  6-C ,  7-C ) :   0.9155 B(  6-C , 16-H ) :   0.9446
B(  6-C , 17-H ) :   0.9906 B(  7-C ,  8-C ) :   0.9157 B(  7-C , 18-H ) :   0.9958
B(  7-C , 19-H ) :   0.9501 B(  8-C ,  9-C ) :   0.8917 B(  8-C , 20-H ) :   0.9445
B(  8-C , 21-H ) :   0.9907 B(  9-C , 22-H ) :   0.9981 B(  9-C , 23-H ) :   0.9366

Dispersion correction           -0.007621163
FINAL SINGLE POINT ENERGY      -463.635683901362

DIPOLE MOMENT
-------------

Method             : SCF
Type of density    : Electron Density
Multiplicity       :   1
Irrep              :   0
Energy             :  -463.6411033703982412 Eh
Relativity type    :
Basis              : AO
                                X                 Y                 Z
Electronic contribution:     -7.383368237      -0.713134086      -2.625226977
Nuclear contribution   :      7.748135580       0.834738503       3.448317891
                        -----------------------------------------
Total Dipole Moment    :      0.364767344       0.121604417       0.823090914
                        -----------------------------------------
Magnitude (a.u.)       :      0.908472070
Magnitude (Debye)      :      2.309152490

Rotational constants in cm-1:             0.091141             0.025274             0.024549
Rotational constants in MHz :          2732.342831           757.694989           735.959724

                             ****ORCA TERMINATED NORMALLY****
TOTAL RUN TIME: 0 days 0 hours 0 minutes 36 seconds 188 msec
