                         Program Version 6.0.0  -   RELEASE  -
|  1> ! r2scan-3c def2/J RI DEFGRID2 scfconv6 printgap
|  2> %output
|  3>     printlevel normal
|  4> end
|  5> %cpcm
|  6>     smd true
|  7>     smdsolvent "water"
|  8> end
|  9> * xyz 0 1
| 10> C -3.168444702 -0.0192775532 1.0194754405
| 11> O -1.7594336431 0.0087316238 0.7811101756
| 12> C -1.3479008859 -0.1285976447 -0.4726166078
| 13> O -2.1113168034 -0.2753320795 -1.4062125923
| 14> C 0.1553127299 -0.0765438045 -0.5934425287
| 15> C 0.7968214076 -1.1999984163 0.2304267821
| 16> C 2.3164172712 -1.1382756953 0.1102017833
| 17> C 2.8355769982 0.2177678741 0.578100655
| 18> C 2.195068574 1.3395547516 -0.2334987911
| 19> C 0.675060921 1.2854818202 -0.1152365655
| 20> H -3.2866296806 0.1072686165 2.0909346501
| 21> H -3.5838625442 -0.9715522722 0.6877861456
| 22> H -3.6551439921 0.7887389374 0.4720455348
| 23> H 0.3976488158 -0.2113397298 -1.6521264808
| 24> H 0.5025345682 -1.0832712125 1.2747768692
| 25> H 0.4310910052 -2.1667954109 -0.1219000913
| 26> H 2.7604697871 -1.9351156663 0.7085149149
| 27> H 2.6039947751 -1.2986642449 -0.9309240353
| 28> H 2.5948502494 0.3525250944 1.6343811958
| 29> H 3.9207313814 0.2561672992 0.4718813273
| 30> H 2.551950621 2.3077386177 0.1206147892
| 31> H 2.4804139312 1.2386052665 -1.2826438213
| 32> H 0.3789015556 1.4298540459 0.9251986333
| 33> H 0.2230216378 2.0798084357 -0.7130707547
| 34> *
| 35>
| 36>                          ****END OF INPUT****

CARTESIAN COORDINATES (ANGSTROEM)
---------------------------------
  C     -3.168445   -0.019278    1.019475
  O     -1.759434    0.008732    0.781110
  C     -1.347901   -0.128598   -0.472617
  O     -2.111317   -0.275332   -1.406213
  C      0.155313   -0.076544   -0.593443
  C      0.796821   -1.199998    0.230427
  C      2.316417   -1.138276    0.110202
  C      2.835577    0.217768    0.578101
  C      2.195069    1.339555   -0.233499
  C      0.675061    1.285482   -0.115237
  H     -3.286630    0.107269    2.090935
  H     -3.583863   -0.971552    0.687786
  H     -3.655144    0.788739    0.472046
  H      0.397649   -0.211340   -1.652126
  H      0.502535   -1.083271    1.274777
  H      0.431091   -2.166795   -0.121900
  H      2.760470   -1.935116    0.708515
  H      2.603995   -1.298664   -0.930924
  H      2.594850    0.352525    1.634381
  H      3.920731    0.256167    0.471881
  H      2.551951    2.307739    0.120615
  H      2.480414    1.238605   -1.282644
  H      0.378902    1.429854    0.925199
  H      0.223022    2.079808   -0.713071

 Total Charge           Charge          ....    0
 Multiplicity           Mult            ....    1
 Number of Electrons    NEL             ....   78
 Basis Dimension        Dim             ....  270

ORBITAL ENERGIES
----------------

  NO   OCC          E(Eh)            E(eV)
   0   2.0000     -19.003941      -517.1235
   1   2.0000     -18.943277      -515.4728
   2   2.0000     -10.159020      -276.4410
   3   2.0000     -10.076812      -274.2040
   4   2.0000     -10.040930      -273.2276
   5   2.0000     -10.023574      -272.7553
   6   2.0000     -10.023342      -272.7490
   7   2.0000     -10.016829      -272.5718
   8   2.0000     -10.016761      -272.5699
   9   2.0000     -10.014532      -272.5093
  10   2.0000      -1.080138       -29.3921
  11   2.0000      -0.987593       -26.8738
  12   2.0000      -0.803878       -21.8746
  13   2.0000      -0.732390       -19.9294
  14   2.0000      -0.705195       -19.1893
  15   2.0000      -0.682574       -18.5738
  16   2.0000      -0.591039       -16.0830
  17   2.0000      -0.572834       -15.5876
  18   2.0000      -0.532137       -14.4802
  19   2.0000      -0.520904       -14.1745
  20   2.0000      -0.473299       -12.8791
  21   2.0000      -0.453713       -12.3462
  22   2.0000      -0.450799       -12.2669
  23   2.0000      -0.428955       -11.6724
  24   2.0000      -0.405010       -11.0209
  25   2.0000      -0.402853       -10.9622
  26   2.0000      -0.388539       -10.5727
  27   2.0000      -0.373230       -10.1561
  28   2.0000      -0.360904        -9.8207
  29   2.0000      -0.343373        -9.3437
  30   2.0000      -0.330298        -8.9879
  31   2.0000      -0.326910        -8.8957
  32   2.0000      -0.311003        -8.4628
  33   2.0000      -0.309689        -8.4271
  34   2.0000      -0.287947        -7.8354
  35   2.0000      -0.281364        -7.6563
  36   2.0000      -0.279639        -7.6094
  37   2.0000      -0.263485        -7.1698
  38   2.0000      -0.240055        -6.5322
  39   0.0000      -0.022699        -0.6177
  40   0.0000       0.063610         1.7309
  41   0.0000       0.100352         2.7307
  42   0.0000       0.104389         2.8406
  43   0.0000       0.115400         3.1402

MULLIKEN ATOMIC CHARGES
-----------------------
   0 C :   -0.326314
   1 O :   -0.208468
   2 C :    0.370023
   3 O :   -0.496857
   4 C :   -0.054125
   5 C :   -0.364779
   6 C :   -0.293458
   7 C :   -0.308452
   8 C :   -0.293444
   9 C :   -0.362577
  10 H :    0.178322
  11 H :    0.178041
  12 H :    0.178257
  13 H :    0.193453
  14 H :    0.173091
  15 H :    0.161473
  16 H :    0.157058
  17 H :    0.158070
  18 H :    0.153477
  19 H :    0.157402
  20 H :    0.157044
  21 H :    0.158187
  22 H :    0.173044
  23 H :    0.161533
Sum of atomic charges:   -0.0000000

LOEWDIN ATOMIC CHARGES
----------------------
   0 C :   -0.040091
   1 O :   -0.611861
   2 C :    0.367175
   3 O :   -0.484181
   4 C :   -0.152010
   5 C :   -0.270275
   6 C :   -0.300794
   7 C :   -0.305861
   8 C :   -0.300756
   9 C :   -0.269804
  10 H :    0.188157
  11 H :    0.182182
  12 H :    0.182258
  13 H :    0.186428
  14 H :    0.170845
  15 H :    0.166546
  16 H :    0.159644
  17 H :    0.159875
  18 H :    0.158050
  19 H :    0.157553
  20 H :    0.159692
  21 H :    0.159892
  22 H :    0.170654
  23 H :    0.166683

  Mayer bond orders larger than 0.100000
B(  0-C ,  1-O ) :   0.8324 B(  0-C , 10-H ) :   0.9601 B(  0-C , 11-H ) :   0.9580
B(  0-C , 12-H ) :   0.9581 B(  1-O ,  2-C ) :   1.0535 B(  2-C ,  3-O ) :   1.7872
B(  2-C ,  4-C ) :   0.9940 B(  4-C ,  5-C ) :   0.9090 B(  4-C ,  9-C ) :   0.9101
B(  4-C , 13-H ) :   0.9546 B(  5-C ,  6-C ) :   0.8926 B(  5-C , 14-H ) :   0.9944
B(  5-C , 15-H ) :   0.9350 B(  6-C ,  7-C ) :   0.9132 B(  6-C , 16-H ) :   0.9433
B(  6-C , 17-H ) :   0.9900 B(  7-C ,  8-C ) :   0.9134 B(  7-C , 18-H ) :   0.9931
B(  7-C , 19-H ) :   0.9495 B(  8-C ,  9-C ) :   0.8929 B(  8-C , 20-H ) :   0.9433
B(  8-C , 21-H ) :   0.9900 B(  9-C , 22-H ) :   0.9944 B(  9-C , 23-H ) :   0.9344

Dispersion correction           -0.007621163
FINAL SINGLE POINT ENERGY      -463.641250907735

DIPOLE MOMENT
-------------

Method             : SCF
Type of density    : Electron Density
Multiplicity       :   1
Irrep              :   0
Energy             :  -463.6466703767709987 Eh
Relativity type    :
Basis              : AO
                                X                 Y                 Z
Electronic contribution:     -7.208798491      -0.666026924      -2.320680108
Nuclear contribution   :      7.748135580       0.834738503       3.448317891
                        -----------------------------------------
Total Dipole Moment    :      0.539337090       0.168711579       1.127637784
                        -----------------------------------------
Magnitude (a.u.)       :      1.261314816
Magnitude (Debye)      :      3.206007476

Rotational constants in cm-1:             0.091141             0.025274             0.024549
Rotational constants in MHz :          2732.342831           757.694989           735.959724

                             ****ORCA TERMINATED NORMALLY****
TOTAL RUN TIME: 0 days 0 hours 0 minutes 42 seconds 567 msec
