                         Program Version 6.0.0  -   RELEASE  -
|  1> ! r2scan-3c def2/J RI DEFGRID2 scfconv6 printgap
|  2> %output
|  3>     printlevel normal
|  4> end
|  5> * xyz 0 1
|  6> C -1.7728582222 1.1311416648 0.9498971221
|  7> C -1.480974434 0.1375753156 -0.1727486954
|  8> C -2.6805627577 -0.8014032925 -0.3287371621
|  9> C -0.2259747041 -0.7145674705 0.0707690358
| 10> C 1.171994888 -0.080087155 -0.0946512152
| 11> C 1.2698898446 0.7325351445 -1.3875700461
| 12> C 1.5587412021 0.8029080328 1.0947953924
| 13> C 2.1802886871 -1.2363565349 -0.1668478825
| 14> H -1.7524864828 0.6312497399 1.915736299
| 15> H -1.0522420007 1.9423747088 0.965355174
| 16> H -2.7601160111 1.5678392241 0.8123436176
| 17> H -1.3664308965 0.6895420137 -1.1099272618
| 18> H -3.5881597356 -0.2332512036 -0.5197668309
| 19> H -2.5297724116 -1.4898684324 -1.1571966452
| 20> H -2.8256114129 -1.3832950939 0.5791457679
| 21> H -0.2911220891 -1.1426338231 1.0745534916
| 22> H -0.2745067852 -1.5485050917 -0.6348612219
| 23> H 2.3009763887 1.0333525041 -1.5602444923
| 24> H 0.6628928679 1.6324079774 -1.332315354
| 25> H 0.9393316592 0.1403897034 -2.2379627656
| 26> H 1.4159742283 0.2696949863 2.0316693402
| 27> H 0.9713387146 1.7145440826 1.1240397693
| 28> H 2.6069404057 1.0858787469 1.0201264989
| 29> H 3.1957636898 -0.853912329 -0.2418570701
| 30> H 1.9884148034 -1.8628373574 -1.0351510747
| 31> H 2.1139891568 -1.8562679654 0.7245163894
| 32> *
| 33>
| 34>                          ****END OF INPUT****

CARTESIAN COORDINATES (ANGSTROEM)
---------------------------------
  C     -1.772858    1.131142    0.949897
  C     -1.480974    0.137575   -0.172749
  C     -2.680563   -0.801403   -0.328737
  C     -0.225975   -0.714567    0.070769
  C      1.171995   -0.080087   -0.094651
  C      1.269890    0.732535   -1.387570
  C      1.558741    0.802908    1.094795
  C      2.180289   -1.236357   -0.166848
  H     -1.752486    0.631250    1.915736
  H     -1.052242    1.942375    0.965355
  H     -2.760116    1.567839    0.812344
  H     -1.366431    0.689542   -1.109927
  H     -3.588160   -0.233251   -0.519767
  H     -2.529772   -1.489868   -1.157197
  H     -2.825611   -1.383295    0.579146
  H     -0.291122   -1.142634    1.074553
  H     -0.274507   -1.548505   -0.634861
  H      2.300976    1.033353   -1.560244
  H      0.662893    1.632408   -1.332315
  H      0.939332    0.140390   -2.237963
  H      1.415974    0.269695    2.031669
  H      0.971339    1.714544    1.124040
  H      2.606940    1.085879    1.020126
  H      3.195764   -0.853912   -0.241857
  H      1.988415   -1.862837   -1.035151
  H      2.113989   -1.856268    0.724516

 Total Charge           Charge          ....    0
 Multiplicity           Mult            ....    1
 Number of Electrons    NEL             ....   66
 Basis Dimension        Dim             ....  242

ORBITAL ENERGIES
----------------

  NO   OCC          E(Eh)            E(eV)
   0   2.0000     -10.039369      -273.1851
   1   2.0000     -10.029933      -272.9283
   2   2.0000     -10.017586      -272.5924
   3   2.0000     -10.012480      -272.4534
   4   2.0000     -10.012282      -272.4480
   5   2.0000     -10.011935      -272.4386
   6   2.0000     -10.011400      -272.4241
   7   2.0000     -10.010578      -272.4017
   8   2.0000      -0.795106       -21.6359
   9   2.0000      -0.752511       -20.4769
  10   2.0000      -0.653852       -17.7922
  11   2.0000      -0.650135       -17.6911
  12   2.0000      -0.642777       -17.4909
  13   2.0000      -0.639201       -17.3936
  14   2.0000      -0.533731       -14.5236
  15   2.0000      -0.494211       -13.4482
  16   2.0000      -0.439158       -11.9501
  17   2.0000      -0.421789       -11.4775
  18   2.0000      -0.415876       -11.3165
  19   2.0000      -0.399765       -10.8782
  20   2.0000      -0.384240       -10.4557
  21   2.0000      -0.372443       -10.1347
  22   2.0000      -0.357835        -9.7372
  23   2.0000      -0.353958        -9.6317
  24   2.0000      -0.346350        -9.4247
  25   2.0000      -0.331214        -9.0128
  26   2.0000      -0.326514        -8.8849
  27   2.0000      -0.316538        -8.6134
  28   2.0000      -0.299311        -8.1447
  29   2.0000      -0.296420        -8.0660
  30   2.0000      -0.283098        -7.7035
  31   2.0000      -0.276518        -7.5244
  32   2.0000      -0.267007        -7.2656
  33   0.0000       0.072666         1.9773
  34   0.0000       0.100705         2.7403
  35   0.0000       0.113349         3.0844
  36   0.0000       0.120885         3.2895
  37   0.0000       0.124825         3.3967

MULLIKEN ATOMIC CHARGES
-----------------------
   0 C :   -0.509382
   1 C :   -0.009209
   2 C :   -0.486238
   3 C :   -0.348446
   4 C :    0.174867
   5 C :   -0.521508
   6 C :   -0.517226
   7 C :   -0.491836
   8 H :    0.157200
   9 H :    0.139480
  10 H :    0.141669
  11 H :    0.152738
  12 H :    0.146247
  13 H :    0.145030
  14 H :    0.146550
  15 H :    0.156390
  16 H :    0.144714
  17 H :    0.152080
  18 H :    0.157604
  19 H :    0.157547
  20 H :    0.156774
  21 H :    0.145255
  22 H :    0.150326
  23 H :    0.153735
  24 H :    0.152976
  25 H :    0.152665
Sum of atomic charges:   -0.0000000

LOEWDIN ATOMIC CHARGES
----------------------
   0 C :   -0.415287
   1 C :   -0.242045
   2 C :   -0.417832
   3 C :   -0.290274
   4 C :   -0.208991
   5 C :   -0.408942
   6 C :   -0.406066
   7 C :   -0.410543
   8 H :    0.154455
   9 H :    0.149610
  10 H :    0.152339
  11 H :    0.157778
  12 H :    0.151059
  13 H :    0.151360
  14 H :    0.154444
  15 H :    0.163192
  16 H :    0.164413
  17 H :    0.157174
  18 H :    0.154666
  19 H :    0.157682
  20 H :    0.156929
  21 H :    0.153102
  22 H :    0.155567
  23 H :    0.153927
  24 H :    0.154920
  25 H :    0.157363

  Mayer bond orders larger than 0.100000
B(  0-C ,  1-C ) :   0.8919 B(  0-C ,  8-H ) :   0.9897 B(  0-C ,  9-H ) :   0.9681
B(  0-C , 10-H ) :   0.9742 B(  1-C ,  2-C ) :   0.9062 B(  1-C ,  3-C ) :   0.8931
B(  1-C , 11-H ) :   0.9601 B(  2-C , 12-H ) :   0.9777 B(  2-C , 13-H ) :   0.9785
B(  2-C , 14-H ) :   0.9841 B(  3-C ,  4-C ) :   0.8730 B(  3-C , 15-H ) :   0.9864
B(  3-C , 16-H ) :   0.9878 B(  4-C ,  5-C ) :   0.9004 B(  4-C ,  6-C ) :   0.9365
B(  4-C ,  7-C ) :   0.9335 B(  5-C , 17-H ) :   0.9719 B(  5-C , 18-H ) :   0.9756
B(  5-C , 19-H ) :   0.9763 B(  6-C , 20-H ) :   0.9780 B(  6-C , 21-H ) :   0.9676
B(  6-C , 22-H ) :   0.9769 B(  7-C , 23-H ) :   0.9798 B(  7-C , 24-H ) :   0.9775
B(  7-C , 25-H ) :   0.9761

Dispersion correction           -0.008003188
FINAL SINGLE POINT ENERGY      -315.586238524188

DIPOLE MOMENT
-------------

Method             : SCF
Type of density    : Electron Density
Multiplicity       :   1
Irrep              :   0
Energy             :  -315.5911699789452882 Eh
Relativity type    :
Basis              : AO
                                X                 Y                 Z
Electronic contribution:      0.230391463      -0.305962341      -0.425066340
Nuclear contribution   :     -0.229686276       0.315881265       0.392342602
                        -----------------------------------------
Total Dipole Moment    :      0.000705186       0.009918923      -0.032723739
                        -----------------------------------------
Magnitude (a.u.)       :      0.034201249
Magnitude (Debye)      :      0.086932665

Rotational constants in cm-1:             0.099359             0.040701             0.036831
Rotational constants in MHz :          2978.707401          1220.172202          1104.153609

                             ****ORCA TERMINATED NORMALLY****
TOTAL RUN TIME: 0 days 0 hours 0 minutes 27 seconds 632 msec
