                         Program Version 6.0.0  -   RELEASE  -
|  1> ! r2scan-3c def2/J RI DEFGRID2 scfconv6 printgap
|  2> %output
|  3>     printlevel normal
|  4> end
|  5> %cpcm
|  6>     smd true
|  7>     smdsolvent "water"
|  8> end
|  9> * xyz 0 1
| 10> C -1.7728582222 1.1311416648 0.9498971221
| 11> C -1.480974434 0.1375753156 -0.1727486954
| 12> C -2.6805627577 -0.8014032925 -0.3287371621
| 13> C -0.2259747041 -0.7145674705 0.0707690358
| 14> C 1.171994888 -0.080087155 -0.0946512152
| 15> C 1.2698898446 0.7325351445 -1.3875700461
| 16> C 1.5587412021 0.8029080328 1.0947953924
| 17> C 2.1802886871 -1.2363565349 -0.1668478825
| 18> H -1.7524864828 0.6312497399 1.915736299
| 19> H -1.0522420007 1.9423747088 0.965355174
| 20> H -2.7601160111 1.5678392241 0.8123436176
| 21> H -1.3664308965 0.6895420137 -1.1099272618
| 22> H -3.5881597356 -0.2332512036 -0.5197668309
| 23> H -2.5297724116 -1.4898684324 -1.1571966452
| 24> H -2.8256114129 -1.3832950939 0.5791457679
| 25> H -0.2911220891 -1.1426338231 1.0745534916
| 26> H -0.2745067852 -1.5485050917 -0.6348612219
| 27> H 2.3009763887 1.0333525041 -1.5602444923
| 28> H 0.6628928679 1.6324079774 -1.332315354
| 29> H 0.9393316592 0.1403897034 -2.2379627656
| 30> H 1.4159742283 0.2696949863 2.0316693402
| 31> H 0.9713387146 1.7145440826 1.1240397693
| 32> H 2.6069404057 1.0858787469 1.0201264989
| 33> H 3.1957636898 -0.853912329 -0.2418570701
| 34> H 1.9884148034 -1.8628373574 -1.0351510747
| 35> H 2.1139891568 -1.8562679654 0.7245163894
| 36> *
| 37>
| 38>                          ****END OF INPUT****

CARTESIAN COORDINATES (ANGSTROEM)
---------------------------------
  C     -1.772858    1.131142    0.949897
  C     -1.480974    0.137575   -0.172749
  C     -2.680563   -0.801403   -0.328737
  C     -0.225975   -0.714567    0.070769
  C      1.171995   -0.080087   -0.094651
  C      1.269890    0.732535   -1.387570
  C      1.558741    0.802908    1.094795
  C      2.180289   -1.236357   -0.166848
  H     -1.752486    0.631250    1.915736
  H     -1.052242    1.942375    0.965355
  H     -2.760116    1.567839    0.812344
  H     -1.366431    0.689542   -1.109927
  H     -3.588160   -0.233251   -0.519767
  H     -2.529772   -1.489868   -1.157197
  H     -2.825611   -1.383295    0.579146
  H     -0.291122   -1.142634    1.074553
  H     -0.274507   -1.548505   -0.634861
  H      2.300976    1.033353   -1.560244
  H      0.662893    1.632408   -1.332315
  H      0.939332    0.140390   -2.237963
  H      1.415974    0.269695    2.031669
  H      0.971339    1.714544    1.124040
  H      2.606940    1.085879    1.020126
  H      3.195764   -0.853912   -0.241857
  H      1.988415   -1.862837   -1.035151
  H      2.113989   -1.856268    0.724516

 Total Charge           Charge          ....    0
 Multiplicity           Mult            ....    1
 Number of Electrons    NEL             ....   66
 Basis Dimension        Dim             ....  242

ORBITAL ENERGIES
----------------

  NO   OCC          E(Eh)            E(eV)
   0   2.0000     -10.031729      -272.9772
   1   2.0000     -10.022034      -272.7134
   2   2.0000     -10.008805      -272.3534
   3   2.0000     -10.004730      -272.2425
   4   2.0000     -10.003785      -272.2168
   5   2.0000     -10.003701      -272.2145
   6   2.0000     -10.003475      -272.2084
   7   2.0000     -10.002344      -272.1776
   8   2.0000      -0.786973       -21.4146
   9   2.0000      -0.744715       -20.2647
  10   2.0000      -0.646274       -17.5860
  11   2.0000      -0.642271       -17.4771
  12   2.0000      -0.635515       -17.2932
  13   2.0000      -0.631561       -17.1857
  14   2.0000      -0.526212       -14.3189
  15   2.0000      -0.486522       -13.2389
  16   2.0000      -0.430992       -11.7279
  17   2.0000      -0.413680       -11.2568
  18   2.0000      -0.407934       -11.1004
  19   2.0000      -0.391959       -10.6657
  20   2.0000      -0.376334       -10.2406
  21   2.0000      -0.364444        -9.9170
  22   2.0000      -0.350109        -9.5270
  23   2.0000      -0.346351        -9.4247
  24   2.0000      -0.338756        -9.2180
  25   2.0000      -0.323129        -8.7928
  26   2.0000      -0.318393        -8.6639
  27   2.0000      -0.308475        -8.3940
  28   2.0000      -0.291457        -7.9309
  29   2.0000      -0.288621        -7.8538
  30   2.0000      -0.274852        -7.4791
  31   2.0000      -0.268543        -7.3074
  32   2.0000      -0.259123        -7.0511
  33   0.0000       0.081875         2.2279
  34   0.0000       0.108882         2.9628
  35   0.0000       0.121869         3.3162
  36   0.0000       0.127263         3.4630
  37   0.0000       0.133343         3.6284

MULLIKEN ATOMIC CHARGES
-----------------------
   0 C :   -0.562864
   1 C :    0.014592
   2 C :   -0.532612
   3 C :   -0.372341
   4 C :    0.229872
   5 C :   -0.567431
   6 C :   -0.575026
   7 C :   -0.542893
   8 H :    0.168072
   9 H :    0.155982
  10 H :    0.152277
  11 H :    0.158308
  12 H :    0.157648
  13 H :    0.156736
  14 H :    0.156689
  15 H :    0.167144
  16 H :    0.152844
  17 H :    0.162713
  18 H :    0.169162
  19 H :    0.167628
  20 H :    0.168204
  21 H :    0.160966
  22 H :    0.161497
  23 H :    0.165724
  24 H :    0.164409
  25 H :    0.162700
Sum of atomic charges:   -0.0000000

LOEWDIN ATOMIC CHARGES
----------------------
   0 C :   -0.424787
   1 C :   -0.239840
   2 C :   -0.427286
   3 C :   -0.293082
   4 C :   -0.204034
   5 C :   -0.416950
   6 C :   -0.415678
   7 C :   -0.419705
   8 H :    0.156410
   9 H :    0.153472
  10 H :    0.154267
  11 H :    0.159554
  12 H :    0.153430
  13 H :    0.153759
  14 H :    0.156171
  15 H :    0.165578
  16 H :    0.166171
  17 H :    0.158944
  18 H :    0.157668
  19 H :    0.159918
  20 H :    0.158924
  21 H :    0.156575
  22 H :    0.157657
  23 H :    0.156532
  24 H :    0.157293
  25 H :    0.159039

  Mayer bond orders larger than 0.100000
B(  0-C ,  1-C ) :   0.8773 B(  0-C ,  8-H ) :   0.9873 B(  0-C ,  9-H ) :   0.9671
B(  0-C , 10-H ) :   0.9728 B(  1-C ,  2-C ) :   0.8932 B(  1-C ,  3-C ) :   0.8946
B(  1-C , 11-H ) :   0.9611 B(  2-C , 12-H ) :   0.9755 B(  2-C , 13-H ) :   0.9762
B(  2-C , 14-H ) :   0.9832 B(  3-C ,  4-C ) :   0.8734 B(  3-C , 15-H ) :   0.9845
B(  3-C , 16-H ) :   0.9867 B(  4-C ,  5-C ) :   0.8913 B(  4-C ,  6-C ) :   0.9178
B(  4-C ,  7-C ) :   0.9160 B(  5-C , 17-H ) :   0.9719 B(  5-C , 18-H ) :   0.9728
B(  5-C , 19-H ) :   0.9741 B(  6-C , 20-H ) :   0.9764 B(  6-C , 21-H ) :   0.9672
B(  6-C , 22-H ) :   0.9761 B(  7-C , 23-H ) :   0.9782 B(  7-C , 24-H ) :   0.9761
B(  7-C , 25-H ) :   0.9755

Dispersion correction           -0.008003188
FINAL SINGLE POINT ENERGY      -315.582310958176

DIPOLE MOMENT
-------------

Method             : SCF
Type of density    : Electron Density
Multiplicity       :   1
Irrep              :   0
Energy             :  -315.5872424129341880 Eh
Relativity type    :
Basis              : AO
                                X                 Y                 Z
Electronic contribution:      0.231049140      -0.291015488      -0.441945569
Nuclear contribution   :     -0.229686276       0.315881265       0.392342602
                        -----------------------------------------
Total Dipole Moment    :      0.001362863       0.024865777      -0.049602967
                        -----------------------------------------
Magnitude (a.u.)       :      0.055503320
Magnitude (Debye)      :      0.141078229

Rotational constants in cm-1:             0.099359             0.040701             0.036831
Rotational constants in MHz :          2978.707401          1220.172202          1104.153609

                             ****ORCA TERMINATED NORMALLY****
TOTAL RUN TIME: 0 days 0 hours 0 minutes 35 seconds 167 msec
