                         Program Version 6.0.0  -   RELEASE  -
|  1> ! pbe def2-sv(p) def2/J RI DEFGRID1 loosescf d4 GCP(DFT/SV(P)) printgap
|  2> %output
|  3>     printlevel normal
|  4> end
|  5> * xyz 0 1
|  6> C -3.020165514 -1.5013424235 0.0033325978
|  7> C -1.7477836398 -0.7030025016 -0.0007596494
|  8> C -0.5515351794 -1.3754595097 -0.0016982137
|  9> C 0.687092937 -0.7076218942 -0.0015697187
| 10> C 1.919853612 -1.3930567879 -0.001260996
| 11> C 3.1001703887 -0.7038355233 0.0006916291
| 12> C 3.1017859276 0.7004847739 0.001978966
| 13> C 1.9230178818 1.3924861065 0.0007716861
| 14> C 0.6886963079 0.7102490174 -0.0009471818
| 15> C -0.5482100851 1.3829504317 -0.0013805761
| 16> C -1.7464354683 0.7150379187 -0.0009539716
| 17> C -3.0304225512 1.4906132027 0.0002303063
| 18> H -3.0614313224 -2.1249626731 0.8952716162
| 19> H -3.9021384298 -0.8722316006 -0.0175847431
| 20> H -3.0450290592 -2.1614426863 -0.8623408389
| 21> H -0.5504748841 -2.4571661815 -0.0019743527
| 22> H 1.9134562158 -2.4738437377 -0.0020675467
| 23> H 4.0414727686 -1.2336751232 0.0016485513
| 24> H 4.0442883163 1.2281835473 0.0039981249
| 25> H 1.9195263703 2.4733317042 0.0015549727
| 26> H -0.5378718291 2.4645376505 -0.001287091
| 27> H -3.6233794839 1.2550226776 -0.882206814
| 28> H -3.6216054706 1.2549612301 0.883800599
| 29> H -2.8250641262 2.5578752715 -0.0001611429
| 30> *
| 31>
| 32>                          ****END OF INPUT****

CARTESIAN COORDINATES (ANGSTROEM)
---------------------------------
  C     -3.020166   -1.501342    0.003333
  C     -1.747784   -0.703003   -0.000760
  C     -0.551535   -1.375460   -0.001698
  C      0.687093   -0.707622   -0.001570
  C      1.919854   -1.393057   -0.001261
  C      3.100170   -0.703836    0.000692
  C      3.101786    0.700485    0.001979
  C      1.923018    1.392486    0.000772
  C      0.688696    0.710249   -0.000947
  C     -0.548210    1.382950   -0.001381
  C     -1.746435    0.715038   -0.000954
  C     -3.030423    1.490613    0.000230
  H     -3.061431   -2.124963    0.895272
  H     -3.902138   -0.872232   -0.017585
  H     -3.045029   -2.161443   -0.862341
  H     -0.550475   -2.457166   -0.001974
  H      1.913456   -2.473844   -0.002068
  H      4.041473   -1.233675    0.001649
  H      4.044288    1.228184    0.003998
  H      1.919526    2.473332    0.001555
  H     -0.537872    2.464538   -0.001287
  H     -3.623379    1.255023   -0.882207
  H     -3.621605    1.254961    0.883801
  H     -2.825064    2.557875   -0.000161

 Total Charge           Charge          ....    0
 Multiplicity           Mult            ....    1
 Number of Electrons    NEL             ....   84
 Basis Dimension        Dim             ....  192

ORBITAL ENERGIES
----------------

  NO   OCC          E(Eh)            E(eV)
   0   2.0000      -9.900547      -269.4076
   1   2.0000      -9.900282      -269.4004
   2   2.0000      -9.897148      -269.3151
   3   2.0000      -9.896814      -269.3060
   4   2.0000      -9.888154      -269.0704
   5   2.0000      -9.888006      -269.0663
   6   2.0000      -9.886500      -269.0253
   7   2.0000      -9.886315      -269.0203
   8   2.0000      -9.885858      -269.0079
   9   2.0000      -9.885205      -268.9901
  10   2.0000      -9.884486      -268.9705
  11   2.0000      -9.883584      -268.9460
  12   2.0000      -0.792532       -21.5659
  13   2.0000      -0.750600       -20.4249
  14   2.0000      -0.698717       -19.0131
  15   2.0000      -0.686899       -18.6915
  16   2.0000      -0.665172       -18.1003
  17   2.0000      -0.612831       -16.6760
  18   2.0000      -0.610909       -16.6237
  19   2.0000      -0.541514       -14.7353
  20   2.0000      -0.534257       -14.5379
  21   2.0000      -0.525534       -14.3005
  22   2.0000      -0.464080       -12.6283
  23   2.0000      -0.433868       -11.8061
  24   2.0000      -0.433323       -11.7913
  25   2.0000      -0.398512       -10.8441
  26   2.0000      -0.392655       -10.6847
  27   2.0000      -0.390815       -10.6346
  28   2.0000      -0.370477       -10.0812
  29   2.0000      -0.367730       -10.0064
  30   2.0000      -0.364969        -9.9313
  31   2.0000      -0.343764        -9.3543
  32   2.0000      -0.343164        -9.3380
  33   2.0000      -0.341465        -9.2917
  34   2.0000      -0.336081        -9.1452
  35   2.0000      -0.314151        -8.5485
  36   2.0000      -0.287506        -7.8234
  37   2.0000      -0.283568        -7.7163
  38   2.0000      -0.280213        -7.6250
  39   2.0000      -0.252495        -6.8707
  40   2.0000      -0.212328        -5.7777
  41   2.0000      -0.189160        -5.1473
  42   0.0000      -0.063484        -1.7275
  43   0.0000      -0.033610        -0.9146
  44   0.0000      -0.001338        -0.0364
  45   0.0000       0.044465         1.2100
  46   0.0000       0.051420         1.3992

MULLIKEN ATOMIC CHARGES
-----------------------
   0 C :   -0.228863
   1 C :    0.010758
   2 C :   -0.225319
   3 C :    0.172568
   4 C :   -0.126009
   5 C :   -0.043296
   6 C :   -0.042654
   7 C :   -0.128882
   8 C :    0.176044
   9 C :   -0.234382
  10 C :    0.025186
  11 C :   -0.233208
  12 H :    0.116581
  13 H :    0.099258
  14 H :    0.116018
  15 H :    0.018835
  16 H :    0.034670
  17 H :    0.049633
  18 H :    0.049549
  19 H :    0.035408
  20 H :    0.019289
  21 H :    0.118783
  22 H :    0.118299
  23 H :    0.101733
Sum of atomic charges:   -0.0000000

LOEWDIN ATOMIC CHARGES
----------------------
   0 C :   -0.326070
   1 C :   -0.045752
   2 C :   -0.111882
   3 C :   -0.027012
   4 C :   -0.113907
   5 C :   -0.127794
   6 C :   -0.128214
   7 C :   -0.113180
   8 C :   -0.027420
   9 C :   -0.116119
  10 C :   -0.047479
  11 C :   -0.323357
  12 H :    0.134446
  13 H :    0.123074
  14 H :    0.134075
  15 H :    0.119545
  16 H :    0.122007
  17 H :    0.122854
  18 H :    0.122850
  19 H :    0.122161
  20 H :    0.119753
  21 H :    0.131020
  22 H :    0.131008
  23 H :    0.125392

  Mayer bond orders larger than 0.100000
B(  0-C ,  1-C ) :   1.1168 B(  0-C , 12-H ) :   0.9359 B(  0-C , 13-H ) :   0.9283
B(  0-C , 14-H ) :   0.9364 B(  1-C ,  2-C ) :   1.4421 B(  1-C , 10-C ) :   1.3010
B(  2-C ,  3-C ) :   1.2211 B(  2-C ,  9-C ) :   0.1006 B(  2-C , 15-H ) :   0.9689
B(  3-C ,  4-C ) :   1.2361 B(  3-C ,  8-C ) :   1.2512 B(  4-C ,  5-C ) :   1.4582
B(  4-C , 16-H ) :   0.9648 B(  5-C ,  6-C ) :   1.2577 B(  5-C , 17-H ) :   0.9616
B(  6-C ,  7-C ) :   1.4575 B(  6-C , 18-H ) :   0.9616 B(  7-C ,  8-C ) :   1.2373
B(  7-C , 19-H ) :   0.9646 B(  8-C ,  9-C ) :   1.2159 B(  9-C , 10-C ) :   1.4511
B(  9-C , 20-H ) :   0.9596 B( 10-C , 11-C ) :   1.1191 B( 11-C , 21-H ) :   0.9247
B( 11-C , 22-H ) :   0.9250 B( 11-C , 23-H ) :   0.9377

Dispersion correction           -0.029135696
FINAL SINGLE POINT ENERGY      -463.485218476430

DIPOLE MOMENT
-------------

Method             : SCF
Type of density    : Electron Density
Multiplicity       :   1
Irrep              :   0
Energy             :  -463.5452495011276142 Eh
Relativity type    :
Basis              : AO
                                X                 Y                 Z
Electronic contribution:      8.311147007       0.045334432      -0.014598727
Nuclear contribution   :     -8.676424274      -0.083881635       0.017498108
                        -----------------------------------------
Total Dipole Moment    :     -0.365277267      -0.038547203       0.002899381
                        -----------------------------------------
Magnitude (a.u.)       :      0.367316995
Magnitude (Debye)      :      0.933645603

Rotational constants in cm-1:             0.072483             0.022651             0.017369
Rotational constants in MHz :          2172.982541           679.068852           520.720834

                             ****ORCA TERMINATED NORMALLY****
TOTAL RUN TIME: 0 days 0 hours 0 minutes 11 seconds 193 msec
