                         Program Version 6.0.0  -   RELEASE  -
|  1> ! pbe def2-sv(p) def2/J RI DEFGRID1 loosescf d4 GCP(DFT/SV(P)) printgap
|  2> %output
|  3>     printlevel normal
|  4> end
|  5> * xyz 0 1
|  6> C -2.3758950279 -1.1456362088 -0.3929280915
|  7> C -1.0809256991 -0.6188589685 0.234182181
|  8> H -1.1730648193 -0.6295247063 1.3330435227
|  9> C -0.7949420436 0.8346557252 -0.1924800084
| 10> H -0.8950770639 0.9263229709 -1.2851901011
| 11> C 0.6358188439 1.2462741005 0.1791733299
| 12> H 0.6616956221 1.4028818751 1.2712920537
| 13> C 1.6643788213 0.1675945177 -0.2027451579
| 14> H 1.7304901939 0.100330523 -1.2939338954
| 15> C 1.211326161 -1.19969865 0.3274347876
| 16> H 1.1623967696 -1.1598399525 1.4398013877
| 17> O -0.0673545091 -1.5146367521 -0.1728163069
| 18> O 2.0921114152 -2.1708813289 -0.0965896301
| 19> O 2.9458759234 0.5328450208 0.2351050131
| 20> O 0.9324749437 2.4517462869 -0.4795014418
| 21> O -1.6659672829 1.7208891096 0.4615074655
| 22> O -3.4580832307 -0.3581072949 0.04296471
| 23> H -2.4949560827 -2.1916894106 -0.088705163
| 24> H -2.2669182133 -1.1051694895 -1.4834874838
| 25> H 1.6817464107 -3.0457056816 -0.0047830788
| 26> H 3.0231711392 0.4058886465 1.1922404881
| 27> H 1.8819127116 2.6271675869 -0.3798475898
| 28> H -2.5767498491 1.3962999365 0.3448121829
| 29> H -4.2800766809 -0.7047154282 -0.3327173225
| 30> *
| 31>
| 32>                          ****END OF INPUT****

CARTESIAN COORDINATES (ANGSTROEM)
---------------------------------
  C     -2.375895   -1.145636   -0.392928
  C     -1.080926   -0.618859    0.234182
  H     -1.173065   -0.629525    1.333044
  C     -0.794942    0.834656   -0.192480
  H     -0.895077    0.926323   -1.285190
  C      0.635819    1.246274    0.179173
  H      0.661696    1.402882    1.271292
  C      1.664379    0.167595   -0.202745
  H      1.730490    0.100331   -1.293934
  C      1.211326   -1.199699    0.327435
  H      1.162397   -1.159840    1.439801
  O     -0.067355   -1.514637   -0.172816
  O      2.092111   -2.170881   -0.096590
  O      2.945876    0.532845    0.235105
  O      0.932475    2.451746   -0.479501
  O     -1.665967    1.720889    0.461507
  O     -3.458083   -0.358107    0.042965
  H     -2.494956   -2.191689   -0.088705
  H     -2.266918   -1.105169   -1.483487
  H      1.681746   -3.045706   -0.004783
  H      3.023171    0.405889    1.192240
  H      1.881913    2.627168   -0.379848
  H     -2.576750    1.396300    0.344812
  H     -4.280077   -0.704715   -0.332717

 Total Charge           Charge          ....    0
 Multiplicity           Mult            ....    1
 Number of Electrons    NEL             ....   96
 Basis Dimension        Dim             ....  192

ORBITAL ENERGIES
----------------

  NO   OCC          E(Eh)            E(eV)
   0   2.0000     -18.781782      -511.0783
   1   2.0000     -18.780380      -511.0401
   2   2.0000     -18.761821      -510.5351
   3   2.0000     -18.758095      -510.4337
   4   2.0000     -18.736079      -509.8346
   5   2.0000     -18.730363      -509.6791
   6   2.0000      -9.992203      -271.9017
   7   2.0000      -9.949663      -270.7441
   8   2.0000      -9.949447      -270.7382
   9   2.0000      -9.937454      -270.4119
  10   2.0000      -9.934998      -270.3450
  11   2.0000      -9.933575      -270.3063
  12   2.0000      -0.989773       -26.9331
  13   2.0000      -0.954752       -25.9801
  14   2.0000      -0.940441       -25.5907
  15   2.0000      -0.925329       -25.1795
  16   2.0000      -0.913916       -24.8689
  17   2.0000      -0.901707       -24.5367
  18   2.0000      -0.702325       -19.1112
  19   2.0000      -0.693193       -18.8627
  20   2.0000      -0.625011       -17.0074
  21   2.0000      -0.575091       -15.6490
  22   2.0000      -0.562522       -15.3070
  23   2.0000      -0.529079       -14.3970
  24   2.0000      -0.513356       -13.9691
  25   2.0000      -0.487024       -13.2526
  26   2.0000      -0.482650       -13.1336
  27   2.0000      -0.456405       -12.4194
  28   2.0000      -0.449599       -12.2342
  29   2.0000      -0.446444       -12.1483
  30   2.0000      -0.415902       -11.3173
  31   2.0000      -0.407182       -11.0800
  32   2.0000      -0.390473       -10.6253
  33   2.0000      -0.369739       -10.0611
  34   2.0000      -0.350448        -9.5362
  35   2.0000      -0.346432        -9.4269
  36   2.0000      -0.332975        -9.0607
  37   2.0000      -0.324410        -8.8276
  38   2.0000      -0.308936        -8.4066
  39   2.0000      -0.289179        -7.8689
  40   2.0000      -0.283533        -7.7153
  41   2.0000      -0.267262        -7.2726
  42   2.0000      -0.251504        -6.8438
  43   2.0000      -0.246142        -6.6979
  44   2.0000      -0.234204        -6.3730
  45   2.0000      -0.225907        -6.1472
  46   2.0000      -0.211517        -5.7557
  47   2.0000      -0.192907        -5.2493
  48   0.0000       0.001993         0.0542
  49   0.0000       0.017845         0.4856
  50   0.0000       0.035034         0.9533
  51   0.0000       0.043353         1.1797
  52   0.0000       0.059994         1.6325

MULLIKEN ATOMIC CHARGES
-----------------------
   0 C :    0.069599
   1 C :   -0.018430
   2 H :    0.062716
   3 C :    0.068275
   4 H :    0.051475
   5 C :    0.093522
   6 H :    0.035858
   7 C :    0.038549
   8 H :    0.073413
   9 C :    0.179783
  10 H :    0.018162
  11 O :   -0.315323
  12 O :   -0.366244
  13 O :   -0.411987
  14 O :   -0.407198
  15 O :   -0.418680
  16 O :   -0.442361
  17 H :    0.086201
  18 H :    0.079853
  19 H :    0.305030
  20 H :    0.299828
  21 H :    0.298924
  22 H :    0.301649
  23 H :    0.317387
Sum of atomic charges:   -0.0000000

LOEWDIN ATOMIC CHARGES
----------------------
   0 C :   -0.121834
   1 C :   -0.069811
   2 H :    0.105223
   3 C :   -0.063171
   4 H :    0.105208
   5 C :   -0.070223
   6 H :    0.096804
   7 C :   -0.092840
   8 H :    0.124457
   9 C :   -0.002441
  10 H :    0.070500
  11 O :   -0.150894
  12 O :   -0.291663
  13 O :   -0.304720
  14 O :   -0.316398
  15 O :   -0.321870
  16 O :   -0.329612
  17 H :    0.103898
  18 H :    0.103339
  19 H :    0.289327
  20 H :    0.285968
  21 H :    0.281353
  22 H :    0.272439
  23 H :    0.296963

  Mayer bond orders larger than 0.100000
B(  0-C ,  1-C ) :   1.0632 B(  0-C , 16-O ) :   1.0555 B(  0-C , 17-H ) :   0.9191
B(  0-C , 18-H ) :   0.9078 B(  1-C ,  2-H ) :   0.8733 B(  1-C ,  3-C ) :   1.0031
B(  1-C , 11-O ) :   0.9860 B(  3-C ,  4-H ) :   0.8708 B(  3-C ,  5-C ) :   1.0056
B(  3-C , 15-O ) :   1.1014 B(  5-C ,  6-H ) :   0.8664 B(  5-C ,  7-C ) :   0.9922
B(  5-C , 14-O ) :   1.1063 B(  7-C ,  8-H ) :   0.8578 B(  7-C ,  9-C ) :   0.9793
B(  7-C , 13-O ) :   1.0289 B(  9-C , 10-H ) :   0.8781 B(  9-C , 11-O ) :   1.0007
B(  9-C , 12-O ) :   1.1978 B( 12-O , 19-H ) :   0.8388 B( 13-O , 20-H ) :   0.8457
B( 14-O , 21-H ) :   0.8343 B( 15-O , 22-H ) :   0.8106 B( 16-O , 23-H ) :   0.8410

Dispersion correction           -0.023730501
FINAL SINGLE POINT ENERGY      -685.695365536503

DIPOLE MOMENT
-------------

Method             : SCF
Type of density    : Electron Density
Multiplicity       :   1
Irrep              :   0
Energy             :  -685.8257276368614157 Eh
Relativity type    :
Basis              : AO
                                X                 Y                 Z
Electronic contribution:      2.400867211       0.478216443      -0.309903698
Nuclear contribution   :     -3.314675015      -1.845663841       0.668331442
                        -----------------------------------------
Total Dipole Moment    :     -0.913807804      -1.367447398       0.358427744
                        -----------------------------------------
Magnitude (a.u.)       :      1.683278805
Magnitude (Debye)      :      4.278554701

Rotational constants in cm-1:             0.043958             0.024444             0.016528
Rotational constants in MHz :          1317.835550           732.802692           495.486475

                             ****ORCA TERMINATED NORMALLY****
TOTAL RUN TIME: 0 days 0 hours 0 minutes 11 seconds 701 msec
