                         Program Version 6.0.0  -   RELEASE  -
|  1> ! wb97x-v def2-tzvp def2/J RIJCOSX DEFGRID2 scfconv7 GCP(DFT/TZ) printgap
|  2> %output
|  3>     printlevel normal
|  4> end
|  5> * xyz 0 1
|  6> C -2.6383293504490917 1.497618821704562 0.2389731453220087
|  7> C -1.9630203094107799 0.1554488105134606 -0.016698319052749
|  8> C -0.45508241957717577 0.16802707822472024 0.036312241158715654
|  9> C 0.29832820664766807 1.3130241965779885 0.29673283658832167
| 10> C 1.6933600588955091 1.2829899648155423 0.33377618581509416
| 11> C 2.3628429564100744 0.08534441996919365 0.10684123075278174
| 12> C 1.63893390749704 -1.0754785062696246 -0.15469639760190945
| 13> C 0.24787166179200035 -1.027881703623427 -0.18824695932579397
| 14> O -0.5051132393633204 -2.15365684665715 -0.44550183802689225
| 15> H -2.3426746236455127 2.2470815874485477 -0.5028243485079738
| 16> H -2.3955477255716517 1.8894556690907653 1.232392492986631
| 17> H -3.7245015872523792 1.3831779068816348 0.18265674749789182
| 18> H -2.2726381058313634 -0.22864308390429897 -0.9984734430180304
| 19> H -2.3311611299252366 -0.5835686744316327 0.7080004804249915
| 20> H -0.2127317405559948 2.2532202987080163 0.4752854329981023
| 21> H 2.248709396283743 2.1925058262518804 0.5385760918191755
| 22> H 3.447357009984234 0.04607845061400841 0.1309631446349938
| 23> H 2.1469409647827193 -2.0196636878259175 -0.33451278441846205
| 24> H 0.09054256599916408 -2.903464145506107 -0.5831802095252366
| 25> *
| 26>
| 27>                          ****END OF INPUT****

CARTESIAN COORDINATES (ANGSTROEM)
---------------------------------
  C     -2.638329    1.497619    0.238973
  C     -1.963020    0.155449   -0.016698
  C     -0.455082    0.168027    0.036312
  C      0.298328    1.313024    0.296733
  C      1.693360    1.282990    0.333776
  C      2.362843    0.085344    0.106841
  C      1.638934   -1.075479   -0.154696
  C      0.247872   -1.027882   -0.188247
  O     -0.505113   -2.153657   -0.445502
  H     -2.342675    2.247082   -0.502824
  H     -2.395548    1.889456    1.232392
  H     -3.724502    1.383178    0.182657
  H     -2.272638   -0.228643   -0.998473
  H     -2.331161   -0.583569    0.708000
  H     -0.212732    2.253220    0.475285
  H      2.248709    2.192506    0.538576
  H      3.447357    0.046078    0.130963
  H      2.146941   -2.019664   -0.334513
  H      0.090543   -2.903464   -0.583180

 Total Charge           Charge          ....    0
 Multiplicity           Mult            ....    1
 Number of Electrons    NEL             ....   66
 Basis Dimension        Dim             ....  339

ORBITAL ENERGIES
----------------

  NO   OCC          E(Eh)            E(eV)
   0   2.0000     -21.702988      -590.5683
   1   2.0000     -12.109263      -329.5098
   2   2.0000     -12.053557      -327.9939
   3   2.0000     -12.051508      -327.9382
   4   2.0000     -12.049102      -327.8727
   5   2.0000     -12.047704      -327.8347
   6   2.0000     -12.044938      -327.7594
   7   2.0000     -12.041588      -327.6683
   8   2.0000     -12.035045      -327.4902
   9   2.0000      -1.715824       -46.6900
  10   2.0000      -1.384191       -37.6658
  11   2.0000      -1.304230       -35.4899
  12   2.0000      -1.274325       -34.6762
  13   2.0000      -1.240526       -33.7564
  14   2.0000      -1.153751       -31.3952
  15   2.0000      -1.137113       -30.9424
  16   2.0000      -1.073487       -29.2111
  17   2.0000      -1.056524       -28.7495
  18   2.0000      -1.003287       -27.3008
  19   2.0000      -0.947216       -25.7751
  20   2.0000      -0.939240       -25.5580
  21   2.0000      -0.938600       -25.5406
  22   2.0000      -0.894466       -24.3397
  23   2.0000      -0.882350       -24.0100
  24   2.0000      -0.867502       -23.6059
  25   2.0000      -0.835879       -22.7454
  26   2.0000      -0.828142       -22.5349
  27   2.0000      -0.805915       -21.9301
  28   2.0000      -0.784496       -21.3472
  29   2.0000      -0.782229       -21.2855
  30   2.0000      -0.752890       -20.4872
  31   2.0000      -0.637440       -17.3456
  32   2.0000      -0.628710       -17.1081
  33   0.0000      -0.242528        -6.5995
  34   0.0000      -0.237174        -6.4538
  35   0.0000      -0.146062        -3.9746
  36   0.0000      -0.069637        -1.8949
  37   0.0000      -0.068545        -1.8652

MULLIKEN ATOMIC CHARGES
-----------------------
   0 C :   -0.363044
   1 C :   -0.125124
   2 C :    0.002266
   3 C :   -0.166746
   4 C :   -0.163766
   5 C :   -0.122434
   6 C :   -0.209737
   7 C :    0.212340
   8 O :   -0.393412
   9 H :    0.115618
  10 H :    0.115379
  11 H :    0.120625
  12 H :    0.105623
  13 H :    0.105845
  14 H :    0.128594
  15 H :    0.112666
  16 H :    0.116176
  17 H :    0.098921
  18 H :    0.310210
Sum of atomic charges:    0.0000000

LOEWDIN ATOMIC CHARGES
----------------------
   0 C :   -0.303416
   1 C :   -0.239593
   2 C :   -0.126427
   3 C :   -0.111918
   4 C :   -0.158955
   5 C :   -0.144529
   6 C :   -0.149438
   7 C :   -0.229621
   8 O :    0.067808
   9 H :    0.117702
  10 H :    0.117694
  11 H :    0.118536
  12 H :    0.145352
  13 H :    0.145226
  14 H :    0.147037
  15 H :    0.139788
  16 H :    0.141353
  17 H :    0.138663
  18 H :    0.184738

  Mayer bond orders larger than 0.100000
B(  0-C ,  1-C ) :   0.9904 B(  0-C ,  9-H ) :   0.9792 B(  0-C , 10-H ) :   0.9792
B(  0-C , 11-H ) :   0.9839 B(  1-C ,  2-C ) :   0.9868 B(  1-C , 12-H ) :   0.9567
B(  1-C , 13-H ) :   0.9571 B(  2-C ,  3-C ) :   1.4048 B(  2-C ,  7-C ) :   1.3512
B(  3-C ,  4-C ) :   1.4398 B(  3-C , 14-H ) :   0.9632 B(  4-C ,  5-C ) :   1.4523
B(  4-C , 15-H ) :   0.9766 B(  5-C ,  6-C ) :   1.4181 B(  5-C , 16-H ) :   0.9679
B(  6-C ,  7-C ) :   1.4216 B(  6-C , 17-H ) :   0.9670 B(  7-C ,  8-O ) :   1.1769
B(  8-O , 18-H ) :   0.8885

FINAL SINGLE POINT ENERGY      -386.118539148657

DIPOLE MOMENT
-------------

Method             : SCF
Type of density    : Electron Density
Multiplicity       :   1
Irrep              :   0
Energy             :  -386.1297389278573746 Eh
Relativity type    :
Basis              : AO
                                X                 Y                 Z
Electronic contribution:      5.335805265      -4.371450106      -0.722983536
Nuclear contribution   :     -5.081303032       4.082293427       0.668963962
                        -----------------------------------------
Total Dipole Moment    :      0.254502234      -0.289156679      -0.054019574
                        -----------------------------------------
Magnitude (a.u.)       :      0.388974403
Magnitude (Debye)      :      0.988694360

Rotational constants in cm-1:             0.083120             0.049003             0.031184
Rotational constants in MHz :          2491.877643          1469.065272           934.862660

                             ****ORCA TERMINATED NORMALLY****
TOTAL RUN TIME: 0 days 0 hours 3 minutes 24 seconds 122 msec
