                         Program Version 6.0.0  -   RELEASE  -
|  1> ! wb97x-v def2-tzvp def2/J RIJCOSX DEFGRID2 scfconv7 GCP(DFT/TZ) printgap
|  2> %output
|  3>     printlevel normal
|  4> end
|  5> %cpcm
|  6>     smd true
|  7>     smdsolvent "water"
|  8> end
|  9> * xyz 0 1
| 10> C -2.6383293504490917 1.497618821704562 0.2389731453220087
| 11> C -1.9630203094107799 0.1554488105134606 -0.016698319052749
| 12> C -0.45508241957717577 0.16802707822472024 0.036312241158715654
| 13> C 0.29832820664766807 1.3130241965779885 0.29673283658832167
| 14> C 1.6933600588955091 1.2829899648155423 0.33377618581509416
| 15> C 2.3628429564100744 0.08534441996919365 0.10684123075278174
| 16> C 1.63893390749704 -1.0754785062696246 -0.15469639760190945
| 17> C 0.24787166179200035 -1.027881703623427 -0.18824695932579397
| 18> O -0.5051132393633204 -2.15365684665715 -0.44550183802689225
| 19> H -2.3426746236455127 2.2470815874485477 -0.5028243485079738
| 20> H -2.3955477255716517 1.8894556690907653 1.232392492986631
| 21> H -3.7245015872523792 1.3831779068816348 0.18265674749789182
| 22> H -2.2726381058313634 -0.22864308390429897 -0.9984734430180304
| 23> H -2.3311611299252366 -0.5835686744316327 0.7080004804249915
| 24> H -0.2127317405559948 2.2532202987080163 0.4752854329981023
| 25> H 2.248709396283743 2.1925058262518804 0.5385760918191755
| 26> H 3.447357009984234 0.04607845061400841 0.1309631446349938
| 27> H 2.1469409647827193 -2.0196636878259175 -0.33451278441846205
| 28> H 0.09054256599916408 -2.903464145506107 -0.5831802095252366
| 29> *
| 30>
| 31>                          ****END OF INPUT****

CARTESIAN COORDINATES (ANGSTROEM)
---------------------------------
  C     -2.638329    1.497619    0.238973
  C     -1.963020    0.155449   -0.016698
  C     -0.455082    0.168027    0.036312
  C      0.298328    1.313024    0.296733
  C      1.693360    1.282990    0.333776
  C      2.362843    0.085344    0.106841
  C      1.638934   -1.075479   -0.154696
  C      0.247872   -1.027882   -0.188247
  O     -0.505113   -2.153657   -0.445502
  H     -2.342675    2.247082   -0.502824
  H     -2.395548    1.889456    1.232392
  H     -3.724502    1.383178    0.182657
  H     -2.272638   -0.228643   -0.998473
  H     -2.331161   -0.583569    0.708000
  H     -0.212732    2.253220    0.475285
  H      2.248709    2.192506    0.538576
  H      3.447357    0.046078    0.130963
  H      2.146941   -2.019664   -0.334513
  H      0.090543   -2.903464   -0.583180

 Total Charge           Charge          ....    0
 Multiplicity           Mult            ....    1
 Number of Electrons    NEL             ....   66
 Basis Dimension        Dim             ....  339

ORBITAL ENERGIES
----------------

  NO   OCC          E(Eh)            E(eV)
   0   2.0000     -21.700203      -590.4925
   1   2.0000     -12.109017      -329.5031
   2   2.0000     -12.054188      -328.0111
   3   2.0000     -12.049141      -327.8738
   4   2.0000     -12.046810      -327.8104
   5   2.0000     -12.045634      -327.7784
   6   2.0000     -12.042463      -327.6921
   7   2.0000     -12.040831      -327.6477
   8   2.0000     -12.027937      -327.2968
   9   2.0000      -1.713387       -46.6236
  10   2.0000      -1.384744       -37.6808
  11   2.0000      -1.303124       -35.4598
  12   2.0000      -1.273782       -34.6614
  13   2.0000      -1.237512       -33.6744
  14   2.0000      -1.151865       -31.3438
  15   2.0000      -1.134427       -30.8693
  16   2.0000      -1.071032       -29.1443
  17   2.0000      -1.054943       -28.7065
  18   2.0000      -1.003883       -27.3170
  19   2.0000      -0.947059       -25.7708
  20   2.0000      -0.938450       -25.5365
  21   2.0000      -0.936040       -25.4709
  22   2.0000      -0.890885       -24.2422
  23   2.0000      -0.878446       -23.9037
  24   2.0000      -0.863656       -23.5013
  25   2.0000      -0.832845       -22.6629
  26   2.0000      -0.824164       -22.4266
  27   2.0000      -0.802301       -21.8317
  28   2.0000      -0.779618       -21.2145
  29   2.0000      -0.779449       -21.2099
  30   2.0000      -0.752333       -20.4720
  31   2.0000      -0.638134       -17.3645
  32   2.0000      -0.630583       -17.1590
  33   0.0000      -0.244156        -6.6438
  34   0.0000      -0.237546        -6.4639
  35   0.0000      -0.143583        -3.9071
  36   0.0000      -0.069850        -1.9007
  37   0.0000      -0.037655        -1.0246

MULLIKEN ATOMIC CHARGES
-----------------------
   0 C :   -0.401074
   1 C :   -0.149315
   2 C :   -0.014212
   3 C :   -0.205700
   4 C :   -0.219931
   5 C :   -0.154292
   6 C :   -0.270096
   7 C :    0.226320
   8 O :   -0.468725
   9 H :    0.129165
  10 H :    0.128999
  11 H :    0.138154
  12 H :    0.118212
  13 H :    0.118446
  14 H :    0.168062
  15 H :    0.157098
  16 H :    0.162229
  17 H :    0.162428
  18 H :    0.374234
Sum of atomic charges:    0.0000000

LOEWDIN ATOMIC CHARGES
----------------------
   0 C :   -0.305244
   1 C :   -0.244365
   2 C :   -0.136698
   3 C :   -0.123077
   4 C :   -0.173643
   5 C :   -0.155962
   6 C :   -0.145983
   7 C :   -0.237851
   8 O :    0.046160
   9 H :    0.121130
  10 H :    0.121143
  11 H :    0.121627
  12 H :    0.146454
  13 H :    0.146358
  14 H :    0.155646
  15 H :    0.148252
  16 H :    0.150943
  17 H :    0.155531
  18 H :    0.209580

  Mayer bond orders larger than 0.100000
B(  0-C ,  1-C ) :   0.9944 B(  0-C ,  9-H ) :   0.9764 B(  0-C , 10-H ) :   0.9765
B(  0-C , 11-H ) :   0.9792 B(  1-C ,  2-C ) :   0.9736 B(  1-C , 12-H ) :   0.9587
B(  1-C , 13-H ) :   0.9590 B(  2-C ,  3-C ) :   1.3865 B(  2-C ,  7-C ) :   1.3364
B(  3-C ,  4-C ) :   1.4177 B(  3-C , 14-H ) :   0.9669 B(  4-C ,  5-C ) :   1.4201
B(  4-C , 15-H ) :   0.9827 B(  5-C ,  6-C ) :   1.3761 B(  5-C , 16-H ) :   0.9701
B(  6-C ,  7-C ) :   1.4233 B(  6-C , 17-H ) :   0.9749 B(  7-C ,  8-O ) :   1.1354
B(  8-O , 18-H ) :   0.8488

FINAL SINGLE POINT ENERGY      -386.126921594551

DIPOLE MOMENT
-------------

Method             : SCF
Type of density    : Electron Density
Multiplicity       :   1
Irrep              :   0
Energy             :  -386.1381213737508347 Eh
Relativity type    :
Basis              : AO
                                X                 Y                 Z
Electronic contribution:      5.482473128      -4.479861774      -0.741101194
Nuclear contribution   :     -5.081303032       4.082293427       0.668963962
                        -----------------------------------------
Total Dipole Moment    :      0.401170097      -0.397568347      -0.072137232
                        -----------------------------------------
Magnitude (a.u.)       :      0.569387230
Magnitude (Debye)      :      1.447267321

Rotational constants in cm-1:             0.083120             0.049003             0.031184
Rotational constants in MHz :          2491.877643          1469.065272           934.862660

                             ****ORCA TERMINATED NORMALLY****
TOTAL RUN TIME: 0 days 0 hours 3 minutes 29 seconds 915 msec
