                         Program Version 6.0.0  -   RELEASE  -
|  1> ! pbe def2-sv(p) def2/J RI DEFGRID1 loosescf d4 GCP(DFT/SV(P)) printgap
|  2> %output
|  3>     printlevel normal
|  4> end
|  5> * xyz 0 1
|  6> C -2.5652024387 -0.6399774127 -0.3377532294
|  7> C -1.1819965191 -0.293098016 0.2229862219
|  8> H -1.2414089479 -0.2357705758 1.3210981983
|  9> C -0.6993098911 1.0618484036 -0.3098992776
| 10> H -0.6904580499 1.0300004201 -1.4108845034
| 11> C 0.7340189852 1.3277885492 0.1676892216
| 12> H 0.7322847659 1.4374256538 1.264177521
| 13> C 1.6352845991 0.1459209997 -0.1961250002
| 14> H 1.7019751657 0.0635071359 -1.2913410295
| 15> C 1.0157511402 -1.1564011759 0.3352798102
| 16> H 0.989218789 -1.1080185754 1.444961157
| 17> O -0.2942597269 -1.3325061853 -0.1515980603
| 18> O 1.7994754639 -2.2032810383 -0.1054897723
| 19> O 2.9002652734 0.3786941024 0.3670025216
| 20> O 1.1698027919 2.5205428317 -0.4351944533
| 21> O -1.5802372628 2.0527484733 0.145163768
| 22> O -3.1322019821 -1.7642029011 0.2789548833
| 23> H -2.4743003421 -0.789922796 -1.4201406609
| 24> H -3.2341768148 0.1984013008 -0.1398682304
| 25> H 1.3709893832 -3.0510677829 0.0887252099
| 26> H 3.4729140065 -0.3804416752 0.1821153542
| 27> H 2.1032841462 2.6554097836 -0.2144785308
| 28> H -1.2152889297 2.9173424843 -0.1005914942
| 29> H -2.5626269056 -2.5285276364 0.1113298936
| 30> *
| 31>
| 32>                          ****END OF INPUT****

CARTESIAN COORDINATES (ANGSTROEM)
---------------------------------
  C     -2.565202   -0.639977   -0.337753
  C     -1.181997   -0.293098    0.222986
  H     -1.241409   -0.235771    1.321098
  C     -0.699310    1.061848   -0.309899
  H     -0.690458    1.030000   -1.410885
  C      0.734019    1.327789    0.167689
  H      0.732285    1.437426    1.264178
  C      1.635285    0.145921   -0.196125
  H      1.701975    0.063507   -1.291341
  C      1.015751   -1.156401    0.335280
  H      0.989219   -1.108019    1.444961
  O     -0.294260   -1.332506   -0.151598
  O      1.799475   -2.203281   -0.105490
  O      2.900265    0.378694    0.367003
  O      1.169803    2.520543   -0.435194
  O     -1.580237    2.052748    0.145164
  O     -3.132202   -1.764203    0.278955
  H     -2.474300   -0.789923   -1.420141
  H     -3.234177    0.198401   -0.139868
  H      1.370989   -3.051068    0.088725
  H      3.472914   -0.380442    0.182115
  H      2.103284    2.655410   -0.214479
  H     -1.215289    2.917342   -0.100591
  H     -2.562627   -2.528528    0.111330

 Total Charge           Charge          ....    0
 Multiplicity           Mult            ....    1
 Number of Electrons    NEL             ....   96
 Basis Dimension        Dim             ....  192

ORBITAL ENERGIES
----------------

  NO   OCC          E(Eh)            E(eV)
   0   2.0000     -18.780085      -511.0321
   1   2.0000     -18.775847      -510.9168
   2   2.0000     -18.763495      -510.5806
   3   2.0000     -18.757776      -510.4250
   4   2.0000     -18.752785      -510.2892
   5   2.0000     -18.742134      -509.9994
   6   2.0000      -9.993347      -271.9328
   7   2.0000      -9.944288      -270.5978
   8   2.0000      -9.944202      -270.5955
   9   2.0000      -9.943734      -270.5828
  10   2.0000      -9.943692      -270.5816
  11   2.0000      -9.926544      -270.1150
  12   2.0000      -0.993333       -27.0300
  13   2.0000      -0.949732       -25.8435
  14   2.0000      -0.940955       -25.6047
  15   2.0000      -0.927397       -25.2358
  16   2.0000      -0.919175       -25.0120
  17   2.0000      -0.914566       -24.8866
  18   2.0000      -0.708027       -19.2664
  19   2.0000      -0.694931       -18.9100
  20   2.0000      -0.618158       -16.8209
  21   2.0000      -0.584524       -15.9057
  22   2.0000      -0.560566       -15.2538
  23   2.0000      -0.529822       -14.4172
  24   2.0000      -0.521189       -14.1823
  25   2.0000      -0.488250       -13.2860
  26   2.0000      -0.472407       -12.8548
  27   2.0000      -0.463205       -12.6044
  28   2.0000      -0.453277       -12.3343
  29   2.0000      -0.441673       -12.0185
  30   2.0000      -0.414369       -11.2756
  31   2.0000      -0.400525       -10.8988
  32   2.0000      -0.390722       -10.6321
  33   2.0000      -0.369882       -10.0650
  34   2.0000      -0.364389        -9.9155
  35   2.0000      -0.358798        -9.7634
  36   2.0000      -0.328503        -8.9390
  37   2.0000      -0.320636        -8.7249
  38   2.0000      -0.309336        -8.4175
  39   2.0000      -0.298054        -8.1105
  40   2.0000      -0.288780        -7.8581
  41   2.0000      -0.272707        -7.4207
  42   2.0000      -0.257418        -7.0047
  43   2.0000      -0.247120        -6.7245
  44   2.0000      -0.232184        -6.3181
  45   2.0000      -0.221985        -6.0405
  46   2.0000      -0.216258        -5.8847
  47   2.0000      -0.211902        -5.7661
  48   0.0000       0.013496         0.3672
  49   0.0000       0.019688         0.5357
  50   0.0000       0.042875         1.1667
  51   0.0000       0.044994         1.2244
  52   0.0000       0.055121         1.4999

MULLIKEN ATOMIC CHARGES
-----------------------
   0 C :    0.094363
   1 C :   -0.011282
   2 H :    0.059722
   3 C :    0.060878
   4 H :    0.055475
   5 C :    0.071410
   6 H :    0.055894
   7 C :    0.031822
   8 H :    0.061459
   9 C :    0.179666
  10 H :    0.039041
  11 O :   -0.322676
  12 O :   -0.386378
  13 O :   -0.425736
  14 O :   -0.426167
  15 O :   -0.417280
  16 O :   -0.431588
  17 H :    0.066270
  18 H :    0.102816
  19 H :    0.311142
  20 H :    0.312264
  21 H :    0.312883
  22 H :    0.312364
  23 H :    0.293638
Sum of atomic charges:   -0.0000000

LOEWDIN ATOMIC CHARGES
----------------------
   0 C :   -0.125043
   1 C :   -0.068896
   2 H :    0.108236
   3 C :   -0.065140
   4 H :    0.104658
   5 C :   -0.075355
   6 H :    0.105356
   7 C :   -0.090688
   8 H :    0.108819
   9 C :   -0.005006
  10 H :    0.081783
  11 O :   -0.158950
  12 O :   -0.299589
  13 O :   -0.321755
  14 O :   -0.324232
  15 O :   -0.314811
  16 O :   -0.333924
  17 H :    0.100496
  18 H :    0.125877
  19 H :    0.293195
  20 H :    0.291934
  21 H :    0.291935
  22 H :    0.291454
  23 H :    0.279647

  Mayer bond orders larger than 0.100000
B(  0-C ,  1-C ) :   1.0573 B(  0-C , 16-O ) :   1.0814 B(  0-C , 17-H ) :   0.9067
B(  0-C , 18-H ) :   0.9113 B(  1-C ,  2-H ) :   0.8671 B(  1-C ,  3-C ) :   1.0065
B(  1-C , 11-O ) :   0.9764 B(  3-C ,  4-H ) :   0.8684 B(  3-C ,  5-C ) :   1.0224
B(  3-C , 15-O ) :   1.0669 B(  5-C ,  6-H ) :   0.8737 B(  5-C ,  7-C ) :   1.0084
B(  5-C , 14-O ) :   1.0830 B(  7-C ,  8-H ) :   0.8658 B(  7-C ,  9-C ) :   0.9966
B(  7-C , 13-O ) :   1.0664 B(  9-C , 10-H ) :   0.8839 B(  9-C , 11-O ) :   1.0125
B(  9-C , 12-O ) :   1.1681 B( 12-O , 19-H ) :   0.8371 B( 13-O , 20-H ) :   0.8370
B( 14-O , 21-H ) :   0.8358 B( 15-O , 22-H ) :   0.8349 B( 16-O , 23-H ) :   0.8505

Dispersion correction           -0.023588855
FINAL SINGLE POINT ENERGY      -685.705745796208

DIPOLE MOMENT
-------------

Method             : SCF
Type of density    : Electron Density
Multiplicity       :   1
Irrep              :   0
Energy             :  -685.8357074223010841 Eh
Relativity type    :
Basis              : AO
                                X                 Y                 Z
Electronic contribution:      2.003571262      -0.659289145       0.066127003
Nuclear contribution   :     -0.970038533       0.190300726      -0.153237298
                        -----------------------------------------
Total Dipole Moment    :      1.033532729      -0.468988419      -0.087110295
                        -----------------------------------------
Magnitude (a.u.)       :      1.138300594
Magnitude (Debye)      :      2.893330173

Rotational constants in cm-1:             0.039623             0.025874             0.016352
Rotational constants in MHz :          1187.874112           775.686957           490.207480

                             ****ORCA TERMINATED NORMALLY****
TOTAL RUN TIME: 0 days 0 hours 0 minutes 12 seconds 248 msec
