                         Program Version 6.0.0  -   RELEASE  -
|  1> ! pbe def2-sv(p) def2/J RI DEFGRID1 loosescf d4 GCP(DFT/SV(P)) printgap
|  2> %output
|  3>     printlevel normal
|  4> end
|  5> * xyz 0 1
|  6> C -2.5646722958 0.6173678126 -0.1388312992
|  7> C -1.3866238963 -0.325593893 0.0115678786
|  8> O -0.1808670466 0.4252919057 -0.2065775533
|  9> C 0.9771316936 -0.1618052845 0.0626897647
| 10> O 1.0612470924 -1.2995518539 0.4810544942
| 11> C 2.1397513022 0.7434293645 -0.211625447
| 12> H -2.5652866996 1.0538315395 -1.1331411114
| 13> H -3.4871856605 0.0668215698 0.0126017369
| 14> H -2.4986583195 1.415924343 0.5942469079
| 15> H -1.422607176 -1.1383953263 -0.7211747172
| 16> H -1.3423146339 -0.7700355047 1.0113981445
| 17> H 2.7569729353 0.810131359 0.6802548336
| 18> H 1.7827449409 1.723847798 -0.5068102537
| 19> H 2.7447084437 0.3078065636 -1.0030267089
| 20> *
| 21>
| 22>                          ****END OF INPUT****

CARTESIAN COORDINATES (ANGSTROEM)
---------------------------------
  C     -2.564672    0.617368   -0.138831
  C     -1.386624   -0.325594    0.011568
  O     -0.180867    0.425292   -0.206578
  C      0.977132   -0.161805    0.062690
  O      1.061247   -1.299552    0.481054
  C      2.139751    0.743429   -0.211625
  H     -2.565287    1.053832   -1.133141
  H     -3.487186    0.066822    0.012602
  H     -2.498658    1.415924    0.594247
  H     -1.422607   -1.138395   -0.721175
  H     -1.342315   -0.770036    1.011398
  H      2.756973    0.810131    0.680255
  H      1.782745    1.723848   -0.506810
  H      2.744708    0.307807   -1.003027

 Total Charge           Charge          ....    0
 Multiplicity           Mult            ....    1
 Number of Electrons    NEL             ....   48
 Basis Dimension        Dim             ....  100

ORBITAL ENERGIES
----------------

  NO   OCC          E(Eh)            E(eV)
   0   2.0000     -18.797078      -511.4945
   1   2.0000     -18.729931      -509.6673
   2   2.0000     -10.003304      -272.2038
   3   2.0000      -9.945356      -270.6269
   4   2.0000      -9.890666      -269.1387
   5   2.0000      -9.888677      -269.0846
   6   2.0000      -1.003231       -27.2993
   7   2.0000      -0.905190       -24.6315
   8   2.0000      -0.713166       -19.4062
   9   2.0000      -0.663477       -18.0541
  10   2.0000      -0.578685       -15.7468
  11   2.0000      -0.507879       -13.8201
  12   2.0000      -0.446868       -12.1599
  13   2.0000      -0.431243       -11.7347
  14   2.0000      -0.408305       -11.1106
  15   2.0000      -0.399282       -10.8650
  16   2.0000      -0.366720        -9.9790
  17   2.0000      -0.352170        -9.5830
  18   2.0000      -0.349459        -9.5093
  19   2.0000      -0.343828        -9.3560
  20   2.0000      -0.310251        -8.4424
  21   2.0000      -0.297192        -8.0870
  22   2.0000      -0.255030        -6.9397
  23   2.0000      -0.214981        -5.8499
  24   0.0000      -0.017351        -0.4721
  25   0.0000       0.042752         1.1633
  26   0.0000       0.058877         1.6021
  27   0.0000       0.085858         2.3363
  28   0.0000       0.091988         2.5031

MULLIKEN ATOMIC CHARGES
-----------------------
   0 C :   -0.273724
   1 C :   -0.029848
   2 O :   -0.239610
   3 C :    0.079602
   4 O :   -0.220502
   5 C :   -0.250268
   6 H :    0.114075
   7 H :    0.111048
   8 H :    0.114250
   9 H :    0.103815
  10 H :    0.107564
  11 H :    0.132943
  12 H :    0.115842
  13 H :    0.134812
Sum of atomic charges:    0.0000000

LOEWDIN ATOMIC CHARGES
----------------------
   0 C :   -0.350737
   1 C :   -0.109305
   2 O :   -0.072548
   3 C :    0.026783
   4 O :   -0.177451
   5 C :   -0.360531
   6 H :    0.126148
   7 H :    0.130118
   8 H :    0.126214
   9 H :    0.115662
  10 H :    0.116839
  11 H :    0.146998
  12 H :    0.133468
  13 H :    0.148343

  Mayer bond orders larger than 0.100000
B(  0-C ,  1-C ) :   1.1497 B(  0-C ,  6-H ) :   0.9492 B(  0-C ,  7-H ) :   0.9448
B(  0-C ,  8-H ) :   0.9512 B(  1-C ,  2-O ) :   0.9120 B(  1-C ,  9-H ) :   0.9346
B(  1-C , 10-H ) :   0.9278 B(  2-O ,  3-C ) :   1.2179 B(  3-C ,  4-O ) :   2.0445
B(  3-C ,  5-C ) :   1.0881 B(  5-C , 11-H ) :   0.9310 B(  5-C , 12-H ) :   0.9387
B(  5-C , 13-H ) :   0.9292

Dispersion correction           -0.008731874
FINAL SINGLE POINT ENERGY      -307.031180163975

DIPOLE MOMENT
-------------

Method             : SCF
Type of density    : Electron Density
Multiplicity       :   1
Irrep              :   0
Energy             :  -307.0855970721313497 Eh
Relativity type    :
Basis              : AO
                                X                 Y                 Z
Electronic contribution:      3.381157293      -2.624393741       0.753812347
Nuclear contribution   :     -3.769286627       3.242411414      -0.995688330
                        -----------------------------------------
Total Dipole Moment    :     -0.388129333       0.618017673      -0.241875983
                        -----------------------------------------
Magnitude (a.u.)       :      0.768826518
Magnitude (Debye)      :      1.954201706

Rotational constants in cm-1:             0.282393             0.069781             0.057879
Rotational constants in MHz :          8465.939544          2091.974174          1735.164644

                             ****ORCA TERMINATED NORMALLY****
TOTAL RUN TIME: 0 days 0 hours 0 minutes 6 seconds 409 msec
