                         Program Version 6.0.0  -   RELEASE  -
|  1> ! r2scan-3c def2/J RI DEFGRID2 scfconv6 printgap
|  2> %output
|  3>     printlevel normal
|  4> end
|  5> * xyz 0 1
|  6> C -1.9618801726 -0.2242226889 0.5005099507
|  7> C -1.175248774 -0.1096816397 -0.7994306552
|  8> C 0.1137191007 0.6847398911 -0.6477710465
|  9> S 1.3805043843 -0.1634485242 0.3712674356
| 10> H -1.4072841205 -0.8017651166 1.2364707629
| 11> H -2.1680655355 0.7620301457 0.9107838387
| 12> H -2.9082417356 -0.727012067 0.3204371042
| 13> H -1.7862728513 0.3958194539 -1.5509660258
| 14> H -0.937666356 -1.1073646729 -1.1744219108
| 15> H 0.5989259906 0.8176886928 -1.6145708613
| 16> H -0.0645865104 1.6611106645 -0.2000221425
| 17> H 0.7836376644 0.0185497213 1.5423505517
| 18> *
| 19>
| 20>                          ****END OF INPUT****

CARTESIAN COORDINATES (ANGSTROEM)
---------------------------------
  C     -1.961880   -0.224223    0.500510
  C     -1.175249   -0.109682   -0.799431
  C      0.113719    0.684740   -0.647771
  S      1.380504   -0.163449    0.371267
  H     -1.407284   -0.801765    1.236471
  H     -2.168066    0.762030    0.910784
  H     -2.908242   -0.727012    0.320437
  H     -1.786273    0.395819   -1.550966
  H     -0.937666   -1.107365   -1.174422
  H      0.598926    0.817689   -1.614571
  H     -0.064587    1.661111   -0.200022
  H      0.783638    0.018550    1.542351

 Total Charge           Charge          ....    0
 Multiplicity           Mult            ....    1
 Number of Electrons    NEL             ....   42
 Basis Dimension        Dim             ....  124

ORBITAL ENERGIES
----------------

  NO   OCC          E(Eh)            E(eV)
   0   2.0000     -88.549782     -2409.5621
   1   2.0000     -10.066059      -273.9114
   2   2.0000     -10.036401      -273.1043
   3   2.0000     -10.023570      -272.7552
   4   2.0000      -7.844965      -213.4724
   5   2.0000      -5.792073      -157.6103
   6   2.0000      -5.788437      -157.5114
   7   2.0000      -5.782055      -157.3377
   8   2.0000      -0.779751       -21.2181
   9   2.0000      -0.703698       -19.1486
  10   2.0000      -0.628668       -17.1069
  11   2.0000      -0.550181       -14.9712
  12   2.0000      -0.445821       -12.1314
  13   2.0000      -0.426628       -11.6091
  14   2.0000      -0.387896       -10.5552
  15   2.0000      -0.379426       -10.3247
  16   2.0000      -0.332809        -9.0562
  17   2.0000      -0.321183        -8.7398
  18   2.0000      -0.314428        -8.5560
  19   2.0000      -0.293511        -7.9868
  20   2.0000      -0.210147        -5.7184
  21   0.0000       0.014592         0.3971
  22   0.0000       0.048393         1.3168
  23   0.0000       0.099951         2.7198
  24   0.0000       0.120579         3.2811
  25   0.0000       0.129382         3.5207

MULLIKEN ATOMIC CHARGES
-----------------------
   0 C :   -0.502185
   1 C :   -0.164516
   2 C :   -0.243821
   3 S :   -0.271950
   4 H :    0.152411
   5 H :    0.143071
   6 H :    0.149216
   7 H :    0.134814
   8 H :    0.146566
   9 H :    0.158072
  10 H :    0.160249
  11 H :    0.138072
Sum of atomic charges:    0.0000000

LOEWDIN ATOMIC CHARGES
----------------------
   0 C :   -0.433018
   1 C :   -0.327479
   2 C :   -0.364743
   3 S :   -0.101586
   4 H :    0.151811
   5 H :    0.150001
   6 H :    0.154198
   7 H :    0.154108
   8 H :    0.159114
   9 H :    0.169188
  10 H :    0.162044
  11 H :    0.126361

  Mayer bond orders larger than 0.100000
B(  0-C ,  1-C ) :   0.9001 B(  0-C ,  4-H ) :   0.9782 B(  0-C ,  5-H ) :   0.9811
B(  0-C ,  6-H ) :   0.9678 B(  1-C ,  2-C ) :   0.8809 B(  1-C ,  7-H ) :   0.9531
B(  1-C ,  8-H ) :   0.9664 B(  2-C ,  3-S ) :   0.9719 B(  2-C ,  9-H ) :   0.9563
B(  2-C , 10-H ) :   0.9673 B(  3-S , 11-H ) :   0.9608

Dispersion correction           -0.002670135
FINAL SINGLE POINT ENERGY      -517.256961344762

DIPOLE MOMENT
-------------

Method             : SCF
Type of density    : Electron Density
Multiplicity       :   1
Irrep              :   0
Energy             :  -517.2633746069384415 Eh
Relativity type    :
Basis              : AO
                                X                 Y                 Z
Electronic contribution:      6.805522657      -0.686974857       0.390000190
Nuclear contribution   :     -7.440984472       0.960694949      -0.507721775
                        -----------------------------------------
Total Dipole Moment    :     -0.635461814       0.273720092      -0.117721585
                        -----------------------------------------
Magnitude (a.u.)       :      0.701849541
Magnitude (Debye)      :      1.783959759

Rotational constants in cm-1:             0.387531             0.108209             0.093512
Rotational constants in MHz :         11617.899093          3244.024118          2803.428152

                             ****ORCA TERMINATED NORMALLY****
TOTAL RUN TIME: 0 days 0 hours 0 minutes 9 seconds 577 msec
