                         Program Version 6.0.0  -   RELEASE  -
|  1> ! r2scan-3c def2/J RI DEFGRID2 scfconv6 printgap
|  2> %output
|  3>     printlevel normal
|  4> end
|  5> %cpcm
|  6>     smd true
|  7>     smdsolvent "water"
|  8> end
|  9> * xyz 0 1
| 10> C -1.9618801726 -0.2242226889 0.5005099507
| 11> C -1.175248774 -0.1096816397 -0.7994306552
| 12> C 0.1137191007 0.6847398911 -0.6477710465
| 13> S 1.3805043843 -0.1634485242 0.3712674356
| 14> H -1.4072841205 -0.8017651166 1.2364707629
| 15> H -2.1680655355 0.7620301457 0.9107838387
| 16> H -2.9082417356 -0.727012067 0.3204371042
| 17> H -1.7862728513 0.3958194539 -1.5509660258
| 18> H -0.937666356 -1.1073646729 -1.1744219108
| 19> H 0.5989259906 0.8176886928 -1.6145708613
| 20> H -0.0645865104 1.6611106645 -0.2000221425
| 21> H 0.7836376644 0.0185497213 1.5423505517
| 22> *
| 23>
| 24>                          ****END OF INPUT****

CARTESIAN COORDINATES (ANGSTROEM)
---------------------------------
  C     -1.961880   -0.224223    0.500510
  C     -1.175249   -0.109682   -0.799431
  C      0.113719    0.684740   -0.647771
  S      1.380504   -0.163449    0.371267
  H     -1.407284   -0.801765    1.236471
  H     -2.168066    0.762030    0.910784
  H     -2.908242   -0.727012    0.320437
  H     -1.786273    0.395819   -1.550966
  H     -0.937666   -1.107365   -1.174422
  H      0.598926    0.817689   -1.614571
  H     -0.064587    1.661111   -0.200022
  H      0.783638    0.018550    1.542351

 Total Charge           Charge          ....    0
 Multiplicity           Mult            ....    1
 Number of Electrons    NEL             ....   42
 Basis Dimension        Dim             ....  124

ORBITAL ENERGIES
----------------

  NO   OCC          E(Eh)            E(eV)
   0   2.0000     -88.547767     -2409.5072
   1   2.0000     -10.054650      -273.6009
   2   2.0000     -10.024041      -272.7680
   3   2.0000     -10.010308      -272.3943
   4   2.0000      -7.843094      -213.4214
   5   2.0000      -5.789949      -157.5525
   6   2.0000      -5.786423      -157.4566
   7   2.0000      -5.780615      -157.2985
   8   2.0000      -0.769707       -20.9448
   9   2.0000      -0.695334       -18.9210
  10   2.0000      -0.619050       -16.8452
  11   2.0000      -0.538859       -14.6631
  12   2.0000      -0.434685       -11.8284
  13   2.0000      -0.414930       -11.2908
  14   2.0000      -0.375665       -10.2224
  15   2.0000      -0.370182       -10.0732
  16   2.0000      -0.322640        -8.7795
  17   2.0000      -0.309470        -8.4211
  18   2.0000      -0.302781        -8.2391
  19   2.0000      -0.287127        -7.8131
  20   2.0000      -0.210553        -5.7294
  21   0.0000       0.018700         0.5089
  22   0.0000       0.055491         1.5100
  23   0.0000       0.113720         3.0945
  24   0.0000       0.130479         3.5505
  25   0.0000       0.137459         3.7405

MULLIKEN ATOMIC CHARGES
-----------------------
   0 C :   -0.526188
   1 C :   -0.191300
   2 C :   -0.238756
   3 S :   -0.351487
   4 H :    0.155783
   5 H :    0.157604
   6 H :    0.159552
   7 H :    0.151476
   8 H :    0.151007
   9 H :    0.177644
  10 H :    0.179665
  11 H :    0.174997
Sum of atomic charges:    0.0000000

LOEWDIN ATOMIC CHARGES
----------------------
   0 C :   -0.439368
   1 C :   -0.327098
   2 C :   -0.359843
   3 S :   -0.140741
   4 H :    0.152135
   5 H :    0.155058
   6 H :    0.156103
   7 H :    0.160655
   8 H :    0.158335
   9 H :    0.175936
  10 H :    0.169785
  11 H :    0.139045

  Mayer bond orders larger than 0.100000
B(  0-C ,  1-C ) :   0.8987 B(  0-C ,  4-H ) :   0.9751 B(  0-C ,  5-H ) :   0.9766
B(  0-C ,  6-H ) :   0.9667 B(  1-C ,  2-C ) :   0.8816 B(  1-C ,  7-H ) :   0.9516
B(  1-C ,  8-H ) :   0.9722 B(  2-C ,  3-S ) :   0.9553 B(  2-C ,  9-H ) :   0.9492
B(  2-C , 10-H ) :   0.9609 B(  3-S , 11-H ) :   0.9536

Dispersion correction           -0.002670135
FINAL SINGLE POINT ENERGY      -517.258993858094

DIPOLE MOMENT
-------------

Method             : SCF
Type of density    : Electron Density
Multiplicity       :   1
Irrep              :   0
Energy             :  -517.2654071202696286 Eh
Relativity type    :
Basis              : AO
                                X                 Y                 Z
Electronic contribution:      6.602268073      -0.546718064       0.347526467
Nuclear contribution   :     -7.440984472       0.960694949      -0.507721775
                        -----------------------------------------
Total Dipole Moment    :     -0.838716399       0.413976885      -0.160195308
                        -----------------------------------------
Magnitude (a.u.)       :      0.948938668
Magnitude (Debye)      :      2.412010408

Rotational constants in cm-1:             0.387531             0.108209             0.093512
Rotational constants in MHz :         11617.899093          3244.024118          2803.428152

                             ****ORCA TERMINATED NORMALLY****
TOTAL RUN TIME: 0 days 0 hours 0 minutes 12 seconds 130 msec
