                         Program Version 6.0.0  -   RELEASE  -
|  1> ! r2scan-3c def2/J RI DEFGRID2 scfconv6 printgap
|  2> %output
|  3>     printlevel normal
|  4> end
|  5> * xyz 0 1
|  6> C 3.6879042958 0.3738251577 0.0481831581
|  7> C 2.213296804 0.3081467167 -0.3405618008
|  8> H 2.1350699784 0.3681386171 -1.4324889286
|  9> C 1.4289770902 1.4712451957 0.2646194949
| 10> C -0.0419606282 1.3894999899 -0.1305726096
| 11> C -0.6673198162 0.0786500073 0.3467222302
| 12> H -0.5406302726 0.004270669 1.4331386814
| 13> C 0.1084500177 -1.1015438232 -0.2583441336
| 14> H 0.0132548043 -1.071581708 -1.3562357724
| 15> C 1.5913553274 -1.0106457142 0.115517139
| 16> O -0.4624393859 -2.3060157296 0.2272994375
| 17> C -2.1807810979 -0.030639034 0.0677199465
| 18> C -2.9812919202 0.8428896728 1.0330417706
| 19> C -2.5653964612 0.3069492013 -1.3718860017
| 20> H 4.1283450536 1.3083429939 -0.2905048053
| 21> H 3.7974114056 0.3140515273 1.128700219
| 22> H 4.2397574713 -0.4492351084 -0.3994327504
| 23> H 1.5189817303 1.4392859873 1.3527203277
| 24> H 1.8499139566 2.4181141664 -0.0793029951
| 25> H -0.5834909989 2.2308088425 0.3025466191
| 26> H -0.1193184166 1.4565259462 -1.2168800349
| 27> H 1.6775946399 -1.101631776 1.2010626841
| 28> H 2.1306750888 -1.8476316439 -0.335938224
| 29> H 0.0448103501 -3.0548806097 -0.1125847363
| 30> H -2.4488618166 -1.075742321 0.2574234607
| 31> H -4.0465660537 0.688741401 0.8787295237
| 32> H -2.7652689032 1.8965583947 0.8735520142
| 33> H -2.7456438402 0.5929125148 2.0647291944
| 34> H -2.4202602177 1.3649361276 -1.5747533858
| 35> H -3.6151939101 0.0726474889 -1.5330981439
| 36> H -1.9792993641 -0.270945157 -2.0815573448
| 37> *
| 38>
| 39>                          ****END OF INPUT****

CARTESIAN COORDINATES (ANGSTROEM)
---------------------------------
  C      3.687904    0.373825    0.048183
  C      2.213297    0.308147   -0.340562
  H      2.135070    0.368139   -1.432489
  C      1.428977    1.471245    0.264619
  C     -0.041961    1.389500   -0.130573
  C     -0.667320    0.078650    0.346722
  H     -0.540630    0.004271    1.433139
  C      0.108450   -1.101544   -0.258344
  H      0.013255   -1.071582   -1.356236
  C      1.591355   -1.010646    0.115517
  O     -0.462439   -2.306016    0.227299
  C     -2.180781   -0.030639    0.067720
  C     -2.981292    0.842890    1.033042
  C     -2.565396    0.306949   -1.371886
  H      4.128345    1.308343   -0.290505
  H      3.797411    0.314052    1.128700
  H      4.239757   -0.449235   -0.399433
  H      1.518982    1.439286    1.352720
  H      1.849914    2.418114   -0.079303
  H     -0.583491    2.230809    0.302547
  H     -0.119318    1.456526   -1.216880
  H      1.677595   -1.101632    1.201063
  H      2.130675   -1.847632   -0.335938
  H      0.044810   -3.054881   -0.112585
  H     -2.448862   -1.075742    0.257423
  H     -4.046566    0.688741    0.878730
  H     -2.765269    1.896558    0.873552
  H     -2.745644    0.592913    2.064729
  H     -2.420260    1.364936   -1.574753
  H     -3.615194    0.072647   -1.533098
  H     -1.979299   -0.270945   -2.081557

 Total Charge           Charge          ....    0
 Multiplicity           Mult            ....    1
 Number of Electrons    NEL             ....   88
 Basis Dimension        Dim             ....  314

ORBITAL ENERGIES
----------------

  NO   OCC          E(Eh)            E(eV)
   0   2.0000     -18.944615      -515.5092
   1   2.0000     -10.075279      -274.1623
   2   2.0000     -10.033885      -273.0359
   3   2.0000     -10.024996      -272.7940
   4   2.0000     -10.022942      -272.7381
   5   2.0000     -10.022265      -272.7197
   6   2.0000     -10.021977      -272.7119
   7   2.0000     -10.021919      -272.7103
   8   2.0000     -10.016801      -272.5710
   9   2.0000     -10.008972      -272.3580
  10   2.0000     -10.007929      -272.3296
  11   2.0000      -0.982807       -26.7435
  12   2.0000      -0.806031       -21.9332
  13   2.0000      -0.764992       -20.8165
  14   2.0000      -0.710851       -19.3432
  15   2.0000      -0.698055       -18.9950
  16   2.0000      -0.643625       -17.5139
  17   2.0000      -0.641754       -17.4630
  18   2.0000      -0.583093       -15.8668
  19   2.0000      -0.562603       -15.3092
  20   2.0000      -0.529543       -14.4096
  21   2.0000      -0.506862       -13.7924
  22   2.0000      -0.473368       -12.8810
  23   2.0000      -0.439595       -11.9620
  24   2.0000      -0.430564       -11.7163
  25   2.0000      -0.418081       -11.3766
  26   2.0000      -0.411647       -11.2015
  27   2.0000      -0.390279       -10.6200
  28   2.0000      -0.377745       -10.2790
  29   2.0000      -0.367843       -10.0095
  30   2.0000      -0.360159        -9.8004
  31   2.0000      -0.351876        -9.5750
  32   2.0000      -0.348914        -9.4944
  33   2.0000      -0.342240        -9.3128
  34   2.0000      -0.330441        -8.9917
  35   2.0000      -0.312199        -8.4954
  36   2.0000      -0.309563        -8.4236
  37   2.0000      -0.304873        -8.2960
  38   2.0000      -0.294513        -8.0141
  39   2.0000      -0.290341        -7.9006
  40   2.0000      -0.281047        -7.6477
  41   2.0000      -0.268217        -7.2986
  42   2.0000      -0.255426        -6.9505
  43   2.0000      -0.228763        -6.2250
  44   0.0000       0.061702         1.6790
  45   0.0000       0.080811         2.1990
  46   0.0000       0.087189         2.3725
  47   0.0000       0.102096         2.7782
  48   0.0000       0.112755         3.0682

MULLIKEN ATOMIC CHARGES
-----------------------
   0 C :   -0.502711
   1 C :   -0.028308
   2 H :    0.159081
   3 C :   -0.341372
   4 C :   -0.385738
   5 C :   -0.068894
   6 H :    0.175708
   7 C :   -0.042518
   8 H :    0.153698
   9 C :   -0.376709
  10 O :   -0.431508
  11 C :   -0.022870
  12 C :   -0.513366
  13 C :   -0.534474
  14 H :    0.147897
  15 H :    0.151620
  16 H :    0.146498
  17 H :    0.157268
  18 H :    0.147501
  19 H :    0.153624
  20 H :    0.166813
  21 H :    0.176735
  22 H :    0.131645
  23 H :    0.283836
  24 H :    0.191254
  25 H :    0.147648
  26 H :    0.150076
  27 H :    0.148469
  28 H :    0.154436
  29 H :    0.150981
  30 H :    0.153680
Sum of atomic charges:    0.0000000

LOEWDIN ATOMIC CHARGES
----------------------
   0 C :   -0.412188
   1 C :   -0.232815
   2 H :    0.158424
   3 C :   -0.291282
   4 C :   -0.285995
   5 C :   -0.184397
   6 H :    0.172898
   7 C :    0.067618
   8 H :    0.165171
   9 C :   -0.270600
  10 O :   -0.621046
  11 C :   -0.229681
  12 C :   -0.413617
  13 C :   -0.414610
  14 H :    0.153388
  15 H :    0.154567
  16 H :    0.152853
  17 H :    0.159508
  18 H :    0.157838
  19 H :    0.161036
  20 H :    0.162408
  21 H :    0.168836
  22 H :    0.157002
  23 H :    0.268466
  24 H :    0.179895
  25 H :    0.153178
  26 H :    0.149838
  27 H :    0.153667
  28 H :    0.152641
  29 H :    0.154275
  30 H :    0.152725

  Mayer bond orders larger than 0.100000
B(  0-C ,  1-C ) :   0.8824 B(  0-C , 14-H ) :   0.9762 B(  0-C , 15-H ) :   0.9960
B(  0-C , 16-H ) :   0.9784 B(  1-C ,  2-H ) :   0.9499 B(  1-C ,  3-C ) :   0.9188
B(  1-C ,  9-C ) :   0.9037 B(  3-C ,  4-C ) :   0.8922 B(  3-C , 17-H ) :   1.0164
B(  3-C , 18-H ) :   0.9460 B(  4-C ,  5-C ) :   0.8583 B(  4-C , 19-H ) :   0.9465
B(  4-C , 20-H ) :   0.9892 B(  5-C ,  6-H ) :   1.0166 B(  5-C ,  7-C ) :   0.9643
B(  5-C , 11-C ) :   0.8362 B(  7-C ,  8-H ) :   0.9822 B(  7-C ,  9-C ) :   0.8617
B(  7-C , 10-O ) :   0.8501 B(  9-C , 21-H ) :   1.0315 B(  9-C , 22-H ) :   0.9412
B( 10-O , 23-H ) :   0.9031 B( 11-C , 12-C ) :   0.8941 B( 11-C , 13-C ) :   0.8479
B( 11-C , 24-H ) :   0.9815 B( 12-C , 25-H ) :   0.9758 B( 12-C , 26-H ) :   0.9872
B( 12-C , 27-H ) :   0.9844 B( 13-C , 28-H ) :   0.9800 B( 13-C , 29-H ) :   0.9736
B( 13-C , 30-H ) :   0.9823

Dispersion correction           -0.010799971
FINAL SINGLE POINT ENERGY      -468.209395509905

DIPOLE MOMENT
-------------

Method             : SCF
Type of density    : Electron Density
Multiplicity       :   1
Irrep              :   0
Energy             :  -468.2137804660201255 Eh
Relativity type    :
Basis              : AO
                                X                 Y                 Z
Electronic contribution:      0.237908945      -4.923016394       0.549152253
Nuclear contribution   :      0.247644500       4.922751239      -0.859902336
                        -----------------------------------------
Total Dipole Moment    :      0.485553445      -0.000265155      -0.310750083
                        -----------------------------------------
Magnitude (a.u.)       :      0.576478822
Magnitude (Debye)      :      1.465292718

Rotational constants in cm-1:             0.059641             0.023190             0.019331
Rotational constants in MHz :          1787.980178           695.230082           579.538055

                             ****ORCA TERMINATED NORMALLY****
TOTAL RUN TIME: 0 days 0 hours 0 minutes 48 seconds 224 msec
