                         Program Version 6.0.0  -   RELEASE  -
|  1> ! r2scan-3c def2/J RI DEFGRID2 scfconv6 printgap
|  2> %output
|  3>     printlevel normal
|  4> end
|  5> %cpcm
|  6>     smd true
|  7>     smdsolvent "water"
|  8> end
|  9> * xyz 0 1
| 10> C 3.6879042958 0.3738251577 0.0481831581
| 11> C 2.213296804 0.3081467167 -0.3405618008
| 12> H 2.1350699784 0.3681386171 -1.4324889286
| 13> C 1.4289770902 1.4712451957 0.2646194949
| 14> C -0.0419606282 1.3894999899 -0.1305726096
| 15> C -0.6673198162 0.0786500073 0.3467222302
| 16> H -0.5406302726 0.004270669 1.4331386814
| 17> C 0.1084500177 -1.1015438232 -0.2583441336
| 18> H 0.0132548043 -1.071581708 -1.3562357724
| 19> C 1.5913553274 -1.0106457142 0.115517139
| 20> O -0.4624393859 -2.3060157296 0.2272994375
| 21> C -2.1807810979 -0.030639034 0.0677199465
| 22> C -2.9812919202 0.8428896728 1.0330417706
| 23> C -2.5653964612 0.3069492013 -1.3718860017
| 24> H 4.1283450536 1.3083429939 -0.2905048053
| 25> H 3.7974114056 0.3140515273 1.128700219
| 26> H 4.2397574713 -0.4492351084 -0.3994327504
| 27> H 1.5189817303 1.4392859873 1.3527203277
| 28> H 1.8499139566 2.4181141664 -0.0793029951
| 29> H -0.5834909989 2.2308088425 0.3025466191
| 30> H -0.1193184166 1.4565259462 -1.2168800349
| 31> H 1.6775946399 -1.101631776 1.2010626841
| 32> H 2.1306750888 -1.8476316439 -0.335938224
| 33> H 0.0448103501 -3.0548806097 -0.1125847363
| 34> H -2.4488618166 -1.075742321 0.2574234607
| 35> H -4.0465660537 0.688741401 0.8787295237
| 36> H -2.7652689032 1.8965583947 0.8735520142
| 37> H -2.7456438402 0.5929125148 2.0647291944
| 38> H -2.4202602177 1.3649361276 -1.5747533858
| 39> H -3.6151939101 0.0726474889 -1.5330981439
| 40> H -1.9792993641 -0.270945157 -2.0815573448
| 41> *
| 42>
| 43>                          ****END OF INPUT****

CARTESIAN COORDINATES (ANGSTROEM)
---------------------------------
  C      3.687904    0.373825    0.048183
  C      2.213297    0.308147   -0.340562
  H      2.135070    0.368139   -1.432489
  C      1.428977    1.471245    0.264619
  C     -0.041961    1.389500   -0.130573
  C     -0.667320    0.078650    0.346722
  H     -0.540630    0.004271    1.433139
  C      0.108450   -1.101544   -0.258344
  H      0.013255   -1.071582   -1.356236
  C      1.591355   -1.010646    0.115517
  O     -0.462439   -2.306016    0.227299
  C     -2.180781   -0.030639    0.067720
  C     -2.981292    0.842890    1.033042
  C     -2.565396    0.306949   -1.371886
  H      4.128345    1.308343   -0.290505
  H      3.797411    0.314052    1.128700
  H      4.239757   -0.449235   -0.399433
  H      1.518982    1.439286    1.352720
  H      1.849914    2.418114   -0.079303
  H     -0.583491    2.230809    0.302547
  H     -0.119318    1.456526   -1.216880
  H      1.677595   -1.101632    1.201063
  H      2.130675   -1.847632   -0.335938
  H      0.044810   -3.054881   -0.112585
  H     -2.448862   -1.075742    0.257423
  H     -4.046566    0.688741    0.878730
  H     -2.765269    1.896558    0.873552
  H     -2.745644    0.592913    2.064729
  H     -2.420260    1.364936   -1.574753
  H     -3.615194    0.072647   -1.533098
  H     -1.979299   -0.270945   -2.081557

 Total Charge           Charge          ....    0
 Multiplicity           Mult            ....    1
 Number of Electrons    NEL             ....   88
 Basis Dimension        Dim             ....  314

ORBITAL ENERGIES
----------------

  NO   OCC          E(Eh)            E(eV)
   0   2.0000     -18.946780      -515.5681
   1   2.0000     -10.069092      -273.9939
   2   2.0000     -10.023272      -272.7471
   3   2.0000     -10.020840      -272.6809
   4   2.0000     -10.019512      -272.6448
   5   2.0000     -10.013066      -272.4694
   6   2.0000     -10.012515      -272.4544
   7   2.0000     -10.011974      -272.4397
   8   2.0000     -10.006509      -272.2910
   9   2.0000     -10.004691      -272.2415
  10   2.0000     -10.004468      -272.2354
  11   2.0000      -0.983874       -26.7726
  12   2.0000      -0.798179       -21.7196
  13   2.0000      -0.759366       -20.6634
  14   2.0000      -0.703818       -19.1519
  15   2.0000      -0.690149       -18.7799
  16   2.0000      -0.640411       -17.4265
  17   2.0000      -0.633959       -17.2509
  18   2.0000      -0.575398       -15.6574
  19   2.0000      -0.557503       -15.1704
  20   2.0000      -0.520196       -14.1553
  21   2.0000      -0.502137       -13.6638
  22   2.0000      -0.468879       -12.7589
  23   2.0000      -0.433529       -11.7969
  24   2.0000      -0.422771       -11.5042
  25   2.0000      -0.412037       -11.2121
  26   2.0000      -0.405499       -11.0342
  27   2.0000      -0.384147       -10.4532
  28   2.0000      -0.371176       -10.1002
  29   2.0000      -0.361512        -9.8373
  30   2.0000      -0.352375        -9.5886
  31   2.0000      -0.346940        -9.4407
  32   2.0000      -0.344329        -9.3697
  33   2.0000      -0.336049        -9.1444
  34   2.0000      -0.325421        -8.8552
  35   2.0000      -0.306035        -8.3276
  36   2.0000      -0.302516        -8.2319
  37   2.0000      -0.301163        -8.1951
  38   2.0000      -0.286012        -7.7828
  39   2.0000      -0.282382        -7.6840
  40   2.0000      -0.276613        -7.5270
  41   2.0000      -0.264736        -7.2038
  42   2.0000      -0.249184        -6.7806
  43   2.0000      -0.229589        -6.2474
  44   0.0000       0.076629         2.0852
  45   0.0000       0.090274         2.4565
  46   0.0000       0.096749         2.6327
  47   0.0000       0.111191         3.0257
  48   0.0000       0.120499         3.2789

MULLIKEN ATOMIC CHARGES
-----------------------
   0 C :   -0.552372
   1 C :   -0.009073
   2 H :    0.168315
   3 C :   -0.359348
   4 C :   -0.404484
   5 C :   -0.064913
   6 H :    0.183493
   7 C :   -0.038461
   8 H :    0.168121
   9 C :   -0.395324
  10 O :   -0.516801
  11 C :   -0.014565
  12 C :   -0.557053
  13 C :   -0.568184
  14 H :    0.158551
  15 H :    0.163043
  16 H :    0.158881
  17 H :    0.164573
  18 H :    0.155468
  19 H :    0.163743
  20 H :    0.175879
  21 H :    0.175460
  22 H :    0.155220
  23 H :    0.338273
  24 H :    0.173980
  25 H :    0.158871
  26 H :    0.166425
  27 H :    0.157985
  28 H :    0.166060
  29 H :    0.161923
  30 H :    0.166314
Sum of atomic charges:    0.0000000

LOEWDIN ATOMIC CHARGES
----------------------
   0 C :   -0.421160
   1 C :   -0.229922
   2 H :    0.162000
   3 C :   -0.294267
   4 C :   -0.286691
   5 C :   -0.187135
   6 H :    0.173506
   7 C :    0.069059
   8 H :    0.173056
   9 C :   -0.270566
  10 O :   -0.656247
  11 C :   -0.230712
  12 C :   -0.422127
  13 C :   -0.422127
  14 H :    0.155550
  15 H :    0.156552
  16 H :    0.155714
  17 H :    0.161332
  18 H :    0.159676
  19 H :    0.163580
  20 H :    0.165341
  21 H :    0.168168
  22 H :    0.164811
  23 H :    0.286138
  24 H :    0.171999
  25 H :    0.155083
  26 H :    0.154970
  27 H :    0.155453
  28 H :    0.156568
  29 H :    0.155867
  30 H :    0.156532

  Mayer bond orders larger than 0.100000
B(  0-C ,  1-C ) :   0.8671 B(  0-C , 14-H ) :   0.9743 B(  0-C , 15-H ) :   0.9949
B(  0-C , 16-H ) :   0.9760 B(  1-C ,  2-H ) :   0.9478 B(  1-C ,  3-C ) :   0.9124
B(  1-C ,  9-C ) :   0.9053 B(  3-C ,  4-C ) :   0.8932 B(  3-C , 17-H ) :   1.0140
B(  3-C , 18-H ) :   0.9453 B(  4-C ,  5-C ) :   0.8659 B(  4-C , 19-H ) :   0.9470
B(  4-C , 20-H ) :   0.9875 B(  5-C ,  6-H ) :   1.0124 B(  5-C ,  7-C ) :   0.9629
B(  5-C , 11-C ) :   0.8210 B(  7-C ,  8-H ) :   0.9703 B(  7-C ,  9-C ) :   0.8917
B(  7-C , 10-O ) :   0.8313 B(  9-C , 21-H ) :   1.0256 B(  9-C , 22-H ) :   0.9384
B( 10-O , 23-H ) :   0.8783 B( 11-C , 12-C ) :   0.8896 B( 11-C , 13-C ) :   0.8549
B( 11-C , 24-H ) :   0.9898 B( 12-C , 25-H ) :   0.9741 B( 12-C , 26-H ) :   0.9839
B( 12-C , 27-H ) :   0.9812 B( 13-C , 28-H ) :   0.9782 B( 13-C , 29-H ) :   0.9726
B( 13-C , 30-H ) :   0.9759

Dispersion correction           -0.010799971
FINAL SINGLE POINT ENERGY      -468.214017840110

DIPOLE MOMENT
-------------

Method             : SCF
Type of density    : Electron Density
Multiplicity       :   1
Irrep              :   0
Energy             :  -468.2184027962251207 Eh
Relativity type    :
Basis              : AO
                                X                 Y                 Z
Electronic contribution:      0.464223206      -4.854864772       0.341698337
Nuclear contribution   :      0.247644500       4.922751239      -0.859902336
                        -----------------------------------------
Total Dipole Moment    :      0.711867706       0.067886467      -0.518203999
                        -----------------------------------------
Magnitude (a.u.)       :      0.883119238
Magnitude (Debye)      :      2.244710712

Rotational constants in cm-1:             0.059641             0.023190             0.019331
Rotational constants in MHz :          1787.980178           695.230082           579.538055

                             ****ORCA TERMINATED NORMALLY****
TOTAL RUN TIME: 0 days 0 hours 0 minutes 59 seconds 489 msec
