                         Program Version 6.0.0  -   RELEASE  -
|  1> ! wb97x-v def2-tzvp def2/J RIJCOSX DEFGRID2 scfconv7 GCP(DFT/TZ) printgap
|  2> %output
|  3>     printlevel normal
|  4> end
|  5> * xyz 0 1
|  6> C -3.847394807999934 -0.6838340204068362 0.012798154120857405
|  7> N -2.6954313811277895 0.2191271495159371 -0.007801218826028762
|  8> C -2.8994438891180505 1.6684132745246052 -0.012275808700564897
|  9> C -1.463385984019584 -0.3597005499285506 0.0007264426873854084
| 10> O -1.325766182759143 -1.597646630797218 0.01640701358298595
| 11> N -0.39114638841430643 0.5133922128138143 -0.010156406603523096
| 12> C 0.9790002827236705 0.21656859620843671 -0.004638297711837189
| 13> C 1.519255761323182 -1.0771332006408167 0.007839441748206177
| 14> C 2.9023827379948077 -1.2457495336417814 0.01212019567396891
| 15> C 3.767552082439681 -0.1565935546616508 0.003979481624702671
| 16> C 3.228051885991811 1.1291197139891036 -0.008835809171212424
| 17> C 1.8536130659178318 1.3166114239190658 -0.013036145587018164
| 18> H -3.846653286221893 -1.3480391769595181 -0.8579180177933302
| 19> H -4.757986224032591 -0.0856988328542924 -0.007077036302543541
| 20> H -3.8542574666326015 -1.3015470739244848 0.91750723040875
| 21> H -2.4751317640334176 2.1427289589355487 0.8814350651604366
| 22> H -3.9699201120031233 1.8708154140931073 -0.016335962404520888
| 23> H -2.4703785752653133 2.1368967066214046 -0.9066406106754779
| 24> H -0.5979629996165214 1.5012478266352627 -0.020905026021360153
| 25> H 0.8705108200681227 -1.9396008221379306 0.01406101146624751
| 26> H 3.3018495009819113 -2.255489582819205 0.021941171663425418
| 27> H 4.842295928356291 -0.30429512069130393 0.00739754862537194
| 28> H 3.880656894658799 1.9967117377745778 -0.01549930263030257
| 29> H 1.4442529445949424 2.3232517997565387 -0.022911476911121435
| 30> *
| 31>
| 32>                          ****END OF INPUT****

CARTESIAN COORDINATES (ANGSTROEM)
---------------------------------
  C     -3.847395   -0.683834    0.012798
  N     -2.695431    0.219127   -0.007801
  C     -2.899444    1.668413   -0.012276
  C     -1.463386   -0.359701    0.000726
  O     -1.325766   -1.597647    0.016407
  N     -0.391146    0.513392   -0.010156
  C      0.979000    0.216569   -0.004638
  C      1.519256   -1.077133    0.007839
  C      2.902383   -1.245750    0.012120
  C      3.767552   -0.156594    0.003979
  C      3.228052    1.129120   -0.008836
  C      1.853613    1.316611   -0.013036
  H     -3.846653   -1.348039   -0.857918
  H     -4.757986   -0.085699   -0.007077
  H     -3.854257   -1.301547    0.917507
  H     -2.475132    2.142729    0.881435
  H     -3.969920    1.870815   -0.016336
  H     -2.470379    2.136897   -0.906641
  H     -0.597963    1.501248   -0.020905
  H      0.870511   -1.939601    0.014061
  H      3.301850   -2.255490    0.021941
  H      4.842296   -0.304295    0.007398
  H      3.880657    1.996712   -0.015499
  H      1.444253    2.323252   -0.022911

 Total Charge           Charge          ....    0
 Multiplicity           Mult            ....    1
 Number of Electrons    NEL             ....   88
 Basis Dimension        Dim             ....  444

ORBITAL ENERGIES
----------------

  NO   OCC          E(Eh)            E(eV)
   0   2.0000     -21.621242      -588.3439
   1   2.0000     -16.562994      -450.7020
   2   2.0000     -16.560528      -450.6349
   3   2.0000     -12.173057      -331.2457
   4   2.0000     -12.101936      -329.3104
   5   2.0000     -12.098307      -329.2117
   6   2.0000     -12.079470      -328.6991
   7   2.0000     -12.051045      -327.9256
   8   2.0000     -12.048936      -327.8682
   9   2.0000     -12.045882      -327.7851
  10   2.0000     -12.040232      -327.6314
  11   2.0000     -12.036970      -327.5426
  12   2.0000      -1.681522       -45.7565
  13   2.0000      -1.548237       -42.1297
  14   2.0000      -1.510777       -41.1103
  15   2.0000      -1.375018       -37.4161
  16   2.0000      -1.285507       -34.9804
  17   2.0000      -1.269518       -34.5453
  18   2.0000      -1.251967       -34.0678
  19   2.0000      -1.225940       -33.3595
  20   2.0000      -1.146304       -31.1925
  21   2.0000      -1.115995       -30.3678
  22   2.0000      -1.082315       -29.4513
  23   2.0000      -1.046015       -28.4635
  24   2.0000      -1.036078       -28.1931
  25   2.0000      -0.996518       -27.1166
  26   2.0000      -0.953355       -25.9421
  27   2.0000      -0.944024       -25.6882
  28   2.0000      -0.943787       -25.6817
  29   2.0000      -0.939419       -25.5629
  30   2.0000      -0.892690       -24.2913
  31   2.0000      -0.886217       -24.1152
  32   2.0000      -0.872449       -23.7405
  33   2.0000      -0.866587       -23.5810
  34   2.0000      -0.848005       -23.0754
  35   2.0000      -0.847807       -23.0700
  36   2.0000      -0.831952       -22.6386
  37   2.0000      -0.831629       -22.6298
  38   2.0000      -0.823710       -22.4143
  39   2.0000      -0.800975       -21.7956
  40   2.0000      -0.755752       -20.5650
  41   2.0000      -0.734339       -19.9824
  42   2.0000      -0.635187       -17.2843
  43   2.0000      -0.622390       -16.9361
  44   0.0000      -0.275081        -7.4853
  45   0.0000      -0.231931        -6.3112
  46   0.0000      -0.218264        -5.9393
  47   0.0000      -0.153316        -4.1719
  48   0.0000      -0.125418        -3.4128

MULLIKEN ATOMIC CHARGES
-----------------------
   0 C :   -0.244980
   1 N :   -0.101806
   2 C :   -0.345702
   3 C :    0.384691
   4 O :   -0.458002
   5 N :   -0.259118
   6 C :    0.271364
   7 C :   -0.257248
   8 C :   -0.073334
   9 C :   -0.161464
  10 C :   -0.091144
  11 C :   -0.267247
  12 H :    0.134802
  13 H :    0.102570
  14 H :    0.133142
  15 H :    0.137774
  16 H :    0.135070
  17 H :    0.137211
  18 H :    0.210960
  19 H :    0.170023
  20 H :    0.117389
  21 H :    0.113483
  22 H :    0.113088
  23 H :    0.098478
Sum of atomic charges:    0.0000000

LOEWDIN ATOMIC CHARGES
----------------------
   0 C :   -0.274322
   1 N :    0.135521
   2 C :   -0.294354
   3 C :   -0.483396
   4 O :    0.010793
   5 N :    0.166499
   6 C :   -0.179939
   7 C :   -0.110417
   8 C :   -0.134878
   9 C :   -0.157953
  10 C :   -0.143341
  11 C :   -0.135785
  12 H :    0.119750
  13 H :    0.111592
  14 H :    0.119026
  15 H :    0.112441
  16 H :    0.122526
  17 H :    0.112490
  18 H :    0.187985
  19 H :    0.154837
  20 H :    0.143274
  21 H :    0.139070
  22 H :    0.141656
  23 H :    0.136926

  Mayer bond orders larger than 0.100000
B(  0-C ,  1-N ) :   0.9468 B(  0-C , 12-H ) :   0.9758 B(  0-C , 13-H ) :   0.9695
B(  0-C , 14-H ) :   0.9762 B(  1-N ,  2-C ) :   0.9573 B(  1-N ,  3-C ) :   1.2295
B(  2-C , 15-H ) :   0.9685 B(  2-C , 16-H ) :   0.9757 B(  2-C , 17-H ) :   0.9685
B(  3-C ,  4-O ) :   1.8973 B(  3-C ,  5-N ) :   1.1141 B(  5-N ,  6-C ) :   1.0487
B(  5-N , 18-H ) :   0.9223 B(  6-C ,  7-C ) :   1.4711 B(  6-C , 11-C ) :   1.3308
B(  7-C ,  8-C ) :   1.4198 B(  7-C , 19-H ) :   0.9275 B(  8-C ,  9-C ) :   1.4233
B(  8-C , 20-H ) :   0.9737 B(  9-C , 10-C ) :   1.4141 B(  9-C , 21-H ) :   0.9761
B( 10-C , 11-C ) :   1.4925 B( 10-C , 22-H ) :   0.9753 B( 11-C , 23-H ) :   0.9688

FINAL SINGLE POINT ENERGY      -534.956027790845

DIPOLE MOMENT
-------------

Method             : SCF
Type of density    : Electron Density
Multiplicity       :   1
Irrep              :   0
Energy             :  -534.9709731289449337 Eh
Relativity type    :
Basis              : AO
                                X                 Y                 Z
Electronic contribution:      6.363901768      -2.888174216      -0.008483934
Nuclear contribution   :     -7.225179796       4.481164401      -0.003815304
                        -----------------------------------------
Total Dipole Moment    :     -0.861278028       1.592990185      -0.012299238
                        -----------------------------------------
Magnitude (a.u.)       :      1.810957991
Magnitude (Debye)      :      4.603089399

Rotational constants in cm-1:             0.086167             0.016040             0.013592
Rotational constants in MHz :          2583.219619           480.854479           407.486687

                             ****ORCA TERMINATED NORMALLY****
TOTAL RUN TIME: 0 days 0 hours 5 minutes 56 seconds 53 msec
