                         Program Version 6.0.0  -   RELEASE  -
|  1> ! wb97x-v def2-tzvp def2/J RIJCOSX DEFGRID2 scfconv7 GCP(DFT/TZ) printgap
|  2> %output
|  3>     printlevel normal
|  4> end
|  5> %cpcm
|  6>     smd true
|  7>     smdsolvent "water"
|  8> end
|  9> * xyz 0 1
| 10> C -3.847394807999934 -0.6838340204068362 0.012798154120857405
| 11> N -2.6954313811277895 0.2191271495159371 -0.007801218826028762
| 12> C -2.8994438891180505 1.6684132745246052 -0.012275808700564897
| 13> C -1.463385984019584 -0.3597005499285506 0.0007264426873854084
| 14> O -1.325766182759143 -1.597646630797218 0.01640701358298595
| 15> N -0.39114638841430643 0.5133922128138143 -0.010156406603523096
| 16> C 0.9790002827236705 0.21656859620843671 -0.004638297711837189
| 17> C 1.519255761323182 -1.0771332006408167 0.007839441748206177
| 18> C 2.9023827379948077 -1.2457495336417814 0.01212019567396891
| 19> C 3.767552082439681 -0.1565935546616508 0.003979481624702671
| 20> C 3.228051885991811 1.1291197139891036 -0.008835809171212424
| 21> C 1.8536130659178318 1.3166114239190658 -0.013036145587018164
| 22> H -3.846653286221893 -1.3480391769595181 -0.8579180177933302
| 23> H -4.757986224032591 -0.0856988328542924 -0.007077036302543541
| 24> H -3.8542574666326015 -1.3015470739244848 0.91750723040875
| 25> H -2.4751317640334176 2.1427289589355487 0.8814350651604366
| 26> H -3.9699201120031233 1.8708154140931073 -0.016335962404520888
| 27> H -2.4703785752653133 2.1368967066214046 -0.9066406106754779
| 28> H -0.5979629996165214 1.5012478266352627 -0.020905026021360153
| 29> H 0.8705108200681227 -1.9396008221379306 0.01406101146624751
| 30> H 3.3018495009819113 -2.255489582819205 0.021941171663425418
| 31> H 4.842295928356291 -0.30429512069130393 0.00739754862537194
| 32> H 3.880656894658799 1.9967117377745778 -0.01549930263030257
| 33> H 1.4442529445949424 2.3232517997565387 -0.022911476911121435
| 34> *
| 35>
| 36>                          ****END OF INPUT****

CARTESIAN COORDINATES (ANGSTROEM)
---------------------------------
  C     -3.847395   -0.683834    0.012798
  N     -2.695431    0.219127   -0.007801
  C     -2.899444    1.668413   -0.012276
  C     -1.463386   -0.359701    0.000726
  O     -1.325766   -1.597647    0.016407
  N     -0.391146    0.513392   -0.010156
  C      0.979000    0.216569   -0.004638
  C      1.519256   -1.077133    0.007839
  C      2.902383   -1.245750    0.012120
  C      3.767552   -0.156594    0.003979
  C      3.228052    1.129120   -0.008836
  C      1.853613    1.316611   -0.013036
  H     -3.846653   -1.348039   -0.857918
  H     -4.757986   -0.085699   -0.007077
  H     -3.854257   -1.301547    0.917507
  H     -2.475132    2.142729    0.881435
  H     -3.969920    1.870815   -0.016336
  H     -2.470379    2.136897   -0.906641
  H     -0.597963    1.501248   -0.020905
  H      0.870511   -1.939601    0.014061
  H      3.301850   -2.255490    0.021941
  H      4.842296   -0.304295    0.007398
  H      3.880657    1.996712   -0.015499
  H      1.444253    2.323252   -0.022911

 Total Charge           Charge          ....    0
 Multiplicity           Mult            ....    1
 Number of Electrons    NEL             ....   88
 Basis Dimension        Dim             ....  444

ORBITAL ENERGIES
----------------

  NO   OCC          E(Eh)            E(eV)
   0   2.0000     -21.638000      -588.7999
   1   2.0000     -16.560276      -450.6280
   2   2.0000     -16.555352      -450.4940
   3   2.0000     -12.180796      -331.4563
   4   2.0000     -12.102627      -329.3292
   5   2.0000     -12.073150      -328.5271
   6   2.0000     -12.067254      -328.3667
   7   2.0000     -12.051871      -327.9481
   8   2.0000     -12.050658      -327.9151
   9   2.0000     -12.048497      -327.8563
  10   2.0000     -12.044560      -327.7491
  11   2.0000     -12.042871      -327.7032
  12   2.0000      -1.699135       -46.2358
  13   2.0000      -1.546444       -42.0809
  14   2.0000      -1.505892       -40.9774
  15   2.0000      -1.379520       -37.5387
  16   2.0000      -1.287247       -35.0278
  17   2.0000      -1.274144       -34.6712
  18   2.0000      -1.233595       -33.5678
  19   2.0000      -1.221972       -33.2515
  20   2.0000      -1.145639       -31.1744
  21   2.0000      -1.117531       -30.4096
  22   2.0000      -1.087505       -29.5925
  23   2.0000      -1.045843       -28.4588
  24   2.0000      -1.036438       -28.2029
  25   2.0000      -0.997731       -27.1497
  26   2.0000      -0.950744       -25.8711
  27   2.0000      -0.945089       -25.7172
  28   2.0000      -0.944299       -25.6957
  29   2.0000      -0.934798       -25.4371
  30   2.0000      -0.894595       -24.3432
  31   2.0000      -0.883312       -24.0362
  32   2.0000      -0.878080       -23.8938
  33   2.0000      -0.868562       -23.6348
  34   2.0000      -0.841765       -22.9056
  35   2.0000      -0.836785       -22.7701
  36   2.0000      -0.828215       -22.5369
  37   2.0000      -0.825994       -22.4764
  38   2.0000      -0.814390       -22.1607
  39   2.0000      -0.803575       -21.8664
  40   2.0000      -0.760425       -20.6922
  41   2.0000      -0.726115       -19.7586
  42   2.0000      -0.641267       -17.4498
  43   2.0000      -0.627261       -17.0686
  44   0.0000      -0.280372        -7.6293
  45   0.0000      -0.237281        -6.4567
  46   0.0000      -0.223396        -6.0789
  47   0.0000      -0.146277        -3.9804
  48   0.0000      -0.113683        -3.0935

MULLIKEN ATOMIC CHARGES
-----------------------
   0 C :   -0.303673
   1 N :   -0.090356
   2 C :   -0.361827
   3 C :    0.417528
   4 O :   -0.591100
   5 N :   -0.253044
   6 C :    0.253524
   7 C :   -0.304866
   8 C :   -0.129020
   9 C :   -0.217443
  10 C :   -0.113788
  11 C :   -0.304634
  12 H :    0.140496
  13 H :    0.149755
  14 H :    0.140323
  15 H :    0.156840
  16 H :    0.167058
  17 H :    0.156862
  18 H :    0.282751
  19 H :    0.161557
  20 H :    0.160089
  21 H :    0.159275
  22 H :    0.161262
  23 H :    0.162433
Sum of atomic charges:    0.0000000

LOEWDIN ATOMIC CHARGES
----------------------
   0 C :   -0.277233
   1 N :    0.144883
   2 C :   -0.280757
   3 C :   -0.481636
   4 O :   -0.070110
   5 N :    0.178003
   6 C :   -0.189023
   7 C :   -0.136985
   8 C :   -0.148005
   9 C :   -0.169486
  10 C :   -0.148149
  11 C :   -0.129025
  12 H :    0.118148
  13 H :    0.126054
  14 H :    0.117903
  15 H :    0.121927
  16 H :    0.131312
  17 H :    0.122077
  18 H :    0.211220
  19 H :    0.149490
  20 H :    0.152264
  21 H :    0.148593
  22 H :    0.152737
  23 H :    0.155797

  Mayer bond orders larger than 0.100000
B(  0-C ,  1-N ) :   0.9315 B(  0-C , 12-H ) :   0.9723 B(  0-C , 13-H ) :   0.9664
B(  0-C , 14-H ) :   0.9727 B(  1-N ,  2-C ) :   0.9415 B(  1-N ,  3-C ) :   1.2867
B(  2-C , 15-H ) :   0.9657 B(  2-C , 16-H ) :   0.9654 B(  2-C , 17-H ) :   0.9655
B(  3-C ,  4-O ) :   1.7663 B(  3-C ,  5-N ) :   1.1442 B(  5-N ,  6-C ) :   1.0760
B(  5-N , 18-H ) :   0.8912 B(  6-C ,  7-C ) :   1.3991 B(  6-C , 11-C ) :   1.3272
B(  7-C ,  8-C ) :   1.4243 B(  7-C , 19-H ) :   0.9521 B(  8-C ,  9-C ) :   1.4128
B(  8-C , 20-H ) :   0.9743 B(  9-C , 10-C ) :   1.3820 B(  9-C , 21-H ) :   0.9790
B( 10-C , 11-C ) :   1.4536 B( 10-C , 22-H ) :   0.9772 B( 11-C , 23-H ) :   0.9753

FINAL SINGLE POINT ENERGY      -534.973582303394

DIPOLE MOMENT
-------------

Method             : SCF
Type of density    : Electron Density
Multiplicity       :   1
Irrep              :   0
Energy             :  -534.9885276414939881 Eh
Relativity type    :
Basis              : AO
                                X                 Y                 Z
Electronic contribution:      6.144907191      -1.893190497      -0.017037120
Nuclear contribution   :     -7.225179796       4.481164401      -0.003815304
                        -----------------------------------------
Total Dipole Moment    :     -1.080272605       2.587973904      -0.020852424
                        -----------------------------------------
Magnitude (a.u.)       :      2.804466554
Magnitude (Debye)      :      7.128387478

Rotational constants in cm-1:             0.086167             0.016040             0.013592
Rotational constants in MHz :          2583.219619           480.854479           407.486687

                             ****ORCA TERMINATED NORMALLY****
TOTAL RUN TIME: 0 days 0 hours 6 minutes 13 seconds 591 msec
