                         Program Version 6.0.0  -   RELEASE  -
|  1> ! wb97x-v def2-tzvp def2/J RIJCOSX DEFGRID2 scfconv7 GCP(DFT/TZ) printgap
|  2> %output
|  3>     printlevel normal
|  4> end
|  5> * xyz 0 1
|  6> C -3.3340307561165017 0.7666187884270745 -0.11153472896223852
|  7> C -2.479882701210817 -0.4824154110278476 0.08218022720558281
|  8> C -0.9838994351602421 -0.26297597446817444 0.037598209697289595
|  9> C -0.39389642420402754 0.9848792471850092 0.25100706990955735
| 10> C 0.9907998073212667 1.148449777755106 0.23165493594113373
| 11> C 1.8122358060028392 0.04977746892019629 -0.004742873228097314
| 12> C 1.2493048721115676 -1.2069664064942938 -0.22453710466063997
| 13> C -0.13248983035738707 -1.3492393914054188 -0.20301723470154862
| 14> O 3.1885353712963345 0.14885424608692455 -0.038737319606371515
| 15> H -4.393737819865492 0.49586206407106764 -0.14048210463175098
| 16> H -3.089521757328343 1.2741024721093328 -1.0509999002237493
| 17> H -3.2016400639208014 1.4835894133158587 0.7045435144477087
| 18> H -2.73938414392173 -1.2241966740575798 -0.6822983937224631
| 19> H -2.739575622040207 -0.9465946509098889 1.0436833135846881
| 20> H -1.0127345405789485 1.856935739835926 0.4354933315397166
| 21> H 1.4319207023357983 2.1279974629315888 0.39779352765527276
| 22> H 1.8954114247252667 -2.0581280205435277 -0.4160949637320276
| 23> H -0.5630747529310887 -2.331929944326137 -0.3793593612024381
| 24> H 3.4407426920506277 1.0687699930175845 0.12186815371499155
| 25> *
| 26>
| 27>                          ****END OF INPUT****

CARTESIAN COORDINATES (ANGSTROEM)
---------------------------------
  C     -3.334031    0.766619   -0.111535
  C     -2.479883   -0.482415    0.082180
  C     -0.983899   -0.262976    0.037598
  C     -0.393896    0.984879    0.251007
  C      0.990800    1.148450    0.231655
  C      1.812236    0.049777   -0.004743
  C      1.249305   -1.206966   -0.224537
  C     -0.132490   -1.349239   -0.203017
  O      3.188535    0.148854   -0.038737
  H     -4.393738    0.495862   -0.140482
  H     -3.089522    1.274102   -1.051000
  H     -3.201640    1.483589    0.704544
  H     -2.739384   -1.224197   -0.682298
  H     -2.739576   -0.946595    1.043683
  H     -1.012735    1.856936    0.435493
  H      1.431921    2.127997    0.397794
  H      1.895411   -2.058128   -0.416095
  H     -0.563075   -2.331930   -0.379359
  H      3.440743    1.068770    0.121868

 Total Charge           Charge          ....    0
 Multiplicity           Mult            ....    1
 Number of Electrons    NEL             ....   66
 Basis Dimension        Dim             ....  339

ORBITAL ENERGIES
----------------

  NO   OCC          E(Eh)            E(eV)
   0   2.0000     -21.700208      -590.4927
   1   2.0000     -12.109738      -329.5227
   2   2.0000     -12.052533      -327.9661
   3   2.0000     -12.051373      -327.9345
   4   2.0000     -12.049691      -327.8888
   5   2.0000     -12.049380      -327.8803
   6   2.0000     -12.048263      -327.8499
   7   2.0000     -12.045007      -327.7613
   8   2.0000     -12.038066      -327.5724
   9   2.0000      -1.711947       -46.5844
  10   2.0000      -1.385073       -37.6897
  11   2.0000      -1.305555       -35.5260
  12   2.0000      -1.274779       -34.6885
  13   2.0000      -1.244006       -33.8511
  14   2.0000      -1.155624       -31.4461
  15   2.0000      -1.127577       -30.6829
  16   2.0000      -1.089250       -29.6400
  17   2.0000      -1.051086       -28.6015
  18   2.0000      -1.001603       -27.2550
  19   2.0000      -0.943943       -25.6860
  20   2.0000      -0.940623       -25.5957
  21   2.0000      -0.935322       -25.4514
  22   2.0000      -0.898932       -24.4612
  23   2.0000      -0.874975       -23.8093
  24   2.0000      -0.870549       -23.6888
  25   2.0000      -0.852858       -23.2074
  26   2.0000      -0.829106       -22.5611
  27   2.0000      -0.803751       -21.8712
  28   2.0000      -0.786207       -21.3938
  29   2.0000      -0.782767       -21.3002
  30   2.0000      -0.754803       -20.5392
  31   2.0000      -0.640141       -17.4191
  32   2.0000      -0.629980       -17.1426
  33   0.0000      -0.243164        -6.6168
  34   0.0000      -0.237908        -6.4738
  35   0.0000      -0.143478        -3.9042
  36   0.0000      -0.071888        -1.9562
  37   0.0000      -0.068656        -1.8682

MULLIKEN ATOMIC CHARGES
-----------------------
   0 C :   -0.355916
   1 C :   -0.157611
   2 C :    0.127758
   3 C :   -0.209731
   4 C :   -0.199642
   5 C :    0.241804
   6 C :   -0.188376
   7 C :   -0.186157
   8 O :   -0.394740
   9 H :    0.118727
  10 H :    0.119443
  11 H :    0.107979
  12 H :    0.103245
  13 H :    0.100728
  14 H :    0.120765
  15 H :    0.106218
  16 H :    0.120797
  17 H :    0.113402
  18 H :    0.311307
Sum of atomic charges:   -0.0000000

LOEWDIN ATOMIC CHARGES
----------------------
   0 C :   -0.302559
   1 C :   -0.244315
   2 C :   -0.155948
   3 C :   -0.113235
   4 C :   -0.147079
   5 C :   -0.262783
   6 C :   -0.120453
   7 C :   -0.107426
   8 O :    0.058016
   9 H :    0.118047
  10 H :    0.119761
  11 H :    0.115129
  12 H :    0.140360
  13 H :    0.141414
  14 H :    0.145714
  15 H :    0.139053
  16 H :    0.147427
  17 H :    0.145291
  18 H :    0.183585

  Mayer bond orders larger than 0.100000
B(  0-C ,  1-C ) :   0.9992 B(  0-C ,  9-H ) :   0.9812 B(  0-C , 10-H ) :   0.9813
B(  0-C , 11-H ) :   0.9752 B(  1-C ,  2-C ) :   0.9441 B(  1-C , 12-H ) :   0.9861
B(  1-C , 13-H ) :   0.9506 B(  2-C ,  3-C ) :   1.3950 B(  2-C ,  7-C ) :   1.3661
B(  3-C ,  4-C ) :   1.4425 B(  3-C , 14-H ) :   0.9547 B(  4-C ,  5-C ) :   1.3782
B(  4-C , 15-H ) :   0.9556 B(  5-C ,  6-C ) :   1.3998 B(  5-C ,  8-O ) :   1.1363
B(  6-C ,  7-C ) :   1.4685 B(  6-C , 16-H ) :   0.9782 B(  7-C , 17-H ) :   0.9797
B(  8-O , 18-H ) :   0.8920

FINAL SINGLE POINT ENERGY      -386.116715427901

DIPOLE MOMENT
-------------

Method             : SCF
Type of density    : Electron Density
Multiplicity       :   1
Irrep              :   0
Energy             :  -386.1278117937010848 Eh
Relativity type    :
Basis              : AO
                                X                 Y                 Z
Electronic contribution:     10.020447564      -1.184119102       0.081580305
Nuclear contribution   :    -10.296569278       1.647134501       0.022340264
                        -----------------------------------------
Total Dipole Moment    :     -0.276121714       0.463015399       0.103920568
                        -----------------------------------------
Magnitude (a.u.)       :      0.549022718
Magnitude (Debye)      :      1.395504847

Rotational constants in cm-1:             0.153863             0.031665             0.026648
Rotational constants in MHz :          4612.704053           949.280889           798.877049

                             ****ORCA TERMINATED NORMALLY****
TOTAL RUN TIME: 0 days 0 hours 3 minutes 46 seconds 311 msec
