                         Program Version 6.0.0  -   RELEASE  -
|  1> ! wb97x-v def2-tzvp def2/J RIJCOSX DEFGRID2 scfconv7 GCP(DFT/TZ) printgap
|  2> %output
|  3>     printlevel normal
|  4> end
|  5> %cpcm
|  6>     smd true
|  7>     smdsolvent "water"
|  8> end
|  9> * xyz 0 1
| 10> C -3.3340307561165017 0.7666187884270745 -0.11153472896223852
| 11> C -2.479882701210817 -0.4824154110278476 0.08218022720558281
| 12> C -0.9838994351602421 -0.26297597446817444 0.037598209697289595
| 13> C -0.39389642420402754 0.9848792471850092 0.25100706990955735
| 14> C 0.9907998073212667 1.148449777755106 0.23165493594113373
| 15> C 1.8122358060028392 0.04977746892019629 -0.004742873228097314
| 16> C 1.2493048721115676 -1.2069664064942938 -0.22453710466063997
| 17> C -0.13248983035738707 -1.3492393914054188 -0.20301723470154862
| 18> O 3.1885353712963345 0.14885424608692455 -0.038737319606371515
| 19> H -4.393737819865492 0.49586206407106764 -0.14048210463175098
| 20> H -3.089521757328343 1.2741024721093328 -1.0509999002237493
| 21> H -3.2016400639208014 1.4835894133158587 0.7045435144477087
| 22> H -2.73938414392173 -1.2241966740575798 -0.6822983937224631
| 23> H -2.739575622040207 -0.9465946509098889 1.0436833135846881
| 24> H -1.0127345405789485 1.856935739835926 0.4354933315397166
| 25> H 1.4319207023357983 2.1279974629315888 0.39779352765527276
| 26> H 1.8954114247252667 -2.0581280205435277 -0.4160949637320276
| 27> H -0.5630747529310887 -2.331929944326137 -0.3793593612024381
| 28> H 3.4407426920506277 1.0687699930175845 0.12186815371499155
| 29> *
| 30>
| 31>                          ****END OF INPUT****

CARTESIAN COORDINATES (ANGSTROEM)
---------------------------------
  C     -3.334031    0.766619   -0.111535
  C     -2.479883   -0.482415    0.082180
  C     -0.983899   -0.262976    0.037598
  C     -0.393896    0.984879    0.251007
  C      0.990800    1.148450    0.231655
  C      1.812236    0.049777   -0.004743
  C      1.249305   -1.206966   -0.224537
  C     -0.132490   -1.349239   -0.203017
  O      3.188535    0.148854   -0.038737
  H     -4.393738    0.495862   -0.140482
  H     -3.089522    1.274102   -1.051000
  H     -3.201640    1.483589    0.704544
  H     -2.739384   -1.224197   -0.682298
  H     -2.739576   -0.946595    1.043683
  H     -1.012735    1.856936    0.435493
  H      1.431921    2.127997    0.397794
  H      1.895411   -2.058128   -0.416095
  H     -0.563075   -2.331930   -0.379359
  H      3.440743    1.068770    0.121868

 Total Charge           Charge          ....    0
 Multiplicity           Mult            ....    1
 Number of Electrons    NEL             ....   66
 Basis Dimension        Dim             ....  339

ORBITAL ENERGIES
----------------

  NO   OCC          E(Eh)            E(eV)
   0   2.0000     -21.699098      -590.4625
   1   2.0000     -12.109436      -329.5145
   2   2.0000     -12.050711      -327.9165
   3   2.0000     -12.048445      -327.8548
   4   2.0000     -12.047409      -327.8267
   5   2.0000     -12.045672      -327.7794
   6   2.0000     -12.044699      -327.7529
   7   2.0000     -12.039831      -327.6205
   8   2.0000     -12.027278      -327.2789
   9   2.0000      -1.711393       -46.5694
  10   2.0000      -1.384771       -37.6815
  11   2.0000      -1.302299       -35.4374
  12   2.0000      -1.273569       -34.6556
  13   2.0000      -1.238381       -33.6981
  14   2.0000      -1.152765       -31.3683
  15   2.0000      -1.124223       -30.5917
  16   2.0000      -1.084847       -29.5202
  17   2.0000      -1.048553       -28.5326
  18   2.0000      -1.003130       -27.2966
  19   2.0000      -0.946005       -25.7421
  20   2.0000      -0.940224       -25.5848
  21   2.0000      -0.930192       -25.3118
  22   2.0000      -0.894565       -24.3424
  23   2.0000      -0.871061       -23.7028
  24   2.0000      -0.862115       -23.4593
  25   2.0000      -0.846444       -23.0329
  26   2.0000      -0.821379       -22.3509
  27   2.0000      -0.798948       -21.7405
  28   2.0000      -0.778845       -21.1934
  29   2.0000      -0.775366       -21.0988
  30   2.0000      -0.751957       -20.4618
  31   2.0000      -0.640579       -17.4310
  32   2.0000      -0.630632       -17.1604
  33   0.0000      -0.243468        -6.6251
  34   0.0000      -0.237984        -6.4759
  35   0.0000      -0.141603        -3.8532
  36   0.0000      -0.070943        -1.9305
  37   0.0000      -0.044507        -1.2111

MULLIKEN ATOMIC CHARGES
-----------------------
   0 C :   -0.396046
   1 C :   -0.157083
   2 C :    0.088997
   3 C :   -0.231482
   4 C :   -0.255211
   5 C :    0.253752
   6 C :   -0.239785
   7 C :   -0.233703
   8 O :   -0.475602
   9 H :    0.135418
  10 H :    0.126963
  11 H :    0.126806
  12 H :    0.122645
  13 H :    0.114592
  14 H :    0.165329
  15 H :    0.167574
  16 H :    0.154351
  17 H :    0.155488
  18 H :    0.376999
Sum of atomic charges:   -0.0000000

LOEWDIN ATOMIC CHARGES
----------------------
   0 C :   -0.306697
   1 C :   -0.244206
   2 C :   -0.164414
   3 C :   -0.120598
   4 C :   -0.144230
   5 C :   -0.276313
   6 C :   -0.137692
   7 C :   -0.117093
   8 O :    0.031308
   9 H :    0.120873
  10 H :    0.120686
  11 H :    0.119457
  12 H :    0.145212
  13 H :    0.145332
  14 H :    0.155414
  15 H :    0.155462
  16 H :    0.153705
  17 H :    0.154942
  18 H :    0.208852

  Mayer bond orders larger than 0.100000
B(  0-C ,  1-C ) :   0.9936 B(  0-C ,  9-H ) :   0.9778 B(  0-C , 10-H ) :   0.9795
B(  0-C , 11-H ) :   0.9719 B(  1-C ,  2-C ) :   0.9523 B(  1-C , 12-H ) :   0.9858
B(  1-C , 13-H ) :   0.9459 B(  2-C ,  3-C ) :   1.3640 B(  2-C ,  7-C ) :   1.3512
B(  3-C ,  4-C ) :   1.3930 B(  3-C , 14-H ) :   0.9612 B(  4-C ,  5-C ) :   1.3794
B(  4-C , 15-H ) :   0.9697 B(  5-C ,  6-C ) :   1.3712 B(  5-C ,  8-O ) :   1.0920
B(  6-C ,  7-C ) :   1.4600 B(  6-C , 16-H ) :   0.9843 B(  7-C , 17-H ) :   0.9847
B(  8-O , 18-H ) :   0.8506

FINAL SINGLE POINT ENERGY      -386.125500070734

DIPOLE MOMENT
-------------

Method             : SCF
Type of density    : Electron Density
Multiplicity       :   1
Irrep              :   0
Energy             :  -386.1365964365337504 Eh
Relativity type    :
Basis              : AO
                                X                 Y                 Z
Electronic contribution:      9.900763734      -0.955592780       0.143230418
Nuclear contribution   :    -10.296569278       1.647134501       0.022340264
                        -----------------------------------------
Total Dipole Moment    :     -0.395805545       0.691541721       0.165570682
                        -----------------------------------------
Magnitude (a.u.)       :      0.813821622
Magnitude (Debye)      :      2.068570170

Rotational constants in cm-1:             0.153863             0.031665             0.026648
Rotational constants in MHz :          4612.704053           949.280889           798.877049

                             ****ORCA TERMINATED NORMALLY****
TOTAL RUN TIME: 0 days 0 hours 3 minutes 35 seconds 53 msec
