                         Program Version 6.0.0  -   RELEASE  -
|  1> ! wb97x-v def2-tzvp def2/J RIJCOSX DEFGRID2 scfconv7 GCP(DFT/TZ) printgap
|  2> %output
|  3>     printlevel normal
|  4> end
|  5> * xyz 0 1
|  6> C -1.465348879445762 0.766819354299009 -0.07129602597417585
|  7> C -1.2751325583759439 -0.6867555486363263 -0.5212951865627388
|  8> C -0.1818836057820117 -1.1783385063986314 0.43121144248498405
|  9> C 0.8148407013661533 -0.013860015517166273 0.47723378225911384
| 10> C -0.03676238680503459 1.254576090580533 0.25981849400323437
| 11> O 1.763897613618274 -0.09391546038126178 -0.6183501762004967
| 12> H -2.0851447810025707 0.7851827789621373 0.8323986805937524
| 13> H -1.958106043616148 1.3907931286641102 -0.8221411212464825
| 14> H -2.1942290759674448 -1.2773115627427285 -0.46445786024460983
| 15> H -0.9147194282895071 -0.721105596224748 -1.5564330213690627
| 16> H -0.6065136153420491 -1.3211298883482863 1.433085547413191
| 17> H 0.29863952143776623 -2.115582242158269 0.13171393893003816
| 18> H 1.3726567917004742 0.013294855213081864 1.4212704618993306
| 19> H -0.01815141078262321 1.9053465202926476 1.1375189050970715
| 20> H 0.39022491210831095 1.8206978120886503 -0.5735184745158969
| 21> H 2.269099139855519 -0.908059782748267 -0.4935006597464918
| 22> *
| 23>
| 24>                          ****END OF INPUT****

CARTESIAN COORDINATES (ANGSTROEM)
---------------------------------
  C     -1.465349    0.766819   -0.071296
  C     -1.275133   -0.686756   -0.521295
  C     -0.181884   -1.178339    0.431211
  C      0.814841   -0.013860    0.477234
  C     -0.036762    1.254576    0.259818
  O      1.763898   -0.093915   -0.618350
  H     -2.085145    0.785183    0.832399
  H     -1.958106    1.390793   -0.822141
  H     -2.194229   -1.277312   -0.464458
  H     -0.914719   -0.721106   -1.556433
  H     -0.606514   -1.321130    1.433086
  H      0.298640   -2.115582    0.131714
  H      1.372657    0.013295    1.421270
  H     -0.018151    1.905347    1.137519
  H      0.390225    1.820698   -0.573518
  H      2.269099   -0.908060   -0.493501

 Total Charge           Charge          ....    0
 Multiplicity           Mult            ....    1
 Number of Electrons    NEL             ....   48
 Basis Dimension        Dim             ....  246

ORBITAL ENERGIES
----------------

  NO   OCC          E(Eh)            E(eV)
   0   2.0000     -21.665060      -589.5362
   1   2.0000     -12.092856      -329.0634
   2   2.0000     -12.040551      -327.6401
   3   2.0000     -12.038346      -327.5800
   4   2.0000     -12.036840      -327.5391
   5   2.0000     -12.035459      -327.5015
   6   2.0000      -1.662233       -45.2317
   7   2.0000      -1.344295       -36.5801
   8   2.0000      -1.216728       -33.1088
   9   2.0000      -1.212492       -32.9936
  10   2.0000      -1.083138       -29.4737
  11   2.0000      -1.046757       -28.4837
  12   2.0000      -1.003780       -27.3143
  13   2.0000      -0.942098       -25.6358
  14   2.0000      -0.941273       -25.6133
  15   2.0000      -0.884589       -24.0709
  16   2.0000      -0.879912       -23.9436
  17   2.0000      -0.842132       -22.9156
  18   2.0000      -0.804324       -21.8868
  19   2.0000      -0.787282       -21.4230
  20   2.0000      -0.784506       -21.3475
  21   2.0000      -0.779582       -21.2135
  22   2.0000      -0.773339       -21.0436
  23   2.0000      -0.746695       -20.3186
  24   0.0000      -0.145636        -3.9629
  25   0.0000      -0.053020        -1.4428
  26   0.0000      -0.045240        -1.2310
  27   0.0000      -0.039373        -1.0714
  28   0.0000      -0.019824        -0.5394

MULLIKEN ATOMIC CHARGES
-----------------------
   0 C :   -0.197225
   1 C :   -0.144030
   2 C :   -0.200321
   3 C :    0.048973
   4 C :   -0.190701
   5 O :   -0.446170
   6 H :    0.088878
   7 H :    0.099138
   8 H :    0.098232
   9 H :    0.090576
  10 H :    0.085642
  11 H :    0.091737
  12 H :    0.077731
  13 H :    0.093716
  14 H :    0.110116
  15 H :    0.293708
Sum of atomic charges:    0.0000000

LOEWDIN ATOMIC CHARGES
----------------------
   0 C :   -0.250847
   1 C :   -0.254328
   2 C :   -0.245308
   3 C :   -0.316090
   4 C :   -0.223717
   5 O :   -0.046160
   6 H :    0.129720
   7 H :    0.127146
   8 H :    0.125897
   9 H :    0.135427
  10 H :    0.136012
  11 H :    0.126124
  12 H :    0.123185
  13 H :    0.128576
  14 H :    0.140650
  15 H :    0.163713

  Mayer bond orders larger than 0.100000
B(  0-C ,  1-C ) :   0.9955 B(  0-C ,  4-C ) :   0.9910 B(  0-C ,  6-H ) :   0.9748
B(  0-C ,  7-H ) :   0.9699 B(  1-C ,  2-C ) :   0.9794 B(  1-C ,  8-H ) :   0.9741
B(  1-C ,  9-H ) :   0.9674 B(  2-C ,  3-C ) :   1.0035 B(  2-C , 10-H ) :   0.9655
B(  2-C , 11-H ) :   0.9678 B(  3-C ,  4-C ) :   0.9634 B(  3-C ,  5-O ) :   1.0870
B(  3-C , 12-H ) :   0.9822 B(  4-C , 13-H ) :   0.9693 B(  4-C , 14-H ) :   0.9714
B(  5-O , 15-H ) :   0.9074

FINAL SINGLE POINT ENERGY      -271.790193183621

DIPOLE MOMENT
-------------

Method             : SCF
Type of density    : Electron Density
Multiplicity       :   1
Irrep              :   0
Energy             :  -271.8010920369213181 Eh
Relativity type    :
Basis              : AO
                                X                 Y                 Z
Electronic contribution:      2.964806909      -0.036066226      -0.737736025
Nuclear contribution   :     -3.097106412      -0.378484053       1.182051760
                        -----------------------------------------
Total Dipole Moment    :     -0.132299503      -0.414550279       0.444315735
                        -----------------------------------------
Magnitude (a.u.)       :      0.621909611
Magnitude (Debye)      :      1.580768606

Rotational constants in cm-1:             0.183530             0.111817             0.087495
Rotational constants in MHz :          5502.092788          3352.180058          2623.049001

                             ****ORCA TERMINATED NORMALLY****
TOTAL RUN TIME: 0 days 0 hours 1 minutes 26 seconds 549 msec
