                         Program Version 6.0.0  -   RELEASE  -
|  1> ! wb97x-v def2-tzvp def2/J RIJCOSX DEFGRID2 scfconv7 GCP(DFT/TZ) printgap
|  2> %output
|  3>     printlevel normal
|  4> end
|  5> %cpcm
|  6>     smd true
|  7>     smdsolvent "water"
|  8> end
|  9> * xyz 0 1
| 10> C -1.465348879445762 0.766819354299009 -0.07129602597417585
| 11> C -1.2751325583759439 -0.6867555486363263 -0.5212951865627388
| 12> C -0.1818836057820117 -1.1783385063986314 0.43121144248498405
| 13> C 0.8148407013661533 -0.013860015517166273 0.47723378225911384
| 14> C -0.03676238680503459 1.254576090580533 0.25981849400323437
| 15> O 1.763897613618274 -0.09391546038126178 -0.6183501762004967
| 16> H -2.0851447810025707 0.7851827789621373 0.8323986805937524
| 17> H -1.958106043616148 1.3907931286641102 -0.8221411212464825
| 18> H -2.1942290759674448 -1.2773115627427285 -0.46445786024460983
| 19> H -0.9147194282895071 -0.721105596224748 -1.5564330213690627
| 20> H -0.6065136153420491 -1.3211298883482863 1.433085547413191
| 21> H 0.29863952143776623 -2.115582242158269 0.13171393893003816
| 22> H 1.3726567917004742 0.013294855213081864 1.4212704618993306
| 23> H -0.01815141078262321 1.9053465202926476 1.1375189050970715
| 24> H 0.39022491210831095 1.8206978120886503 -0.5735184745158969
| 25> H 2.269099139855519 -0.908059782748267 -0.4935006597464918
| 26> *
| 27>
| 28>                          ****END OF INPUT****

CARTESIAN COORDINATES (ANGSTROEM)
---------------------------------
  C     -1.465349    0.766819   -0.071296
  C     -1.275133   -0.686756   -0.521295
  C     -0.181884   -1.178339    0.431211
  C      0.814841   -0.013860    0.477234
  C     -0.036762    1.254576    0.259818
  O      1.763898   -0.093915   -0.618350
  H     -2.085145    0.785183    0.832399
  H     -1.958106    1.390793   -0.822141
  H     -2.194229   -1.277312   -0.464458
  H     -0.914719   -0.721106   -1.556433
  H     -0.606514   -1.321130    1.433086
  H      0.298640   -2.115582    0.131714
  H      1.372657    0.013295    1.421270
  H     -0.018151    1.905347    1.137519
  H      0.390225    1.820698   -0.573518
  H      2.269099   -0.908060   -0.493501

 Total Charge           Charge          ....    0
 Multiplicity           Mult            ....    1
 Number of Electrons    NEL             ....   48
 Basis Dimension        Dim             ....  246

ORBITAL ENERGIES
----------------

  NO   OCC          E(Eh)            E(eV)
   0   2.0000     -21.668730      -589.6361
   1   2.0000     -12.087535      -328.9186
   2   2.0000     -12.031254      -327.3871
   3   2.0000     -12.030816      -327.3751
   4   2.0000     -12.030047      -327.3542
   5   2.0000     -12.029259      -327.3328
   6   2.0000      -1.666305       -45.3425
   7   2.0000      -1.337956       -36.4076
   8   2.0000      -1.212246       -32.9869
   9   2.0000      -1.205222       -32.7958
  10   2.0000      -1.081560       -29.4308
  11   2.0000      -1.041435       -28.3389
  12   2.0000      -1.004002       -27.3203
  13   2.0000      -0.943488       -25.6736
  14   2.0000      -0.938671       -25.5425
  15   2.0000      -0.882134       -24.0041
  16   2.0000      -0.876687       -23.8559
  17   2.0000      -0.835768       -22.7424
  18   2.0000      -0.798103       -21.7175
  19   2.0000      -0.779931       -21.2230
  20   2.0000      -0.777188       -21.1484
  21   2.0000      -0.773874       -21.0582
  22   2.0000      -0.767114       -20.8742
  23   2.0000      -0.739807       -20.1312
  24   0.0000      -0.142026        -3.8647
  25   0.0000      -0.039359        -1.0710
  26   0.0000      -0.037971        -1.0332
  27   0.0000      -0.027807        -0.7567
  28   0.0000      -0.007260        -0.1976

MULLIKEN ATOMIC CHARGES
-----------------------
   0 C :   -0.213410
   1 C :   -0.191686
   2 C :   -0.228102
   3 C :    0.071150
   4 C :   -0.206052
   5 O :   -0.561304
   6 H :    0.104172
   7 H :    0.113088
   8 H :    0.114892
   9 H :    0.095037
  10 H :    0.104508
  11 H :    0.122147
  12 H :    0.103157
  13 H :    0.114371
  14 H :    0.102181
  15 H :    0.355853
Sum of atomic charges:   -0.0000000

LOEWDIN ATOMIC CHARGES
----------------------
   0 C :   -0.253491
   1 C :   -0.259739
   2 C :   -0.243591
   3 C :   -0.311695
   4 C :   -0.229484
   5 O :   -0.087660
   6 H :    0.133819
   7 H :    0.128769
   8 H :    0.129354
   9 H :    0.132792
  10 H :    0.141870
  11 H :    0.133018
  12 H :    0.130902
  13 H :    0.133399
  14 H :    0.136165
  15 H :    0.185571

  Mayer bond orders larger than 0.100000
B(  0-C ,  1-C ) :   0.9943 B(  0-C ,  4-C ) :   0.9931 B(  0-C ,  6-H ) :   0.9719
B(  0-C ,  7-H ) :   0.9679 B(  1-C ,  2-C ) :   0.9726 B(  1-C ,  8-H ) :   0.9708
B(  1-C ,  9-H ) :   0.9727 B(  2-C ,  3-C ) :   1.0097 B(  2-C , 10-H ) :   0.9616
B(  2-C , 11-H ) :   0.9687 B(  3-C ,  4-C ) :   0.9619 B(  3-C ,  5-O ) :   1.0239
B(  3-C , 12-H ) :   0.9848 B(  4-C , 13-H ) :   0.9670 B(  4-C , 14-H ) :   0.9662
B(  5-O , 15-H ) :   0.8709

FINAL SINGLE POINT ENERGY      -271.797930146872

DIPOLE MOMENT
-------------

Method             : SCF
Type of density    : Electron Density
Multiplicity       :   1
Irrep              :   0
Energy             :  -271.8088290001718406 Eh
Relativity type    :
Basis              : AO
                                X                 Y                 Z
Electronic contribution:      2.907873515      -0.225237699      -0.485266234
Nuclear contribution   :     -3.097106412      -0.378484053       1.182051760
                        -----------------------------------------
Total Dipole Moment    :     -0.189232897      -0.603721752       0.696785526
                        -----------------------------------------
Magnitude (a.u.)       :      0.941169013
Magnitude (Debye)      :      2.392261516

Rotational constants in cm-1:             0.183530             0.111817             0.087495
Rotational constants in MHz :          5502.092788          3352.180058          2623.049001

                             ****ORCA TERMINATED NORMALLY****
TOTAL RUN TIME: 0 days 0 hours 1 minutes 48 seconds 981 msec
