                         Program Version 6.0.0  -   RELEASE  -
|  1> ! r2scan-3c def2/J RI DEFGRID2 scfconv6 printgap
|  2> %output
|  3>     printlevel normal
|  4> end
|  5> * xyz 0 1
|  6> C -1.491535989 0.173238623 -1.2437624493
|  7> C -0.6386633967 0.4311327381 -0.0002657112
|  8> C -1.4908606791 0.1746004556 1.2439762085
|  9> C 0.6386845436 -0.4311698013 -0.0002411881
| 10> C 1.4915342033 -0.173301325 -1.2437576883
| 11> C 1.4908444412 -0.1745111832 1.2439955368
| 12> H -2.4279422268 0.7223182056 -1.1736725657
| 13> H -0.9846094155 0.4942709941 -2.148732167
| 14> H -1.7230415406 -0.8864265115 -1.3301722146
| 15> H -0.3376815276 1.4854770249 -0.0009178952
| 16> H -0.9843128832 0.4986005682 2.1481000795
| 17> H -2.4282332262 0.7218830171 1.172813392
| 18> H -1.7205232074 -0.8852607011 1.3328503282
| 19> H 0.3377423923 -1.4855253738 -0.0008011171
| 20> H 1.721557594 0.8866039669 -1.3311757148
| 21> H 2.4287015822 -0.7209644353 -1.1728927843
| 22> H 0.9853091506 -0.4959402073 -2.1485522195
| 23> H 0.9837825008 -0.4973274875 2.1482527317
| 24> H 1.7215198463 0.8851912513 1.3321034765
| 25> H 2.4276937404 -0.7227752699 1.1734555726
| 26> *
| 27>
| 28>                          ****END OF INPUT****

CARTESIAN COORDINATES (ANGSTROEM)
---------------------------------
  C     -1.491536    0.173239   -1.243762
  C     -0.638663    0.431133   -0.000266
  C     -1.490861    0.174600    1.243976
  C      0.638685   -0.431170   -0.000241
  C      1.491534   -0.173301   -1.243758
  C      1.490844   -0.174511    1.243996
  H     -2.427942    0.722318   -1.173673
  H     -0.984609    0.494271   -2.148732
  H     -1.723042   -0.886427   -1.330172
  H     -0.337682    1.485477   -0.000918
  H     -0.984313    0.498601    2.148100
  H     -2.428233    0.721883    1.172813
  H     -1.720523   -0.885261    1.332850
  H      0.337742   -1.485525   -0.000801
  H      1.721558    0.886604   -1.331176
  H      2.428702   -0.720964   -1.172893
  H      0.985309   -0.495940   -2.148552
  H      0.983783   -0.497327    2.148253
  H      1.721520    0.885191    1.332103
  H      2.427694   -0.722775    1.173456

 Total Charge           Charge          ....    0
 Multiplicity           Mult            ....    1
 Number of Electrons    NEL             ....   50
 Basis Dimension        Dim             ....  184

ORBITAL ENERGIES
----------------

  NO   OCC          E(Eh)            E(eV)
   0   2.0000     -10.029439      -272.9149
   1   2.0000     -10.029320      -272.9117
   2   2.0000     -10.011655      -272.4310
   3   2.0000     -10.011650      -272.4309
   4   2.0000     -10.011649      -272.4308
   5   2.0000     -10.011645      -272.4307
   6   2.0000      -0.785662       -21.3790
   7   2.0000      -0.714049       -19.4303
   8   2.0000      -0.657572       -17.8934
   9   2.0000      -0.633070       -17.2267
  10   2.0000      -0.572667       -15.5831
  11   2.0000      -0.514695       -14.0056
  12   2.0000      -0.425118       -11.5680
  13   2.0000      -0.423827       -11.5329
  14   2.0000      -0.399310       -10.8658
  15   2.0000      -0.390250       -10.6192
  16   2.0000      -0.360509        -9.8099
  17   2.0000      -0.358186        -9.7467
  18   2.0000      -0.346220        -9.4211
  19   2.0000      -0.329573        -8.9681
  20   2.0000      -0.321081        -8.7370
  21   2.0000      -0.308077        -8.3832
  22   2.0000      -0.287085        -7.8120
  23   2.0000      -0.278746        -7.5851
  24   2.0000      -0.275842        -7.5060
  25   0.0000       0.085146         2.3170
  26   0.0000       0.117397         3.1945
  27   0.0000       0.119493         3.2516
  28   0.0000       0.122351         3.3294
  29   0.0000       0.122932         3.3452

MULLIKEN ATOMIC CHARGES
-----------------------
   0 C :   -0.510316
   1 C :   -0.027740
   2 C :   -0.510386
   3 C :   -0.027686
   4 C :   -0.510480
   5 C :   -0.510257
   6 H :    0.142323
   7 H :    0.154298
   8 H :    0.152191
   9 H :    0.150664
  10 H :    0.154401
  11 H :    0.142282
  12 H :    0.152271
  13 H :    0.150662
  14 H :    0.152245
  15 H :    0.142296
  16 H :    0.154316
  17 H :    0.154391
  18 H :    0.152223
  19 H :    0.142303
Sum of atomic charges:    0.0000000

LOEWDIN ATOMIC CHARGES
----------------------
   0 C :   -0.416942
   1 C :   -0.242952
   2 C :   -0.416964
   3 C :   -0.242949
   4 C :   -0.416961
   5 C :   -0.416950
   6 H :    0.152330
   7 H :    0.153046
   8 H :    0.154793
   9 H :    0.156493
  10 H :    0.153055
  11 H :    0.152338
  12 H :    0.154803
  13 H :    0.156495
  14 H :    0.154798
  15 H :    0.152336
  16 H :    0.153038
  17 H :    0.153062
  18 H :    0.154800
  19 H :    0.152330

  Mayer bond orders larger than 0.100000
B(  0-C ,  1-C ) :   0.8880 B(  0-C ,  6-H ) :   0.9745 B(  0-C ,  7-H ) :   0.9768
B(  0-C ,  8-H ) :   0.9875 B(  1-C ,  2-C ) :   0.8876 B(  1-C ,  3-C ) :   0.8771
B(  1-C ,  9-H ) :   0.9707 B(  2-C , 10-H ) :   0.9768 B(  2-C , 11-H ) :   0.9745
B(  2-C , 12-H ) :   0.9875 B(  3-C ,  4-C ) :   0.8878 B(  3-C ,  5-C ) :   0.8877
B(  3-C , 13-H ) :   0.9707 B(  4-C , 14-H ) :   0.9875 B(  4-C , 15-H ) :   0.9745
B(  4-C , 16-H ) :   0.9768 B(  5-C , 17-H ) :   0.9767 B(  5-C , 18-H ) :   0.9875
B(  5-C , 19-H ) :   0.9745

Dispersion correction           -0.005249370
FINAL SINGLE POINT ENERGY      -236.988494470475

DIPOLE MOMENT
-------------

Method             : SCF
Type of density    : Electron Density
Multiplicity       :   1
Irrep              :   0
Energy             :  -236.9930404423829486 Eh
Relativity type    :
Basis              : AO
                                X                 Y                 Z
Electronic contribution:      0.000041506      -0.000121328      -0.000596511
Nuclear contribution   :     -0.000034919       0.000117309       0.000618157
                        -----------------------------------------
Total Dipole Moment    :      0.000006587      -0.000004018       0.000021645
                        -----------------------------------------
Magnitude (a.u.)       :      0.000022980
Magnitude (Debye)      :      0.000058410

Rotational constants in cm-1:             0.142146             0.097375             0.063419
Rotational constants in MHz :          4261.437332          2919.227819          1901.245644

                             ****ORCA TERMINATED NORMALLY****
TOTAL RUN TIME: 0 days 0 hours 0 minutes 17 seconds 702 msec
