                         Program Version 6.0.0  -   RELEASE  -
|  1> ! r2scan-3c def2/J RI DEFGRID2 scfconv6 printgap
|  2> %output
|  3>     printlevel normal
|  4> end
|  5> %cpcm
|  6>     smd true
|  7>     smdsolvent "water"
|  8> end
|  9> * xyz 0 1
| 10> C -1.491535989 0.173238623 -1.2437624493
| 11> C -0.6386633967 0.4311327381 -0.0002657112
| 12> C -1.4908606791 0.1746004556 1.2439762085
| 13> C 0.6386845436 -0.4311698013 -0.0002411881
| 14> C 1.4915342033 -0.173301325 -1.2437576883
| 15> C 1.4908444412 -0.1745111832 1.2439955368
| 16> H -2.4279422268 0.7223182056 -1.1736725657
| 17> H -0.9846094155 0.4942709941 -2.148732167
| 18> H -1.7230415406 -0.8864265115 -1.3301722146
| 19> H -0.3376815276 1.4854770249 -0.0009178952
| 20> H -0.9843128832 0.4986005682 2.1481000795
| 21> H -2.4282332262 0.7218830171 1.172813392
| 22> H -1.7205232074 -0.8852607011 1.3328503282
| 23> H 0.3377423923 -1.4855253738 -0.0008011171
| 24> H 1.721557594 0.8866039669 -1.3311757148
| 25> H 2.4287015822 -0.7209644353 -1.1728927843
| 26> H 0.9853091506 -0.4959402073 -2.1485522195
| 27> H 0.9837825008 -0.4973274875 2.1482527317
| 28> H 1.7215198463 0.8851912513 1.3321034765
| 29> H 2.4276937404 -0.7227752699 1.1734555726
| 30> *
| 31>
| 32>                          ****END OF INPUT****

CARTESIAN COORDINATES (ANGSTROEM)
---------------------------------
  C     -1.491536    0.173239   -1.243762
  C     -0.638663    0.431133   -0.000266
  C     -1.490861    0.174600    1.243976
  C      0.638685   -0.431170   -0.000241
  C      1.491534   -0.173301   -1.243758
  C      1.490844   -0.174511    1.243996
  H     -2.427942    0.722318   -1.173673
  H     -0.984609    0.494271   -2.148732
  H     -1.723042   -0.886427   -1.330172
  H     -0.337682    1.485477   -0.000918
  H     -0.984313    0.498601    2.148100
  H     -2.428233    0.721883    1.172813
  H     -1.720523   -0.885261    1.332850
  H      0.337742   -1.485525   -0.000801
  H      1.721558    0.886604   -1.331176
  H      2.428702   -0.720964   -1.172893
  H      0.985309   -0.495940   -2.148552
  H      0.983783   -0.497327    2.148253
  H      1.721520    0.885191    1.332103
  H      2.427694   -0.722775    1.173456

 Total Charge           Charge          ....    0
 Multiplicity           Mult            ....    1
 Number of Electrons    NEL             ....   50
 Basis Dimension        Dim             ....  184

ORBITAL ENERGIES
----------------

  NO   OCC          E(Eh)            E(eV)
   0   2.0000     -10.021845      -272.7083
   1   2.0000     -10.021725      -272.7050
   2   2.0000     -10.003995      -272.2225
   3   2.0000     -10.003990      -272.2224
   4   2.0000     -10.003989      -272.2224
   5   2.0000     -10.003986      -272.2223
   6   2.0000      -0.778106       -21.1733
   7   2.0000      -0.706783       -19.2325
   8   2.0000      -0.650533       -17.7019
   9   2.0000      -0.626178       -17.0392
  10   2.0000      -0.565559       -15.3896
  11   2.0000      -0.507099       -13.7989
  12   2.0000      -0.417909       -11.3719
  13   2.0000      -0.416231       -11.3262
  14   2.0000      -0.391883       -10.6637
  15   2.0000      -0.383140       -10.4258
  16   2.0000      -0.352903        -9.6030
  17   2.0000      -0.350919        -9.5490
  18   2.0000      -0.338884        -9.2215
  19   2.0000      -0.322222        -8.7681
  20   2.0000      -0.313630        -8.5343
  21   2.0000      -0.300522        -8.1776
  22   2.0000      -0.279160        -7.5963
  23   2.0000      -0.271672        -7.3926
  24   2.0000      -0.268153        -7.2968
  25   0.0000       0.093353         2.5403
  26   0.0000       0.125407         3.4125
  27   0.0000       0.126217         3.4345
  28   0.0000       0.128404         3.4941
  29   0.0000       0.130144         3.5414

MULLIKEN ATOMIC CHARGES
-----------------------
   0 C :   -0.551743
   1 C :   -0.015752
   2 C :   -0.551769
   3 C :   -0.015705
   4 C :   -0.551900
   5 C :   -0.551643
   6 H :    0.154051
   7 H :    0.163626
   8 H :    0.162695
   9 H :    0.158397
  10 H :    0.163703
  11 H :    0.154007
  12 H :    0.162773
  13 H :    0.158395
  14 H :    0.162751
  15 H :    0.154021
  16 H :    0.163649
  17 H :    0.163689
  18 H :    0.162722
  19 H :    0.154032
Sum of atomic charges:    0.0000000

LOEWDIN ATOMIC CHARGES
----------------------
   0 C :   -0.425353
   1 C :   -0.241517
   2 C :   -0.425367
   3 C :   -0.241515
   4 C :   -0.425370
   5 C :   -0.425353
   6 H :    0.154595
   7 H :    0.155169
   8 H :    0.157035
   9 H :    0.158617
  10 H :    0.155174
  11 H :    0.154600
  12 H :    0.157048
  13 H :    0.158618
  14 H :    0.157042
  15 H :    0.154598
  16 H :    0.155164
  17 H :    0.155179
  18 H :    0.157043
  19 H :    0.154594

  Mayer bond orders larger than 0.100000
B(  0-C ,  1-C ) :   0.8817 B(  0-C ,  6-H ) :   0.9730 B(  0-C ,  7-H ) :   0.9734
B(  0-C ,  8-H ) :   0.9857 B(  1-C ,  2-C ) :   0.8814 B(  1-C ,  3-C ) :   0.8747
B(  1-C ,  9-H ) :   0.9715 B(  2-C , 10-H ) :   0.9734 B(  2-C , 11-H ) :   0.9730
B(  2-C , 12-H ) :   0.9857 B(  3-C ,  4-C ) :   0.8816 B(  3-C ,  5-C ) :   0.8815
B(  3-C , 13-H ) :   0.9715 B(  4-C , 14-H ) :   0.9857 B(  4-C , 15-H ) :   0.9730
B(  4-C , 16-H ) :   0.9734 B(  5-C , 17-H ) :   0.9734 B(  5-C , 18-H ) :   0.9857
B(  5-C , 19-H ) :   0.9730

Dispersion correction           -0.005249370
FINAL SINGLE POINT ENERGY      -236.984911288388

DIPOLE MOMENT
-------------

Method             : SCF
Type of density    : Electron Density
Multiplicity       :   1
Irrep              :   0
Energy             :  -236.9894572602964047 Eh
Relativity type    :
Basis              : AO
                                X                 Y                 Z
Electronic contribution:      0.000043193      -0.000117513      -0.000613893
Nuclear contribution   :     -0.000034919       0.000117309       0.000618157
                        -----------------------------------------
Total Dipole Moment    :      0.000008274      -0.000000204       0.000004263
                        -----------------------------------------
Magnitude (a.u.)       :      0.000009310
Magnitude (Debye)      :      0.000023663

Rotational constants in cm-1:             0.142146             0.097375             0.063419
Rotational constants in MHz :          4261.437332          2919.227819          1901.245644

                             ****ORCA TERMINATED NORMALLY****
TOTAL RUN TIME: 0 days 0 hours 0 minutes 21 seconds 234 msec
