                         Program Version 6.0.0  -   RELEASE  -
|  1> ! r2scan-3c def2/J RI DEFGRID2 scfconv6 printgap
|  2> %output
|  3>     printlevel normal
|  4> end
|  5> * xyz 0 1
|  6> C -1.4206273963 -1.2152475398 3.537e-07
|  7> C -0.0553109906 -1.2158646242 6.7019e-06
|  8> C 0.6488463895 2.813e-07 1.0813e-06
|  9> C -0.0553101968 1.2158652776 7.1293e-06
| 10> C -1.4206275194 1.2152474584 1.64882e-05
| 11> C -2.1437775982 7.24e-08 2.57428e-05
| 12> N -3.4793417881 -3.009e-07 -1.80832e-05
| 13> N 2.0369618284 -1.927e-07 -3.4464e-06
| 14> O 2.6430214516 1.0793078178 -3.01654e-05
| 15> O 2.6430220049 -1.0793082655 2.27079e-05
| 16> H -1.9602463693 -2.148577613 -0.0001622383
| 17> H 0.5095476844 -2.1350783928 -8.97033e-05
| 18> H 0.5095497584 2.1350821416 4.0143e-06
| 19> H -1.9602470759 2.1485777071 6.25987e-05
| 20> H -3.9866917268 -0.8680911416 -3.12363e-05
| 21> H -3.9866918168 0.8680902336 -5.10171e-05
| 22> *
| 23>
| 24>                          ****END OF INPUT****

CARTESIAN COORDINATES (ANGSTROEM)
---------------------------------
  C     -1.420627   -1.215248    0.000000
  C     -0.055311   -1.215865    0.000007
  C      0.648846    0.000000    0.000001
  C     -0.055310    1.215865    0.000007
  C     -1.420628    1.215247    0.000016
  C     -2.143778    0.000000    0.000026
  N     -3.479342   -0.000000   -0.000018
  N      2.036962   -0.000000   -0.000003
  O      2.643021    1.079308   -0.000030
  O      2.643022   -1.079308    0.000023
  H     -1.960246   -2.148578   -0.000162
  H      0.509548   -2.135078   -0.000090
  H      0.509550    2.135082    0.000004
  H     -1.960247    2.148578    0.000063
  H     -3.986692   -0.868091   -0.000031
  H     -3.986692    0.868090   -0.000051

 Total Charge           Charge          ....    0
 Multiplicity           Mult            ....    1
 Number of Electrons    NEL             ....   72
 Basis Dimension        Dim             ....  240

ORBITAL ENERGIES
----------------

  NO   OCC          E(Eh)            E(eV)
   0   2.0000     -18.954238      -515.7710
   1   2.0000     -18.954233      -515.7709
   2   2.0000     -14.367540      -390.9606
   3   2.0000     -14.211066      -386.7028
   4   2.0000     -10.115373      -275.2533
   5   2.0000     -10.082873      -274.3689
   6   2.0000     -10.062767      -273.8218
   7   2.0000     -10.062758      -273.8216
   8   2.0000     -10.056946      -273.6634
   9   2.0000     -10.056940      -273.6633
  10   2.0000      -1.166796       -31.7501
  11   2.0000      -0.985422       -26.8147
  12   2.0000      -0.938654       -25.5421
  13   2.0000      -0.848996       -23.1024
  14   2.0000      -0.768993       -20.9254
  15   2.0000      -0.746680       -20.3182
  16   2.0000      -0.666141       -18.1266
  17   2.0000      -0.615677       -16.7534
  18   2.0000      -0.571713       -15.5571
  19   2.0000      -0.531158       -14.4536
  20   2.0000      -0.529235       -14.4012
  21   2.0000      -0.499560       -13.5937
  22   2.0000      -0.484033       -13.1712
  23   2.0000      -0.460905       -12.5419
  24   2.0000      -0.433167       -11.7871
  25   2.0000      -0.421856       -11.4793
  26   2.0000      -0.418021       -11.3749
  27   2.0000      -0.394543       -10.7361
  28   2.0000      -0.393829       -10.7166
  29   2.0000      -0.333566        -9.0768
  30   2.0000      -0.319720        -8.7000
  31   2.0000      -0.269228        -7.3261
  32   2.0000      -0.259660        -7.0657
  33   2.0000      -0.258498        -7.0341
  34   2.0000      -0.229021        -6.2320
  35   2.0000      -0.215132        -5.8540
  36   0.0000      -0.103815        -2.8250
  37   0.0000      -0.052748        -1.4354
  38   0.0000      -0.007678        -0.2089
  39   0.0000       0.044727         1.2171
  40   0.0000       0.073477         1.9994

MULLIKEN ATOMIC CHARGES
-----------------------
   0 C :   -0.362563
   1 C :   -0.201888
   2 C :    0.000346
   3 C :   -0.201889
   4 C :   -0.362561
   5 C :    0.596191
   6 N :   -0.470769
   7 N :    0.337477
   8 O :   -0.256889
   9 O :   -0.256890
  10 H :    0.142560
  11 H :    0.186904
  12 H :    0.186905
  13 H :    0.142560
  14 H :    0.260254
  15 H :    0.260254
Sum of atomic charges:   -0.0000000

LOEWDIN ATOMIC CHARGES
----------------------
   0 C :   -0.155438
   1 C :   -0.057986
   2 C :    0.169328
   3 C :   -0.057986
   4 C :   -0.155438
   5 C :    0.158732
   6 N :   -0.550719
   7 N :   -0.518686
   8 O :   -0.049651
   9 O :   -0.049651
  10 H :    0.172859
  11 H :    0.200168
  12 H :    0.200169
  13 H :    0.172859
  14 H :    0.260720
  15 H :    0.260720

  Mayer bond orders larger than 0.100000
B(  0-C ,  1-C ) :   1.3997 B(  0-C ,  5-C ) :   1.2265 B(  0-C , 10-H ) :   0.9432
B(  1-C ,  2-C ) :   1.4015 B(  1-C , 11-H ) :   0.9192 B(  2-C ,  3-C ) :   1.4015
B(  2-C ,  7-N ) :   1.0650 B(  3-C ,  4-C ) :   1.3997 B(  3-C , 12-H ) :   0.9191
B(  4-C ,  5-C ) :   1.2265 B(  4-C , 13-H ) :   0.9432 B(  5-C ,  6-N ) :   1.0086
B(  6-N , 14-H ) :   0.9300 B(  6-N , 15-H ) :   0.9300 B(  7-N ,  8-O ) :   1.8105
B(  7-N ,  9-O ) :   1.8105 B(  8-O ,  9-O ) :   0.2129

Dispersion correction           -0.005546419
FINAL SINGLE POINT ENERGY      -492.024524727304

DIPOLE MOMENT
-------------

Method             : SCF
Type of density    : Electron Density
Multiplicity       :   1
Irrep              :   0
Energy             :  -492.0311476647039512 Eh
Relativity type    :
Basis              : AO
                                X                 Y                 Z
Electronic contribution:      6.786902777      -0.000002138       0.000169793
Nuclear contribution   :    -10.132047436       0.000002744      -0.000251268
                        -----------------------------------------
Total Dipole Moment    :     -3.345144659       0.000000606      -0.000081474
                        -----------------------------------------
Magnitude (a.u.)       :      3.345144660
Magnitude (Debye)      :      8.502682006

Rotational constants in cm-1:             0.131414             0.028081             0.023137
Rotational constants in MHz :          3939.680826           841.834795           693.621158

                             ****ORCA TERMINATED NORMALLY****
TOTAL RUN TIME: 0 days 0 hours 0 minutes 28 seconds 154 msec
