                         Program Version 6.0.0  -   RELEASE  -
|  1> ! r2scan-3c def2/J RI DEFGRID2 scfconv6 printgap
|  2> %output
|  3>     printlevel normal
|  4> end
|  5> %cpcm
|  6>     smd true
|  7>     smdsolvent "water"
|  8> end
|  9> * xyz 0 1
| 10> C -1.4206273963 -1.2152475398 3.537e-07
| 11> C -0.0553109906 -1.2158646242 6.7019e-06
| 12> C 0.6488463895 2.813e-07 1.0813e-06
| 13> C -0.0553101968 1.2158652776 7.1293e-06
| 14> C -1.4206275194 1.2152474584 1.64882e-05
| 15> C -2.1437775982 7.24e-08 2.57428e-05
| 16> N -3.4793417881 -3.009e-07 -1.80832e-05
| 17> N 2.0369618284 -1.927e-07 -3.4464e-06
| 18> O 2.6430214516 1.0793078178 -3.01654e-05
| 19> O 2.6430220049 -1.0793082655 2.27079e-05
| 20> H -1.9602463693 -2.148577613 -0.0001622383
| 21> H 0.5095476844 -2.1350783928 -8.97033e-05
| 22> H 0.5095497584 2.1350821416 4.0143e-06
| 23> H -1.9602470759 2.1485777071 6.25987e-05
| 24> H -3.9866917268 -0.8680911416 -3.12363e-05
| 25> H -3.9866918168 0.8680902336 -5.10171e-05
| 26> *
| 27>
| 28>                          ****END OF INPUT****

CARTESIAN COORDINATES (ANGSTROEM)
---------------------------------
  C     -1.420627   -1.215248    0.000000
  C     -0.055311   -1.215865    0.000007
  C      0.648846    0.000000    0.000001
  C     -0.055310    1.215865    0.000007
  C     -1.420628    1.215247    0.000016
  C     -2.143778    0.000000    0.000026
  N     -3.479342   -0.000000   -0.000018
  N      2.036962   -0.000000   -0.000003
  O      2.643021    1.079308   -0.000030
  O      2.643022   -1.079308    0.000023
  H     -1.960246   -2.148578   -0.000162
  H      0.509548   -2.135078   -0.000090
  H      0.509550    2.135082    0.000004
  H     -1.960247    2.148578    0.000063
  H     -3.986692   -0.868091   -0.000031
  H     -3.986692    0.868090   -0.000051

 Total Charge           Charge          ....    0
 Multiplicity           Mult            ....    1
 Number of Electrons    NEL             ....   72
 Basis Dimension        Dim             ....  240

ORBITAL ENERGIES
----------------

  NO   OCC          E(Eh)            E(eV)
   0   2.0000     -18.972241      -516.2609
   1   2.0000     -18.972236      -516.2608
   2   2.0000     -14.383728      -391.4011
   3   2.0000     -14.187967      -386.0742
   4   2.0000     -10.103317      -274.9252
   5   2.0000     -10.081741      -274.3381
   6   2.0000     -10.056286      -273.6454
   7   2.0000     -10.056278      -273.6452
   8   2.0000     -10.044436      -273.3230
   9   2.0000     -10.044430      -273.3228
  10   2.0000      -1.185877       -32.2693
  11   2.0000      -1.005750       -27.3679
  12   2.0000      -0.916462       -24.9382
  13   2.0000      -0.845527       -23.0080
  14   2.0000      -0.766775       -20.8650
  15   2.0000      -0.736901       -20.0521
  16   2.0000      -0.659296       -17.9404
  17   2.0000      -0.603121       -16.4118
  18   2.0000      -0.564944       -15.3729
  19   2.0000      -0.527108       -14.3433
  20   2.0000      -0.508804       -13.8453
  21   2.0000      -0.503442       -13.6993
  22   2.0000      -0.500649       -13.6233
  23   2.0000      -0.476405       -12.9636
  24   2.0000      -0.419896       -11.4260
  25   2.0000      -0.413671       -11.2566
  26   2.0000      -0.405219       -11.0266
  27   2.0000      -0.384420       -10.4606
  28   2.0000      -0.382730       -10.4146
  29   2.0000      -0.321686        -8.7535
  30   2.0000      -0.311845        -8.4857
  31   2.0000      -0.287597        -7.8259
  32   2.0000      -0.284002        -7.7281
  33   2.0000      -0.256905        -6.9908
  34   2.0000      -0.253195        -6.8898
  35   2.0000      -0.206744        -5.6258
  36   0.0000      -0.113926        -3.1001
  37   0.0000      -0.044409        -1.2084
  38   0.0000      -0.004479        -0.1219
  39   0.0000       0.085318         2.3216
  40   0.0000       0.088867         2.4182

MULLIKEN ATOMIC CHARGES
-----------------------
   0 C :   -0.383351
   1 C :   -0.221304
   2 C :    0.054419
   3 C :   -0.221300
   4 C :   -0.383344
   5 C :    0.547129
   6 N :   -0.497234
   7 N :    0.374516
   8 O :   -0.351889
   9 O :   -0.351889
  10 H :    0.190488
  11 H :    0.203855
  12 H :    0.203855
  13 H :    0.190489
  14 H :    0.322780
  15 H :    0.322781
Sum of atomic charges:   -0.0000000

LOEWDIN ATOMIC CHARGES
----------------------
   0 C :   -0.141551
   1 C :   -0.067442
   2 C :    0.162781
   3 C :   -0.067442
   4 C :   -0.141551
   5 C :    0.166227
   6 N :   -0.493263
   7 N :   -0.539141
   8 O :   -0.113845
   9 O :   -0.113845
  10 H :    0.191915
  11 H :    0.204029
  12 H :    0.204030
  13 H :    0.191915
  14 H :    0.278591
  15 H :    0.278591

  Mayer bond orders larger than 0.100000
B(  0-C ,  1-C ) :   1.4218 B(  0-C ,  5-C ) :   1.1966 B(  0-C , 10-H ) :   0.9600
B(  1-C ,  2-C ) :   1.2747 B(  1-C , 11-H ) :   0.9379 B(  2-C ,  3-C ) :   1.2747
B(  2-C ,  7-N ) :   1.1379 B(  3-C ,  4-C ) :   1.4219 B(  3-C , 12-H ) :   0.9379
B(  4-C ,  5-C ) :   1.1966 B(  4-C , 13-H ) :   0.9600 B(  5-C ,  6-N ) :   1.0492
B(  6-N , 14-H ) :   0.9003 B(  6-N , 15-H ) :   0.9003 B(  7-N ,  8-O ) :   1.7202
B(  7-N ,  9-O ) :   1.7202 B(  8-O ,  9-O ) :   0.1679

Dispersion correction           -0.005546419
FINAL SINGLE POINT ENERGY      -492.043770142216

DIPOLE MOMENT
-------------

Method             : SCF
Type of density    : Electron Density
Multiplicity       :   1
Irrep              :   0
Energy             :  -492.0503930796160716 Eh
Relativity type    :
Basis              : AO
                                X                 Y                 Z
Electronic contribution:      4.892246855      -0.000002554       0.000142295
Nuclear contribution   :    -10.132047436       0.000002744      -0.000251268
                        -----------------------------------------
Total Dipole Moment    :     -5.239800580       0.000000190      -0.000108973
                        -----------------------------------------
Magnitude (a.u.)       :      5.239800581
Magnitude (Debye)      :     13.318514638

Rotational constants in cm-1:             0.131414             0.028081             0.023137
Rotational constants in MHz :          3939.680826           841.834795           693.621158

                             ****ORCA TERMINATED NORMALLY****
TOTAL RUN TIME: 0 days 0 hours 0 minutes 35 seconds 375 msec
