                         Program Version 6.0.0  -   RELEASE  -
|  1> ! r2scan-3c def2/J RI DEFGRID2 scfconv6 printgap
|  2> %output
|  3>     printlevel normal
|  4> end
|  5> * xyz 0 1
|  6> C -2.8195627789 1.0439877285 -0.0007497962
|  7> O -2.2173223048 -0.2363259241 0.0006234001
|  8> C -0.8559529153 -0.3188242881 0.0002761461
|  9> C -0.3258646995 -1.6110110887 0.0001107159
| 10> C 1.0403088306 -1.792725601 -0.0002323081
| 11> C 1.9013400753 -0.7072359924 -0.0004241782
| 12> C 1.3758642974 0.5769431754 7.7412e-06
| 13> C -0.00291037 0.7740601201 0.0002092162
| 14> O 2.1609029882 1.6879228949 0.000211035
| 15> H -2.5440901291 1.6085176153 -0.8951865332
| 16> H -2.5447512137 1.6099294064 0.8931084355
| 17> H -3.8906177123 0.855796338 -0.0011297069
| 18> H -1.00701819 -2.4460541131 0.0004654898
| 19> H 1.4450399828 -2.7927465685 -0.0005019212
| 20> H 2.9697455992 -0.8599652862 -0.0008392178
| 21> H -0.3633330139 1.7893154961 0.0004385836
| 22> H 3.0979976816 1.4410545632 -3.81105e-05
| 23> *
| 24>
| 25>                          ****END OF INPUT****

CARTESIAN COORDINATES (ANGSTROEM)
---------------------------------
  C     -2.819563    1.043988   -0.000750
  O     -2.217322   -0.236326    0.000623
  C     -0.855953   -0.318824    0.000276
  C     -0.325865   -1.611011    0.000111
  C      1.040309   -1.792726   -0.000232
  C      1.901340   -0.707236   -0.000424
  C      1.375864    0.576943    0.000008
  C     -0.002910    0.774060    0.000209
  O      2.160903    1.687923    0.000211
  H     -2.544090    1.608518   -0.895187
  H     -2.544751    1.609929    0.893108
  H     -3.890618    0.855796   -0.001130
  H     -1.007018   -2.446054    0.000465
  H      1.445040   -2.792747   -0.000502
  H      2.969746   -0.859965   -0.000839
  H     -0.363333    1.789315    0.000439
  H      3.097998    1.441055   -0.000038

 Total Charge           Charge          ....    0
 Multiplicity           Mult            ....    1
 Number of Electrons    NEL             ....   66
 Basis Dimension        Dim             ....  221

ORBITAL ENERGIES
----------------

  NO   OCC          E(Eh)            E(eV)
   0   2.0000     -18.985774      -516.6292
   1   2.0000     -18.984830      -516.6035
   2   2.0000     -10.097992      -274.7803
   3   2.0000     -10.095159      -274.7032
   4   2.0000     -10.085612      -274.4434
   5   2.0000     -10.036127      -273.0969
   6   2.0000     -10.027682      -272.8671
   7   2.0000     -10.026326      -272.8302
   8   2.0000     -10.021143      -272.6892
   9   2.0000      -1.032563       -28.0975
  10   2.0000      -1.029373       -28.0107
  11   2.0000      -0.818633       -22.2761
  12   2.0000      -0.723474       -19.6867
  13   2.0000      -0.715946       -19.4819
  14   2.0000      -0.663120       -18.0444
  15   2.0000      -0.589677       -16.0459
  16   2.0000      -0.573770       -15.6131
  17   2.0000      -0.521775       -14.1982
  18   2.0000      -0.468575       -12.7506
  19   2.0000      -0.457138       -12.4394
  20   2.0000      -0.453407       -12.3378
  21   2.0000      -0.437268       -11.8987
  22   2.0000      -0.413384       -11.2487
  23   2.0000      -0.387380       -10.5411
  24   2.0000      -0.381950       -10.3934
  25   2.0000      -0.359756        -9.7894
  26   2.0000      -0.345410        -9.3991
  27   2.0000      -0.332362        -9.0440
  28   2.0000      -0.316616        -8.6156
  29   2.0000      -0.302722        -8.2375
  30   2.0000      -0.280757        -7.6398
  31   2.0000      -0.218251        -5.9389
  32   2.0000      -0.194579        -5.2948
  33   0.0000      -0.022513        -0.6126
  34   0.0000      -0.009585        -0.2608
  35   0.0000       0.056079         1.5260
  36   0.0000       0.069402         1.8885
  37   0.0000       0.088460         2.4071

MULLIKEN ATOMIC CHARGES
-----------------------
   0 C :   -0.331212
   1 O :   -0.188905
   2 C :    0.390486
   3 C :   -0.340321
   4 C :   -0.100608
   5 C :   -0.366633
   6 C :    0.417281
   7 C :   -0.440303
   8 O :   -0.416268
   9 H :    0.153884
  10 H :    0.153849
  11 H :    0.154517
  12 H :    0.157507
  13 H :    0.148306
  14 H :    0.137299
  15 H :    0.158727
  16 H :    0.312394
Sum of atomic charges:   -0.0000000

LOEWDIN ATOMIC CHARGES
----------------------
   0 C :   -0.055182
   1 O :   -0.680042
   2 C :    0.198325
   3 C :   -0.159918
   4 C :   -0.143335
   5 C :   -0.201177
   6 C :    0.191618
   7 C :   -0.152511
   8 O :   -0.498365
   9 H :    0.165572
  10 H :    0.165566
  11 H :    0.180057
  12 H :    0.180018
  13 H :    0.168982
  14 H :    0.167383
  15 H :    0.187919
  16 H :    0.285087

  Mayer bond orders larger than 0.100000
B(  0-C ,  1-O ) :   0.8606 B(  0-C ,  9-H ) :   0.9633 B(  0-C , 10-H ) :   0.9634
B(  0-C , 11-H ) :   0.9680 B(  1-O ,  2-C ) :   1.0302 B(  2-C ,  3-C ) :   1.3881
B(  2-C ,  7-C ) :   1.3440 B(  3-C ,  4-C ) :   1.4191 B(  3-C , 12-H ) :   0.9450
B(  4-C ,  5-C ) :   1.3919 B(  4-C , 13-H ) :   0.9440 B(  5-C ,  6-C ) :   1.3590
B(  5-C , 14-H ) :   0.9349 B(  6-C ,  7-C ) :   1.4729 B(  6-C ,  8-O ) :   0.8849
B(  7-C ,  8-O ) :   0.1340 B(  7-C , 15-H ) :   0.9033 B(  8-O , 16-H ) :   0.8821

Dispersion correction           -0.005308298
FINAL SINGLE POINT ENERGY      -421.903128687607

DIPOLE MOMENT
-------------

Method             : SCF
Type of density    : Electron Density
Multiplicity       :   1
Irrep              :   0
Energy             :  -421.9059507633056683 Eh
Relativity type    :
Basis              : AO
                                X                 Y                 Z
Electronic contribution:      2.899060370      -0.918910321       0.002682079
Nuclear contribution   :     -2.662450371       1.152793665      -0.003442902
                        -----------------------------------------
Total Dipole Moment    :      0.236609999       0.233883344      -0.000760823
                        -----------------------------------------
Magnitude (a.u.)       :      0.332695490
Magnitude (Debye)      :      0.845644731

Rotational constants in cm-1:             0.096168             0.043243             0.030001
Rotational constants in MHz :          2883.034387          1296.405321           899.408500

                             ****ORCA TERMINATED NORMALLY****
TOTAL RUN TIME: 0 days 0 hours 0 minutes 23 seconds 248 msec
