                         Program Version 6.0.0  -   RELEASE  -
|  1> ! r2scan-3c def2/J RI DEFGRID2 scfconv6 printgap
|  2> %output
|  3>     printlevel normal
|  4> end
|  5> %cpcm
|  6>     smd true
|  7>     smdsolvent "water"
|  8> end
|  9> * xyz 0 1
| 10> C -2.8195627789 1.0439877285 -0.0007497962
| 11> O -2.2173223048 -0.2363259241 0.0006234001
| 12> C -0.8559529153 -0.3188242881 0.0002761461
| 13> C -0.3258646995 -1.6110110887 0.0001107159
| 14> C 1.0403088306 -1.792725601 -0.0002323081
| 15> C 1.9013400753 -0.7072359924 -0.0004241782
| 16> C 1.3758642974 0.5769431754 7.7412e-06
| 17> C -0.00291037 0.7740601201 0.0002092162
| 18> O 2.1609029882 1.6879228949 0.000211035
| 19> H -2.5440901291 1.6085176153 -0.8951865332
| 20> H -2.5447512137 1.6099294064 0.8931084355
| 21> H -3.8906177123 0.855796338 -0.0011297069
| 22> H -1.00701819 -2.4460541131 0.0004654898
| 23> H 1.4450399828 -2.7927465685 -0.0005019212
| 24> H 2.9697455992 -0.8599652862 -0.0008392178
| 25> H -0.3633330139 1.7893154961 0.0004385836
| 26> H 3.0979976816 1.4410545632 -3.81105e-05
| 27> *
| 28>
| 29>                          ****END OF INPUT****

CARTESIAN COORDINATES (ANGSTROEM)
---------------------------------
  C     -2.819563    1.043988   -0.000750
  O     -2.217322   -0.236326    0.000623
  C     -0.855953   -0.318824    0.000276
  C     -0.325865   -1.611011    0.000111
  C      1.040309   -1.792726   -0.000232
  C      1.901340   -0.707236   -0.000424
  C      1.375864    0.576943    0.000008
  C     -0.002910    0.774060    0.000209
  O      2.160903    1.687923    0.000211
  H     -2.544090    1.608518   -0.895187
  H     -2.544751    1.609929    0.893108
  H     -3.890618    0.855796   -0.001130
  H     -1.007018   -2.446054    0.000465
  H      1.445040   -2.792747   -0.000502
  H      2.969746   -0.859965   -0.000839
  H     -0.363333    1.789315    0.000439
  H      3.097998    1.441055   -0.000038

 Total Charge           Charge          ....    0
 Multiplicity           Mult            ....    1
 Number of Electrons    NEL             ....   66
 Basis Dimension        Dim             ....  221

ORBITAL ENERGIES
----------------

  NO   OCC          E(Eh)            E(eV)
   0   2.0000     -18.988752      -516.7102
   1   2.0000     -18.983887      -516.5778
   2   2.0000     -10.099961      -274.8339
   3   2.0000     -10.099121      -274.8110
   4   2.0000     -10.072799      -274.0948
   5   2.0000     -10.037014      -273.1210
   6   2.0000     -10.029284      -272.9107
   7   2.0000     -10.025009      -272.7944
   8   2.0000     -10.024434      -272.7787
   9   2.0000      -1.035549       -28.1787
  10   2.0000      -1.027714       -27.9655
  11   2.0000      -0.821858       -22.3639
  12   2.0000      -0.723203       -19.6794
  13   2.0000      -0.717912       -19.5354
  14   2.0000      -0.658636       -17.9224
  15   2.0000      -0.588426       -16.0119
  16   2.0000      -0.572846       -15.5879
  17   2.0000      -0.518447       -14.1077
  18   2.0000      -0.467675       -12.7261
  19   2.0000      -0.457793       -12.4572
  20   2.0000      -0.450420       -12.2565
  21   2.0000      -0.433207       -11.7882
  22   2.0000      -0.409671       -11.1477
  23   2.0000      -0.385758       -10.4970
  24   2.0000      -0.384689       -10.4679
  25   2.0000      -0.358549        -9.7566
  26   2.0000      -0.343378        -9.3438
  27   2.0000      -0.333196        -9.0667
  28   2.0000      -0.316289        -8.6067
  29   2.0000      -0.304090        -8.2747
  30   2.0000      -0.283630        -7.7180
  31   2.0000      -0.222999        -6.0681
  32   2.0000      -0.199292        -5.4230
  33   0.0000      -0.026949        -0.7333
  34   0.0000      -0.014220        -0.3870
  35   0.0000       0.067941         1.8488
  36   0.0000       0.085533         2.3275
  37   0.0000       0.096864         2.6358

MULLIKEN ATOMIC CHARGES
-----------------------
   0 C :   -0.338412
   1 O :   -0.230556
   2 C :    0.362964
   3 C :   -0.386587
   4 C :   -0.136479
   5 C :   -0.371367
   6 C :    0.358989
   7 C :   -0.434134
   8 O :   -0.457190
   9 H :    0.171847
  10 H :    0.171825
  11 H :    0.173852
  12 H :    0.183674
  13 H :    0.183365
  14 H :    0.184477
  15 H :    0.191748
  16 H :    0.371983
Sum of atomic charges:   -0.0000000

LOEWDIN ATOMIC CHARGES
----------------------
   0 C :   -0.050913
   1 O :   -0.707441
   2 C :    0.184980
   3 C :   -0.179480
   4 C :   -0.154072
   5 C :   -0.199085
   6 C :    0.180107
   7 C :   -0.158613
   8 O :   -0.511940
   9 H :    0.174750
  10 H :    0.174749
  11 H :    0.187472
  12 H :    0.187187
  13 H :    0.180733
  14 H :    0.185109
  15 H :    0.199552
  16 H :    0.306904

  Mayer bond orders larger than 0.100000
B(  0-C ,  1-O ) :   0.8531 B(  0-C ,  9-H ) :   0.9558 B(  0-C , 10-H ) :   0.9558
B(  0-C , 11-H ) :   0.9599 B(  1-O ,  2-C ) :   1.0145 B(  2-C ,  3-C ) :   1.3288
B(  2-C ,  7-C ) :   1.3551 B(  3-C ,  4-C ) :   1.3874 B(  3-C , 12-H ) :   0.9561
B(  4-C ,  5-C ) :   1.3480 B(  4-C , 13-H ) :   0.9544 B(  5-C ,  6-C ) :   1.3520
B(  5-C , 14-H ) :   0.9507 B(  6-C ,  7-C ) :   1.4217 B(  6-C ,  8-O ) :   0.8999
B(  7-C ,  8-O ) :   0.1208 B(  7-C , 15-H ) :   0.9050 B(  8-O , 16-H ) :   0.8498

Dispersion correction           -0.005308298
FINAL SINGLE POINT ENERGY      -421.913517113104

DIPOLE MOMENT
-------------

Method             : SCF
Type of density    : Electron Density
Multiplicity       :   1
Irrep              :   0
Energy             :  -421.9163391888025103 Eh
Relativity type    :
Basis              : AO
                                X                 Y                 Z
Electronic contribution:      3.145572531      -0.795552201       0.002390242
Nuclear contribution   :     -2.662450371       1.152793665      -0.003442902
                        -----------------------------------------
Total Dipole Moment    :      0.483122160       0.357241464      -0.001052661
                        -----------------------------------------
Magnitude (a.u.)       :      0.600857381
Magnitude (Debye)      :      1.527258090

Rotational constants in cm-1:             0.096168             0.043243             0.030001
Rotational constants in MHz :          2883.034387          1296.405321           899.408500

                             ****ORCA TERMINATED NORMALLY****
TOTAL RUN TIME: 0 days 0 hours 0 minutes 27 seconds 603 msec
