                         Program Version 6.0.0  -   RELEASE  -
|  1> ! pbe def2-sv(p) def2/J RI DEFGRID1 loosescf d4 GCP(DFT/SV(P)) printgap
|  2> %output
|  3>     printlevel normal
|  4> end
|  5> * xyz 0 1
|  6> C -2.9208106948 -0.0361463784 0.0043886623
|  7> O -1.6604273274 0.6505402642 0.0005686304
|  8> C -0.5450943616 -0.0565758342 -0.0041776608
|  9> O -0.4861442471 -1.2630764297 -0.0057629508
| 10> C 0.6481077795 0.8783746832 -0.0079336497
| 11> Cl 2.1626139243 -0.0589668568 0.0052787207
| 12> H -2.7638153785 -1.1057083948 -0.1340468973
| 13> H -3.5117305681 0.3772096821 -0.8095434136
| 14> H -3.4045956135 0.1555045469 0.9604667037
| 15> H 0.6287928745 1.5126654161 0.8778056752
| 16> H 0.6348522338 1.4954898455 -0.9058785902
| 17> *
| 18>
| 19>                          ****END OF INPUT****

CARTESIAN COORDINATES (ANGSTROEM)
---------------------------------
  C     -2.920811   -0.036146    0.004389
  O     -1.660427    0.650540    0.000569
  C     -0.545094   -0.056576   -0.004178
  O     -0.486144   -1.263076   -0.005763
  C      0.648108    0.878375   -0.007934
  Cl     2.162614   -0.058967    0.005279
  H     -2.763815   -1.105708   -0.134047
  H     -3.511731    0.377210   -0.809543
  H     -3.404596    0.155505    0.960467
  H      0.628793    1.512665    0.877806
  H      0.634852    1.495490   -0.905879

 Total Charge           Charge          ....    0
 Multiplicity           Mult            ....    1
 Number of Electrons    NEL             ....   56
 Basis Dimension        Dim             ....   98

ORBITAL ENERGIES
----------------

  NO   OCC          E(Eh)            E(eV)
   0   2.0000    -100.623598     -2738.1073
   1   2.0000     -18.815069      -511.9841
   2   2.0000     -18.747599      -510.1481
   3   2.0000     -10.021620      -272.7021
   4   2.0000      -9.957018      -270.9442
   5   2.0000      -9.950786      -270.7746
   6   2.0000      -9.159361      -249.2389
   7   2.0000      -6.991537      -190.2494
   8   2.0000      -6.978704      -189.9002
   9   2.0000      -6.978625      -189.8980
  10   2.0000      -1.020992       -27.7826
  11   2.0000      -0.926252       -25.2046
  12   2.0000      -0.781388       -21.2626
  13   2.0000      -0.694437       -18.8966
  14   2.0000      -0.617623       -16.8064
  15   2.0000      -0.517833       -14.0910
  16   2.0000      -0.468163       -12.7394
  17   2.0000      -0.458651       -12.4805
  18   2.0000      -0.427226       -11.6254
  19   2.0000      -0.417794       -11.3687
  20   2.0000      -0.382300       -10.4029
  21   2.0000      -0.372581       -10.1384
  22   2.0000      -0.352323        -9.5872
  23   2.0000      -0.314430        -8.5561
  24   2.0000      -0.270616        -7.3638
  25   2.0000      -0.251620        -6.8469
  26   2.0000      -0.249477        -6.7886
  27   2.0000      -0.235883        -6.4187
  28   0.0000      -0.031110        -0.8466
  29   0.0000       0.002937         0.0799
  30   0.0000       0.041236         1.1221
  31   0.0000       0.060888         1.6569
  32   0.0000       0.083371         2.2686

MULLIKEN ATOMIC CHARGES
-----------------------
   0 C :   -0.130257
   1 O :   -0.247749
   2 C :    0.125416
   3 O :   -0.170795
   4 C :   -0.179274
   5 Cl:   -0.114304
   6 H :    0.140465
   7 H :    0.127785
   8 H :    0.127920
   9 H :    0.160304
  10 H :    0.160489
Sum of atomic charges:   -0.0000000

LOEWDIN ATOMIC CHARGES
----------------------
   0 C :   -0.203990
   1 O :   -0.073773
   2 C :    0.004497
   3 O :   -0.146970
   4 C :   -0.307340
   5 Cl:    0.060669
   6 H :    0.127855
   7 H :    0.123570
   8 H :    0.123291
   9 H :    0.145932
  10 H :    0.146259

  Mayer bond orders larger than 0.100000
B(  0-C ,  1-O ) :   0.9250 B(  0-C ,  6-H ) :   0.9305 B(  0-C ,  7-H ) :   0.9607
B(  0-C ,  8-H ) :   0.9604 B(  1-O ,  2-C ) :   1.2064 B(  1-O ,  3-O ) :   0.1024
B(  2-C ,  3-O ) :   2.1291 B(  2-C ,  4-C ) :   0.9465 B(  4-C ,  5-Cl) :   1.0965
B(  4-C ,  9-H ) :   0.9102 B(  4-C , 10-H ) :   0.9091

Dispersion correction           -0.008150039
FINAL SINGLE POINT ENERGY      -727.080949074881

DIPOLE MOMENT
-------------

Method             : SCF
Type of density    : Electron Density
Multiplicity       :   1
Irrep              :   0
Energy             :  -727.1230438021802911 Eh
Relativity type    :
Basis              : AO
                                X                 Y                 Z
Electronic contribution:      9.799156699      -1.489946126       0.014741138
Nuclear contribution   :    -10.830573850       2.354678928      -0.017666263
                        -----------------------------------------
Total Dipole Moment    :     -1.031417152       0.864732802      -0.002925126
                        -----------------------------------------
Magnitude (a.u.)       :      1.345954203
Magnitude (Debye)      :      3.421143700

Rotational constants in cm-1:             0.331093             0.046747             0.041613
Rotational constants in MHz :          9925.924302          1401.428606          1247.535709

                             ****ORCA TERMINATED NORMALLY****
TOTAL RUN TIME: 0 days 0 hours 0 minutes 5 seconds 627 msec
