                         Program Version 6.0.0  -   RELEASE  -
|  1> ! r2scan-3c def2/J RI DEFGRID2 scfconv6 printgap
|  2> %output
|  3>     printlevel normal
|  4> end
|  5> * xyz 0 1
|  6> C 2.3524656412 -0.6539723749 0.170473309
|  7> C 0.8616219518 -0.5049621246 0.467124758
|  8> H 0.6872726675 -0.8561527138 1.4923115154
|  9> C 0.0316963727 -1.3858908512 -0.4688448384
| 10> C -1.4532458346 -1.2982469112 -0.1306730128
| 11> C -1.9317965551 0.1481891931 -0.1968808267
| 12> C -1.1033539722 1.0244943968 0.7381118601
| 13> C 0.3955689577 0.9615883173 0.4186306009
| 14> H 0.9262051053 1.5023919942 1.2129294928
| 15> C 0.716588011 1.6680860135 -0.8981165099
| 16> H 2.9356253615 0.0227246769 0.7911653074
| 17> H 2.6745713899 -1.6722120839 0.3772689755
| 18> H 2.5640334966 -0.4390220572 -0.8736086058
| 19> H 0.1906475266 -1.0789167895 -1.5039699013
| 20> H 0.3689370836 -2.4210993685 -0.3789036149
| 21> H -2.0297160471 -1.9153184154 -0.8231482189
| 22> H -1.6166179406 -1.6857748341 0.8781614585
| 23> H -1.8478247449 0.515100217 -1.2208108471
| 24> H -2.9844067553 0.2043097276 0.0889883813
| 25> H -1.4467362734 2.0594436967 0.6763252039
| 26> H -1.2584249533 0.6851581818 1.7657186878
| 27> H 1.7907560219 1.7627633129 -1.0304402322
| 28> H 0.2891211499 2.6686376549 -0.8902092847
| 29> H 0.3111755646 1.1331537773 -1.7513826048
| 30> *
| 31>
| 32>                          ****END OF INPUT****

CARTESIAN COORDINATES (ANGSTROEM)
---------------------------------
  C      2.352466   -0.653972    0.170473
  C      0.861622   -0.504962    0.467125
  H      0.687273   -0.856153    1.492312
  C      0.031696   -1.385891   -0.468845
  C     -1.453246   -1.298247   -0.130673
  C     -1.931797    0.148189   -0.196881
  C     -1.103354    1.024494    0.738112
  C      0.395569    0.961588    0.418631
  H      0.926205    1.502392    1.212929
  C      0.716588    1.668086   -0.898117
  H      2.935625    0.022725    0.791165
  H      2.674571   -1.672212    0.377269
  H      2.564033   -0.439022   -0.873609
  H      0.190648   -1.078917   -1.503970
  H      0.368937   -2.421099   -0.378904
  H     -2.029716   -1.915318   -0.823148
  H     -1.616618   -1.685775    0.878161
  H     -1.847825    0.515100   -1.220811
  H     -2.984407    0.204310    0.088988
  H     -1.446736    2.059444    0.676325
  H     -1.258425    0.685158    1.765719
  H      1.790756    1.762763   -1.030440
  H      0.289121    2.668638   -0.890209
  H      0.311176    1.133154   -1.751383

 Total Charge           Charge          ....    0
 Multiplicity           Mult            ....    1
 Number of Electrons    NEL             ....   64
 Basis Dimension        Dim             ....  232

ORBITAL ENERGIES
----------------

  NO   OCC          E(Eh)            E(eV)
   0   2.0000     -10.026307      -272.8297
   1   2.0000     -10.026012      -272.8217
   2   2.0000     -10.018318      -272.6123
   3   2.0000     -10.018024      -272.6043
   4   2.0000     -10.017121      -272.5797
   5   2.0000     -10.017071      -272.5784
   6   2.0000     -10.011591      -272.4292
   7   2.0000     -10.011399      -272.4240
   8   2.0000      -0.804535       -21.8925
   9   2.0000      -0.729378       -19.8474
  10   2.0000      -0.719611       -19.5816
  11   2.0000      -0.657128       -17.8814
  12   2.0000      -0.624275       -16.9874
  13   2.0000      -0.563162       -15.3244
  14   2.0000      -0.546456       -14.8698
  15   2.0000      -0.493396       -13.4260
  16   2.0000      -0.446445       -12.1484
  17   2.0000      -0.424940       -11.5632
  18   2.0000      -0.405430       -11.0323
  19   2.0000      -0.400949       -10.9104
  20   2.0000      -0.380430       -10.3520
  21   2.0000      -0.368438       -10.0257
  22   2.0000      -0.355237        -9.6665
  23   2.0000      -0.346317        -9.4238
  24   2.0000      -0.332969        -9.0606
  25   2.0000      -0.320945        -8.7334
  26   2.0000      -0.308998        -8.4083
  27   2.0000      -0.303100        -8.2478
  28   2.0000      -0.293018        -7.9734
  29   2.0000      -0.275365        -7.4931
  30   2.0000      -0.258093        -7.0231
  31   2.0000      -0.256072        -6.9681
  32   0.0000       0.079030         2.1505
  33   0.0000       0.102130         2.7791
  34   0.0000       0.110492         3.0066
  35   0.0000       0.116151         3.1606
  36   0.0000       0.123446         3.3591

MULLIKEN ATOMIC CHARGES
-----------------------
   0 C :   -0.518000
   1 C :   -0.093873
   2 H :    0.159503
   3 C :   -0.351294
   4 C :   -0.286191
   5 C :   -0.294767
   6 C :   -0.345081
   7 C :    0.027594
   8 H :    0.152097
   9 C :   -0.562233
  10 H :    0.150638
  11 H :    0.148115
  12 H :    0.159009
  13 H :    0.159327
  14 H :    0.143975
  15 H :    0.146085
  16 H :    0.145086
  17 H :    0.150073
  18 H :    0.146364
  19 H :    0.147693
  20 H :    0.150547
  21 H :    0.156977
  22 H :    0.147485
  23 H :    0.160871
Sum of atomic charges:    0.0000000

LOEWDIN ATOMIC CHARGES
----------------------
   0 C :   -0.413573
   1 C :   -0.229757
   2 H :    0.160191
   3 C :   -0.297461
   4 C :   -0.301098
   5 C :   -0.303270
   6 C :   -0.297965
   7 C :   -0.230200
   8 H :    0.159269
   9 C :   -0.415892
  10 H :    0.154198
  11 H :    0.153380
  12 H :    0.154189
  13 H :    0.156229
  14 H :    0.157730
  15 H :    0.153680
  16 H :    0.154259
  17 H :    0.154390
  18 H :    0.154891
  19 H :    0.155886
  20 H :    0.157247
  21 H :    0.155870
  22 H :    0.155682
  23 H :    0.152126

  Mayer bond orders larger than 0.100000
B(  0-C ,  1-C ) :   0.8777 B(  0-C , 10-H ) :   0.9791 B(  0-C , 11-H ) :   0.9765
B(  0-C , 12-H ) :   0.9880 B(  1-C ,  2-H ) :   0.9707 B(  1-C ,  3-C ) :   0.9121
B(  1-C ,  7-C ) :   0.9092 B(  3-C ,  4-C ) :   0.8942 B(  3-C , 13-H ) :   1.0063
B(  3-C , 14-H ) :   0.9405 B(  4-C ,  5-C ) :   0.9063 B(  4-C , 15-H ) :   0.9473
B(  4-C , 16-H ) :   1.0012 B(  5-C ,  6-C ) :   0.8994 B(  5-C , 17-H ) :   0.9982
B(  5-C , 18-H ) :   0.9433 B(  6-C ,  7-C ) :   0.9225 B(  6-C , 19-H ) :   0.9561
B(  6-C , 20-H ) :   0.9865 B(  7-C ,  8-H ) :   0.9375 B(  7-C ,  9-C ) :   0.8724
B(  9-C , 21-H ) :   0.9698 B(  9-C , 22-H ) :   0.9712 B(  9-C , 23-H ) :   0.9857

Dispersion correction           -0.007715989
FINAL SINGLE POINT ENERGY      -314.392624394300

DIPOLE MOMENT
-------------

Method             : SCF
Type of density    : Electron Density
Multiplicity       :   1
Irrep              :   0
Energy             :  -314.3956324131317501 Eh
Relativity type    :
Basis              : AO
                                X                 Y                 Z
Electronic contribution:     -1.476142752      -0.462677530       1.162999758
Nuclear contribution   :      1.458485761       0.455184489      -1.116042774
                        -----------------------------------------
Total Dipole Moment    :     -0.017656991      -0.007493041       0.046956984
                        -----------------------------------------
Magnitude (a.u.)       :      0.050723499
Magnitude (Debye)      :      0.128928889

Rotational constants in cm-1:             0.089149             0.064226             0.046329
Rotational constants in MHz :          2672.633102          1925.453827          1388.906702

                             ****ORCA TERMINATED NORMALLY****
TOTAL RUN TIME: 0 days 0 hours 0 minutes 25 seconds 842 msec
