                         Program Version 6.0.0  -   RELEASE  -
|  1> ! r2scan-3c def2/J RI DEFGRID2 scfconv6 printgap
|  2> %output
|  3>     printlevel normal
|  4> end
|  5> %cpcm
|  6>     smd true
|  7>     smdsolvent "water"
|  8> end
|  9> * xyz 0 1
| 10> C 2.3524656412 -0.6539723749 0.170473309
| 11> C 0.8616219518 -0.5049621246 0.467124758
| 12> H 0.6872726675 -0.8561527138 1.4923115154
| 13> C 0.0316963727 -1.3858908512 -0.4688448384
| 14> C -1.4532458346 -1.2982469112 -0.1306730128
| 15> C -1.9317965551 0.1481891931 -0.1968808267
| 16> C -1.1033539722 1.0244943968 0.7381118601
| 17> C 0.3955689577 0.9615883173 0.4186306009
| 18> H 0.9262051053 1.5023919942 1.2129294928
| 19> C 0.716588011 1.6680860135 -0.8981165099
| 20> H 2.9356253615 0.0227246769 0.7911653074
| 21> H 2.6745713899 -1.6722120839 0.3772689755
| 22> H 2.5640334966 -0.4390220572 -0.8736086058
| 23> H 0.1906475266 -1.0789167895 -1.5039699013
| 24> H 0.3689370836 -2.4210993685 -0.3789036149
| 25> H -2.0297160471 -1.9153184154 -0.8231482189
| 26> H -1.6166179406 -1.6857748341 0.8781614585
| 27> H -1.8478247449 0.515100217 -1.2208108471
| 28> H -2.9844067553 0.2043097276 0.0889883813
| 29> H -1.4467362734 2.0594436967 0.6763252039
| 30> H -1.2584249533 0.6851581818 1.7657186878
| 31> H 1.7907560219 1.7627633129 -1.0304402322
| 32> H 0.2891211499 2.6686376549 -0.8902092847
| 33> H 0.3111755646 1.1331537773 -1.7513826048
| 34> *
| 35>
| 36>                          ****END OF INPUT****

CARTESIAN COORDINATES (ANGSTROEM)
---------------------------------
  C      2.352466   -0.653972    0.170473
  C      0.861622   -0.504962    0.467125
  H      0.687273   -0.856153    1.492312
  C      0.031696   -1.385891   -0.468845
  C     -1.453246   -1.298247   -0.130673
  C     -1.931797    0.148189   -0.196881
  C     -1.103354    1.024494    0.738112
  C      0.395569    0.961588    0.418631
  H      0.926205    1.502392    1.212929
  C      0.716588    1.668086   -0.898117
  H      2.935625    0.022725    0.791165
  H      2.674571   -1.672212    0.377269
  H      2.564033   -0.439022   -0.873609
  H      0.190648   -1.078917   -1.503970
  H      0.368937   -2.421099   -0.378904
  H     -2.029716   -1.915318   -0.823148
  H     -1.616618   -1.685775    0.878161
  H     -1.847825    0.515100   -1.220811
  H     -2.984407    0.204310    0.088988
  H     -1.446736    2.059444    0.676325
  H     -1.258425    0.685158    1.765719
  H      1.790756    1.762763   -1.030440
  H      0.289121    2.668638   -0.890209
  H      0.311176    1.133154   -1.751383

 Total Charge           Charge          ....    0
 Multiplicity           Mult            ....    1
 Number of Electrons    NEL             ....   64
 Basis Dimension        Dim             ....  232

ORBITAL ENERGIES
----------------

  NO   OCC          E(Eh)            E(eV)
   0   2.0000     -10.018713      -272.6231
   1   2.0000     -10.018334      -272.6127
   2   2.0000     -10.011078      -272.4153
   3   2.0000     -10.010729      -272.4058
   4   2.0000     -10.009623      -272.3757
   5   2.0000     -10.009209      -272.3644
   6   2.0000     -10.004226      -272.2288
   7   2.0000     -10.003445      -272.2076
   8   2.0000      -0.797017       -21.6879
   9   2.0000      -0.722237       -19.6531
  10   2.0000      -0.712261       -19.3816
  11   2.0000      -0.650021       -17.6880
  12   2.0000      -0.617227       -16.7956
  13   2.0000      -0.555881       -15.1263
  14   2.0000      -0.539498       -14.6805
  15   2.0000      -0.485861       -13.2210
  16   2.0000      -0.439059       -11.9474
  17   2.0000      -0.417415       -11.3584
  18   2.0000      -0.398201       -10.8356
  19   2.0000      -0.393613       -10.7108
  20   2.0000      -0.373263       -10.1570
  21   2.0000      -0.360793        -9.8177
  22   2.0000      -0.347801        -9.4641
  23   2.0000      -0.339088        -9.2271
  24   2.0000      -0.325779        -8.8649
  25   2.0000      -0.313260        -8.5242
  26   2.0000      -0.301715        -8.2101
  27   2.0000      -0.295600        -8.0437
  28   2.0000      -0.285451        -7.7675
  29   2.0000      -0.267462        -7.2780
  30   2.0000      -0.250869        -6.8265
  31   2.0000      -0.248616        -6.7652
  32   0.0000       0.087167         2.3719
  33   0.0000       0.110044         2.9944
  34   0.0000       0.118336         3.2201
  35   0.0000       0.122649         3.3375
  36   0.0000       0.129853         3.5335

MULLIKEN ATOMIC CHARGES
-----------------------
   0 C :   -0.556839
   1 C :   -0.083839
   2 H :    0.165381
   3 C :   -0.365482
   4 C :   -0.307877
   5 C :   -0.307261
   6 C :   -0.362778
   7 C :    0.031759
   8 H :    0.157007
   9 C :   -0.599017
  10 H :    0.159879
  11 H :    0.158644
  12 H :    0.167966
  13 H :    0.169174
  14 H :    0.150551
  15 H :    0.151601
  16 H :    0.152847
  17 H :    0.157832
  18 H :    0.152224
  19 H :    0.154667
  20 H :    0.157827
  21 H :    0.164069
  22 H :    0.157063
  23 H :    0.174602
Sum of atomic charges:   -0.0000000

LOEWDIN ATOMIC CHARGES
----------------------
   0 C :   -0.421999
   1 C :   -0.228714
   2 H :    0.162132
   3 C :   -0.300838
   4 C :   -0.304721
   5 C :   -0.306916
   6 C :   -0.301659
   7 C :   -0.229453
   8 H :    0.160552
   9 C :   -0.423863
  10 H :    0.156316
  11 H :    0.155166
  12 H :    0.156164
  13 H :    0.159155
  14 H :    0.158753
  15 H :    0.154594
  16 H :    0.156064
  17 H :    0.156723
  18 H :    0.155734
  19 H :    0.157285
  20 H :    0.158911
  21 H :    0.157098
  22 H :    0.157349
  23 H :    0.156166

  Mayer bond orders larger than 0.100000
B(  0-C ,  1-C ) :   0.8696 B(  0-C , 10-H ) :   0.9763 B(  0-C , 11-H ) :   0.9753
B(  0-C , 12-H ) :   0.9855 B(  1-C ,  2-H ) :   0.9699 B(  1-C ,  3-C ) :   0.9116
B(  1-C ,  7-C ) :   0.9100 B(  3-C ,  4-C ) :   0.8963 B(  3-C , 13-H ) :   1.0021
B(  3-C , 14-H ) :   0.9406 B(  4-C ,  5-C ) :   0.9055 B(  4-C , 15-H ) :   0.9469
B(  4-C , 16-H ) :   1.0006 B(  5-C ,  6-C ) :   0.8998 B(  5-C , 17-H ) :   0.9947
B(  5-C , 18-H ) :   0.9433 B(  6-C ,  7-C ) :   0.9197 B(  6-C , 19-H ) :   0.9555
B(  6-C , 20-H ) :   0.9856 B(  7-C ,  8-H ) :   0.9380 B(  7-C ,  9-C ) :   0.8681
B(  9-C , 21-H ) :   0.9677 B(  9-C , 22-H ) :   0.9699 B(  9-C , 23-H ) :   0.9815

Dispersion correction           -0.007715989
FINAL SINGLE POINT ENERGY      -314.389852784178

DIPOLE MOMENT
-------------

Method             : SCF
Type of density    : Electron Density
Multiplicity       :   1
Irrep              :   0
Energy             :  -314.3928608030103078 Eh
Relativity type    :
Basis              : AO
                                X                 Y                 Z
Electronic contribution:     -1.478203680      -0.462720468       1.166888292
Nuclear contribution   :      1.458485761       0.455184489      -1.116042774
                        -----------------------------------------
Total Dipole Moment    :     -0.019717919      -0.007535979       0.050845518
                        -----------------------------------------
Magnitude (a.u.)       :      0.055053193
Magnitude (Debye)      :      0.139934096

Rotational constants in cm-1:             0.089149             0.064226             0.046329
Rotational constants in MHz :          2672.633102          1925.453827          1388.906702

                             ****ORCA TERMINATED NORMALLY****
TOTAL RUN TIME: 0 days 0 hours 0 minutes 31 seconds 250 msec
