                         Program Version 6.0.0  -   RELEASE  -
|  1> ! pbe def2-sv(p) def2/J RI DEFGRID1 loosescf d4 GCP(DFT/SV(P)) printgap
|  2> %output
|  3>     printlevel normal
|  4> end
|  5> * xyz 0 1
|  6> C -3.0135873182 0.4953612477 0.7063521195
|  7> C -2.2793941459 -0.4397561787 -0.2542248824
|  8> H -3.0300930945 -0.9336388692 -0.8783902366
|  9> C -1.4700751886 -1.5058537105 0.5133786058
| 10> C 0.0279094962 -1.4383315526 0.21971909
| 11> C 0.5419154008 -0.0174371951 0.4316520801
| 12> H 0.2980040971 0.2865664709 1.4587815988
| 13> C -0.1988970239 0.9579718588 -0.4557137253
| 14> O 0.1328853953 2.1244756019 -0.5652889118
| 15> C -1.3780400529 0.3829784912 -1.1861912863
| 16> C 2.0664386333 0.1713881308 0.2684848261
| 17> C 2.8449154373 -0.52333935 1.3823615353
| 18> C 2.5557608274 -0.297956551 -1.1001847288
| 19> H -3.6193140212 1.2115780151 0.1554729825
| 20> H -3.6685285389 -0.0718651646 1.3631210347
| 21> H -2.3047962728 1.0525288295 1.3162477369
| 22> H -1.6202829487 -1.3638533231 1.5848724386
| 23> H -1.8345190308 -2.5028574098 0.2643784103
| 24> H 0.5513862964 -2.1218950485 0.8879560882
| 25> H 0.2204194009 -1.7584876561 -0.8037443479
| 26> H -1.9416367679 1.192022382 -1.6537295354
| 27> H -0.9859508229 -0.2587054498 -1.9782724831
| 28> H 2.2460353167 1.2510833549 0.3399181889
| 29> H 3.9022830926 -0.2859357569 1.2961845016
| 30> H 2.7346010179 -1.6025795741 1.3175533299
| 31> H 2.4996249816 -0.1944687412 2.3594912773
| 32> H 1.9904247511 0.185832572 -1.8945121279
| 33> H 2.4602058848 -1.3757218663 -1.200863221
| 34> H 3.6041648489 -0.037981085 -1.2249727913
| 35> *
| 36>
| 37>                          ****END OF INPUT****

CARTESIAN COORDINATES (ANGSTROEM)
---------------------------------
  C     -3.013587    0.495361    0.706352
  C     -2.279394   -0.439756   -0.254225
  H     -3.030093   -0.933639   -0.878390
  C     -1.470075   -1.505854    0.513379
  C      0.027909   -1.438332    0.219719
  C      0.541915   -0.017437    0.431652
  H      0.298004    0.286566    1.458782
  C     -0.198897    0.957972   -0.455714
  O      0.132885    2.124476   -0.565289
  C     -1.378040    0.382978   -1.186191
  C      2.066439    0.171388    0.268485
  C      2.844915   -0.523339    1.382362
  C      2.555761   -0.297957   -1.100185
  H     -3.619314    1.211578    0.155473
  H     -3.668529   -0.071865    1.363121
  H     -2.304796    1.052529    1.316248
  H     -1.620283   -1.363853    1.584872
  H     -1.834519   -2.502857    0.264378
  H      0.551386   -2.121895    0.887956
  H      0.220419   -1.758488   -0.803744
  H     -1.941637    1.192022   -1.653730
  H     -0.985951   -0.258705   -1.978272
  H      2.246035    1.251083    0.339918
  H      3.902283   -0.285936    1.296185
  H      2.734601   -1.602580    1.317553
  H      2.499625   -0.194469    2.359491
  H      1.990425    0.185833   -1.894512
  H      2.460206   -1.375722   -1.200863
  H      3.604165   -0.037981   -1.224973

 Total Charge           Charge          ....    0
 Multiplicity           Mult            ....    1
 Number of Electrons    NEL             ....   86
 Basis Dimension        Dim             ....  190

ORBITAL ENERGIES
----------------

  NO   OCC          E(Eh)            E(eV)
   0   2.0000     -18.737604      -509.8761
   1   2.0000      -9.967495      -271.2293
   2   2.0000      -9.905491      -269.5421
   3   2.0000      -9.897755      -269.3316
   4   2.0000      -9.896175      -269.2886
   5   2.0000      -9.891767      -269.1687
   6   2.0000      -9.891097      -269.1504
   7   2.0000      -9.890845      -269.1436
   8   2.0000      -9.881063      -268.8774
   9   2.0000      -9.875913      -268.7373
  10   2.0000      -9.875521      -268.7266
  11   2.0000      -0.931974       -25.3603
  12   2.0000      -0.769214       -20.9314
  13   2.0000      -0.729719       -19.8567
  14   2.0000      -0.677120       -18.4254
  15   2.0000      -0.653256       -17.7760
  16   2.0000      -0.616574       -16.7778
  17   2.0000      -0.613184       -16.6856
  18   2.0000      -0.560532       -15.2529
  19   2.0000      -0.520667       -14.1681
  20   2.0000      -0.499631       -13.5957
  21   2.0000      -0.460612       -12.5339
  22   2.0000      -0.438611       -11.9352
  23   2.0000      -0.424359       -11.5474
  24   2.0000      -0.416701       -11.3390
  25   2.0000      -0.394300       -10.7294
  26   2.0000      -0.391718       -10.6592
  27   2.0000      -0.383308       -10.4304
  28   2.0000      -0.369369       -10.0510
  29   2.0000      -0.357690        -9.7332
  30   2.0000      -0.351377        -9.5615
  31   2.0000      -0.346954        -9.4411
  32   2.0000      -0.338285        -9.2052
  33   2.0000      -0.332968        -9.0605
  34   2.0000      -0.318921        -8.6783
  35   2.0000      -0.312801        -8.5117
  36   2.0000      -0.301691        -8.2094
  37   2.0000      -0.295517        -8.0414
  38   2.0000      -0.290544        -7.9061
  39   2.0000      -0.281593        -7.6625
  40   2.0000      -0.272267        -7.4087
  41   2.0000      -0.267066        -7.2672
  42   2.0000      -0.189946        -5.1687
  43   0.0000      -0.052081        -1.4172
  44   0.0000       0.022521         0.6128
  45   0.0000       0.044867         1.2209
  46   0.0000       0.046708         1.2710
  47   0.0000       0.063029         1.7151

MULLIKEN ATOMIC CHARGES
-----------------------
   0 C :   -0.257714
   1 C :   -0.206908
   2 H :    0.071958
   3 C :   -0.083372
   4 C :   -0.118359
   5 C :   -0.168728
   6 H :    0.087339
   7 C :   -0.023015
   8 O :   -0.167362
   9 C :   -0.025547
  10 C :   -0.130130
  11 C :   -0.233599
  12 C :   -0.267268
  13 H :    0.103022
  14 H :    0.107410
  15 H :    0.114825
  16 H :    0.072395
  17 H :    0.081486
  18 H :    0.088625
  19 H :    0.081549
  20 H :    0.084537
  21 H :    0.095439
  22 H :    0.086973
  23 H :    0.100300
  24 H :    0.097556
  25 H :    0.095004
  26 H :    0.110274
  27 H :    0.100685
  28 H :    0.102625
Sum of atomic charges:   -0.0000000

LOEWDIN ATOMIC CHARGES
----------------------
   0 C :   -0.330088
   1 C :   -0.147521
   2 H :    0.120152
   3 C :   -0.216148
   4 C :   -0.220219
   5 C :   -0.163042
   6 H :    0.138767
   7 C :    0.053761
   8 O :   -0.131431
   9 C :   -0.237042
  10 C :   -0.142830
  11 C :   -0.329065
  12 C :   -0.330983
  13 H :    0.120353
  14 H :    0.119762
  15 H :    0.119010
  16 H :    0.117541
  17 H :    0.120927
  18 H :    0.121550
  19 H :    0.117926
  20 H :    0.128794
  21 H :    0.138505
  22 H :    0.123357
  23 H :    0.120626
  24 H :    0.113986
  25 H :    0.116850
  26 H :    0.119446
  27 H :    0.115087
  28 H :    0.121969

  Mayer bond orders larger than 0.100000
B(  0-C ,  1-C ) :   1.1058 B(  0-C , 13-H ) :   0.9472 B(  0-C , 14-H ) :   0.9471
B(  0-C , 15-H ) :   0.9443 B(  1-C ,  2-H ) :   0.8927 B(  1-C ,  3-C ) :   1.0543
B(  1-C ,  9-C ) :   1.1109 B(  3-C ,  4-C ) :   1.1882 B(  3-C , 16-H ) :   0.9128
B(  3-C , 17-H ) :   0.9083 B(  4-C ,  5-C ) :   1.1025 B(  4-C , 18-H ) :   0.9048
B(  4-C , 19-H ) :   0.8745 B(  5-C ,  6-H ) :   0.8497 B(  5-C ,  7-C ) :   0.9162
B(  5-C , 10-C ) :   1.0469 B(  7-C ,  8-O ) :   2.1663 B(  7-C ,  9-C ) :   1.0728
B(  9-C , 20-H ) :   0.8916 B(  9-C , 21-H ) :   0.8573 B( 10-C , 11-C ) :   1.1189
B( 10-C , 12-C ) :   1.1108 B( 10-C , 22-H ) :   0.8848 B( 11-C , 23-H ) :   0.9487
B( 11-C , 24-H ) :   0.9408 B( 11-C , 25-H ) :   0.9485 B( 12-C , 26-H ) :   0.9462
B( 12-C , 27-H ) :   0.9401 B( 12-C , 28-H ) :   0.9484

Dispersion correction           -0.030573824
FINAL SINGLE POINT ENERGY      -466.030359220980

DIPOLE MOMENT
-------------

Method             : SCF
Type of density    : Electron Density
Multiplicity       :   1
Irrep              :   0
Energy             :  -466.1264054247482136 Eh
Relativity type    :
Basis              : AO
                                X                 Y                 Z
Electronic contribution:     -1.687007288       5.849697958      -2.404904585
Nuclear contribution   :      1.411122073      -6.843718794       2.533567596
                        -----------------------------------------
Total Dipole Moment    :     -0.275885215      -0.994020836       0.128663011
                        -----------------------------------------
Magnitude (a.u.)       :      1.039588498
Magnitude (Debye)      :      2.642423965

Rotational constants in cm-1:             0.059837             0.025997             0.022216
Rotational constants in MHz :          1793.878543           779.384935           666.005022

                             ****ORCA TERMINATED NORMALLY****
TOTAL RUN TIME: 0 days 0 hours 0 minutes 16 seconds 183 msec
