                         Program Version 6.0.0  -   RELEASE  -
|  1> ! wb97x-v def2-tzvp def2/J RIJCOSX DEFGRID2 scfconv7 GCP(DFT/TZ) printgap
|  2> %output
|  3>     printlevel normal
|  4> end
|  5> * xyz 0 1
|  6> C 1.9467689697995758 -0.1411973164452367 -0.9832235780816401
|  7> O 1.1175184683851733 -0.31571676366053625 0.20913207761027458
|  8> S -0.4828534949624809 -0.0587500987175126 0.03458961840201786
|  9> O -1.0604797129981323 -0.5923788648591353 1.2741751645172428
| 10> O -0.9311540546472423 -0.5994412249054603 -1.2585484829503117
| 11> C -0.6263722933543553 1.7239418960835402 0.01659253504712672
| 12> H 1.6637544981877077 -0.8661254885289017 -1.7483480912394525
| 13> H 2.961966272841298 -0.3334686436375476 -0.6367978628585271
| 14> H 1.8715750063679941 0.8816018929695052 -1.3614644806671883
| 15> H -0.21004962593722587 2.1110477836631287 0.9487701664570183
| 16> H -0.09283288935059757 2.114439812331636 -0.85296062844957
| 17> H -1.6930462527094534 1.9527878456617194 -0.059345065925725166
| 18> *
| 19>
| 20>                          ****END OF INPUT****

CARTESIAN COORDINATES (ANGSTROEM)
---------------------------------
  C      1.946769   -0.141197   -0.983224
  O      1.117518   -0.315717    0.209132
  S     -0.482853   -0.058750    0.034590
  O     -1.060480   -0.592379    1.274175
  O     -0.931154   -0.599441   -1.258548
  C     -0.626372    1.723942    0.016593
  H      1.663754   -0.866125   -1.748348
  H      2.961966   -0.333469   -0.636798
  H      1.871575    0.881602   -1.361464
  H     -0.210050    2.111048    0.948770
  H     -0.092833    2.114440   -0.852961
  H     -1.693046    1.952788   -0.059345

 Total Charge           Charge          ....    0
 Multiplicity           Mult            ....    1
 Number of Electrons    NEL             ....   58
 Basis Dimension        Dim             ....  228

ORBITAL ENERGIES
----------------

  NO   OCC          E(Eh)            E(eV)
   0   2.0000     -94.352976     -2567.4750
   1   2.0000     -21.739127      -591.5517
   2   2.0000     -21.676875      -589.8578
   3   2.0000     -21.671587      -589.7139
   4   2.0000     -12.126639      -329.9826
   5   2.0000     -12.107071      -329.4501
   6   2.0000      -9.830383      -267.4983
   7   2.0000      -7.812735      -212.5953
   8   2.0000      -7.810184      -212.5259
   9   2.0000      -7.809793      -212.5153
  10   2.0000      -1.774695       -48.2919
  11   2.0000      -1.708383       -46.4875
  12   2.0000      -1.680611       -45.7317
  13   2.0000      -1.329714       -36.1833
  14   2.0000      -1.262420       -34.3522
  15   2.0000      -1.170381       -31.8477
  16   2.0000      -1.087505       -29.5925
  17   2.0000      -1.062497       -28.9120
  18   2.0000      -1.029867       -28.0241
  19   2.0000      -0.999105       -27.1870
  20   2.0000      -0.975160       -26.5354
  21   2.0000      -0.927097       -25.2276
  22   2.0000      -0.913923       -24.8691
  23   2.0000      -0.898262       -24.4429
  24   2.0000      -0.887378       -24.1468
  25   2.0000      -0.878566       -23.9070
  26   2.0000      -0.874900       -23.8072
  27   2.0000      -0.852882       -23.2081
  28   2.0000      -0.846623       -23.0378
  29   0.0000      -0.358362        -9.7515
  30   0.0000      -0.284343        -7.7374
  31   0.0000      -0.232296        -6.3211
  32   0.0000      -0.217809        -5.9269
  33   0.0000      -0.177795        -4.8380

MULLIKEN ATOMIC CHARGES
-----------------------
   0 C :   -0.196926
   1 O :   -0.258394
   2 S :    0.814616
   3 O :   -0.431384
   4 O :   -0.447616
   5 C :   -0.360941
   6 H :    0.158853
   7 H :    0.142422
   8 H :    0.109948
   9 H :    0.163142
  10 H :    0.141412
  11 H :    0.164867
Sum of atomic charges:    0.0000000

LOEWDIN ATOMIC CHARGES
----------------------
   0 C :   -0.322203
   1 O :   -0.031146
   2 S :    0.650248
   3 O :   -0.295723
   4 O :   -0.305762
   5 C :   -0.402148
   6 H :    0.112167
   7 H :    0.116002
   8 H :    0.099460
   9 H :    0.127278
  10 H :    0.120024
  11 H :    0.131802

  Mayer bond orders larger than 0.100000
B(  0-C ,  1-O ) :   0.9007 B(  0-C ,  6-H ) :   0.9709 B(  0-C ,  7-H ) :   0.9691
B(  0-C ,  8-H ) :   0.9732 B(  1-O ,  2-S ) :   1.0719 B(  2-S ,  3-O ) :   1.9487
B(  2-S ,  4-O ) :   1.8629 B(  2-S ,  5-C ) :   0.9081 B(  5-C ,  9-H ) :   0.9485
B(  5-C , 10-H ) :   0.9475 B(  5-C , 11-H ) :   0.9485

FINAL SINGLE POINT ENERGY      -703.639903390986

DIPOLE MOMENT
-------------

Method             : SCF
Type of density    : Electron Density
Multiplicity       :   1
Irrep              :   0
Energy             :  -703.6494273555858854 Eh
Relativity type    :
Basis              : AO
                                X                 Y                 Z
Electronic contribution:     -3.570603495      -3.951921505       2.340409356
Nuclear contribution   :      4.688930944       5.533000827      -2.932838319
                        -----------------------------------------
Total Dipole Moment    :      1.118327449       1.581079322      -0.592428963
                        -----------------------------------------
Magnitude (a.u.)       :      2.025201269
Magnitude (Debye)      :      5.147652536

Rotational constants in cm-1:             0.141780             0.085634             0.082502
Rotational constants in MHz :          4250.442933          2567.254054          2473.338631

                             ****ORCA TERMINATED NORMALLY****
TOTAL RUN TIME: 0 days 0 hours 1 minutes 12 seconds 353 msec
