                         Program Version 6.0.0  -   RELEASE  -
|  1> ! wb97x-v def2-tzvp def2/J RIJCOSX DEFGRID2 scfconv7 GCP(DFT/TZ) printgap
|  2> %output
|  3>     printlevel normal
|  4> end
|  5> %cpcm
|  6>     smd true
|  7>     smdsolvent "water"
|  8> end
|  9> * xyz 0 1
| 10> C 1.9467689697995758 -0.1411973164452367 -0.9832235780816401
| 11> O 1.1175184683851733 -0.31571676366053625 0.20913207761027458
| 12> S -0.4828534949624809 -0.0587500987175126 0.03458961840201786
| 13> O -1.0604797129981323 -0.5923788648591353 1.2741751645172428
| 14> O -0.9311540546472423 -0.5994412249054603 -1.2585484829503117
| 15> C -0.6263722933543553 1.7239418960835402 0.01659253504712672
| 16> H 1.6637544981877077 -0.8661254885289017 -1.7483480912394525
| 17> H 2.961966272841298 -0.3334686436375476 -0.6367978628585271
| 18> H 1.8715750063679941 0.8816018929695052 -1.3614644806671883
| 19> H -0.21004962593722587 2.1110477836631287 0.9487701664570183
| 20> H -0.09283288935059757 2.114439812331636 -0.85296062844957
| 21> H -1.6930462527094534 1.9527878456617194 -0.059345065925725166
| 22> *
| 23>
| 24>                          ****END OF INPUT****

CARTESIAN COORDINATES (ANGSTROEM)
---------------------------------
  C      1.946769   -0.141197   -0.983224
  O      1.117518   -0.315717    0.209132
  S     -0.482853   -0.058750    0.034590
  O     -1.060480   -0.592379    1.274175
  O     -0.931154   -0.599441   -1.258548
  C     -0.626372    1.723942    0.016593
  H      1.663754   -0.866125   -1.748348
  H      2.961966   -0.333469   -0.636798
  H      1.871575    0.881602   -1.361464
  H     -0.210050    2.111048    0.948770
  H     -0.092833    2.114440   -0.852961
  H     -1.693046    1.952788   -0.059345

 Total Charge           Charge          ....    0
 Multiplicity           Mult            ....    1
 Number of Electrons    NEL             ....   58
 Basis Dimension        Dim             ....  228

ORBITAL ENERGIES
----------------

  NO   OCC          E(Eh)            E(eV)
   0   2.0000     -94.361251     -2567.7002
   1   2.0000     -21.737105      -591.4967
   2   2.0000     -21.689611      -590.2043
   3   2.0000     -21.687929      -590.1586
   4   2.0000     -12.103593      -329.3555
   5   2.0000     -12.085478      -328.8626
   6   2.0000      -9.838908      -267.7303
   7   2.0000      -7.821055      -212.8217
   8   2.0000      -7.818741      -212.7587
   9   2.0000      -7.818380      -212.7489
  10   2.0000      -1.783999       -48.5451
  11   2.0000      -1.712683       -46.6045
  12   2.0000      -1.697801       -46.1995
  13   2.0000      -1.325382       -36.0655
  14   2.0000      -1.247563       -33.9479
  15   2.0000      -1.167420       -31.7671
  16   2.0000      -1.090211       -29.6661
  17   2.0000      -1.079122       -29.3644
  18   2.0000      -1.027595       -27.9623
  19   2.0000      -0.994287       -27.0559
  20   2.0000      -0.975337       -26.5403
  21   2.0000      -0.941942       -25.6315
  22   2.0000      -0.927012       -25.2253
  23   2.0000      -0.915891       -24.9227
  24   2.0000      -0.877669       -23.8826
  25   2.0000      -0.862468       -23.4689
  26   2.0000      -0.861684       -23.4476
  27   2.0000      -0.835914       -22.7464
  28   2.0000      -0.827215       -22.5097
  29   0.0000      -0.361660        -9.8413
  30   0.0000      -0.291779        -7.9397
  31   0.0000      -0.231712        -6.3052
  32   0.0000      -0.215147        -5.8544
  33   0.0000      -0.163978        -4.4621

MULLIKEN ATOMIC CHARGES
-----------------------
   0 C :   -0.221432
   1 O :   -0.291209
   2 S :    0.865315
   3 O :   -0.520214
   4 O :   -0.517563
   5 C :   -0.383379
   6 H :    0.161293
   7 H :    0.167411
   8 H :    0.162888
   9 H :    0.190931
  10 H :    0.192152
  11 H :    0.193807
Sum of atomic charges:    0.0000000

LOEWDIN ATOMIC CHARGES
----------------------
   0 C :   -0.310865
   1 O :   -0.043876
   2 S :    0.666791
   3 O :   -0.354356
   4 O :   -0.349292
   5 C :   -0.382302
   6 H :    0.113492
   7 H :    0.125054
   8 H :    0.115664
   9 H :    0.139165
  10 H :    0.138694
  11 H :    0.141832

  Mayer bond orders larger than 0.100000
B(  0-C ,  1-O ) :   0.8613 B(  0-C ,  6-H ) :   0.9687 B(  0-C ,  7-H ) :   0.9616
B(  0-C ,  8-H ) :   0.9664 B(  1-O ,  2-S ) :   1.1004 B(  2-S ,  3-O ) :   1.8600
B(  2-S ,  4-O ) :   1.8103 B(  2-S ,  5-C ) :   0.9340 B(  5-C ,  9-H ) :   0.9336
B(  5-C , 10-H ) :   0.9301 B(  5-C , 11-H ) :   0.9299

FINAL SINGLE POINT ENERGY      -703.658882312247

DIPOLE MOMENT
-------------

Method             : SCF
Type of density    : Electron Density
Multiplicity       :   1
Irrep              :   0
Energy             :  -703.6684062768472359 Eh
Relativity type    :
Basis              : AO
                                X                 Y                 Z
Electronic contribution:     -3.209169613      -3.343459557       2.125696602
Nuclear contribution   :      4.688930944       5.533000827      -2.932838319
                        -----------------------------------------
Total Dipole Moment    :      1.479761332       2.189541271      -0.807141717
                        -----------------------------------------
Magnitude (a.u.)       :      2.763197844
Magnitude (Debye)      :      7.023490753

Rotational constants in cm-1:             0.141780             0.085634             0.082502
Rotational constants in MHz :          4250.442933          2567.254054          2473.338631

                             ****ORCA TERMINATED NORMALLY****
TOTAL RUN TIME: 0 days 0 hours 1 minutes 18 seconds 475 msec
