                         Program Version 6.0.0  -   RELEASE  -
|  1> ! r2scan-3c def2/J RI DEFGRID2 scfconv6 printgap
|  2> %output
|  3>     printlevel normal
|  4> end
|  5> * xyz 0 1
|  6> C 2.4834171404 -0.478848174 0.2033910637
|  7> C 1.2461543924 0.230824481 -0.3396016504
|  8> C -0.0237560485 -0.1960328386 0.3857920041
|  9> H 0.0665108122 -0.0064745589 1.4577557907
| 10> C -0.4310288989 -1.6325526494 0.1262116312
| 11> Cl -1.3758737434 0.890807697 -0.1567824936
| 12> H 2.4433450411 -1.5448855985 0.0016586249
| 13> H 2.5685538838 -0.3290469024 1.2766875773
| 14> H 3.372872488 -0.0753670768 -0.2720773933
| 15> H 1.1369474613 0.023753334 -1.4056276715
| 16> H 1.37084656 1.3088082084 -0.2196436766
| 17> H 0.3180891518 -2.3004810078 0.5417111581
| 18> H -1.386128676 -1.8481323868 0.5978432181
| 19> H -0.5192863128 -1.816006914 -0.9416902466
| 20> *
| 21>
| 22>                          ****END OF INPUT****

CARTESIAN COORDINATES (ANGSTROEM)
---------------------------------
  C      2.483417   -0.478848    0.203391
  C      1.246154    0.230824   -0.339602
  C     -0.023756   -0.196033    0.385792
  H      0.066511   -0.006475    1.457756
  C     -0.431029   -1.632553    0.126212
  Cl    -1.375874    0.890808   -0.156782
  H      2.443345   -1.544886    0.001659
  H      2.568554   -0.329047    1.276688
  H      3.372872   -0.075367   -0.272077
  H      1.136947    0.023753   -1.405628
  H      1.370847    1.308808   -0.219644
  H      0.318089   -2.300481    0.541711
  H     -1.386129   -1.848132    0.597843
  H     -0.519286   -1.816007   -0.941690

 Total Charge           Charge          ....    0
 Multiplicity           Mult            ....    1
 Number of Electrons    NEL             ....   50
 Basis Dimension        Dim             ....  148

ORBITAL ENERGIES
----------------

  NO   OCC          E(Eh)            E(eV)
   0   2.0000    -101.191543     -2753.5619
   1   2.0000     -10.097971      -274.7798
   2   2.0000     -10.040236      -273.2087
   3   2.0000     -10.033447      -273.0240
   4   2.0000     -10.030632      -272.9474
   5   2.0000      -9.347728      -254.3646
   6   2.0000      -7.093696      -193.0293
   7   2.0000      -7.083963      -192.7644
   8   2.0000      -7.083834      -192.7609
   9   2.0000      -0.826716       -22.4961
  10   2.0000      -0.742600       -20.2072
  11   2.0000      -0.695791       -18.9334
  12   2.0000      -0.616688       -16.7809
  13   2.0000      -0.546757       -14.8780
  14   2.0000      -0.450425       -12.2567
  15   2.0000      -0.435021       -11.8375
  16   2.0000      -0.411715       -11.2033
  17   2.0000      -0.381504       -10.3812
  18   2.0000      -0.369789       -10.0625
  19   2.0000      -0.354489        -9.6461
  20   2.0000      -0.325229        -8.8499
  21   2.0000      -0.322849        -8.7852
  22   2.0000      -0.314310        -8.5528
  23   2.0000      -0.261135        -7.1058
  24   2.0000      -0.259613        -7.0644
  25   0.0000       0.006735         0.1833
  26   0.0000       0.086717         2.3597
  27   0.0000       0.111506         3.0342
  28   0.0000       0.118746         3.2312
  29   0.0000       0.126341         3.4379

MULLIKEN ATOMIC CHARGES
-----------------------
   0 C :   -0.490457
   1 C :   -0.239942
   2 C :    0.054344
   3 H :    0.159105
   4 C :   -0.487743
   5 Cl:   -0.223095
   6 H :    0.149990
   7 H :    0.146144
   8 H :    0.153300
   9 H :    0.147541
  10 H :    0.157794
  11 H :    0.151011
  12 H :    0.162690
  13 H :    0.159319
Sum of atomic charges:   -0.0000000

LOEWDIN ATOMIC CHARGES
----------------------
   0 C :   -0.420314
   1 C :   -0.329692
   2 C :   -0.255642
   3 H :    0.159804
   4 C :   -0.425909
   5 Cl:    0.007294
   6 H :    0.150557
   7 H :    0.152314
   8 H :    0.156347
   9 H :    0.160706
  10 H :    0.162433
  11 H :    0.158202
  12 H :    0.162371
  13 H :    0.161528

  Mayer bond orders larger than 0.100000
B(  0-C ,  1-C ) :   0.8821 B(  0-C ,  6-H ) :   0.9805 B(  0-C ,  7-H ) :   0.9787
B(  0-C ,  8-H ) :   0.9653 B(  1-C ,  2-C ) :   0.9237 B(  1-C ,  9-H ) :   0.9713
B(  1-C , 10-H ) :   0.9624 B(  2-C ,  3-H ) :   0.9507 B(  2-C ,  4-C ) :   0.9146
B(  2-C ,  5-Cl) :   0.9302 B(  4-C , 11-H ) :   0.9637 B(  4-C , 12-H ) :   0.9622
B(  4-C , 13-H ) :   0.9764

Dispersion correction           -0.003407735
FINAL SINGLE POINT ENERGY      -617.974155366261

DIPOLE MOMENT
-------------

Method             : SCF
Type of density    : Electron Density
Multiplicity       :   1
Irrep              :   0
Energy             :  -617.9793976187399949 Eh
Relativity type    :
Basis              : AO
                                X                 Y                 Z
Electronic contribution:     -9.908696938       6.826857039      -0.983591712
Nuclear contribution   :     10.638960841      -7.376130438       1.182953035
                        -----------------------------------------
Total Dipole Moment    :      0.730263904      -0.549273399       0.199361324
                        -----------------------------------------
Magnitude (a.u.)       :      0.935270855
Magnitude (Debye)      :      2.377269590

Rotational constants in cm-1:             0.224027             0.076906             0.061508
Rotational constants in MHz :          6716.152545          2305.585391          1843.950667

                             ****ORCA TERMINATED NORMALLY****
TOTAL RUN TIME: 0 days 0 hours 0 minutes 12 seconds 280 msec
