                         Program Version 6.0.0  -   RELEASE  -
|  1> ! r2scan-3c def2/J RI DEFGRID2 scfconv6 printgap
|  2> %output
|  3>     printlevel normal
|  4> end
|  5> %cpcm
|  6>     smd true
|  7>     smdsolvent "water"
|  8> end
|  9> * xyz 0 1
| 10> C 2.4834171404 -0.478848174 0.2033910637
| 11> C 1.2461543924 0.230824481 -0.3396016504
| 12> C -0.0237560485 -0.1960328386 0.3857920041
| 13> H 0.0665108122 -0.0064745589 1.4577557907
| 14> C -0.4310288989 -1.6325526494 0.1262116312
| 15> Cl -1.3758737434 0.890807697 -0.1567824936
| 16> H 2.4433450411 -1.5448855985 0.0016586249
| 17> H 2.5685538838 -0.3290469024 1.2766875773
| 18> H 3.372872488 -0.0753670768 -0.2720773933
| 19> H 1.1369474613 0.023753334 -1.4056276715
| 20> H 1.37084656 1.3088082084 -0.2196436766
| 21> H 0.3180891518 -2.3004810078 0.5417111581
| 22> H -1.386128676 -1.8481323868 0.5978432181
| 23> H -0.5192863128 -1.816006914 -0.9416902466
| 24> *
| 25>
| 26>                          ****END OF INPUT****

CARTESIAN COORDINATES (ANGSTROEM)
---------------------------------
  C      2.483417   -0.478848    0.203391
  C      1.246154    0.230824   -0.339602
  C     -0.023756   -0.196033    0.385792
  H      0.066511   -0.006475    1.457756
  C     -0.431029   -1.632553    0.126212
  Cl    -1.375874    0.890808   -0.156782
  H      2.443345   -1.544886    0.001659
  H      2.568554   -0.329047    1.276688
  H      3.372872   -0.075367   -0.272077
  H      1.136947    0.023753   -1.405628
  H      1.370847    1.308808   -0.219644
  H      0.318089   -2.300481    0.541711
  H     -1.386129   -1.848132    0.597843
  H     -0.519286   -1.816007   -0.941690

 Total Charge           Charge          ....    0
 Multiplicity           Mult            ....    1
 Number of Electrons    NEL             ....   50
 Basis Dimension        Dim             ....  148

ORBITAL ENERGIES
----------------

  NO   OCC          E(Eh)            E(eV)
   0   2.0000    -101.193363     -2753.6114
   1   2.0000     -10.089751      -274.5561
   2   2.0000     -10.027799      -272.8703
   3   2.0000     -10.019229      -272.6371
   4   2.0000     -10.013578      -272.4833
   5   2.0000      -9.350013      -254.4268
   6   2.0000      -7.095566      -193.0802
   7   2.0000      -7.086413      -192.8311
   8   2.0000      -7.086278      -192.8274
   9   2.0000      -0.822174       -22.3725
  10   2.0000      -0.733748       -19.9663
  11   2.0000      -0.684068       -18.6144
  12   2.0000      -0.603911       -16.4332
  13   2.0000      -0.534852       -14.5541
  14   2.0000      -0.437619       -11.9082
  15   2.0000      -0.425296       -11.5729
  16   2.0000      -0.398383       -10.8406
  17   2.0000      -0.369957       -10.0670
  18   2.0000      -0.354649        -9.6505
  19   2.0000      -0.341019        -9.2796
  20   2.0000      -0.316856        -8.6221
  21   2.0000      -0.309755        -8.4289
  22   2.0000      -0.300583        -8.1793
  23   2.0000      -0.263246        -7.1633
  24   2.0000      -0.261219        -7.1081
  25   0.0000       0.009788         0.2663
  26   0.0000       0.101415         2.7596
  27   0.0000       0.123641         3.3644
  28   0.0000       0.132785         3.6133
  29   0.0000       0.143577         3.9069

MULLIKEN ATOMIC CHARGES
-----------------------
   0 C :   -0.527524
   1 C :   -0.248478
   2 C :    0.066685
   3 H :    0.185397
   4 C :   -0.524490
   5 Cl:   -0.273838
   6 H :    0.164307
   7 H :    0.160441
   8 H :    0.163713
   9 H :    0.158266
  10 H :    0.160826
  11 H :    0.174723
  12 H :    0.169071
  13 H :    0.170900
Sum of atomic charges:   -0.0000000

LOEWDIN ATOMIC CHARGES
----------------------
   0 C :   -0.423919
   1 C :   -0.330658
   2 C :   -0.249167
   3 H :    0.169367
   4 C :   -0.430070
   5 Cl:   -0.026886
   6 H :    0.155336
   7 H :    0.156813
   8 H :    0.158817
   9 H :    0.162904
  10 H :    0.162436
  11 H :    0.168490
  12 H :    0.162805
  13 H :    0.163732

  Mayer bond orders larger than 0.100000
B(  0-C ,  1-C ) :   0.8874 B(  0-C ,  6-H ) :   0.9766 B(  0-C ,  7-H ) :   0.9761
B(  0-C ,  8-H ) :   0.9630 B(  1-C ,  2-C ) :   0.9189 B(  1-C ,  9-H ) :   0.9700
B(  1-C , 10-H ) :   0.9616 B(  2-C ,  3-H ) :   0.9450 B(  2-C ,  4-C ) :   0.9115
B(  2-C ,  5-Cl) :   0.8776 B(  4-C , 11-H ) :   0.9561 B(  4-C , 12-H ) :   0.9611
B(  4-C , 13-H ) :   0.9741

Dispersion correction           -0.003407735
FINAL SINGLE POINT ENERGY      -617.975792917929

DIPOLE MOMENT
-------------

Method             : SCF
Type of density    : Electron Density
Multiplicity       :   1
Irrep              :   0
Energy             :  -617.9810351704079494 Eh
Relativity type    :
Basis              : AO
                                X                 Y                 Z
Electronic contribution:     -9.682967711       6.636873435      -0.877201553
Nuclear contribution   :     10.638960841      -7.376130438       1.182953035
                        -----------------------------------------
Total Dipole Moment    :      0.955993130      -0.739257003       0.305751483
                        -----------------------------------------
Magnitude (a.u.)       :      1.246558362
Magnitude (Debye)      :      3.168499552

Rotational constants in cm-1:             0.224027             0.076906             0.061508
Rotational constants in MHz :          6716.152545          2305.585391          1843.950667

                             ****ORCA TERMINATED NORMALLY****
TOTAL RUN TIME: 0 days 0 hours 0 minutes 16 seconds 553 msec
