                         Program Version 6.0.0  -   RELEASE  -
|  1> ! pbe def2-sv(p) def2/J RI DEFGRID1 loosescf d4 GCP(DFT/SV(P)) printgap
|  2> %output
|  3>     printlevel normal
|  4> end
|  5> * xyz 0 1
|  6> C 1.4756628927 0.1268416752 1.1664493275
|  7> C 0.722001206 -0.1523968634 -0.1008598082
|  8> C 1.3239211779 -0.6664325583 -1.168295437
|  9> C -0.7220102127 0.1523756337 -0.1008509262
| 10> C -1.3239324892 0.6664140996 -1.1682751802
| 11> C -1.4756550736 -0.1268372243 1.166479863
| 12> H 1.2964992351 1.1489593809 1.4956559724
| 13> H 2.5423151634 -0.0110325665 1.0115118641
| 14> H 1.1518198851 -0.5455798162 1.9587908175
| 15> H 0.7839140847 -0.9001911534 -2.0694991778
| 16> H 2.3786543258 -0.8845368168 -1.1730576639
| 17> H -2.3785933988 0.8848198001 -1.1729652866
| 18> H -0.7838684027 0.9003179731 -2.0693984172
| 19> H -1.2964837602 -1.1489448645 1.4956963174
| 20> H -1.1517927537 0.5455730218 1.9588209664
| 21> H -2.5423154317 0.0110349619 1.0115969104
| 22> *
| 23>
| 24>                          ****END OF INPUT****

CARTESIAN COORDINATES (ANGSTROEM)
---------------------------------
  C      1.475663    0.126842    1.166449
  C      0.722001   -0.152397   -0.100860
  C      1.323921   -0.666433   -1.168295
  C     -0.722010    0.152376   -0.100851
  C     -1.323932    0.666414   -1.168275
  C     -1.475655   -0.126837    1.166480
  H      1.296499    1.148959    1.495656
  H      2.542315   -0.011033    1.011512
  H      1.151820   -0.545580    1.958791
  H      0.783914   -0.900191   -2.069499
  H      2.378654   -0.884537   -1.173058
  H     -2.378593    0.884820   -1.172965
  H     -0.783868    0.900318   -2.069398
  H     -1.296484   -1.148945    1.495696
  H     -1.151793    0.545573    1.958821
  H     -2.542315    0.011035    1.011597

 Total Charge           Charge          ....    0
 Multiplicity           Mult            ....    1
 Number of Electrons    NEL             ....   46
 Basis Dimension        Dim             ....  104

ORBITAL ENERGIES
----------------

  NO   OCC          E(Eh)            E(eV)
   0   2.0000      -9.899606      -269.3820
   1   2.0000      -9.899555      -269.3806
   2   2.0000      -9.883072      -268.9321
   3   2.0000      -9.883026      -268.9308
   4   2.0000      -9.873436      -268.6698
   5   2.0000      -9.873425      -268.6695
   6   2.0000      -0.748611       -20.3707
   7   2.0000      -0.678909       -18.4741
   8   2.0000      -0.627523       -17.0758
   9   2.0000      -0.598473       -16.2853
  10   2.0000      -0.527846       -14.3634
  11   2.0000      -0.442358       -12.0372
  12   2.0000      -0.426195       -11.5973
  13   2.0000      -0.400037       -10.8856
  14   2.0000      -0.389208       -10.5909
  15   2.0000      -0.367087        -9.9890
  16   2.0000      -0.363405        -9.8888
  17   2.0000      -0.345187        -9.3930
  18   2.0000      -0.331658        -9.0249
  19   2.0000      -0.309077        -8.4104
  20   2.0000      -0.291162        -7.9229
  21   2.0000      -0.249532        -6.7901
  22   2.0000      -0.201512        -5.4834
  23   0.0000      -0.043123        -1.1734
  24   0.0000       0.025006         0.6804
  25   0.0000       0.041849         1.1388
  26   0.0000       0.075492         2.0543
  27   0.0000       0.081787         2.2255

MULLIKEN ATOMIC CHARGES
-----------------------
   0 C :   -0.226042
   1 C :   -0.046912
   2 C :   -0.232093
   3 C :   -0.046891
   4 C :   -0.232098
   5 C :   -0.226047
   6 H :    0.114717
   7 H :    0.100212
   8 H :    0.114141
   9 H :    0.092716
  10 H :    0.083257
  11 H :    0.083258
  12 H :    0.092716
  13 H :    0.114715
  14 H :    0.114139
  15 H :    0.100213
Sum of atomic charges:    0.0000000

LOEWDIN ATOMIC CHARGES
----------------------
   0 C :   -0.321216
   1 C :   -0.051365
   2 C :   -0.249892
   3 C :   -0.051362
   4 C :   -0.249889
   5 C :   -0.321219
   6 H :    0.128708
   7 H :    0.125812
   8 H :    0.130149
   9 H :    0.120651
  10 H :    0.117151
  11 H :    0.117153
  12 H :    0.120651
  13 H :    0.128708
  14 H :    0.130148
  15 H :    0.125811

  Mayer bond orders larger than 0.100000
B(  0-C ,  1-C ) :   1.1154 B(  0-C ,  6-H ) :   0.9347 B(  0-C ,  7-H ) :   0.9379
B(  0-C ,  8-H ) :   0.9214 B(  1-C ,  2-C ) :   1.9993 B(  1-C ,  3-C ) :   1.0252
B(  2-C ,  9-H ) :   0.9098 B(  2-C , 10-H ) :   0.9053 B(  3-C ,  4-C ) :   1.9993
B(  3-C ,  5-C ) :   1.1154 B(  4-C , 11-H ) :   0.9053 B(  4-C , 12-H ) :   0.9098
B(  5-C , 13-H ) :   0.9347 B(  5-C , 14-H ) :   0.9215 B(  5-C , 15-H ) :   0.9379

Dispersion correction           -0.012872334
FINAL SINGLE POINT ENERGY      -234.040857099282

DIPOLE MOMENT
-------------

Method             : SCF
Type of density    : Electron Density
Multiplicity       :   1
Irrep              :   0
Energy             :  -234.0879796163380036 Eh
Relativity type    :
Basis              : AO
                                X                 Y                 Z
Electronic contribution:     -0.000133611      -0.000274795      -1.998441481
Nuclear contribution   :      0.000139737       0.000393955       2.295832629
                        -----------------------------------------
Total Dipole Moment    :      0.000006126       0.000119160       0.297391148
                        -----------------------------------------
Magnitude (a.u.)       :      0.297391172
Magnitude (Debye)      :      0.755908286

Rotational constants in cm-1:             0.160299             0.107536             0.071899
Rotational constants in MHz :          4805.631829          3223.863156          2155.472221

                             ****ORCA TERMINATED NORMALLY****
TOTAL RUN TIME: 0 days 0 hours 0 minutes 6 seconds 522 msec
