                         Program Version 6.0.0  -   RELEASE  -
|  1> ! r2scan-3c def2/J RI DEFGRID2 scfconv6 printgap
|  2> %output
|  3>     printlevel normal
|  4> end
|  5> * xyz 0 1
|  6> C 1.3338845789 1.2366088597 0.2081544324
|  7> C 0.490451607 0.118656652 -0.4108764793
|  8> C 0.9141307404 -1.2624620559 0.0785799923
|  9> C -0.9639560675 0.3757116328 -0.1592872273
| 10> O -1.7732418847 -0.4335665024 0.2236944184
| 11> H 1.2341008502 1.2269866962 1.2907915268
| 12> H 1.0195872237 2.2086343058 -0.1624852232
| 13> H 2.3800681606 1.0893090605 -0.0428964033
| 14> H 0.6049150028 0.1685554385 -1.5017638015
| 15> H 1.9446410192 -1.4642826325 -0.1979231317
| 16> H 0.273817544 -2.0268433569 -0.3547743808
| 17> H 0.8219188402 -1.3200157353 1.1606642172
| 18> H -1.2770163703 1.4169340193 -0.3650191532
| 19> *
| 20>
| 21>                          ****END OF INPUT****

CARTESIAN COORDINATES (ANGSTROEM)
---------------------------------
  C      1.333885    1.236609    0.208154
  C      0.490452    0.118657   -0.410876
  C      0.914131   -1.262462    0.078580
  C     -0.963956    0.375712   -0.159287
  O     -1.773242   -0.433567    0.223694
  H      1.234101    1.226987    1.290792
  H      1.019587    2.208634   -0.162485
  H      2.380068    1.089309   -0.042896
  H      0.604915    0.168555   -1.501764
  H      1.944641   -1.464283   -0.197923
  H      0.273818   -2.026843   -0.354774
  H      0.821919   -1.320016    1.160664
  H     -1.277016    1.416934   -0.365019

 Total Charge           Charge          ....    0
 Multiplicity           Mult            ....    1
 Number of Electrons    NEL             ....   40
 Basis Dimension        Dim             ....  140

ORBITAL ENERGIES
----------------

  NO   OCC          E(Eh)            E(eV)
   0   2.0000     -18.950755      -515.6763
   1   2.0000     -10.118227      -275.3310
   2   2.0000     -10.053812      -273.5781
   3   2.0000     -10.037758      -273.1413
   4   2.0000     -10.023861      -272.7631
   5   2.0000      -1.014536       -27.6069
   6   2.0000      -0.782815       -21.3015
   7   2.0000      -0.665710       -18.1149
   8   2.0000      -0.621866       -16.9218
   9   2.0000      -0.520665       -14.1680
  10   2.0000      -0.463330       -12.6078
  11   2.0000      -0.429626       -11.6907
  12   2.0000      -0.419388       -11.4121
  13   2.0000      -0.378749       -10.3063
  14   2.0000      -0.365951        -9.9580
  15   2.0000      -0.357146        -9.7184
  16   2.0000      -0.344964        -9.3869
  17   2.0000      -0.320989        -8.7346
  18   2.0000      -0.317719        -8.6456
  19   2.0000      -0.221735        -6.0337
  20   0.0000      -0.058948        -1.6041
  21   0.0000       0.084933         2.3111
  22   0.0000       0.112173         3.0524
  23   0.0000       0.119841         3.2610
  24   0.0000       0.129590         3.5263

MULLIKEN ATOMIC CHARGES
-----------------------
   0 C :   -0.470602
   1 C :    0.043088
   2 C :   -0.497819
   3 C :    0.094419
   4 O :   -0.341678
   5 H :    0.153516
   6 H :    0.147158
   7 H :    0.154219
   8 H :    0.150549
   9 H :    0.144852
  10 H :    0.164570
  11 H :    0.154511
  12 H :    0.103218
Sum of atomic charges:    0.0000000

LOEWDIN ATOMIC CHARGES
----------------------
   0 C :   -0.401716
   1 C :   -0.241226
   2 C :   -0.400338
   3 C :    0.205277
   4 O :   -0.450644
   5 H :    0.158878
   6 H :    0.156091
   7 H :    0.158864
   8 H :    0.178563
   9 H :    0.152901
  10 H :    0.167408
  11 H :    0.161587
  12 H :    0.154355

  Mayer bond orders larger than 0.100000
B(  0-C ,  1-C ) :   0.8923 B(  0-C ,  5-H ) :   0.9777 B(  0-C ,  6-H ) :   0.9676
B(  0-C ,  7-H ) :   0.9680 B(  1-C ,  2-C ) :   0.9148 B(  1-C ,  3-C ) :   0.8985
B(  1-C ,  4-O ) :  -0.1084 B(  1-C ,  8-H ) :   0.9103 B(  2-C ,  9-H ) :   0.9737
B(  2-C , 10-H ) :   0.9653 B(  2-C , 11-H ) :   0.9793 B(  3-C ,  4-O ) :   1.9445
B(  3-C , 12-H ) :   0.9716

Dispersion correction           -0.002782840
FINAL SINGLE POINT ENERGY      -232.394419265238

DIPOLE MOMENT
-------------

Method             : SCF
Type of density    : Electron Density
Multiplicity       :   1
Irrep              :   0
Energy             :  -232.3977878131149737 Eh
Relativity type    :
Basis              : AO
                                X                 Y                 Z
Electronic contribution:     -5.632157121      -0.662610097      -0.174487800
Nuclear contribution   :      6.542749512       1.212500399      -0.159359140
                        -----------------------------------------
Total Dipole Moment    :      0.910592391       0.549890303      -0.333846940
                        -----------------------------------------
Magnitude (a.u.)       :      1.114904313
Magnitude (Debye)      :      2.833861553

Rotational constants in cm-1:             0.257493             0.135954             0.098700
Rotational constants in MHz :          7719.431027          4075.796047          2958.952718

                             ****ORCA TERMINATED NORMALLY****
TOTAL RUN TIME: 0 days 0 hours 0 minutes 14 seconds 972 msec
