                         Program Version 6.0.0  -   RELEASE  -
|  1> ! r2scan-3c def2/J RI DEFGRID2 scfconv6 printgap
|  2> %output
|  3>     printlevel normal
|  4> end
|  5> %cpcm
|  6>     smd true
|  7>     smdsolvent "water"
|  8> end
|  9> * xyz 0 1
| 10> C 1.3338845789 1.2366088597 0.2081544324
| 11> C 0.490451607 0.118656652 -0.4108764793
| 12> C 0.9141307404 -1.2624620559 0.0785799923
| 13> C -0.9639560675 0.3757116328 -0.1592872273
| 14> O -1.7732418847 -0.4335665024 0.2236944184
| 15> H 1.2341008502 1.2269866962 1.2907915268
| 16> H 1.0195872237 2.2086343058 -0.1624852232
| 17> H 2.3800681606 1.0893090605 -0.0428964033
| 18> H 0.6049150028 0.1685554385 -1.5017638015
| 19> H 1.9446410192 -1.4642826325 -0.1979231317
| 20> H 0.273817544 -2.0268433569 -0.3547743808
| 21> H 0.8219188402 -1.3200157353 1.1606642172
| 22> H -1.2770163703 1.4169340193 -0.3650191532
| 23> *
| 24>
| 25>                          ****END OF INPUT****

CARTESIAN COORDINATES (ANGSTROEM)
---------------------------------
  C      1.333885    1.236609    0.208154
  C      0.490452    0.118657   -0.410876
  C      0.914131   -1.262462    0.078580
  C     -0.963956    0.375712   -0.159287
  O     -1.773242   -0.433567    0.223694
  H      1.234101    1.226987    1.290792
  H      1.019587    2.208634   -0.162485
  H      2.380068    1.089309   -0.042896
  H      0.604915    0.168555   -1.501764
  H      1.944641   -1.464283   -0.197923
  H      0.273818   -2.026843   -0.354774
  H      0.821919   -1.320016    1.160664
  H     -1.277016    1.416934   -0.365019

 Total Charge           Charge          ....    0
 Multiplicity           Mult            ....    1
 Number of Electrons    NEL             ....   40
 Basis Dimension        Dim             ....  140

ORBITAL ENERGIES
----------------

  NO   OCC          E(Eh)            E(eV)
   0   2.0000     -18.957818      -515.8684
   1   2.0000     -10.119900      -275.3765
   2   2.0000     -10.041143      -273.2334
   3   2.0000     -10.019153      -272.6350
   4   2.0000     -10.013541      -272.4823
   5   2.0000      -1.023493       -27.8506
   6   2.0000      -0.770109       -20.9557
   7   2.0000      -0.652423       -17.7533
   8   2.0000      -0.611911       -16.6510
   9   2.0000      -0.513479       -13.9725
  10   2.0000      -0.455450       -12.3934
  11   2.0000      -0.426985       -11.6188
  12   2.0000      -0.418662       -11.3924
  13   2.0000      -0.371150       -10.0995
  14   2.0000      -0.356446        -9.6994
  15   2.0000      -0.349834        -9.5195
  16   2.0000      -0.337140        -9.1740
  17   2.0000      -0.308507        -8.3949
  18   2.0000      -0.306146        -8.3307
  19   2.0000      -0.227771        -6.1980
  20   0.0000      -0.058185        -1.5833
  21   0.0000       0.096617         2.6291
  22   0.0000       0.125810         3.4235
  23   0.0000       0.131785         3.5861
  24   0.0000       0.142502         3.8777

MULLIKEN ATOMIC CHARGES
-----------------------
   0 C :   -0.510752
   1 C :    0.067985
   2 C :   -0.559083
   3 C :    0.129566
   4 O :   -0.440536
   5 H :    0.164661
   6 H :    0.164597
   7 H :    0.169199
   8 H :    0.181726
   9 H :    0.165566
  10 H :    0.163377
  11 H :    0.168617
  12 H :    0.135076
Sum of atomic charges:    0.0000000

LOEWDIN ATOMIC CHARGES
----------------------
   0 C :   -0.402859
   1 C :   -0.232428
   2 C :   -0.410415
   3 C :    0.230260
   4 O :   -0.524111
   5 H :    0.161816
   6 H :    0.162411
   7 H :    0.163719
   8 H :    0.193184
   9 H :    0.160779
  10 H :    0.163503
  11 H :    0.162443
  12 H :    0.171698

  Mayer bond orders larger than 0.100000
B(  0-C ,  1-C ) :   0.8802 B(  0-C ,  5-H ) :   0.9751 B(  0-C ,  6-H ) :   0.9640
B(  0-C ,  7-H ) :   0.9643 B(  1-C ,  2-C ) :   0.8821 B(  1-C ,  3-C ) :   0.9269
B(  1-C ,  8-H ) :   0.8998 B(  2-C ,  9-H ) :   0.9681 B(  2-C , 10-H ) :   0.9688
B(  2-C , 11-H ) :   0.9806 B(  3-C ,  4-O ) :   1.8849 B(  3-C , 12-H ) :   0.9579

Dispersion correction           -0.002782840
FINAL SINGLE POINT ENERGY      -232.399072097823

DIPOLE MOMENT
-------------

Method             : SCF
Type of density    : Electron Density
Multiplicity       :   1
Irrep              :   0
Energy             :  -232.4024406456996417 Eh
Relativity type    :
Basis              : AO
                                X                 Y                 Z
Electronic contribution:     -5.297870900      -0.352589344      -0.350534363
Nuclear contribution   :      6.542749512       1.212500399      -0.159359140
                        -----------------------------------------
Total Dipole Moment    :      1.244878612       0.859911055      -0.509893503
                        -----------------------------------------
Magnitude (a.u.)       :      1.596609271
Magnitude (Debye)      :      4.058258252

Rotational constants in cm-1:             0.257493             0.135954             0.098700
Rotational constants in MHz :          7719.431027          4075.796047          2958.952718

                             ****ORCA TERMINATED NORMALLY****
TOTAL RUN TIME: 0 days 0 hours 0 minutes 15 seconds 215 msec
