                         Program Version 6.0.0  -   RELEASE  -
|  1> ! wb97x-v def2-tzvp def2/J RIJCOSX DEFGRID2 scfconv7 GCP(DFT/TZ) printgap
|  2> %output
|  3>     printlevel normal
|  4> end
|  5> * xyz 0 1
|  6> C -3.3138435823906915 -0.5649575137210989 1.7411123870618976
|  7> N -2.320079946590886 -0.025460708820122475 0.8187723846735054
|  8> C -2.35282793327868 -0.3486149804123729 -0.4789839462904063
|  9> O -3.2263814107134716 -1.0125815884712244 -1.0258143116517497
| 10> O -1.3310963506590545 0.13966133532083602 -1.278012005233732
| 11> C -0.21026576143932202 0.7415905931117711 -0.6873856512844767
| 12> C -0.15744452599549444 2.1078699391019997 -0.5924676759183988
| 13> C 0.9949914215497206 2.7193117268061964 -0.05559257374571575
| 14> C 2.0557636196233533 1.956215702017079 0.36931018722377534
| 15> C 2.015625621206004 0.5432872993673132 0.2755211045994184
| 16> C 0.8553561417004139 -0.0941439306205857 -0.27022722797048293
| 17> C 0.8144297037634759 -1.505328311560406 -0.36746513675631914
| 18> C 1.8818302844763206 -2.2582385421444893 0.06239043376346183
| 19> C 3.0288956287387343 -1.6368563288374345 0.6016332858307896
| 20> C 3.0944953727849445 -0.2678764292442264 0.7046626498020265
| 21> H -3.1484352567370455 -0.11409159764065582 2.7199086121253835
| 22> H -3.224961975620018 -1.6523372044197269 1.830014848136154
| 23> H -4.323821099176339 -0.31762380963570735 1.4047644267617347
| 24> H -1.5323768840596597 0.4862334229096286 1.1882629647791263
| 25> H -1.0004870841689817 2.7021914081025105 -0.9287346521580788
| 26> H 1.0334205551264584 3.800957432135413 0.01800612783830053
| 27> H 2.9426250012388775 2.425714297131337 0.7840801232207529
| 28> H -0.06319186721895427 -1.9881791697686697 -0.7844439673137871
| 29> H 1.8450872624623988 -3.3400953668103575 -0.01485607126381262
| 30> H 3.862069984801806 -2.2476810720615448 0.9341912224364846
| 31> H 3.9754834477424934 0.21497617058389762 1.1173792178306539
| 32> *
| 33>
| 34>                          ****END OF INPUT****

CARTESIAN COORDINATES (ANGSTROEM)
---------------------------------
  C     -3.313844   -0.564958    1.741112
  N     -2.320080   -0.025461    0.818772
  C     -2.352828   -0.348615   -0.478984
  O     -3.226381   -1.012582   -1.025814
  O     -1.331096    0.139661   -1.278012
  C     -0.210266    0.741591   -0.687386
  C     -0.157445    2.107870   -0.592468
  C      0.994991    2.719312   -0.055593
  C      2.055764    1.956216    0.369310
  C      2.015626    0.543287    0.275521
  C      0.855356   -0.094144   -0.270227
  C      0.814430   -1.505328   -0.367465
  C      1.881830   -2.258239    0.062390
  C      3.028896   -1.636856    0.601633
  C      3.094495   -0.267876    0.704663
  H     -3.148435   -0.114092    2.719909
  H     -3.224962   -1.652337    1.830015
  H     -4.323821   -0.317624    1.404764
  H     -1.532377    0.486233    1.188263
  H     -1.000487    2.702191   -0.928735
  H      1.033421    3.800957    0.018006
  H      2.942625    2.425714    0.784080
  H     -0.063192   -1.988179   -0.784444
  H      1.845087   -3.340095   -0.014856
  H      3.862070   -2.247681    0.934191
  H      3.975483    0.214976    1.117379

 Total Charge           Charge          ....    0
 Multiplicity           Mult            ....    1
 Number of Electrons    NEL             ....  106
 Basis Dimension        Dim             ....  531

ORBITAL ENERGIES
----------------

  NO   OCC          E(Eh)            E(eV)
   0   2.0000     -21.719701      -591.0231
   1   2.0000     -21.633774      -588.6849
   2   2.0000     -16.564436      -450.7412
   3   2.0000     -12.196003      -331.8701
   4   2.0000     -12.126563      -329.9806
   5   2.0000     -12.088213      -328.9370
   6   2.0000     -12.079441      -328.6983
   7   2.0000     -12.077471      -328.6447
   8   2.0000     -12.071381      -328.4790
   9   2.0000     -12.068938      -328.4125
  10   2.0000     -12.067558      -328.3750
  11   2.0000     -12.067284      -328.3675
  12   2.0000     -12.066241      -328.3391
  13   2.0000     -12.065131      -328.3089
  14   2.0000     -12.063586      -328.2669
  15   2.0000      -1.754765       -47.7496
  16   2.0000      -1.682663       -45.7876
  17   2.0000      -1.531863       -41.6841
  18   2.0000      -1.421261       -38.6745
  19   2.0000      -1.368365       -37.2351
  20   2.0000      -1.326089       -36.0847
  21   2.0000      -1.289782       -35.0967
  22   2.0000      -1.276687       -34.7404
  23   2.0000      -1.247848       -33.9557
  24   2.0000      -1.194843       -32.5133
  25   2.0000      -1.148153       -31.2428
  26   2.0000      -1.141687       -31.0669
  27   2.0000      -1.122875       -30.5550
  28   2.0000      -1.081267       -29.4228
  29   2.0000      -1.042044       -28.3555
  30   2.0000      -1.032355       -28.0918
  31   2.0000      -1.011690       -27.5295
  32   2.0000      -1.004134       -27.3239
  33   2.0000      -0.973558       -26.4918
  34   2.0000      -0.966344       -26.2955
  35   2.0000      -0.957983       -26.0681
  36   2.0000      -0.928257       -25.2592
  37   2.0000      -0.925752       -25.1910
  38   2.0000      -0.905693       -24.6452
  39   2.0000      -0.900646       -24.5078
  40   2.0000      -0.876364       -23.8471
  41   2.0000      -0.868789       -23.6409
  42   2.0000      -0.866892       -23.5893
  43   2.0000      -0.857650       -23.3378
  44   2.0000      -0.843751       -22.9596
  45   2.0000      -0.834760       -22.7150
  46   2.0000      -0.819207       -22.2918
  47   2.0000      -0.815509       -22.1911
  48   2.0000      -0.765407       -20.8278
  49   2.0000      -0.744725       -20.2650
  50   2.0000      -0.700210       -19.0537
  51   2.0000      -0.646667       -17.5967
  52   2.0000      -0.617836       -16.8122
  53   0.0000      -0.305339        -8.3087
  54   0.0000      -0.276821        -7.5327
  55   0.0000      -0.272984        -7.4283
  56   0.0000      -0.220448        -5.9987
  57   0.0000      -0.210525        -5.7287

MULLIKEN ATOMIC CHARGES
-----------------------
   0 C :   -0.237472
   1 N :   -0.279416
   2 C :    0.335388
   3 O :   -0.371040
   4 O :   -0.210754
   5 C :    0.102897
   6 C :   -0.168158
   7 C :   -0.093280
   8 C :   -0.228627
   9 C :    0.118294
  10 C :    0.089300
  11 C :   -0.218388
  12 C :   -0.096960
  13 C :   -0.112502
  14 C :   -0.178099
  15 H :    0.118917
  16 H :    0.131169
  17 H :    0.142024
  18 H :    0.242905
  19 H :    0.137989
  20 H :    0.125698
  21 H :    0.119116
  22 H :    0.162898
  23 H :    0.126487
  24 H :    0.123241
  25 H :    0.118373
Sum of atomic charges:    0.0000000

LOEWDIN ATOMIC CHARGES
----------------------
   0 C :   -0.286667
   1 N :    0.095137
   2 C :   -0.559245
   3 O :    0.048101
   4 O :    0.297902
   5 C :   -0.202499
   6 C :   -0.116810
   7 C :   -0.135666
   8 C :   -0.101436
   9 C :   -0.089445
  10 C :   -0.078306
  11 C :   -0.089477
  12 C :   -0.131008
  13 C :   -0.133061
  14 C :   -0.097536
  15 H :    0.114520
  16 H :    0.116214
  17 H :    0.121728
  18 H :    0.188541
  19 H :    0.153034
  20 H :    0.145348
  21 H :    0.147387
  22 H :    0.157137
  23 H :    0.145147
  24 H :    0.144103
  25 H :    0.146856

  Mayer bond orders larger than 0.100000
B(  0-C ,  1-N ) :   0.9387 B(  0-C , 15-H ) :   0.9697 B(  0-C , 16-H ) :   0.9792
B(  0-C , 17-H ) :   0.9742 B(  1-N ,  2-C ) :   1.2376 B(  1-N , 18-H ) :   0.9094
B(  2-C ,  3-O ) :   2.1035 B(  2-C ,  4-O ) :   1.0810 B(  4-O ,  5-C ) :   1.0021
B(  5-C ,  6-C ) :   1.6278 B(  5-C , 10-C ) :   1.1510 B(  6-C ,  7-C ) :   1.2328
B(  6-C , 19-H ) :   0.9730 B(  7-C ,  8-C ) :   1.5644 B(  7-C , 20-H ) :   0.9779
B(  8-C ,  9-C ) :   1.2200 B(  8-C , 21-H ) :   0.9836 B(  9-C , 10-C ) :   1.2577
B(  9-C , 14-C ) :   1.2350 B( 10-C , 11-C ) :   1.2522 B( 11-C , 12-C ) :   1.5716
B( 11-C , 22-H ) :   0.9441 B( 12-C , 13-C ) :   1.2663 B( 12-C , 23-H ) :   0.9751
B( 13-C , 14-C ) :   1.5664 B( 13-C , 24-H ) :   0.9757 B( 14-C , 25-H ) :   0.9796

FINAL SINGLE POINT ENERGY      -669.165535157011

DIPOLE MOMENT
-------------

Method             : SCF
Type of density    : Electron Density
Multiplicity       :   1
Irrep              :   0
Energy             :  -669.1802050247108582 Eh
Relativity type    :
Basis              : AO
                                X                 Y                 Z
Electronic contribution:      0.900696756       0.870440585      -6.165923921
Nuclear contribution   :      0.286534130      -0.163083132       7.800438545
                        -----------------------------------------
Total Dipole Moment    :      1.187230886       0.707357452       1.634514624
                        -----------------------------------------
Magnitude (a.u.)       :      2.140446168
Magnitude (Debye)      :      5.440581789

Rotational constants in cm-1:             0.032186             0.015500             0.012482
Rotational constants in MHz :           964.900222           464.680173           374.213538

                             ****ORCA TERMINATED NORMALLY****
TOTAL RUN TIME: 0 days 0 hours 8 minutes 26 seconds 838 msec
