                         Program Version 6.0.0  -   RELEASE  -
|  1> ! wb97x-v def2-tzvp def2/J RIJCOSX DEFGRID2 scfconv7 GCP(DFT/TZ) printgap
|  2> %output
|  3>     printlevel normal
|  4> end
|  5> %cpcm
|  6>     smd true
|  7>     smdsolvent "water"
|  8> end
|  9> * xyz 0 1
| 10> C -3.3138435823906915 -0.5649575137210989 1.7411123870618976
| 11> N -2.320079946590886 -0.025460708820122475 0.8187723846735054
| 12> C -2.35282793327868 -0.3486149804123729 -0.4789839462904063
| 13> O -3.2263814107134716 -1.0125815884712244 -1.0258143116517497
| 14> O -1.3310963506590545 0.13966133532083602 -1.278012005233732
| 15> C -0.21026576143932202 0.7415905931117711 -0.6873856512844767
| 16> C -0.15744452599549444 2.1078699391019997 -0.5924676759183988
| 17> C 0.9949914215497206 2.7193117268061964 -0.05559257374571575
| 18> C 2.0557636196233533 1.956215702017079 0.36931018722377534
| 19> C 2.015625621206004 0.5432872993673132 0.2755211045994184
| 20> C 0.8553561417004139 -0.0941439306205857 -0.27022722797048293
| 21> C 0.8144297037634759 -1.505328311560406 -0.36746513675631914
| 22> C 1.8818302844763206 -2.2582385421444893 0.06239043376346183
| 23> C 3.0288956287387343 -1.6368563288374345 0.6016332858307896
| 24> C 3.0944953727849445 -0.2678764292442264 0.7046626498020265
| 25> H -3.1484352567370455 -0.11409159764065582 2.7199086121253835
| 26> H -3.224961975620018 -1.6523372044197269 1.830014848136154
| 27> H -4.323821099176339 -0.31762380963570735 1.4047644267617347
| 28> H -1.5323768840596597 0.4862334229096286 1.1882629647791263
| 29> H -1.0004870841689817 2.7021914081025105 -0.9287346521580788
| 30> H 1.0334205551264584 3.800957432135413 0.01800612783830053
| 31> H 2.9426250012388775 2.425714297131337 0.7840801232207529
| 32> H -0.06319186721895427 -1.9881791697686697 -0.7844439673137871
| 33> H 1.8450872624623988 -3.3400953668103575 -0.01485607126381262
| 34> H 3.862069984801806 -2.2476810720615448 0.9341912224364846
| 35> H 3.9754834477424934 0.21497617058389762 1.1173792178306539
| 36> *
| 37>
| 38>                          ****END OF INPUT****

CARTESIAN COORDINATES (ANGSTROEM)
---------------------------------
  C     -3.313844   -0.564958    1.741112
  N     -2.320080   -0.025461    0.818772
  C     -2.352828   -0.348615   -0.478984
  O     -3.226381   -1.012582   -1.025814
  O     -1.331096    0.139661   -1.278012
  C     -0.210266    0.741591   -0.687386
  C     -0.157445    2.107870   -0.592468
  C      0.994991    2.719312   -0.055593
  C      2.055764    1.956216    0.369310
  C      2.015626    0.543287    0.275521
  C      0.855356   -0.094144   -0.270227
  C      0.814430   -1.505328   -0.367465
  C      1.881830   -2.258239    0.062390
  C      3.028896   -1.636856    0.601633
  C      3.094495   -0.267876    0.704663
  H     -3.148435   -0.114092    2.719909
  H     -3.224962   -1.652337    1.830015
  H     -4.323821   -0.317624    1.404764
  H     -1.532377    0.486233    1.188263
  H     -1.000487    2.702191   -0.928735
  H      1.033421    3.800957    0.018006
  H      2.942625    2.425714    0.784080
  H     -0.063192   -1.988179   -0.784444
  H      1.845087   -3.340095   -0.014856
  H      3.862070   -2.247681    0.934191
  H      3.975483    0.214976    1.117379

 Total Charge           Charge          ....    0
 Multiplicity           Mult            ....    1
 Number of Electrons    NEL             ....  106
 Basis Dimension        Dim             ....  531

ORBITAL ENERGIES
----------------

  NO   OCC          E(Eh)            E(eV)
   0   2.0000     -21.729981      -591.3028
   1   2.0000     -21.657220      -589.3229
   2   2.0000     -16.563104      -450.7050
   3   2.0000     -12.211777      -332.2994
   4   2.0000     -12.121032      -329.8301
   5   2.0000     -12.074593      -328.5664
   6   2.0000     -12.072151      -328.4999
   7   2.0000     -12.069529      -328.4286
   8   2.0000     -12.060662      -328.1873
   9   2.0000     -12.058368      -328.1249
  10   2.0000     -12.057566      -328.1031
  11   2.0000     -12.056351      -328.0700
  12   2.0000     -12.055833      -328.0559
  13   2.0000     -12.055196      -328.0385
  14   2.0000     -12.053297      -327.9869
  15   2.0000      -1.767650       -48.1002
  16   2.0000      -1.705003       -46.3955
  17   2.0000      -1.531016       -41.6611
  18   2.0000      -1.413976       -38.4762
  19   2.0000      -1.360359       -37.0172
  20   2.0000      -1.320267       -35.9263
  21   2.0000      -1.280948       -34.8564
  22   2.0000      -1.271675       -34.6040
  23   2.0000      -1.241735       -33.7893
  24   2.0000      -1.194115       -32.4935
  25   2.0000      -1.139936       -31.0192
  26   2.0000      -1.133988       -30.8574
  27   2.0000      -1.123861       -30.5818
  28   2.0000      -1.075717       -29.2718
  29   2.0000      -1.061306       -28.8796
  30   2.0000      -1.030575       -28.0434
  31   2.0000      -1.017606       -27.6905
  32   2.0000      -0.997219       -27.1357
  33   2.0000      -0.969080       -26.3700
  34   2.0000      -0.964493       -26.2452
  35   2.0000      -0.953822       -25.9548
  36   2.0000      -0.925978       -25.1971
  37   2.0000      -0.916023       -24.9263
  38   2.0000      -0.906792       -24.6751
  39   2.0000      -0.895462       -24.3668
  40   2.0000      -0.889718       -24.2105
  41   2.0000      -0.874033       -23.7836
  42   2.0000      -0.863736       -23.5034
  43   2.0000      -0.845779       -23.0148
  44   2.0000      -0.830069       -22.5873
  45   2.0000      -0.823719       -22.4145
  46   2.0000      -0.808956       -22.0128
  47   2.0000      -0.808454       -21.9991
  48   2.0000      -0.762239       -20.7416
  49   2.0000      -0.736802       -20.0494
  50   2.0000      -0.693144       -18.8614
  51   2.0000      -0.638402       -17.3718
  52   2.0000      -0.610364       -16.6088
  53   0.0000      -0.297518        -8.0959
  54   0.0000      -0.286505        -7.7962
  55   0.0000      -0.265758        -7.2316
  56   0.0000      -0.219285        -5.9671
  57   0.0000      -0.207423        -5.6443

MULLIKEN ATOMIC CHARGES
-----------------------
   0 C :   -0.293066
   1 N :   -0.270796
   2 C :    0.413924
   3 O :   -0.515321
   4 O :   -0.264830
   5 C :    0.144226
   6 C :   -0.184649
   7 C :   -0.133994
   8 C :   -0.266473
   9 C :    0.092810
  10 C :    0.129429
  11 C :   -0.264338
  12 C :   -0.136389
  13 C :   -0.152111
  14 C :   -0.214154
  15 H :    0.160890
  16 H :    0.149849
  17 H :    0.149846
  18 H :    0.293278
  19 H :    0.169022
  20 H :    0.166746
  21 H :    0.164380
  22 H :    0.168517
  23 H :    0.164940
  24 H :    0.164289
  25 H :    0.163973
Sum of atomic charges:    0.0000000

LOEWDIN ATOMIC CHARGES
----------------------
   0 C :   -0.283372
   1 N :    0.118218
   2 C :   -0.552452
   3 O :   -0.034946
   4 O :    0.278160
   5 C :   -0.206297
   6 C :   -0.108390
   7 C :   -0.135662
   8 C :   -0.099463
   9 C :   -0.096293
  10 C :   -0.082528
  11 C :   -0.102081
  12 C :   -0.136557
  13 C :   -0.139705
  14 C :   -0.099249
  15 H :    0.128371
  16 H :    0.120315
  17 H :    0.122231
  18 H :    0.207290
  19 H :    0.162325
  20 H :    0.155751
  21 H :    0.158927
  22 H :    0.159380
  23 H :    0.154086
  24 H :    0.153632
  25 H :    0.158307

  Mayer bond orders larger than 0.100000
B(  0-C ,  1-N ) :   0.9242 B(  0-C , 15-H ) :   0.9645 B(  0-C , 16-H ) :   0.9738
B(  0-C , 17-H ) :   0.9698 B(  1-N ,  2-C ) :   1.3081 B(  1-N , 18-H ) :   0.8881
B(  2-C ,  3-O ) :   1.9515 B(  2-C ,  4-O ) :   1.0916 B(  4-O ,  5-C ) :   0.9497
B(  5-C ,  6-C ) :   1.6004 B(  5-C , 10-C ) :   1.1583 B(  6-C ,  7-C ) :   1.2265
B(  6-C , 19-H ) :   0.9787 B(  7-C ,  8-C ) :   1.5406 B(  7-C , 20-H ) :   0.9806
B(  8-C ,  9-C ) :   1.2049 B(  8-C , 21-H ) :   0.9888 B(  9-C , 10-C ) :   1.2501
B(  9-C , 14-C ) :   1.2175 B( 10-C , 11-C ) :   1.1934 B( 11-C , 12-C ) :   1.5613
B( 11-C , 22-H ) :   0.9720 B( 12-C , 13-C ) :   1.2508 B( 12-C , 23-H ) :   0.9782
B( 13-C , 14-C ) :   1.5420 B( 13-C , 24-H ) :   0.9786 B( 14-C , 25-H ) :   0.9843

FINAL SINGLE POINT ENERGY      -669.183403393715

DIPOLE MOMENT
-------------

Method             : SCF
Type of density    : Electron Density
Multiplicity       :   1
Irrep              :   0
Energy             :  -669.1980732614151748 Eh
Relativity type    :
Basis              : AO
                                X                 Y                 Z
Electronic contribution:      1.377593388       1.316805908      -5.396505365
Nuclear contribution   :      0.286534130      -0.163083132       7.800438545
                        -----------------------------------------
Total Dipole Moment    :      1.664127518       1.153722775       2.403933180
                        -----------------------------------------
Magnitude (a.u.)       :      3.143134004
Magnitude (Debye)      :      7.989211726

Rotational constants in cm-1:             0.032186             0.015500             0.012482
Rotational constants in MHz :           964.900222           464.680173           374.213538

                             ****ORCA TERMINATED NORMALLY****
TOTAL RUN TIME: 0 days 0 hours 8 minutes 36 seconds 64 msec
