                         Program Version 6.0.0  -   RELEASE  -
|  1> ! r2scan-3c def2/J RI DEFGRID2 scfconv6 printgap
|  2> %output
|  3>     printlevel normal
|  4> end
|  5> * xyz 0 1
|  6> C -0.6258429551 0.9660492655 0.0019172289
|  7> C 0.4201715115 0.1467656408 0.0004066252
|  8> Cl 2.0262870597 0.7535867177 -0.0004174236
|  9> Cl 0.2939524803 -1.5694076791 0.0001245648
| 10> Cl -2.2357504048 0.3808678281 -0.0005249907
| 11> H -0.5209856285 2.0384534898 0.0010754297
| 12> *
| 13>
| 14>                          ****END OF INPUT****

CARTESIAN COORDINATES (ANGSTROEM)
---------------------------------
  C     -0.625843    0.966049    0.001917
  C      0.420172    0.146766    0.000407
  Cl     2.026287    0.753587   -0.000417
  Cl     0.293952   -1.569408    0.000125
  Cl    -2.235750    0.380868   -0.000525
  H     -0.520986    2.038453    0.001075

 Total Charge           Charge          ....    0
 Multiplicity           Mult            ....    1
 Number of Electrons    NEL             ....   64
 Basis Dimension        Dim             ....  124

ORBITAL ENERGIES
----------------

  NO   OCC          E(Eh)            E(eV)
   0   2.0000    -101.251212     -2755.1855
   1   2.0000    -101.248806     -2755.1201
   2   2.0000    -101.242103     -2754.9377
   3   2.0000     -10.169986      -276.7394
   4   2.0000     -10.118415      -275.3361
   5   2.0000      -9.406914      -255.9752
   6   2.0000      -9.404335      -255.9050
   7   2.0000      -9.397682      -255.7239
   8   2.0000      -7.153651      -194.6607
   9   2.0000      -7.151087      -194.5910
  10   2.0000      -7.144215      -194.4040
  11   2.0000      -7.142792      -194.3652
  12   2.0000      -7.142604      -194.3601
  13   2.0000      -7.140494      -194.3027
  14   2.0000      -7.139766      -194.2829
  15   2.0000      -7.133990      -194.1257
  16   2.0000      -7.133168      -194.1034
  17   2.0000      -0.912510       -24.8307
  18   2.0000      -0.850182       -23.1346
  19   2.0000      -0.817315       -22.2403
  20   2.0000      -0.708041       -19.2668
  21   2.0000      -0.554853       -15.0983
  22   2.0000      -0.490459       -13.3461
  23   2.0000      -0.470099       -12.7921
  24   2.0000      -0.408553       -11.1173
  25   2.0000      -0.408447       -11.1144
  26   2.0000      -0.340897        -9.2763
  27   2.0000      -0.331703        -9.0261
  28   2.0000      -0.318159        -8.6576
  29   2.0000      -0.311543        -8.4775
  30   2.0000      -0.293531        -7.9874
  31   2.0000      -0.237021        -6.4497
  32   0.0000      -0.058699        -1.5973
  33   0.0000      -0.031421        -0.8550
  34   0.0000      -0.027462        -0.7473
  35   0.0000       0.052141         1.4188
  36   0.0000       0.104154         2.8342

MULLIKEN ATOMIC CHARGES
-----------------------
   0 C :   -0.093019
   1 C :    0.100066
   2 Cl:   -0.068142
   3 Cl:   -0.053005
   4 Cl:   -0.074595
   5 H :    0.188695
Sum of atomic charges:   -0.0000000

LOEWDIN ATOMIC CHARGES
----------------------
   0 C :   -0.310273
   1 C :   -0.329997
   2 Cl:    0.159966
   3 Cl:    0.162060
   4 Cl:    0.137429
   5 H :    0.180816

  Mayer bond orders larger than 0.100000
B(  0-C ,  1-C ) :   1.6964 B(  0-C ,  2-Cl) :   0.1016 B(  0-C ,  4-Cl) :   1.0597
B(  0-C ,  5-H ) :   0.9427 B(  1-C ,  2-Cl) :   0.9976 B(  1-C ,  3-Cl) :   1.0961

Dispersion correction           -0.002072318
FINAL SINGLE POINT ENERGY     -1457.292213435468

DIPOLE MOMENT
-------------

Method             : SCF
Type of density    : Electron Density
Multiplicity       :   1
Irrep              :   0
Energy             : -1457.2957718393099640 Eh
Relativity type    :
Basis              : AO
                                X                 Y                 Z
Electronic contribution:      0.650377363      -2.133898164      -0.002338380
Nuclear contribution   :     -0.602180255       2.496235434       0.002106681
                        -----------------------------------------
Total Dipole Moment    :      0.048197108       0.362337269      -0.000231699
                        -----------------------------------------
Magnitude (a.u.)       :      0.365528811
Magnitude (Debye)      :      0.929100401

Rotational constants in cm-1:             0.131438             0.050633             0.036552
Rotational constants in MHz :          3940.423969          1517.925083          1095.802042

                             ****ORCA TERMINATED NORMALLY****
TOTAL RUN TIME: 0 days 0 hours 0 minutes 9 seconds 285 msec
