                         Program Version 6.0.0  -   RELEASE  -
|  1> ! r2scan-3c def2/J RI DEFGRID2 scfconv6 printgap
|  2> %output
|  3>     printlevel normal
|  4> end
|  5> %cpcm
|  6>     smd true
|  7>     smdsolvent "water"
|  8> end
|  9> * xyz 0 1
| 10> C -0.6258429551 0.9660492655 0.0019172289
| 11> C 0.4201715115 0.1467656408 0.0004066252
| 12> Cl 2.0262870597 0.7535867177 -0.0004174236
| 13> Cl 0.2939524803 -1.5694076791 0.0001245648
| 14> Cl -2.2357504048 0.3808678281 -0.0005249907
| 15> H -0.5209856285 2.0384534898 0.0010754297
| 16> *
| 17>
| 18>                          ****END OF INPUT****

CARTESIAN COORDINATES (ANGSTROEM)
---------------------------------
  C     -0.625843    0.966049    0.001917
  C      0.420172    0.146766    0.000407
  Cl     2.026287    0.753587   -0.000417
  Cl     0.293952   -1.569408    0.000125
  Cl    -2.235750    0.380868   -0.000525
  H     -0.520986    2.038453    0.001075

 Total Charge           Charge          ....    0
 Multiplicity           Mult            ....    1
 Number of Electrons    NEL             ....   64
 Basis Dimension        Dim             ....  124

ORBITAL ENERGIES
----------------

  NO   OCC          E(Eh)            E(eV)
   0   2.0000    -101.248142     -2755.1020
   1   2.0000    -101.247548     -2755.0859
   2   2.0000    -101.239938     -2754.8788
   3   2.0000     -10.165198      -276.6091
   4   2.0000     -10.111534      -275.1488
   5   2.0000      -9.403856      -255.8919
   6   2.0000      -9.403218      -255.8746
   7   2.0000      -9.395645      -255.6685
   8   2.0000      -7.150571      -194.5769
   9   2.0000      -7.149857      -194.5575
  10   2.0000      -7.142049      -194.3450
  11   2.0000      -7.139748      -194.2824
  12   2.0000      -7.139551      -194.2771
  13   2.0000      -7.139384      -194.2725
  14   2.0000      -7.138727      -194.2546
  15   2.0000      -7.132032      -194.0725
  16   2.0000      -7.131158      -194.0487
  17   2.0000      -0.909411       -24.7463
  18   2.0000      -0.847382       -23.0584
  19   2.0000      -0.815347       -22.1867
  20   2.0000      -0.703366       -19.1396
  21   2.0000      -0.548644       -14.9294
  22   2.0000      -0.484658       -13.1882
  23   2.0000      -0.466720       -12.7001
  24   2.0000      -0.405526       -11.0349
  25   2.0000      -0.403191       -10.9714
  26   2.0000      -0.339154        -9.2288
  27   2.0000      -0.329958        -8.9786
  28   2.0000      -0.317049        -8.6273
  29   2.0000      -0.309109        -8.4113
  30   2.0000      -0.292071        -7.9477
  31   2.0000      -0.233661        -6.3582
  32   0.0000      -0.053432        -1.4540
  33   0.0000      -0.028519        -0.7760
  34   0.0000      -0.024203        -0.6586
  35   0.0000       0.061416         1.6712
  36   0.0000       0.106461         2.8970

MULLIKEN ATOMIC CHARGES
-----------------------
   0 C :   -0.084295
   1 C :    0.079872
   2 Cl:   -0.070471
   3 Cl:   -0.068102
   4 Cl:   -0.094313
   5 H :    0.237308
Sum of atomic charges:   -0.0000000

LOEWDIN ATOMIC CHARGES
----------------------
   0 C :   -0.297369
   1 C :   -0.336137
   2 Cl:    0.156555
   3 Cl:    0.150043
   4 Cl:    0.127373
   5 H :    0.199534

  Mayer bond orders larger than 0.100000
B(  0-C ,  1-C ) :   1.7025 B(  0-C ,  4-Cl) :   1.0431 B(  0-C ,  5-H ) :   0.9219
B(  1-C ,  2-Cl) :   1.0060 B(  1-C ,  3-Cl) :   1.0824

Dispersion correction           -0.002072318
FINAL SINGLE POINT ENERGY     -1457.291496684267

DIPOLE MOMENT
-------------

Method             : SCF
Type of density    : Electron Density
Multiplicity       :   1
Irrep              :   0
Energy             : -1457.2950550881093932 Eh
Relativity type    :
Basis              : AO
                                X                 Y                 Z
Electronic contribution:      0.641577070      -1.934137686      -0.002310048
Nuclear contribution   :     -0.602180255       2.496235434       0.002106681
                        -----------------------------------------
Total Dipole Moment    :      0.039396815       0.562097747      -0.000203367
                        -----------------------------------------
Magnitude (a.u.)       :      0.563476732
Magnitude (Debye)      :      1.432244031

Rotational constants in cm-1:             0.131438             0.050633             0.036552
Rotational constants in MHz :          3940.423969          1517.925083          1095.802042

                             ****ORCA TERMINATED NORMALLY****
TOTAL RUN TIME: 0 days 0 hours 0 minutes 12 seconds 678 msec
