                         Program Version 6.0.0  -   RELEASE  -
|  1> ! r2scan-3c def2/J RI DEFGRID2 scfconv6 printgap
|  2> %output
|  3>     printlevel normal
|  4> end
|  5> * xyz 0 1
|  6> C -3.0800224944 0.4091509766 -0.0044777198
|  7> C -1.6224781651 0.0569320322 0.0029727112
|  8> C -1.1961603471 -1.2622159769 0.0017554143
|  9> C 0.1532114455 -1.5676506881 0.0005699863
| 10> C 1.1055559479 -0.5578849526 -0.0002887764
| 11> C 0.6987897165 0.7802229132 0.0018281067
| 12> C -0.6584711692 1.0575940949 0.0032859324
| 13> C 1.7060177884 1.891900421 -0.0008720266
| 14> O 2.444464316 -0.8376281812 -0.0016702797
| 15> H -3.6932700623 -0.4794706242 0.118047522
| 16> H -3.3074202822 1.1067315873 0.7993197293
| 17> H -3.3467855912 0.8869573829 -0.9463239957
| 18> H -1.9202608851 -2.0637000283 0.0025083501
| 19> H 0.4689733653 -2.6016825161 0.0005383275
| 20> H -0.9720457749 2.0920221084 0.0054972515
| 21> H 1.5277322488 2.5658778158 0.8348880283
| 22> H 2.711402223 1.4885367456 0.0762558557
| 23> H 1.6284255355 2.4676380875 -0.9218958117
| 24> H 2.5819416363 -1.7958067383 0.0007921117
| 25> *
| 26>
| 27>                          ****END OF INPUT****

CARTESIAN COORDINATES (ANGSTROEM)
---------------------------------
  C     -3.080022    0.409151   -0.004478
  C     -1.622478    0.056932    0.002973
  C     -1.196160   -1.262216    0.001755
  C      0.153211   -1.567651    0.000570
  C      1.105556   -0.557885   -0.000289
  C      0.698790    0.780223    0.001828
  C     -0.658471    1.057594    0.003286
  C      1.706018    1.891900   -0.000872
  O      2.444464   -0.837628   -0.001670
  H     -3.693270   -0.479471    0.118048
  H     -3.307420    1.106732    0.799320
  H     -3.346786    0.886957   -0.946324
  H     -1.920261   -2.063700    0.002508
  H      0.468973   -2.601683    0.000538
  H     -0.972046    2.092022    0.005497
  H      1.527732    2.565878    0.834888
  H      2.711402    1.488537    0.076256
  H      1.628426    2.467638   -0.921896
  H      2.581942   -1.795807    0.000792

 Total Charge           Charge          ....    0
 Multiplicity           Mult            ....    1
 Number of Electrons    NEL             ....   66
 Basis Dimension        Dim             ....  226

ORBITAL ENERGIES
----------------

  NO   OCC          E(Eh)            E(eV)
   0   2.0000     -18.981238      -516.5058
   1   2.0000     -10.088248      -274.5152
   2   2.0000     -10.035846      -273.0893
   3   2.0000     -10.031707      -272.9766
   4   2.0000     -10.029535      -272.9175
   5   2.0000     -10.026992      -272.8483
   6   2.0000     -10.024046      -272.7682
   7   2.0000     -10.022690      -272.7312
   8   2.0000     -10.019442      -272.6429
   9   2.0000      -1.023832       -27.8599
  10   2.0000      -0.823146       -22.3989
  11   2.0000      -0.745906       -20.2971
  12   2.0000      -0.725418       -19.7396
  13   2.0000      -0.654324       -17.8051
  14   2.0000      -0.644264       -17.5313
  15   2.0000      -0.585197       -15.9240
  16   2.0000      -0.538756       -14.6603
  17   2.0000      -0.509024       -13.8512
  18   2.0000      -0.454853       -12.3772
  19   2.0000      -0.428314       -11.6550
  20   2.0000      -0.401067       -10.9136
  21   2.0000      -0.399555       -10.8725
  22   2.0000      -0.382423       -10.4063
  23   2.0000      -0.374780       -10.1983
  24   2.0000      -0.370984       -10.0950
  25   2.0000      -0.357631        -9.7316
  26   2.0000      -0.353297        -9.6137
  27   2.0000      -0.335807        -9.1378
  28   2.0000      -0.311992        -8.4897
  29   2.0000      -0.298003        -8.1091
  30   2.0000      -0.295120        -8.0306
  31   2.0000      -0.224645        -6.1129
  32   2.0000      -0.192952        -5.2505
  33   0.0000      -0.029866        -0.8127
  34   0.0000      -0.006062        -0.1650
  35   0.0000       0.057227         1.5572
  36   0.0000       0.079880         2.1737
  37   0.0000       0.098176         2.6715

MULLIKEN ATOMIC CHARGES
-----------------------
   0 C :   -0.546187
   1 C :    0.189317
   2 C :   -0.212019
   3 C :   -0.339146
   4 C :    0.377616
   5 C :    0.064777
   6 C :   -0.229316
   7 C :   -0.586173
   8 O :   -0.415401
   9 H :    0.148241
  10 H :    0.155193
  11 H :    0.162815
  12 H :    0.146125
  13 H :    0.132522
  14 H :    0.145988
  15 H :    0.155214
  16 H :    0.182865
  17 H :    0.160278
  18 H :    0.307290
Sum of atomic charges:   -0.0000000

LOEWDIN ATOMIC CHARGES
----------------------
   0 C :   -0.390969
   1 C :   -0.115009
   2 C :   -0.163722
   3 C :   -0.166216
   4 C :    0.181605
   5 C :   -0.074404
   6 C :   -0.148501
   7 C :   -0.379687
   8 O :   -0.521045
   9 H :    0.157745
  10 H :    0.161533
  11 H :    0.162497
  12 H :    0.167614
  13 H :    0.166884
  14 H :    0.171450
  15 H :    0.163768
  16 H :    0.177817
  17 H :    0.165248
  18 H :    0.283393

  Mayer bond orders larger than 0.100000
B(  0-C ,  1-C ) :   0.7767 B(  0-C ,  9-H ) :   0.9964 B(  0-C , 10-H ) :   0.9820
B(  0-C , 11-H ) :   0.9762 B(  1-C ,  2-C ) :   1.4345 B(  1-C ,  6-C ) :   1.4158
B(  2-C ,  3-C ) :   1.4194 B(  2-C , 12-H ) :   0.9269 B(  3-C ,  4-C ) :   1.2973
B(  3-C , 13-H ) :   0.9465 B(  4-C ,  5-C ) :   1.4956 B(  4-C ,  8-O ) :   0.9779
B(  5-C ,  6-C ) :   1.4027 B(  5-C ,  7-C ) :   0.7647 B(  6-C , 14-H ) :   0.9399
B(  7-C , 15-H ) :   0.9814 B(  7-C , 16-H ) :   0.9953 B(  7-C , 17-H ) :   0.9761
B(  8-O , 18-H ) :   0.8854

Dispersion correction           -0.006136045
FINAL SINGLE POINT ENERGY      -386.003412922623

DIPOLE MOMENT
-------------

Method             : SCF
Type of density    : Electron Density
Multiplicity       :   1
Irrep              :   0
Energy             :  -386.0045894589424620 Eh
Relativity type    :
Basis              : AO
                                X                 Y                 Z
Electronic contribution:      3.919655539      -3.752793406       0.020356356
Nuclear contribution   :     -4.017888510       3.427948412      -0.028519406
                        -----------------------------------------
Total Dipole Moment    :     -0.098232971      -0.324844994      -0.008163050
                        -----------------------------------------
Magnitude (a.u.)       :      0.339471092
Magnitude (Debye)      :      0.862866942

Rotational constants in cm-1:             0.100004             0.044063             0.030937
Rotational constants in MHz :          2998.032633          1320.960921           927.468638

                             ****ORCA TERMINATED NORMALLY****
TOTAL RUN TIME: 0 days 0 hours 0 minutes 34 seconds 496 msec
