                         Program Version 6.0.0  -   RELEASE  -
|  1> ! r2scan-3c def2/J RI DEFGRID2 scfconv6 printgap
|  2> %output
|  3>     printlevel normal
|  4> end
|  5> %cpcm
|  6>     smd true
|  7>     smdsolvent "water"
|  8> end
|  9> * xyz 0 1
| 10> C -3.0800224944 0.4091509766 -0.0044777198
| 11> C -1.6224781651 0.0569320322 0.0029727112
| 12> C -1.1961603471 -1.2622159769 0.0017554143
| 13> C 0.1532114455 -1.5676506881 0.0005699863
| 14> C 1.1055559479 -0.5578849526 -0.0002887764
| 15> C 0.6987897165 0.7802229132 0.0018281067
| 16> C -0.6584711692 1.0575940949 0.0032859324
| 17> C 1.7060177884 1.891900421 -0.0008720266
| 18> O 2.444464316 -0.8376281812 -0.0016702797
| 19> H -3.6932700623 -0.4794706242 0.118047522
| 20> H -3.3074202822 1.1067315873 0.7993197293
| 21> H -3.3467855912 0.8869573829 -0.9463239957
| 22> H -1.9202608851 -2.0637000283 0.0025083501
| 23> H 0.4689733653 -2.6016825161 0.0005383275
| 24> H -0.9720457749 2.0920221084 0.0054972515
| 25> H 1.5277322488 2.5658778158 0.8348880283
| 26> H 2.711402223 1.4885367456 0.0762558557
| 27> H 1.6284255355 2.4676380875 -0.9218958117
| 28> H 2.5819416363 -1.7958067383 0.0007921117
| 29> *
| 30>
| 31>                          ****END OF INPUT****

CARTESIAN COORDINATES (ANGSTROEM)
---------------------------------
  C     -3.080022    0.409151   -0.004478
  C     -1.622478    0.056932    0.002973
  C     -1.196160   -1.262216    0.001755
  C      0.153211   -1.567651    0.000570
  C      1.105556   -0.557885   -0.000289
  C      0.698790    0.780223    0.001828
  C     -0.658471    1.057594    0.003286
  C      1.706018    1.891900   -0.000872
  O      2.444464   -0.837628   -0.001670
  H     -3.693270   -0.479471    0.118048
  H     -3.307420    1.106732    0.799320
  H     -3.346786    0.886957   -0.946324
  H     -1.920261   -2.063700    0.002508
  H      0.468973   -2.601683    0.000538
  H     -0.972046    2.092022    0.005497
  H      1.527732    2.565878    0.834888
  H      2.711402    1.488537    0.076256
  H      1.628426    2.467638   -0.921896
  H      2.581942   -1.795807    0.000792

 Total Charge           Charge          ....    0
 Multiplicity           Mult            ....    1
 Number of Electrons    NEL             ....   66
 Basis Dimension        Dim             ....  226

ORBITAL ENERGIES
----------------

  NO   OCC          E(Eh)            E(eV)
   0   2.0000     -18.978942      -516.4433
   1   2.0000     -10.089205      -274.5412
   2   2.0000     -10.037940      -273.1462
   3   2.0000     -10.032523      -272.9988
   4   2.0000     -10.027241      -272.8551
   5   2.0000     -10.025891      -272.8184
   6   2.0000     -10.023980      -272.7664
   7   2.0000     -10.017492      -272.5898
   8   2.0000     -10.015815      -272.5442
   9   2.0000      -1.021652       -27.8006
  10   2.0000      -0.824773       -22.4432
  11   2.0000      -0.745847       -20.2955
  12   2.0000      -0.724192       -19.7063
  13   2.0000      -0.652893       -17.7661
  14   2.0000      -0.642119       -17.4729
  15   2.0000      -0.582205       -15.8426
  16   2.0000      -0.537165       -14.6170
  17   2.0000      -0.505857       -13.7651
  18   2.0000      -0.454358       -12.3637
  19   2.0000      -0.424157       -11.5419
  20   2.0000      -0.400693       -10.9034
  21   2.0000      -0.396863       -10.7992
  22   2.0000      -0.378426       -10.2975
  23   2.0000      -0.372830       -10.1452
  24   2.0000      -0.368381       -10.0241
  25   2.0000      -0.357773        -9.7355
  26   2.0000      -0.351844        -9.5741
  27   2.0000      -0.332838        -9.0570
  28   2.0000      -0.309571        -8.4239
  29   2.0000      -0.297497        -8.0953
  30   2.0000      -0.296082        -8.0568
  31   2.0000      -0.227917        -6.2019
  32   2.0000      -0.195951        -5.3321
  33   0.0000      -0.031970        -0.8699
  34   0.0000      -0.008859        -0.2411
  35   0.0000       0.075395         2.0516
  36   0.0000       0.089673         2.4401
  37   0.0000       0.106943         2.9101

MULLIKEN ATOMIC CHARGES
-----------------------
   0 C :   -0.566854
   1 C :    0.143286
   2 C :   -0.234386
   3 C :   -0.343193
   4 C :    0.316034
   5 C :    0.042219
   6 C :   -0.248513
   7 C :   -0.600193
   8 O :   -0.458470
   9 H :    0.168342
  10 H :    0.170524
  11 H :    0.176851
  12 H :    0.178094
  13 H :    0.178809
  14 H :    0.174634
  15 H :    0.174579
  16 H :    0.183190
  17 H :    0.179007
  18 H :    0.366040
Sum of atomic charges:   -0.0000000

LOEWDIN ATOMIC CHARGES
----------------------
   0 C :   -0.396610
   1 C :   -0.125667
   2 C :   -0.178379
   3 C :   -0.166539
   4 C :    0.167653
   5 C :   -0.086552
   6 C :   -0.159035
   7 C :   -0.384816
   8 O :   -0.537239
   9 H :    0.163837
  10 H :    0.167025
  11 H :    0.167853
  12 H :    0.178591
  13 H :    0.184771
  14 H :    0.182041
  15 H :    0.171048
  16 H :    0.175559
  17 H :    0.172157
  18 H :    0.304302

  Mayer bond orders larger than 0.100000
B(  0-C ,  1-C ) :   0.7998 B(  0-C ,  9-H ) :   0.9905 B(  0-C , 10-H ) :   0.9750
B(  0-C , 11-H ) :   0.9694 B(  1-C ,  2-C ) :   1.3878 B(  1-C ,  6-C ) :   1.3867
B(  2-C ,  3-C ) :   1.3635 B(  2-C , 12-H ) :   0.9472 B(  3-C ,  4-C ) :   1.2958
B(  3-C , 13-H ) :   0.9679 B(  4-C ,  5-C ) :   1.4344 B(  4-C ,  8-O ) :   0.9910
B(  5-C ,  6-C ) :   1.3888 B(  5-C ,  7-C ) :   0.7744 B(  6-C , 14-H ) :   0.9524
B(  7-C , 15-H ) :   0.9715 B(  7-C , 16-H ) :   0.9980 B(  7-C , 17-H ) :   0.9668
B(  8-O , 18-H ) :   0.8547

Dispersion correction           -0.006136045
FINAL SINGLE POINT ENERGY      -386.010876553941

DIPOLE MOMENT
-------------

Method             : SCF
Type of density    : Electron Density
Multiplicity       :   1
Irrep              :   0
Energy             :  -386.0120530902601104 Eh
Relativity type    :
Basis              : AO
                                X                 Y                 Z
Electronic contribution:      3.838349553      -3.903179218       0.016493410
Nuclear contribution   :     -4.017888510       3.427948412      -0.028519406
                        -----------------------------------------
Total Dipole Moment    :     -0.179538957      -0.475230806      -0.012025996
                        -----------------------------------------
Magnitude (a.u.)       :      0.508156650
Magnitude (Debye)      :      1.291631556

Rotational constants in cm-1:             0.100004             0.044063             0.030937
Rotational constants in MHz :          2998.032633          1320.960921           927.468638

                             ****ORCA TERMINATED NORMALLY****
TOTAL RUN TIME: 0 days 0 hours 0 minutes 38 seconds 640 msec
