                         Program Version 6.0.0  -   RELEASE  -
|  1> ! wb97x-v def2-tzvp def2/J RIJCOSX DEFGRID2 scfconv7 GCP(DFT/TZ) printgap
|  2> %output
|  3>     printlevel normal
|  4> end
|  5> * xyz 0 1
|  6> C -0.14406346276902093 -1.2070629038507643 0.00012000662128490054
|  7> C -1.5300515265136367 -1.1461222142298069 6.977802753721979e-05
|  8> N -2.225331324043192 -2.2491656466728845e-05 -0.00025931654276160123
|  9> C -1.5300804690942111 1.1460922775280447 3.901680900037142e-05
| 10> C -0.144094063949293 1.2070550954663795 8.870389140616281e-05
| 11> C 0.5600493441140809 2.8342416701798015e-06 -0.00044486796720150486
| 12> C 1.9830273598389947 4.278189206936706e-05 -0.0002510273883656409
| 13> N 3.1423146402992552 6.206921782995563e-05 -0.00018703852514309103
| 14> H 0.37560354704819887 -2.1577823764740334 0.00040502601416095025
| 15> H -2.109093754170974 -2.065898055977235 -0.00013896977852617437
| 16> H -2.109141896047897 2.065853570344033 -0.0001816975359944361
| 17> H 0.3755601653530339 2.1577804500281688 0.0003525637990100742
| 18> *
| 19>
| 20>                          ****END OF INPUT****

CARTESIAN COORDINATES (ANGSTROEM)
---------------------------------
  C     -0.144063   -1.207063    0.000120
  C     -1.530052   -1.146122    0.000070
  N     -2.225331   -0.000022   -0.000259
  C     -1.530080    1.146092    0.000039
  C     -0.144094    1.207055    0.000089
  C      0.560049    0.000003   -0.000445
  C      1.983027    0.000043   -0.000251
  N      3.142315    0.000062   -0.000187
  H      0.375604   -2.157782    0.000405
  H     -2.109094   -2.065898   -0.000139
  H     -2.109142    2.065854   -0.000182
  H      0.375560    2.157780    0.000353

 Total Charge           Charge          ....    0
 Multiplicity           Mult            ....    1
 Number of Electrons    NEL             ....   54
 Basis Dimension        Dim             ....  272

ORBITAL ENERGIES
----------------

  NO   OCC          E(Eh)            E(eV)
   0   2.0000     -16.556536      -450.5262
   1   2.0000     -16.547341      -450.2761
   2   2.0000     -12.129640      -330.0643
   3   2.0000     -12.114035      -329.6396
   4   2.0000     -12.113670      -329.6297
   5   2.0000     -12.104936      -329.3921
   6   2.0000     -12.095981      -329.1484
   7   2.0000     -12.095687      -329.1404
   8   2.0000      -1.548065       -42.1250
   9   2.0000      -1.537386       -41.8344
  10   2.0000      -1.398412       -38.0527
  11   2.0000      -1.331063       -36.2201
  12   2.0000      -1.222556       -33.2675
  13   2.0000      -1.188538       -32.3418
  14   2.0000      -1.078636       -29.3512
  15   2.0000      -1.037171       -28.2229
  16   2.0000      -0.979637       -26.6573
  17   2.0000      -0.948410       -25.8075
  18   2.0000      -0.919126       -25.0107
  19   2.0000      -0.912913       -24.8416
  20   2.0000      -0.871737       -23.7212
  21   2.0000      -0.867267       -23.5995
  22   2.0000      -0.831087       -22.6150
  23   2.0000      -0.816071       -22.2064
  24   2.0000      -0.797412       -21.6987
  25   2.0000      -0.732341       -19.9280
  26   2.0000      -0.683061       -18.5870
  27   0.0000      -0.358884        -9.7657
  28   0.0000      -0.274495        -7.4694
  29   0.0000      -0.249851        -6.7988
  30   0.0000      -0.208641        -5.6774
  31   0.0000      -0.118243        -3.2175

MULLIKEN ATOMIC CHARGES
-----------------------
   0 C :   -0.146608
   1 C :   -0.036980
   2 N :   -0.204412
   3 C :   -0.037014
   4 C :   -0.146582
   5 C :    0.233352
   6 C :   -0.258445
   7 N :    0.019301
   8 H :    0.153141
   9 H :    0.135547
  10 H :    0.135553
  11 H :    0.153147
Sum of atomic charges:    0.0000000

LOEWDIN ATOMIC CHARGES
----------------------
   0 C :   -0.085566
   1 C :   -0.183216
   2 N :    0.137831
   3 C :   -0.183218
   4 C :   -0.085565
   5 C :   -0.136012
   6 C :   -0.140849
   7 N :    0.080761
   8 H :    0.156806
   9 H :    0.141111
  10 H :    0.141111
  11 H :    0.156806

  Mayer bond orders larger than 0.100000
B(  0-C ,  1-C ) :   1.4266 B(  0-C ,  5-C ) :   1.3800 B(  0-C ,  8-H ) :   0.9564
B(  1-C ,  2-N ) :   1.4917 B(  1-C ,  9-H ) :   0.9812 B(  2-N ,  3-C ) :   1.4917
B(  3-C ,  4-C ) :   1.4266 B(  3-C , 10-H ) :   0.9812 B(  4-C ,  5-C ) :   1.3800
B(  4-C , 11-H ) :   0.9564 B(  5-C ,  6-C ) :   0.8957 B(  6-C ,  7-N ) :   3.1156

FINAL SINGLE POINT ENERGY      -340.538047471929

DIPOLE MOMENT
-------------

Method             : SCF
Type of density    : Electron Density
Multiplicity       :   1
Irrep              :   0
Energy             :  -340.5432243714293463 Eh
Relativity type    :
Basis              : AO
                                X                 Y                 Z
Electronic contribution:      2.413309735       0.000041735      -0.000558177
Nuclear contribution   :     -3.236033857      -0.000065092       0.000781848
                        -----------------------------------------
Total Dipole Moment    :     -0.822724122      -0.000023357       0.000223670
                        -----------------------------------------
Magnitude (a.u.)       :      0.822724153
Magnitude (Debye)      :      2.091198606

Rotational constants in cm-1:             0.199393             0.051924             0.041196
Rotational constants in MHz :          5977.657069          1556.649799          1235.033164

                             ****ORCA TERMINATED NORMALLY****
TOTAL RUN TIME: 0 days 0 hours 1 minutes 41 seconds 205 msec
