                         Program Version 6.0.0  -   RELEASE  -
|  1> ! wb97x-v def2-tzvp def2/J RIJCOSX DEFGRID2 scfconv7 GCP(DFT/TZ) printgap
|  2> %output
|  3>     printlevel normal
|  4> end
|  5> %cpcm
|  6>     smd true
|  7>     smdsolvent "water"
|  8> end
|  9> * xyz 0 1
| 10> C -0.14406346276902093 -1.2070629038507643 0.00012000662128490054
| 11> C -1.5300515265136367 -1.1461222142298069 6.977802753721979e-05
| 12> N -2.225331324043192 -2.2491656466728845e-05 -0.00025931654276160123
| 13> C -1.5300804690942111 1.1460922775280447 3.901680900037142e-05
| 14> C -0.144094063949293 1.2070550954663795 8.870389140616281e-05
| 15> C 0.5600493441140809 2.8342416701798015e-06 -0.00044486796720150486
| 16> C 1.9830273598389947 4.278189206936706e-05 -0.0002510273883656409
| 17> N 3.1423146402992552 6.206921782995563e-05 -0.00018703852514309103
| 18> H 0.37560354704819887 -2.1577823764740334 0.00040502601416095025
| 19> H -2.109093754170974 -2.065898055977235 -0.00013896977852617437
| 20> H -2.109141896047897 2.065853570344033 -0.0001816975359944361
| 21> H 0.3755601653530339 2.1577804500281688 0.0003525637990100742
| 22> *
| 23>
| 24>                          ****END OF INPUT****

CARTESIAN COORDINATES (ANGSTROEM)
---------------------------------
  C     -0.144063   -1.207063    0.000120
  C     -1.530052   -1.146122    0.000070
  N     -2.225331   -0.000022   -0.000259
  C     -1.530080    1.146092    0.000039
  C     -0.144094    1.207055    0.000089
  C      0.560049    0.000003   -0.000445
  C      1.983027    0.000043   -0.000251
  N      3.142315    0.000062   -0.000187
  H      0.375604   -2.157782    0.000405
  H     -2.109094   -2.065898   -0.000139
  H     -2.109142    2.065854   -0.000182
  H      0.375560    2.157780    0.000353

 Total Charge           Charge          ....    0
 Multiplicity           Mult            ....    1
 Number of Electrons    NEL             ....   54
 Basis Dimension        Dim             ....  272

ORBITAL ENERGIES
----------------

  NO   OCC          E(Eh)            E(eV)
   0   2.0000     -16.546589      -450.2556
   1   2.0000     -16.545186      -450.2174
   2   2.0000     -12.114416      -329.6500
   3   2.0000     -12.109909      -329.5274
   4   2.0000     -12.096225      -329.1550
   5   2.0000     -12.095874      -329.1455
   6   2.0000     -12.077782      -328.6531
   7   2.0000     -12.077513      -328.6458
   8   2.0000      -1.540230       -41.9118
   9   2.0000      -1.534771       -41.7632
  10   2.0000      -1.383548       -37.6483
  11   2.0000      -1.313690       -35.7473
  12   2.0000      -1.209191       -32.9038
  13   2.0000      -1.172476       -31.9047
  14   2.0000      -1.063745       -28.9460
  15   2.0000      -1.020716       -27.7751
  16   2.0000      -0.961616       -26.1669
  17   2.0000      -0.931834       -25.3565
  18   2.0000      -0.916451       -24.9379
  19   2.0000      -0.898230       -24.4421
  20   2.0000      -0.857213       -23.3259
  21   2.0000      -0.853599       -23.2276
  22   2.0000      -0.829396       -22.5690
  23   2.0000      -0.816716       -22.2240
  24   2.0000      -0.786813       -21.4103
  25   2.0000      -0.721201       -19.6249
  26   2.0000      -0.664595       -18.0845
  27   0.0000      -0.347371        -9.4525
  28   0.0000      -0.256264        -6.9733
  29   0.0000      -0.247481        -6.7343
  30   0.0000      -0.202069        -5.4986
  31   0.0000      -0.106878        -2.9083

MULLIKEN ATOMIC CHARGES
-----------------------
   0 C :   -0.175499
   1 C :   -0.040948
   2 N :   -0.269595
   3 C :   -0.040982
   4 C :   -0.175475
   5 C :    0.246932
   6 C :   -0.180945
   7 N :   -0.084498
   8 H :    0.188634
   9 H :    0.171865
  10 H :    0.171871
  11 H :    0.188642
Sum of atomic charges:    0.0000000

LOEWDIN ATOMIC CHARGES
----------------------
   0 C :   -0.071951
   1 C :   -0.183896
   2 N :    0.102501
   3 C :   -0.183899
   4 C :   -0.071951
   5 C :   -0.132211
   6 C :   -0.113704
   7 N :    0.017184
   8 H :    0.168835
   9 H :    0.150129
  10 H :    0.150129
  11 H :    0.168834

  Mayer bond orders larger than 0.100000
B(  0-C ,  1-C ) :   1.4482 B(  0-C ,  5-C ) :   1.3559 B(  0-C ,  8-H ) :   0.9581
B(  1-C ,  2-N ) :   1.4791 B(  1-C ,  9-H ) :   0.9621 B(  2-N ,  3-C ) :   1.4791
B(  3-C ,  4-C ) :   1.4481 B(  3-C , 10-H ) :   0.9621 B(  4-C ,  5-C ) :   1.3559
B(  4-C , 11-H ) :   0.9581 B(  5-C ,  6-C ) :   0.9140 B(  6-C ,  7-N ) :   3.1148

FINAL SINGLE POINT ENERGY      -340.548090920673

DIPOLE MOMENT
-------------

Method             : SCF
Type of density    : Electron Density
Multiplicity       :   1
Irrep              :   0
Energy             :  -340.5532678201724934 Eh
Relativity type    :
Basis              : AO
                                X                 Y                 Z
Electronic contribution:      2.255781550       0.000033521      -0.000468820
Nuclear contribution   :     -3.236033857      -0.000065092       0.000781848
                        -----------------------------------------
Total Dipole Moment    :     -0.980252307      -0.000031571       0.000313028
                        -----------------------------------------
Magnitude (a.u.)       :      0.980252357
Magnitude (Debye)      :      2.491603481

Rotational constants in cm-1:             0.199393             0.051924             0.041196
Rotational constants in MHz :          5977.657069          1556.649799          1235.033164

                             ****ORCA TERMINATED NORMALLY****
TOTAL RUN TIME: 0 days 0 hours 1 minutes 52 seconds 359 msec
