                         Program Version 6.0.0  -   RELEASE  -
|  1> ! pbe def2-sv(p) def2/J RI DEFGRID1 loosescf d4 GCP(DFT/SV(P)) printgap
|  2> %output
|  3>     printlevel normal
|  4> end
|  5> * xyz 0 1
|  6> C -2.4499945573 -1.0142380773 -0.3846431592
|  7> C -1.0852190178 -0.5469934264 0.1302663432
|  8> H -1.1350142743 -0.5384201657 1.2326800635
|  9> C -0.7234315404 0.8683073722 -0.3626108658
| 10> H -0.6513803919 0.8606786695 -1.4559434791
| 11> C 0.6532029397 1.2528463655 0.2040442173
| 12> H 0.5914635538 1.313580651 1.3040749222
| 13> C 1.6791322567 0.169988219 -0.1549907021
| 14> H 1.821279976 0.1609857237 -1.2457366036
| 15> C 1.1643973673 -1.2175664164 0.2607375445
| 16> H 1.0984925976 -1.2513511134 1.3703576386
| 17> O -0.1069886181 -1.4794560383 -0.2851169444
| 18> O 2.0519638682 -2.1616295161 -0.2153674687
| 19> O 2.8787793622 0.4849517626 0.504726035
| 20> O 1.0312070612 2.4975137079 -0.3231513418
| 21> O -1.7192909499 1.8024713025 -0.0664698665
| 22> O -3.4162806091 -0.6773209636 0.5815390024
| 23> H -2.3970864466 -2.1010609705 -0.5276099987
| 24> H -2.6631299951 -0.5324893462 -1.3441355867
| 25> H 1.6520821319 -3.0437665173 -0.1637617752
| 26> H 3.5395466999 -0.1931854138 0.3003551557
| 27> H 1.9374885155 2.6879548748 -0.036116399
| 28> H -1.833747594 1.8756785644 0.8923517844
| 29> H -4.2999873708 -0.8329777983 0.2204687684
| 30> *
| 31>
| 32>                          ****END OF INPUT****

CARTESIAN COORDINATES (ANGSTROEM)
---------------------------------
  C     -2.449995   -1.014238   -0.384643
  C     -1.085219   -0.546993    0.130266
  H     -1.135014   -0.538420    1.232680
  C     -0.723432    0.868307   -0.362611
  H     -0.651380    0.860679   -1.455943
  C      0.653203    1.252846    0.204044
  H      0.591464    1.313581    1.304075
  C      1.679132    0.169988   -0.154991
  H      1.821280    0.160986   -1.245737
  C      1.164397   -1.217566    0.260738
  H      1.098493   -1.251351    1.370358
  O     -0.106989   -1.479456   -0.285117
  O      2.051964   -2.161630   -0.215367
  O      2.878779    0.484952    0.504726
  O      1.031207    2.497514   -0.323151
  O     -1.719291    1.802471   -0.066470
  O     -3.416281   -0.677321    0.581539
  H     -2.397086   -2.101061   -0.527610
  H     -2.663130   -0.532489   -1.344136
  H      1.652082   -3.043767   -0.163762
  H      3.539547   -0.193185    0.300355
  H      1.937489    2.687955   -0.036116
  H     -1.833748    1.875679    0.892352
  H     -4.299987   -0.832978    0.220469

 Total Charge           Charge          ....    0
 Multiplicity           Mult            ....    1
 Number of Electrons    NEL             ....   96
 Basis Dimension        Dim             ....  192

ORBITAL ENERGIES
----------------

  NO   OCC          E(Eh)            E(eV)
   0   2.0000     -18.775732      -510.9137
   1   2.0000     -18.769515      -510.7445
   2   2.0000     -18.758993      -510.4581
   3   2.0000     -18.751989      -510.2676
   4   2.0000     -18.744873      -510.0739
   5   2.0000     -18.741364      -509.9784
   6   2.0000      -9.988486      -271.8005
   7   2.0000      -9.944442      -270.6020
   8   2.0000      -9.939024      -270.4546
   9   2.0000      -9.938838      -270.4495
  10   2.0000      -9.938611      -270.4434
  11   2.0000      -9.933243      -270.2973
  12   2.0000      -0.989326       -26.9209
  13   2.0000      -0.940954       -25.6047
  14   2.0000      -0.936207       -25.4755
  15   2.0000      -0.924067       -25.1451
  16   2.0000      -0.919022       -25.0079
  17   2.0000      -0.909656       -24.7530
  18   2.0000      -0.700704       -19.0671
  19   2.0000      -0.692900       -18.8548
  20   2.0000      -0.618338       -16.8258
  21   2.0000      -0.579928       -15.7806
  22   2.0000      -0.552752       -15.0412
  23   2.0000      -0.535903       -14.5827
  24   2.0000      -0.509124       -13.8540
  25   2.0000      -0.488942       -13.3048
  26   2.0000      -0.477050       -12.9812
  27   2.0000      -0.460943       -12.5429
  28   2.0000      -0.442806       -12.0494
  29   2.0000      -0.428281       -11.6541
  30   2.0000      -0.415048       -11.2940
  31   2.0000      -0.408924       -11.1274
  32   2.0000      -0.383050       -10.4233
  33   2.0000      -0.377188       -10.2638
  34   2.0000      -0.351969        -9.5776
  35   2.0000      -0.347012        -9.4427
  36   2.0000      -0.325376        -8.8539
  37   2.0000      -0.321700        -8.7539
  38   2.0000      -0.299296        -8.1442
  39   2.0000      -0.294621        -8.0171
  40   2.0000      -0.281416        -7.6577
  41   2.0000      -0.270671        -7.3653
  42   2.0000      -0.255131        -6.9425
  43   2.0000      -0.241896        -6.5823
  44   2.0000      -0.229826        -6.2539
  45   2.0000      -0.220084        -5.9888
  46   2.0000      -0.213853        -5.8192
  47   2.0000      -0.197846        -5.3837
  48   0.0000       0.019539         0.5317
  49   0.0000       0.021728         0.5912
  50   0.0000       0.033817         0.9202
  51   0.0000       0.038001         1.0341
  52   0.0000       0.063748         1.7347

MULLIKEN ATOMIC CHARGES
-----------------------
   0 C :    0.096630
   1 C :   -0.018383
   2 H :    0.054304
   3 C :    0.073466
   4 H :    0.067235
   5 C :    0.077814
   6 H :    0.037456
   7 C :    0.018997
   8 H :    0.062802
   9 C :    0.184084
  10 H :    0.035941
  11 O :   -0.310340
  12 O :   -0.389576
  13 O :   -0.425163
  14 O :   -0.404942
  15 O :   -0.398406
  16 O :   -0.438106
  17 H :    0.074065
  18 H :    0.074080
  19 H :    0.311148
  20 H :    0.311563
  21 H :    0.305375
  22 H :    0.298050
  23 H :    0.301907
Sum of atomic charges:   -0.0000000

LOEWDIN ATOMIC CHARGES
----------------------
   0 C :   -0.118891
   1 C :   -0.067242
   2 H :    0.102087
   3 C :   -0.069091
   4 H :    0.120151
   5 C :   -0.073536
   6 H :    0.095817
   7 C :   -0.091496
   8 H :    0.109754
   9 C :   -0.005378
  10 H :    0.079156
  11 O :   -0.151681
  12 O :   -0.302148
  13 O :   -0.321863
  14 O :   -0.315411
  15 O :   -0.296691
  16 O :   -0.342314
  17 H :    0.099014
  18 H :    0.104526
  19 H :    0.293175
  20 H :    0.291730
  21 H :    0.286925
  22 H :    0.285449
  23 H :    0.287958

  Mayer bond orders larger than 0.100000
B(  0-C ,  1-C ) :   1.0359 B(  0-C , 16-O ) :   1.0947 B(  0-C , 17-H ) :   0.9152
B(  0-C , 18-H ) :   0.9072 B(  1-C ,  2-H ) :   0.8784 B(  1-C ,  3-C ) :   1.0104
B(  1-C , 11-O ) :   0.9879 B(  3-C ,  4-H ) :   0.8589 B(  3-C ,  5-C ) :   1.0035
B(  3-C , 15-O ) :   1.0658 B(  5-C ,  6-H ) :   0.8719 B(  5-C ,  7-C ) :   1.0098
B(  5-C , 14-O ) :   1.1114 B(  7-C ,  8-H ) :   0.8663 B(  7-C ,  9-C ) :   0.9905
B(  7-C , 13-O ) :   1.0611 B(  9-C , 10-H ) :   0.8829 B(  9-C , 11-O ) :   1.0147
B(  9-C , 12-O ) :   1.1632 B( 12-O , 19-H ) :   0.8365 B( 13-O , 20-H ) :   0.8384
B( 14-O , 21-H ) :   0.8390 B( 15-O , 22-H ) :   0.8451 B( 16-O , 23-H ) :   0.8493

Dispersion correction           -0.023651146
FINAL SINGLE POINT ENERGY      -685.694552739546

DIPOLE MOMENT
-------------

Method             : SCF
Type of density    : Electron Density
Multiplicity       :   1
Irrep              :   0
Energy             :  -685.8236721908472191 Eh
Relativity type    :
Basis              : AO
                                X                 Y                 Z
Electronic contribution:      2.148235810       0.421857948      -0.227076408
Nuclear contribution   :     -2.184653733      -1.488881549       0.516070506
                        -----------------------------------------
Total Dipole Moment    :     -0.036417923      -1.067023600       0.288994098
                        -----------------------------------------
Magnitude (a.u.)       :      1.106066552
Magnitude (Debye)      :      2.811397750

Rotational constants in cm-1:             0.042747             0.024405             0.016455
Rotational constants in MHz :          1281.516584           731.647726           493.319827

                             ****ORCA TERMINATED NORMALLY****
TOTAL RUN TIME: 0 days 0 hours 0 minutes 11 seconds 632 msec
