                         Program Version 6.0.0  -   RELEASE  -
|  1> ! r2scan-3c def2/J RI DEFGRID2 scfconv6 printgap
|  2> %output
|  3>     printlevel normal
|  4> end
|  5> * xyz 0 1
|  6> C -3.4319940684 0.5924895543 0.1508489861
|  7> C -1.9358024675 0.481384632 0.1167479692
|  8> C -1.148091866 1.5191084441 -0.1315516557
|  9> C 0.3463739464 1.4704858246 -0.1619404632
| 10> C 0.8547982997 0.0321401878 -0.2747971814
| 11> H 0.57720743 -0.3574668816 -1.2600358729
| 12> C 0.1121177252 -0.8223699963 0.7585773494
| 13> C -1.3675240585 -0.8966793357 0.3843832537
| 14> H -1.9249255779 -1.3567591157 1.219209445
| 15> O -1.4775342342 -1.7479917101 -0.7530971468
| 16> C 2.3503854237 -0.0854158251 -0.124427281
| 17> C 3.0738218207 -0.7350111407 -1.0238841428
| 18> C 2.9815644705 0.544082656 1.0812637236
| 19> H -3.7415799504 1.6244840813 0.0117947158
| 20> H -3.8137981755 0.2361623638 1.107063793
| 21> H -3.8872944677 -0.0089395557 -0.6352933285
| 22> H -1.5872225733 2.4931352299 -0.3055545544
| 23> H 0.7164198182 2.0646903179 -1.000795338
| 24> H 0.7208046439 1.9315002208 0.7566290693
| 25> H 0.5194510717 -1.8344034477 0.7708225622
| 26> H 0.2028780876 -0.38799462 1.754330082
| 27> H -2.4002708139 -1.7786697916 -1.036452709
| 28> H 4.1405193568 -0.8487659668 -0.9243989958
| 29> H 2.6285663023 -1.1837001467 -1.896071173
| 30> H 3.0068038793 1.6274467708 0.9721280045
| 31> H 2.4190633208 0.3064339025 1.9809665389
| 32> H 4.0025803244 0.1924975831 1.2021260299
| 33> *
| 34>
| 35>                          ****END OF INPUT****

CARTESIAN COORDINATES (ANGSTROEM)
---------------------------------
  C     -3.431994    0.592490    0.150849
  C     -1.935802    0.481385    0.116748
  C     -1.148092    1.519108   -0.131552
  C      0.346374    1.470486   -0.161940
  C      0.854798    0.032140   -0.274797
  H      0.577207   -0.357467   -1.260036
  C      0.112118   -0.822370    0.758577
  C     -1.367524   -0.896679    0.384383
  H     -1.924926   -1.356759    1.219209
  O     -1.477534   -1.747992   -0.753097
  C      2.350385   -0.085416   -0.124427
  C      3.073822   -0.735011   -1.023884
  C      2.981564    0.544083    1.081264
  H     -3.741580    1.624484    0.011795
  H     -3.813798    0.236162    1.107064
  H     -3.887294   -0.008940   -0.635293
  H     -1.587223    2.493135   -0.305555
  H      0.716420    2.064690   -1.000795
  H      0.720805    1.931500    0.756629
  H      0.519451   -1.834403    0.770823
  H      0.202878   -0.387995    1.754330
  H     -2.400271   -1.778670   -1.036453
  H      4.140519   -0.848766   -0.924399
  H      2.628566   -1.183700   -1.896071
  H      3.006804    1.627447    0.972128
  H      2.419063    0.306434    1.980967
  H      4.002580    0.192498    1.202126

 Total Charge           Charge          ....    0
 Multiplicity           Mult            ....    1
 Number of Electrons    NEL             ....   84
 Basis Dimension        Dim             ....  294

ORBITAL ENERGIES
----------------

  NO   OCC          E(Eh)            E(eV)
   0   2.0000     -18.948233      -515.6076
   1   2.0000     -10.083336      -274.3815
   2   2.0000     -10.033532      -273.0263
   3   2.0000     -10.032932      -273.0100
   4   2.0000     -10.030988      -272.9570
   5   2.0000     -10.030631      -272.9473
   6   2.0000     -10.030224      -272.9363
   7   2.0000     -10.026620      -272.8382
   8   2.0000     -10.024649      -272.7846
   9   2.0000     -10.022043      -272.7137
  10   2.0000     -10.005632      -272.2671
  11   2.0000      -0.985258       -26.8102
  12   2.0000      -0.811780       -22.0897
  13   2.0000      -0.769997       -20.9527
  14   2.0000      -0.722316       -19.6552
  15   2.0000      -0.704896       -19.1812
  16   2.0000      -0.653920       -17.7941
  17   2.0000      -0.645567       -17.5668
  18   2.0000      -0.585269       -15.9260
  19   2.0000      -0.565787       -15.3959
  20   2.0000      -0.509639       -13.8680
  21   2.0000      -0.497050       -13.5254
  22   2.0000      -0.451854       -12.2956
  23   2.0000      -0.441651       -12.0179
  24   2.0000      -0.421971       -11.4824
  25   2.0000      -0.417386       -11.3576
  26   2.0000      -0.402251       -10.9458
  27   2.0000      -0.394672       -10.7396
  28   2.0000      -0.383138       -10.4257
  29   2.0000      -0.376374       -10.2417
  30   2.0000      -0.370348       -10.0777
  31   2.0000      -0.361262        -9.8304
  32   2.0000      -0.353557        -9.6208
  33   2.0000      -0.336200        -9.1485
  34   2.0000      -0.328871        -8.9490
  35   2.0000      -0.312651        -8.5077
  36   2.0000      -0.302737        -8.2379
  37   2.0000      -0.290931        -7.9166
  38   2.0000      -0.269713        -7.3393
  39   2.0000      -0.240331        -6.5397
  40   2.0000      -0.219062        -5.9610
  41   2.0000      -0.217470        -5.9177
  42   0.0000      -0.013911        -0.3785
  43   0.0000      -0.000102        -0.0028
  44   0.0000       0.054745         1.4897
  45   0.0000       0.083087         2.2609
  46   0.0000       0.094424         2.5694

MULLIKEN ATOMIC CHARGES
-----------------------
   0 C :   -0.513106
   1 C :    0.048969
   2 C :   -0.197768
   3 C :   -0.350581
   4 C :   -0.042406
   5 H :    0.200642
   6 C :   -0.399348
   7 C :    0.069723
   8 H :    0.144488
   9 O :   -0.423436
  10 C :    0.086953
  11 C :   -0.376282
  12 C :   -0.557852
  13 H :    0.155381
  14 H :    0.156850
  15 H :    0.143023
  16 H :    0.149477
  17 H :    0.161365
  18 H :    0.165774
  19 H :    0.174079
  20 H :    0.158611
  21 H :    0.284499
  22 H :    0.135323
  23 H :    0.145564
  24 H :    0.167179
  25 H :    0.161064
  26 H :    0.151812
Sum of atomic charges:   -0.0000000

LOEWDIN ATOMIC CHARGES
----------------------
   0 C :   -0.390476
   1 C :   -0.116927
   2 C :   -0.173328
   3 C :   -0.268219
   4 C :   -0.193555
   5 H :    0.185391
   6 C :   -0.237902
   7 C :    0.080720
   8 H :    0.170737
   9 O :   -0.605039
  10 C :   -0.119602
  11 C :   -0.321308
  12 C :   -0.397047
  13 H :    0.161458
  14 H :    0.160567
  15 H :    0.153391
  16 H :    0.162871
  17 H :    0.168689
  18 H :    0.170096
  19 H :    0.177896
  20 H :    0.166323
  21 H :    0.268627
  22 H :    0.154311
  23 H :    0.159096
  24 H :    0.162932
  25 H :    0.159583
  26 H :    0.160713

  Mayer bond orders larger than 0.100000
B(  0-C ,  1-C ) :   0.8362 B(  0-C , 13-H ) :   0.9930 B(  0-C , 14-H ) :   0.9762
B(  0-C , 15-H ) :   0.9679 B(  1-C ,  2-C ) :   1.8829 B(  1-C ,  7-C ) :   0.9084
B(  2-C ,  3-C ) :   0.9460 B(  2-C , 16-H ) :   0.9209 B(  3-C ,  4-C ) :   0.9071
B(  3-C , 17-H ) :   0.9642 B(  3-C , 18-H ) :   0.9711 B(  4-C ,  5-H ) :   1.0030
B(  4-C ,  6-C ) :   0.8769 B(  4-C , 10-C ) :   0.8668 B(  6-C ,  7-C ) :   0.9729
B(  6-C , 19-H ) :   0.9631 B(  6-C , 20-H ) :   0.9917 B(  7-C ,  8-H ) :   0.9809
B(  7-C ,  9-O ) :   0.8763 B(  9-O , 21-H ) :   0.9032 B( 10-C , 11-C ) :   1.8755
B( 10-C , 12-C ) :   0.8571 B( 11-C , 22-H ) :   0.9709 B( 11-C , 23-H ) :   0.9873
B( 12-C , 24-H ) :   0.9706 B( 12-C , 25-H ) :   0.9801 B( 12-C , 26-H ) :   0.9797

Dispersion correction           -0.009593914
FINAL SINGLE POINT ENERGY      -465.757300388124

DIPOLE MOMENT
-------------

Method             : SCF
Type of density    : Electron Density
Multiplicity       :   1
Irrep              :   0
Energy             :  -465.7593764390830984 Eh
Relativity type    :
Basis              : AO
                                X                 Y                 Z
Electronic contribution:     -2.013643758      -2.123494616      -2.182286018
Nuclear contribution   :      1.459645095       2.525564954       2.537332145
                        -----------------------------------------
Total Dipole Moment    :     -0.553998664       0.402070338       0.355046127
                        -----------------------------------------
Magnitude (a.u.)       :      0.771124392
Magnitude (Debye)      :      1.960042438

Rotational constants in cm-1:             0.071258             0.023012             0.019974
Rotational constants in MHz :          2136.263039           689.875579           598.797433

                             ****ORCA TERMINATED NORMALLY****
TOTAL RUN TIME: 0 days 0 hours 0 minutes 43 seconds 601 msec
