                         Program Version 6.0.0  -   RELEASE  -
|  1> ! r2scan-3c def2/J RI DEFGRID2 scfconv6 printgap
|  2> %output
|  3>     printlevel normal
|  4> end
|  5> %cpcm
|  6>     smd true
|  7>     smdsolvent "water"
|  8> end
|  9> * xyz 0 1
| 10> C -3.4319940684 0.5924895543 0.1508489861
| 11> C -1.9358024675 0.481384632 0.1167479692
| 12> C -1.148091866 1.5191084441 -0.1315516557
| 13> C 0.3463739464 1.4704858246 -0.1619404632
| 14> C 0.8547982997 0.0321401878 -0.2747971814
| 15> H 0.57720743 -0.3574668816 -1.2600358729
| 16> C 0.1121177252 -0.8223699963 0.7585773494
| 17> C -1.3675240585 -0.8966793357 0.3843832537
| 18> H -1.9249255779 -1.3567591157 1.219209445
| 19> O -1.4775342342 -1.7479917101 -0.7530971468
| 20> C 2.3503854237 -0.0854158251 -0.124427281
| 21> C 3.0738218207 -0.7350111407 -1.0238841428
| 22> C 2.9815644705 0.544082656 1.0812637236
| 23> H -3.7415799504 1.6244840813 0.0117947158
| 24> H -3.8137981755 0.2361623638 1.107063793
| 25> H -3.8872944677 -0.0089395557 -0.6352933285
| 26> H -1.5872225733 2.4931352299 -0.3055545544
| 27> H 0.7164198182 2.0646903179 -1.000795338
| 28> H 0.7208046439 1.9315002208 0.7566290693
| 29> H 0.5194510717 -1.8344034477 0.7708225622
| 30> H 0.2028780876 -0.38799462 1.754330082
| 31> H -2.4002708139 -1.7786697916 -1.036452709
| 32> H 4.1405193568 -0.8487659668 -0.9243989958
| 33> H 2.6285663023 -1.1837001467 -1.896071173
| 34> H 3.0068038793 1.6274467708 0.9721280045
| 35> H 2.4190633208 0.3064339025 1.9809665389
| 36> H 4.0025803244 0.1924975831 1.2021260299
| 37> *
| 38>
| 39>                          ****END OF INPUT****

CARTESIAN COORDINATES (ANGSTROEM)
---------------------------------
  C     -3.431994    0.592490    0.150849
  C     -1.935802    0.481385    0.116748
  C     -1.148092    1.519108   -0.131552
  C      0.346374    1.470486   -0.161940
  C      0.854798    0.032140   -0.274797
  H      0.577207   -0.357467   -1.260036
  C      0.112118   -0.822370    0.758577
  C     -1.367524   -0.896679    0.384383
  H     -1.924926   -1.356759    1.219209
  O     -1.477534   -1.747992   -0.753097
  C      2.350385   -0.085416   -0.124427
  C      3.073822   -0.735011   -1.023884
  C      2.981564    0.544083    1.081264
  H     -3.741580    1.624484    0.011795
  H     -3.813798    0.236162    1.107064
  H     -3.887294   -0.008940   -0.635293
  H     -1.587223    2.493135   -0.305555
  H      0.716420    2.064690   -1.000795
  H      0.720805    1.931500    0.756629
  H      0.519451   -1.834403    0.770823
  H      0.202878   -0.387995    1.754330
  H     -2.400271   -1.778670   -1.036453
  H      4.140519   -0.848766   -0.924399
  H      2.628566   -1.183700   -1.896071
  H      3.006804    1.627447    0.972128
  H      2.419063    0.306434    1.980967
  H      4.002580    0.192498    1.202126

 Total Charge           Charge          ....    0
 Multiplicity           Mult            ....    1
 Number of Electrons    NEL             ....   84
 Basis Dimension        Dim             ....  294

ORBITAL ENERGIES
----------------

  NO   OCC          E(Eh)            E(eV)
   0   2.0000     -18.950862      -515.6792
   1   2.0000     -10.079211      -274.2693
   2   2.0000     -10.037177      -273.1255
   3   2.0000     -10.029920      -272.9280
   4   2.0000     -10.028452      -272.8880
   5   2.0000     -10.023706      -272.7589
   6   2.0000     -10.020779      -272.6793
   7   2.0000     -10.020702      -272.6772
   8   2.0000     -10.015922      -272.5471
   9   2.0000     -10.015038      -272.5231
  10   2.0000     -10.005372      -272.2600
  11   2.0000      -0.987316       -26.8662
  12   2.0000      -0.809001       -22.0140
  13   2.0000      -0.767332       -20.8802
  14   2.0000      -0.717252       -19.5174
  15   2.0000      -0.700317       -19.0566
  16   2.0000      -0.649644       -17.6777
  17   2.0000      -0.639717       -17.4076
  18   2.0000      -0.580665       -15.8007
  19   2.0000      -0.561924       -15.2907
  20   2.0000      -0.506813       -13.7911
  21   2.0000      -0.494986       -13.4692
  22   2.0000      -0.448535       -12.2053
  23   2.0000      -0.437096       -11.8940
  24   2.0000      -0.416625       -11.3369
  25   2.0000      -0.412659       -11.2290
  26   2.0000      -0.400087       -10.8869
  27   2.0000      -0.384982       -10.4759
  28   2.0000      -0.376956       -10.2575
  29   2.0000      -0.370541       -10.0829
  30   2.0000      -0.364380        -9.9153
  31   2.0000      -0.355800        -9.6818
  32   2.0000      -0.349589        -9.5128
  33   2.0000      -0.330149        -8.9838
  34   2.0000      -0.324140        -8.8203
  35   2.0000      -0.310679        -8.4540
  36   2.0000      -0.300828        -8.1859
  37   2.0000      -0.288328        -7.8458
  38   2.0000      -0.267251        -7.2723
  39   2.0000      -0.243071        -6.6143
  40   2.0000      -0.221464        -6.0264
  41   2.0000      -0.216153        -5.8818
  42   0.0000      -0.012047        -0.3278
  43   0.0000      -0.001268        -0.0345
  44   0.0000       0.071297         1.9401
  45   0.0000       0.093898         2.5551
  46   0.0000       0.101719         2.7679

MULLIKEN ATOMIC CHARGES
-----------------------
   0 C :   -0.546438
   1 C :    0.003532
   2 C :   -0.236635
   3 C :   -0.345243
   4 C :   -0.019694
   5 H :    0.196310
   6 C :   -0.425613
   7 C :    0.091036
   8 H :    0.163106
   9 O :   -0.509217
  10 C :    0.048505
  11 C :   -0.459033
  12 C :   -0.575228
  13 H :    0.169040
  14 H :    0.171041
  15 H :    0.172686
  16 H :    0.174768
  17 H :    0.174042
  18 H :    0.186882
  19 H :    0.176396
  20 H :    0.186336
  21 H :    0.341814
  22 H :    0.162221
  23 H :    0.165611
  24 H :    0.185619
  25 H :    0.181460
  26 H :    0.166695
Sum of atomic charges:   -0.0000000

LOEWDIN ATOMIC CHARGES
----------------------
   0 C :   -0.396108
   1 C :   -0.121627
   2 C :   -0.184417
   3 C :   -0.269204
   4 C :   -0.197679
   5 H :    0.180581
   6 C :   -0.241541
   7 C :    0.081372
   8 H :    0.180715
   9 O :   -0.639988
  10 C :   -0.119832
  11 C :   -0.352907
  12 C :   -0.402007
  13 H :    0.164202
  14 H :    0.166307
  15 H :    0.165218
  16 H :    0.171447
  17 H :    0.172302
  18 H :    0.177717
  19 H :    0.175118
  20 H :    0.175912
  21 H :    0.287203
  22 H :    0.161056
  23 H :    0.162899
  24 H :    0.170865
  25 H :    0.167938
  26 H :    0.164458

  Mayer bond orders larger than 0.100000
B(  0-C ,  1-C ) :   0.8452 B(  0-C , 13-H ) :   0.9900 B(  0-C , 14-H ) :   0.9690
B(  0-C , 15-H ) :   0.9593 B(  1-C ,  2-C ) :   1.8679 B(  1-C ,  7-C ) :   0.9088
B(  2-C ,  3-C ) :   0.9208 B(  2-C , 16-H ) :   0.9283 B(  3-C ,  4-C ) :   0.8911
B(  3-C , 17-H ) :   0.9629 B(  3-C , 18-H ) :   0.9681 B(  4-C ,  5-H ) :   1.0085
B(  4-C ,  6-C ) :   0.8520 B(  4-C , 10-C ) :   0.8482 B(  6-C ,  7-C ) :   0.9491
B(  6-C , 19-H ) :   0.9715 B(  6-C , 20-H ) :   0.9865 B(  7-C ,  8-H ) :   0.9748
B(  7-C ,  9-O ) :   0.8646 B(  9-O , 21-H ) :   0.8768 B( 10-C , 11-C ) :   1.8511
B( 10-C , 12-C ) :   0.8756 B( 11-C , 22-H ) :   0.9707 B( 11-C , 23-H ) :   0.9874
B( 12-C , 24-H ) :   0.9613 B( 12-C , 25-H ) :   0.9714 B( 12-C , 26-H ) :   0.9762

Dispersion correction           -0.009593914
FINAL SINGLE POINT ENERGY      -465.765103490896

DIPOLE MOMENT
-------------

Method             : SCF
Type of density    : Electron Density
Multiplicity       :   1
Irrep              :   0
Energy             :  -465.7671795418552847 Eh
Relativity type    :
Basis              : AO
                                X                 Y                 Z
Electronic contribution:     -2.295061508      -1.903924953      -1.897002995
Nuclear contribution   :      1.459645095       2.525564954       2.537332145
                        -----------------------------------------
Total Dipole Moment    :     -0.835416413       0.621640001       0.640329149
                        -----------------------------------------
Magnitude (a.u.)       :      1.222447665
Magnitude (Debye)      :      3.107215031

Rotational constants in cm-1:             0.071258             0.023012             0.019974
Rotational constants in MHz :          2136.263039           689.875579           598.797433

                             ****ORCA TERMINATED NORMALLY****
TOTAL RUN TIME: 0 days 0 hours 0 minutes 57 seconds 687 msec
