                         Program Version 6.0.0  -   RELEASE  -
|  1> ! pbe def2-sv(p) def2/J RI DEFGRID1 loosescf d4 GCP(DFT/SV(P)) printgap
|  2> %output
|  3>     printlevel normal
|  4> end
|  5> * xyz 0 1
|  6> C 0.5319929884 0.8894016652 -1.2592615932
|  7> C 0.4079333292 0.0225424433 -3.3685e-06
|  8> C 0.5308268127 0.8936950179 1.256385362
|  9> C 1.5037829448 -1.0480751097 0.002329958
| 10> O -0.8108927305 -0.7393347833 0.0005215042
| 11> C -2.0294808903 -0.0300418895 5.36174e-05
| 12> H 1.5388530234 1.290155475 -1.324119467
| 13> H 0.3346939823 0.2875035983 -2.1433634637
| 14> H -0.1671325565 1.7217030282 -1.2356290755
| 15> H 0.3341187459 0.2945646647 2.1424917772
| 16> H -0.1691490686 1.7251961105 1.229845917
| 17> H 1.5372712138 1.295679103 1.3198820367
| 18> H 1.4002952914 -1.6739033427 0.8842450444
| 19> H 1.4006566541 -1.6773830001 -0.8771497902
| 20> H 2.4856021918 -0.5860232184 0.0016300587
| 21> H -2.1399749027 0.5919928612 -0.8927896061
| 22> H -2.1409649439 0.5914013495 0.893189111
| 23> H -2.804249463 -0.7944666844 -0.0005998489
| 24> *
| 25>
| 26>                          ****END OF INPUT****

CARTESIAN COORDINATES (ANGSTROEM)
---------------------------------
  C      0.531993    0.889402   -1.259262
  C      0.407933    0.022542   -0.000003
  C      0.530827    0.893695    1.256385
  C      1.503783   -1.048075    0.002330
  O     -0.810893   -0.739335    0.000522
  C     -2.029481   -0.030042    0.000054
  H      1.538853    1.290155   -1.324119
  H      0.334694    0.287504   -2.143363
  H     -0.167133    1.721703   -1.235629
  H      0.334119    0.294565    2.142492
  H     -0.169149    1.725196    1.229846
  H      1.537271    1.295679    1.319882
  H      1.400295   -1.673903    0.884245
  H      1.400657   -1.677383   -0.877150
  H      2.485602   -0.586023    0.001630
  H     -2.139975    0.591993   -0.892790
  H     -2.140965    0.591401    0.893189
  H     -2.804249   -0.794467   -0.000600

 Total Charge           Charge          ....    0
 Multiplicity           Mult            ....    1
 Number of Electrons    NEL             ....   50
 Basis Dimension        Dim             ....  108

ORBITAL ENERGIES
----------------

  NO   OCC          E(Eh)            E(eV)
   0   2.0000     -18.740820      -509.9636
   1   2.0000      -9.946274      -270.6519
   2   2.0000      -9.917908      -269.8800
   3   2.0000      -9.873304      -268.6663
   4   2.0000      -9.873283      -268.6657
   5   2.0000      -9.868044      -268.5231
   6   2.0000      -0.920527       -25.0488
   7   2.0000      -0.717177       -19.5154
   8   2.0000      -0.622739       -16.9456
   9   2.0000      -0.616826       -16.7847
  10   2.0000      -0.596424       -16.2295
  11   2.0000      -0.485803       -13.2194
  12   2.0000      -0.432935       -11.7808
  13   2.0000      -0.410828       -11.1792
  14   2.0000      -0.406465       -11.0605
  15   2.0000      -0.382218       -10.4007
  16   2.0000      -0.367272        -9.9940
  17   2.0000      -0.352948        -9.6042
  18   2.0000      -0.338641        -9.2149
  19   2.0000      -0.329415        -8.9638
  20   2.0000      -0.320482        -8.7208
  21   2.0000      -0.297423        -8.0933
  22   2.0000      -0.296620        -8.0714
  23   2.0000      -0.247158        -6.7255
  24   2.0000      -0.198478        -5.4009
  25   0.0000       0.031373         0.8537
  26   0.0000       0.061476         1.6728
  27   0.0000       0.079436         2.1616
  28   0.0000       0.083901         2.2831
  29   0.0000       0.102033         2.7765

MULLIKEN ATOMIC CHARGES
-----------------------
   0 C :   -0.235327
   1 C :   -0.061922
   2 C :   -0.235396
   3 C :   -0.209992
   4 O :   -0.332805
   5 C :   -0.104041
   6 H :    0.096949
   7 H :    0.104235
   8 H :    0.100900
   9 H :    0.104242
  10 H :    0.100912
  11 H :    0.096971
  12 H :    0.100456
  13 H :    0.100486
  14 H :    0.090467
  15 H :    0.086322
  16 H :    0.086376
  17 H :    0.111167
Sum of atomic charges:   -0.0000000

LOEWDIN ATOMIC CHARGES
----------------------
   0 C :   -0.336948
   1 C :   -0.009470
   2 C :   -0.336934
   3 C :   -0.326029
   4 O :   -0.172818
   5 C :   -0.210046
   6 H :    0.124156
   7 H :    0.122852
   8 H :    0.115993
   9 H :    0.122845
  10 H :    0.116005
  11 H :    0.124173
  12 H :    0.121397
  13 H :    0.121416
  14 H :    0.117994
  15 H :    0.094987
  16 H :    0.094992
  17 H :    0.115435

  Mayer bond orders larger than 0.100000
B(  0-C ,  1-C ) :   1.0779 B(  0-C ,  6-H ) :   0.9422 B(  0-C ,  7-H ) :   0.9409
B(  0-C ,  8-H ) :   0.9394 B(  1-C ,  2-C ) :   1.0779 B(  1-C ,  3-C ) :   1.0783
B(  1-C ,  4-O ) :   1.0121 B(  2-C ,  9-H ) :   0.9409 B(  2-C , 10-H ) :   0.9394
B(  2-C , 11-H ) :   0.9422 B(  3-C , 12-H ) :   0.9455 B(  3-C , 13-H ) :   0.9455
B(  3-C , 14-H ) :   0.9445 B(  4-O ,  5-C ) :   1.0276 B(  5-C , 15-H ) :   0.9377
B(  5-C , 16-H ) :   0.9377 B(  5-C , 17-H ) :   0.9644

Dispersion correction           -0.013657260
FINAL SINGLE POINT ENERGY      -272.302149659324

DIPOLE MOMENT
-------------

Method             : SCF
Type of density    : Electron Density
Multiplicity       :   1
Irrep              :   0
Energy             :  -272.3698708015663783 Eh
Relativity type    :
Basis              : AO
                                X                 Y                 Z
Electronic contribution:     -1.492681046      -2.420184744       0.001936635
Nuclear contribution   :      1.498428348       2.865831599      -0.002213181
                        -----------------------------------------
Total Dipole Moment    :      0.005747302       0.445646854      -0.000276546
                        -----------------------------------------
Magnitude (a.u.)       :      0.445683999
Magnitude (Debye)      :      1.132838697

Rotational constants in cm-1:             0.146653             0.090949             0.090507
Rotational constants in MHz :          4396.534747          2726.578871          2713.318490

                             ****ORCA TERMINATED NORMALLY****
TOTAL RUN TIME: 0 days 0 hours 0 minutes 6 seconds 956 msec
