                         Program Version 6.0.0  -   RELEASE  -
|  1> ! pbe def2-sv(p) def2/J RI DEFGRID1 loosescf d4 GCP(DFT/SV(P)) printgap
|  2> %output
|  3>     printlevel normal
|  4> end
|  5> * xyz 0 1
|  6> C -2.0533859212 -0.1096920226 -0.4034185205
|  7> C -0.8145641635 0.0062444933 0.4793211935
|  8> C 0.1300296772 -1.2026395207 0.3134584767
|  9> C 1.3253432039 -0.677019676 -0.479830716
| 10> C 1.4771880959 0.7482619311 0.0401168723
| 11> C 0.0326052329 1.2425909264 0.1114261438
| 12> H -1.7660483822 -0.2287950799 -1.445854529
| 13> H -2.6529457556 -0.9687220629 -0.1100897757
| 14> H -2.6682619892 0.7833809747 -0.3143100367
| 15> H -1.1430669813 0.0760105545 1.520135104
| 16> H 0.4671570207 -1.5508342357 1.2907723613
| 17> H -0.3633625331 -2.0339184805 -0.1878884692
| 18> H 2.2206067205 -1.2796034474 -0.333905069
| 19> H 1.091434881 -0.6579170049 -1.5453719538
| 20> H 1.9203110029 0.7310910888 1.0372528486
| 21> H 2.09828851 1.3705272359 -0.6026299566
| 22> H -0.0898352244 2.0506212754 0.831254632
| 23> H -0.2727879141 1.6158496424 -0.8671687138
| 24> *
| 25>
| 26>                          ****END OF INPUT****

CARTESIAN COORDINATES (ANGSTROEM)
---------------------------------
  C     -2.053386   -0.109692   -0.403419
  C     -0.814564    0.006244    0.479321
  C      0.130030   -1.202640    0.313458
  C      1.325343   -0.677020   -0.479831
  C      1.477188    0.748262    0.040117
  C      0.032605    1.242591    0.111426
  H     -1.766048   -0.228795   -1.445855
  H     -2.652946   -0.968722   -0.110090
  H     -2.668262    0.783381   -0.314310
  H     -1.143067    0.076011    1.520135
  H      0.467157   -1.550834    1.290772
  H     -0.363363   -2.033918   -0.187888
  H      2.220607   -1.279603   -0.333905
  H      1.091435   -0.657917   -1.545372
  H      1.920311    0.731091    1.037253
  H      2.098289    1.370527   -0.602630
  H     -0.089835    2.050621    0.831255
  H     -0.272788    1.615850   -0.867169

 Total Charge           Charge          ....    0
 Multiplicity           Mult            ....    1
 Number of Electrons    NEL             ....   48
 Basis Dimension        Dim             ....  108

ORBITAL ENERGIES
----------------

  NO   OCC          E(Eh)            E(eV)
   0   2.0000      -9.885332      -268.9936
   1   2.0000      -9.875907      -268.7371
   2   2.0000      -9.875865      -268.7360
   3   2.0000      -9.873748      -268.6783
   4   2.0000      -9.873493      -268.6714
   5   2.0000      -9.869348      -268.5586
   6   2.0000      -0.757274       -20.6065
   7   2.0000      -0.664867       -18.0919
   8   2.0000      -0.630102       -17.1460
   9   2.0000      -0.577164       -15.7054
  10   2.0000      -0.504004       -13.7146
  11   2.0000      -0.480406       -13.0725
  12   2.0000      -0.435153       -11.8411
  13   2.0000      -0.418262       -11.3815
  14   2.0000      -0.375400       -10.2151
  15   2.0000      -0.369830       -10.0636
  16   2.0000      -0.349158        -9.5011
  17   2.0000      -0.334498        -9.1021
  18   2.0000      -0.290521        -7.9055
  19   2.0000      -0.289211        -7.8698
  20   2.0000      -0.282512        -7.6875
  21   2.0000      -0.275053        -7.4846
  22   2.0000      -0.273222        -7.4347
  23   2.0000      -0.266928        -7.2635
  24   0.0000       0.031474         0.8564
  25   0.0000       0.049711         1.3527
  26   0.0000       0.068779         1.8716
  27   0.0000       0.085005         2.3131
  28   0.0000       0.099998         2.7211

MULLIKEN ATOMIC CHARGES
-----------------------
   0 C :   -0.248843
   1 C :   -0.186803
   2 C :   -0.113902
   3 C :   -0.169619
   4 C :   -0.169218
   5 C :   -0.112487
   6 H :    0.094127
   7 H :    0.098813
   8 H :    0.100875
   9 H :    0.065300
  10 H :    0.074056
  11 H :    0.078707
  12 H :    0.087795
  13 H :    0.080880
  14 H :    0.079803
  15 H :    0.086764
  16 H :    0.081549
  17 H :    0.072203
Sum of atomic charges:   -0.0000000

LOEWDIN ATOMIC CHARGES
----------------------
   0 C :   -0.329805
   1 C :   -0.152618
   2 C :   -0.221890
   3 C :   -0.228538
   4 C :   -0.228133
   5 C :   -0.221729
   6 H :    0.113852
   7 H :    0.115813
   8 H :    0.116747
   9 H :    0.114344
  10 H :    0.116015
  11 H :    0.114686
  12 H :    0.115372
  13 H :    0.114007
  14 H :    0.114504
  15 H :    0.115073
  16 H :    0.117039
  17 H :    0.115262

  Mayer bond orders larger than 0.100000
B(  0-C ,  1-C ) :   1.1214 B(  0-C ,  6-H ) :   0.9483 B(  0-C ,  7-H ) :   0.9495
B(  0-C ,  8-H ) :   0.9498 B(  1-C ,  2-C ) :   1.1115 B(  1-C ,  5-C ) :   1.1086
B(  1-C ,  9-H ) :   0.9029 B(  2-C ,  3-C ) :   1.1413 B(  2-C , 10-H ) :   0.9136
B(  2-C , 11-H ) :   0.9244 B(  3-C ,  4-C ) :   1.1161 B(  3-C , 12-H ) :   0.9275
B(  3-C , 13-H ) :   0.9229 B(  4-C ,  5-C ) :   1.1507 B(  4-C , 14-H ) :   0.9205
B(  4-C , 15-H ) :   0.9279 B(  5-C , 16-H ) :   0.9194 B(  5-C , 17-H ) :   0.9164

Dispersion correction           -0.014468210
FINAL SINGLE POINT ENERGY      -235.267341776682

DIPOLE MOMENT
-------------

Method             : SCF
Type of density    : Electron Density
Multiplicity       :   1
Irrep              :   0
Energy             :  -235.3282465723256678 Eh
Relativity type    :
Basis              : AO
                                X                 Y                 Z
Electronic contribution:      1.101106231       0.091604414       0.720287152
Nuclear contribution   :     -1.086871868      -0.086601398      -0.682798398
                        -----------------------------------------
Total Dipole Moment    :      0.014234363       0.005003016       0.037488754
                        -----------------------------------------
Magnitude (a.u.)       :      0.040411062
Magnitude (Debye)      :      0.102716756

Rotational constants in cm-1:             0.191317             0.105142             0.081185
Rotational constants in MHz :          5735.549497          3152.063080          2433.867438

                             ****ORCA TERMINATED NORMALLY****
TOTAL RUN TIME: 0 days 0 hours 0 minutes 5 seconds 627 msec
