                         Program Version 6.0.0  -   RELEASE  -
|  1> ! wb97x-v def2-tzvp def2/J RIJCOSX DEFGRID2 scfconv7 GCP(DFT/TZ) printgap
|  2> %output
|  3>     printlevel normal
|  4> end
|  5> * xyz 0 1
|  6> C -2.224261782931434 0.4227937565798976 -7.754422422693556e-05
|  7> C -1.206531457256509 -0.6861155324839767 8.074146486863766e-05
|  8> Br 0.6576853719041499 0.04137240138635886 0.00012161037326206376
|  9> H -2.137719222921857 1.0512808580750101 -0.8896945671430629
| 10> H -3.222160955848485 -0.03295836797889998 -0.0002018959152705614
| 11> H -2.1379464580461507 1.051311049053132 0.8895404578444367
| 12> H -1.2572343574820783 -1.3084996898372732 -0.8923863015707636
| 13> H -1.257336849548199 -1.3083531253509388 0.8926454976818939
| 14> *
| 15>
| 16>                          ****END OF INPUT****

CARTESIAN COORDINATES (ANGSTROEM)
---------------------------------
  C     -2.224262    0.422794   -0.000078
  C     -1.206531   -0.686116    0.000081
  Br     0.657685    0.041372    0.000122
  H     -2.137719    1.051281   -0.889695
  H     -3.222161   -0.032958   -0.000202
  H     -2.137946    1.051311    0.889540
  H     -1.257234   -1.308500   -0.892386
  H     -1.257337   -1.308353    0.892645

 Total Charge           Charge          ....    0
 Multiplicity           Mult            ....    1
 Number of Electrons    NEL             ....   52
 Basis Dimension        Dim             ....  140

ORBITAL ENERGIES
----------------

  NO   OCC          E(Eh)            E(eV)
   0   2.0000    -494.706928    -13461.6599
   1   2.0000     -66.876594     -1819.8047
   2   2.0000     -60.933454     -1658.0836
   3   2.0000     -60.931900     -1658.0413
   4   2.0000     -60.931758     -1658.0374
   5   2.0000     -12.111628      -329.5742
   6   2.0000     -12.056769      -328.0814
   7   2.0000     -10.628349      -289.2121
   8   2.0000      -8.407989      -228.7930
   9   2.0000      -8.401472      -228.6157
  10   2.0000      -8.401454      -228.6152
  11   2.0000      -4.393029      -119.5404
  12   2.0000      -4.390546      -119.4728
  13   2.0000      -4.390497      -119.4715
  14   2.0000      -4.383302      -119.2757
  15   2.0000      -4.383287      -119.2753
  16   2.0000      -1.335441       -36.3392
  17   2.0000      -1.256481       -34.1906
  18   2.0000      -1.104429       -30.0530
  19   2.0000      -0.905119       -24.6295
  20   2.0000      -0.875509       -23.8238
  21   2.0000      -0.858118       -23.3506
  22   2.0000      -0.804658       -21.8958
  23   2.0000      -0.785124       -21.3643
  24   2.0000      -0.711822       -19.3697
  25   2.0000      -0.709237       -19.2993
  26   0.0000      -0.283689        -7.7196
  27   0.0000      -0.017720        -0.4822
  28   0.0000      -0.015202        -0.4137
  29   0.0000       0.014465         0.3936
  30   0.0000       0.038034         1.0350

MULLIKEN ATOMIC CHARGES
-----------------------
   0 C :   -0.323047
   1 C :   -0.153435
   2 Br:   -0.154240
   3 H :    0.125456
   4 H :    0.113374
   5 H :    0.125452
   6 H :    0.133219
   7 H :    0.133220
Sum of atomic charges:   -0.0000000

LOEWDIN ATOMIC CHARGES
----------------------
   0 C :   -0.334914
   1 C :   -0.443197
   2 Br:    0.164005
   3 H :    0.122136
   4 H :    0.125153
   5 H :    0.122136
   6 H :    0.122340
   7 H :    0.122341

  Mayer bond orders larger than 0.100000
B(  0-C ,  1-C ) :   1.0058 B(  0-C ,  3-H ) :   0.9732 B(  0-C ,  4-H ) :   0.9606
B(  0-C ,  5-H ) :   0.9732 B(  1-C ,  2-Br) :   1.0363 B(  1-C ,  6-H ) :   0.9680
B(  1-C ,  7-H ) :   0.9680

FINAL SINGLE POINT ENERGY     -2653.144495331258

DIPOLE MOMENT
-------------

Method             : SCF
Type of density    : Electron Density
Multiplicity       :   1
Irrep              :   0
Energy             : -2653.1512521865574854 Eh
Relativity type    :
Basis              : AO
                                X                 Y                 Z
Electronic contribution:     14.564203608       0.662004928       0.000780262
Nuclear contribution   :    -15.447333071      -0.914763007      -0.000812792
                        -----------------------------------------
Total Dipole Moment    :     -0.883129463      -0.252758079      -0.000032530
                        -----------------------------------------
Magnitude (a.u.)       :      0.918588208
Magnitude (Debye)      :      2.334865669

Rotational constants in cm-1:             1.002368             0.122582             0.113952
Rotational constants in MHz :         30050.234215          3674.909228          3416.189355

                             ****ORCA TERMINATED NORMALLY****
TOTAL RUN TIME: 0 days 0 hours 0 minutes 37 seconds 824 msec
