                         Program Version 6.0.0  -   RELEASE  -
|  1> ! wb97x-v def2-tzvp def2/J RIJCOSX DEFGRID2 scfconv7 GCP(DFT/TZ) printgap
|  2> %output
|  3>     printlevel normal
|  4> end
|  5> %cpcm
|  6>     smd true
|  7>     smdsolvent "water"
|  8> end
|  9> * xyz 0 1
| 10> C -2.224261782931434 0.4227937565798976 -7.754422422693556e-05
| 11> C -1.206531457256509 -0.6861155324839767 8.074146486863766e-05
| 12> Br 0.6576853719041499 0.04137240138635886 0.00012161037326206376
| 13> H -2.137719222921857 1.0512808580750101 -0.8896945671430629
| 14> H -3.222160955848485 -0.03295836797889998 -0.0002018959152705614
| 15> H -2.1379464580461507 1.051311049053132 0.8895404578444367
| 16> H -1.2572343574820783 -1.3084996898372732 -0.8923863015707636
| 17> H -1.257336849548199 -1.3083531253509388 0.8926454976818939
| 18> *
| 19>
| 20>                          ****END OF INPUT****

CARTESIAN COORDINATES (ANGSTROEM)
---------------------------------
  C     -2.224262    0.422794   -0.000078
  C     -1.206531   -0.686116    0.000081
  Br     0.657685    0.041372    0.000122
  H     -2.137719    1.051281   -0.889695
  H     -3.222161   -0.032958   -0.000202
  H     -2.137946    1.051311    0.889540
  H     -1.257234   -1.308500   -0.892386
  H     -1.257337   -1.308353    0.892645

 Total Charge           Charge          ....    0
 Multiplicity           Mult            ....    1
 Number of Electrons    NEL             ....   52
 Basis Dimension        Dim             ....  140

ORBITAL ENERGIES
----------------

  NO   OCC          E(Eh)            E(eV)
   0   2.0000    -494.702663    -13461.5438
   1   2.0000     -66.872469     -1819.6924
   2   2.0000     -60.929270     -1657.9697
   3   2.0000     -60.927818     -1657.9302
   4   2.0000     -60.927676     -1657.9263
   5   2.0000     -12.097613      -329.1928
   6   2.0000     -12.038908      -327.5953
   7   2.0000     -10.624314      -289.1023
   8   2.0000      -8.403712      -228.6766
   9   2.0000      -8.397665      -228.5121
  10   2.0000      -8.397649      -228.5117
  11   2.0000      -4.388682      -119.4221
  12   2.0000      -4.386394      -119.3599
  13   2.0000      -4.386343      -119.3585
  14   2.0000      -4.379625      -119.1757
  15   2.0000      -4.379610      -119.1753
  16   2.0000      -1.327593       -36.1256
  17   2.0000      -1.243837       -33.8465
  18   2.0000      -1.088864       -29.6295
  19   2.0000      -0.888992       -24.1907
  20   2.0000      -0.860023       -23.4024
  21   2.0000      -0.843467       -22.9519
  22   2.0000      -0.787900       -21.4399
  23   2.0000      -0.773181       -21.0393
  24   2.0000      -0.708237       -19.2721
  25   2.0000      -0.705284       -19.1917
  26   0.0000      -0.273260        -7.4358
  27   0.0000      -0.002815        -0.0766
  28   0.0000       0.003110         0.0846
  29   0.0000       0.032971         0.8972
  30   0.0000       0.056069         1.5257

MULLIKEN ATOMIC CHARGES
-----------------------
   0 C :   -0.356952
   1 C :   -0.156187
   2 Br:   -0.201151
   3 H :    0.132792
   4 H :    0.138673
   5 H :    0.132791
   6 H :    0.155017
   7 H :    0.155018
Sum of atomic charges:   -0.0000000

LOEWDIN ATOMIC CHARGES
----------------------
   0 C :   -0.335616
   1 C :   -0.431650
   2 Br:    0.130441
   3 H :    0.122843
   4 H :    0.133261
   5 H :    0.122844
   6 H :    0.128938
   7 H :    0.128939

  Mayer bond orders larger than 0.100000
B(  0-C ,  1-C ) :   1.0100 B(  0-C ,  3-H ) :   0.9705 B(  0-C ,  4-H ) :   0.9573
B(  0-C ,  5-H ) :   0.9705 B(  1-C ,  2-Br) :   1.0034 B(  1-C ,  6-H ) :   0.9624
B(  1-C ,  7-H ) :   0.9624

FINAL SINGLE POINT ENERGY     -2653.147046410362

DIPOLE MOMENT
-------------

Method             : SCF
Type of density    : Electron Density
Multiplicity       :   1
Irrep              :   0
Energy             : -2653.1538032656617361 Eh
Relativity type    :
Basis              : AO
                                X                 Y                 Z
Electronic contribution:     14.298574122       0.550885574       0.000773686
Nuclear contribution   :    -15.447333071      -0.914763007      -0.000812792
                        -----------------------------------------
Total Dipole Moment    :     -1.148758949      -0.363877433      -0.000039106
                        -----------------------------------------
Magnitude (a.u.)       :      1.205011996
Magnitude (Debye)      :      3.062897082

Rotational constants in cm-1:             1.002368             0.122582             0.113952
Rotational constants in MHz :         30050.234215          3674.909228          3416.189355

                             ****ORCA TERMINATED NORMALLY****
TOTAL RUN TIME: 0 days 0 hours 0 minutes 36 seconds 748 msec
