                         Program Version 6.0.0  -   RELEASE  -
|  1> ! r2scan-3c def2/J RI DEFGRID2 scfconv6 printgap
|  2> %output
|  3>     printlevel normal
|  4> end
|  5> * xyz 0 1
|  6> C -2.4041482984 -1.1440407528 -0.2823861668
|  7> C -1.0604452694 -0.6205779527 0.2522855875
|  8> H -1.0703044162 -0.5972258951 1.3554770247
|  9> C -0.7671730593 0.8002379415 -0.2546990113
| 10> H -0.8008344369 0.7943171069 -1.3562184353
| 11> C 0.6402949947 1.2479766796 0.1717805289
| 12> H 0.6534062701 1.388587388 1.2638884116
| 13> C 1.6857971704 0.1899193404 -0.1858858488
| 14> H 1.8109229088 0.1781718732 -1.2775031059
| 15> C 1.2224808486 -1.2079457749 0.2663474171
| 16> H 1.2270091882 -1.2258979725 1.3780640593
| 17> O -0.0702831529 -1.5235555734 -0.1942715205
| 18> O 2.1049158274 -2.1329741879 -0.253174269
| 19> O 2.8872826597 0.5231504053 0.4569037846
| 20> O 0.9925200831 2.4446529713 -0.4732119186
| 21> O -1.6710349479 1.742969488 0.2650384255
| 22> O -3.4966962639 -0.3820784684 0.1650546705
| 23> H -2.5005817491 -2.1985559393 -0.0077054249
| 24> H -2.3971764768 -1.0730383297 -1.3724253966
| 25> H 1.7447378784 -3.0275827946 -0.146959605
| 26> H 3.5776744756 -0.0936257663 0.170305479
| 27> H 0.3190759169 3.109618921 -0.262576413
| 28> H -2.5774618768 1.4299300167 0.0921483919
| 29> H -3.6981263509 -0.6025336088 1.0858198238
| 30> *
| 31>
| 32>                          ****END OF INPUT****

CARTESIAN COORDINATES (ANGSTROEM)
---------------------------------
  C     -2.404148   -1.144041   -0.282386
  C     -1.060445   -0.620578    0.252286
  H     -1.070304   -0.597226    1.355477
  C     -0.767173    0.800238   -0.254699
  H     -0.800834    0.794317   -1.356218
  C      0.640295    1.247977    0.171781
  H      0.653406    1.388587    1.263888
  C      1.685797    0.189919   -0.185886
  H      1.810923    0.178172   -1.277503
  C      1.222481   -1.207946    0.266347
  H      1.227009   -1.225898    1.378064
  O     -0.070283   -1.523556   -0.194272
  O      2.104916   -2.132974   -0.253174
  O      2.887283    0.523150    0.456904
  O      0.992520    2.444653   -0.473212
  O     -1.671035    1.742969    0.265038
  O     -3.496696   -0.382078    0.165055
  H     -2.500582   -2.198556   -0.007705
  H     -2.397176   -1.073038   -1.372425
  H      1.744738   -3.027583   -0.146960
  H      3.577674   -0.093626    0.170305
  H      0.319076    3.109619   -0.262576
  H     -2.577462    1.429930    0.092148
  H     -3.698126   -0.602534    1.085820

 Total Charge           Charge          ....    0
 Multiplicity           Mult            ....    1
 Number of Electrons    NEL             ....   96
 Basis Dimension        Dim             ....  318

ORBITAL ENERGIES
----------------

  NO   OCC          E(Eh)            E(eV)
   0   2.0000     -18.985192      -516.6133
   1   2.0000     -18.977868      -516.4141
   2   2.0000     -18.974198      -516.3142
   3   2.0000     -18.954511      -515.7785
   4   2.0000     -18.951549      -515.6979
   5   2.0000     -18.945558      -515.5348
   6   2.0000     -10.141052      -275.9520
   7   2.0000     -10.099834      -274.8305
   8   2.0000     -10.099355      -274.8174
   9   2.0000     -10.088151      -274.5126
  10   2.0000     -10.085913      -274.4516
  11   2.0000     -10.085371      -274.4369
  12   2.0000      -1.058140       -28.7935
  13   2.0000      -1.024251       -27.8713
  14   2.0000      -1.003832       -27.3157
  15   2.0000      -0.997436       -27.1416
  16   2.0000      -0.986413       -26.8417
  17   2.0000      -0.975538       -26.5457
  18   2.0000      -0.750590       -20.4246
  19   2.0000      -0.740519       -20.1505
  20   2.0000      -0.664023       -18.0690
  21   2.0000      -0.618080       -16.8188
  22   2.0000      -0.599887       -16.3238
  23   2.0000      -0.552750       -15.0411
  24   2.0000      -0.528241       -14.3742
  25   2.0000      -0.512469       -13.9450
  26   2.0000      -0.497558       -13.5393
  27   2.0000      -0.490986       -13.3604
  28   2.0000      -0.487874       -13.2757
  29   2.0000      -0.468896       -12.7593
  30   2.0000      -0.431228       -11.7343
  31   2.0000      -0.420449       -11.4410
  32   2.0000      -0.413412       -11.2495
  33   2.0000      -0.388586       -10.5740
  34   2.0000      -0.381868       -10.3912
  35   2.0000      -0.376837       -10.2543
  36   2.0000      -0.360795        -9.8177
  37   2.0000      -0.348986        -9.4964
  38   2.0000      -0.330950        -9.0056
  39   2.0000      -0.318081        -8.6554
  40   2.0000      -0.313657        -8.5351
  41   2.0000      -0.293683        -7.9915
  42   2.0000      -0.281630        -7.6636
  43   2.0000      -0.269210        -7.3256
  44   2.0000      -0.259941        -7.0733
  45   2.0000      -0.242489        -6.5985
  46   2.0000      -0.238969        -6.5027
  47   2.0000      -0.220547        -6.0014
  48   0.0000       0.021331         0.5805
  49   0.0000       0.049019         1.3339
  50   0.0000       0.052210         1.4207
  51   0.0000       0.080440         2.1889
  52   0.0000       0.090359         2.4588

MULLIKEN ATOMIC CHARGES
-----------------------
   0 C :   -0.241571
   1 C :   -0.075014
   2 H :    0.170999
   3 C :    0.040870
   4 H :    0.171633
   5 C :   -0.077739
   6 H :    0.168802
   7 C :   -0.006967
   8 H :    0.174449
   9 C :   -0.039640
  10 H :    0.142230
  11 O :   -0.195405
  12 O :   -0.398042
  13 O :   -0.414541
  14 O :   -0.419455
  15 O :   -0.443219
  16 O :   -0.428511
  17 H :    0.149804
  18 H :    0.154894
  19 H :    0.309458
  20 H :    0.309997
  21 H :    0.312471
  22 H :    0.319114
  23 H :    0.315385
Sum of atomic charges:   -0.0000000

LOEWDIN ATOMIC CHARGES
----------------------
   0 C :    0.050336
   1 C :    0.108311
   2 H :    0.179934
   3 C :    0.105475
   4 H :    0.183025
   5 C :    0.120196
   6 H :    0.188763
   7 C :    0.128364
   8 H :    0.191961
   9 C :    0.297890
  10 H :    0.179911
  11 O :   -0.689296
  12 O :   -0.502285
  13 O :   -0.554308
  14 O :   -0.557148
  15 O :   -0.591992
  16 O :   -0.606890
  17 H :    0.172330
  18 H :    0.188438
  19 H :    0.285116
  20 H :    0.280303
  21 H :    0.281899
  22 H :    0.286504
  23 H :    0.273165

  Mayer bond orders larger than 0.100000
B(  0-C ,  1-C ) :   0.8872 B(  0-C , 16-O ) :   0.9958 B(  0-C , 17-H ) :   0.9848
B(  0-C , 18-H ) :   0.9796 B(  1-C ,  2-H ) :   0.9627 B(  1-C ,  3-C ) :   0.7607
B(  1-C , 11-O ) :   0.7928 B(  3-C ,  4-H ) :   0.9749 B(  3-C ,  5-C ) :   0.8422
B(  3-C , 15-O ) :   0.8852 B(  5-C ,  6-H ) :   0.9997 B(  5-C ,  7-C ) :   0.9361
B(  5-C , 14-O ) :   0.9310 B(  7-C ,  8-H ) :   0.9838 B(  7-C ,  9-C ) :   0.7983
B(  7-C , 13-O ) :   0.9339 B(  9-C , 10-H ) :   1.0077 B(  9-C , 11-O ) :   0.9104
B(  9-C , 12-O ) :   1.0556 B( 12-O , 19-H ) :   0.8786 B( 13-O , 20-H ) :   0.8844
B( 14-O , 21-H ) :   0.8772 B( 15-O , 22-H ) :   0.8460 B( 16-O , 23-H ) :   0.8876

Dispersion correction           -0.007969674
FINAL SINGLE POINT ENERGY      -687.074447962708

DIPOLE MOMENT
-------------

Method             : SCF
Type of density    : Electron Density
Multiplicity       :   1
Irrep              :   0
Energy             :  -687.0863126619052537 Eh
Relativity type    :
Basis              : AO
                                X                 Y                 Z
Electronic contribution:      2.495624038       0.520183034      -0.344740146
Nuclear contribution   :     -3.471105208      -1.789297712       0.864789526
                        -----------------------------------------
Total Dipole Moment    :     -0.975481171      -1.269114677       0.520049379
                        -----------------------------------------
Magnitude (a.u.)       :      1.683052862
Magnitude (Debye)      :      4.277980398

Rotational constants in cm-1:             0.043922             0.024452             0.016517
Rotational constants in MHz :          1316.747530           733.037793           495.163868

                             ****ORCA TERMINATED NORMALLY****
TOTAL RUN TIME: 0 days 0 hours 0 minutes 47 seconds 661 msec
