                         Program Version 6.0.0  -   RELEASE  -
|  1> ! r2scan-3c def2/J RI DEFGRID2 scfconv6 printgap
|  2> %output
|  3>     printlevel normal
|  4> end
|  5> %cpcm
|  6>     smd true
|  7>     smdsolvent "water"
|  8> end
|  9> * xyz 0 1
| 10> C -2.4041482984 -1.1440407528 -0.2823861668
| 11> C -1.0604452694 -0.6205779527 0.2522855875
| 12> H -1.0703044162 -0.5972258951 1.3554770247
| 13> C -0.7671730593 0.8002379415 -0.2546990113
| 14> H -0.8008344369 0.7943171069 -1.3562184353
| 15> C 0.6402949947 1.2479766796 0.1717805289
| 16> H 0.6534062701 1.388587388 1.2638884116
| 17> C 1.6857971704 0.1899193404 -0.1858858488
| 18> H 1.8109229088 0.1781718732 -1.2775031059
| 19> C 1.2224808486 -1.2079457749 0.2663474171
| 20> H 1.2270091882 -1.2258979725 1.3780640593
| 21> O -0.0702831529 -1.5235555734 -0.1942715205
| 22> O 2.1049158274 -2.1329741879 -0.253174269
| 23> O 2.8872826597 0.5231504053 0.4569037846
| 24> O 0.9925200831 2.4446529713 -0.4732119186
| 25> O -1.6710349479 1.742969488 0.2650384255
| 26> O -3.4966962639 -0.3820784684 0.1650546705
| 27> H -2.5005817491 -2.1985559393 -0.0077054249
| 28> H -2.3971764768 -1.0730383297 -1.3724253966
| 29> H 1.7447378784 -3.0275827946 -0.146959605
| 30> H 3.5776744756 -0.0936257663 0.170305479
| 31> H 0.3190759169 3.109618921 -0.262576413
| 32> H -2.5774618768 1.4299300167 0.0921483919
| 33> H -3.6981263509 -0.6025336088 1.0858198238
| 34> *
| 35>
| 36>                          ****END OF INPUT****

CARTESIAN COORDINATES (ANGSTROEM)
---------------------------------
  C     -2.404148   -1.144041   -0.282386
  C     -1.060445   -0.620578    0.252286
  H     -1.070304   -0.597226    1.355477
  C     -0.767173    0.800238   -0.254699
  H     -0.800834    0.794317   -1.356218
  C      0.640295    1.247977    0.171781
  H      0.653406    1.388587    1.263888
  C      1.685797    0.189919   -0.185886
  H      1.810923    0.178172   -1.277503
  C      1.222481   -1.207946    0.266347
  H      1.227009   -1.225898    1.378064
  O     -0.070283   -1.523556   -0.194272
  O      2.104916   -2.132974   -0.253174
  O      2.887283    0.523150    0.456904
  O      0.992520    2.444653   -0.473212
  O     -1.671035    1.742969    0.265038
  O     -3.496696   -0.382078    0.165055
  H     -2.500582   -2.198556   -0.007705
  H     -2.397176   -1.073038   -1.372425
  H      1.744738   -3.027583   -0.146960
  H      3.577674   -0.093626    0.170305
  H      0.319076    3.109619   -0.262576
  H     -2.577462    1.429930    0.092148
  H     -3.698126   -0.602534    1.085820

 Total Charge           Charge          ....    0
 Multiplicity           Mult            ....    1
 Number of Electrons    NEL             ....   96
 Basis Dimension        Dim             ....  318

ORBITAL ENERGIES
----------------

  NO   OCC          E(Eh)            E(eV)
   0   2.0000     -18.975211      -516.3417
   1   2.0000     -18.969448      -516.1849
   2   2.0000     -18.965394      -516.0746
   3   2.0000     -18.962367      -515.9922
   4   2.0000     -18.959136      -515.9043
   5   2.0000     -18.956347      -515.8284
   6   2.0000     -10.136701      -275.8336
   7   2.0000     -10.088409      -274.5196
   8   2.0000     -10.087898      -274.5057
   9   2.0000     -10.087533      -274.4957
  10   2.0000     -10.084413      -274.4108
  11   2.0000     -10.079946      -274.2893
  12   2.0000      -1.054408       -28.6919
  13   2.0000      -1.012982       -27.5646
  14   2.0000      -1.007225       -27.4080
  15   2.0000      -0.996539       -27.1172
  16   2.0000      -0.984835       -26.7987
  17   2.0000      -0.983466       -26.7615
  18   2.0000      -0.747482       -20.3400
  19   2.0000      -0.734765       -19.9940
  20   2.0000      -0.654753       -17.8167
  21   2.0000      -0.617511       -16.8033
  22   2.0000      -0.590791       -16.0762
  23   2.0000      -0.549204       -14.9446
  24   2.0000      -0.520842       -14.1728
  25   2.0000      -0.512973       -13.9587
  26   2.0000      -0.495185       -13.4747
  27   2.0000      -0.486401       -13.2356
  28   2.0000      -0.478622       -13.0240
  29   2.0000      -0.464342       -12.6354
  30   2.0000      -0.426009       -11.5923
  31   2.0000      -0.414531       -11.2800
  32   2.0000      -0.406323       -11.0566
  33   2.0000      -0.394076       -10.7234
  34   2.0000      -0.382086       -10.3971
  35   2.0000      -0.373531       -10.1643
  36   2.0000      -0.363531        -9.8922
  37   2.0000      -0.345662        -9.4059
  38   2.0000      -0.338082        -9.1997
  39   2.0000      -0.315495        -8.5850
  40   2.0000      -0.307796        -8.3756
  41   2.0000      -0.297614        -8.0985
  42   2.0000      -0.278980        -7.5914
  43   2.0000      -0.271409        -7.3854
  44   2.0000      -0.260400        -7.0859
  45   2.0000      -0.245889        -6.6910
  46   2.0000      -0.242428        -6.5968
  47   2.0000      -0.222733        -6.0609
  48   0.0000       0.036657         0.9975
  49   0.0000       0.062577         1.7028
  50   0.0000       0.077148         2.0993
  51   0.0000       0.086643         2.3577
  52   0.0000       0.098746         2.6870

MULLIKEN ATOMIC CHARGES
-----------------------
   0 C :   -0.243982
   1 C :   -0.075200
   2 H :    0.204895
   3 C :    0.010306
   4 H :    0.187113
   5 C :   -0.029677
   6 H :    0.178261
   7 C :    0.009532
   8 H :    0.186310
   9 C :   -0.052814
  10 H :    0.167853
  11 O :   -0.238562
  12 O :   -0.453220
  13 O :   -0.489051
  14 O :   -0.494969
  15 O :   -0.501119
  16 O :   -0.481791
  17 H :    0.163530
  18 H :    0.169411
  19 H :    0.360261
  20 H :    0.354861
  21 H :    0.353299
  22 H :    0.351751
  23 H :    0.363001
Sum of atomic charges:   -0.0000000

LOEWDIN ATOMIC CHARGES
----------------------
   0 C :    0.051029
   1 C :    0.115440
   2 H :    0.193350
   3 C :    0.108227
   4 H :    0.189733
   5 C :    0.116426
   6 H :    0.195616
   7 C :    0.124184
   8 H :    0.196892
   9 C :    0.300933
  10 H :    0.191310
  11 O :   -0.702217
  12 O :   -0.519304
  13 O :   -0.587027
  14 O :   -0.594935
  15 O :   -0.613333
  16 O :   -0.618293
  17 H :    0.180118
  18 H :    0.191035
  19 H :    0.302961
  20 H :    0.296123
  21 H :    0.295484
  22 H :    0.294965
  23 H :    0.291283

  Mayer bond orders larger than 0.100000
B(  0-C ,  1-C ) :   0.9006 B(  0-C , 16-O ) :   0.9980 B(  0-C , 17-H ) :   0.9692
B(  0-C , 18-H ) :   0.9787 B(  1-C ,  2-H ) :   0.9539 B(  1-C ,  3-C ) :   0.7810
B(  1-C , 11-O ) :   0.7893 B(  3-C ,  4-H ) :   0.9719 B(  3-C ,  5-C ) :   0.8776
B(  3-C , 15-O ) :   0.8712 B(  5-C ,  6-H ) :   0.9692 B(  5-C ,  7-C ) :   0.9397
B(  5-C , 14-O ) :   0.9060 B(  7-C ,  8-H ) :   0.9622 B(  7-C ,  9-C ) :   0.8205
B(  7-C , 13-O ) :   0.9027 B(  9-C , 10-H ) :   1.0059 B(  9-C , 11-O ) :   0.9246
B(  9-C , 12-O ) :   1.0528 B( 12-O , 19-H ) :   0.8526 B( 13-O , 20-H ) :   0.8619
B( 14-O , 21-H ) :   0.8578 B( 15-O , 22-H ) :   0.8316 B( 16-O , 23-H ) :   0.8609

Dispersion correction           -0.007969674
FINAL SINGLE POINT ENERGY      -687.108843952752

DIPOLE MOMENT
-------------

Method             : SCF
Type of density    : Electron Density
Multiplicity       :   1
Irrep              :   0
Energy             :  -687.1207086519493714 Eh
Relativity type    :
Basis              : AO
                                X                 Y                 Z
Electronic contribution:      2.121595987       0.032368539      -0.058826542
Nuclear contribution   :     -3.471105208      -1.789297712       0.864789526
                        -----------------------------------------
Total Dipole Moment    :     -1.349509222      -1.756929172       0.805962983
                        -----------------------------------------
Magnitude (a.u.)       :      2.357445988
Magnitude (Debye)      :      5.992151497

Rotational constants in cm-1:             0.043922             0.024452             0.016517
Rotational constants in MHz :          1316.747530           733.037793           495.163868

                             ****ORCA TERMINATED NORMALLY****
TOTAL RUN TIME: 0 days 0 hours 0 minutes 57 seconds 189 msec
