                         Program Version 6.0.0  -   RELEASE  -
|  1> ! r2scan-3c def2/J RI DEFGRID2 scfconv6 printgap
|  2> %output
|  3>     printlevel normal
|  4> end
|  5> * xyz 0 1
|  6> C -3.8113850255 -0.7229533699 0.0107761506
|  7> O -2.3847978954 -0.7869774016 0.0119832516
|  8> C -1.700619091 0.3600904393 -0.0061946576
|  9> O -2.2436261815 1.4527946486 -0.0166447216
| 10> C -0.24484573 0.1597550461 -0.0027867188
| 11> C 0.5882546058 1.2812279091 0.0072319532
| 12> C 1.9557149405 1.1365834158 0.0100007706
| 13> C 2.523894583 -0.1399590466 0.0013102449
| 14> C 1.6945757123 -1.2622008273 -0.0094485208
| 15> C 0.3244534931 -1.1138939027 -0.0111123848
| 16> O 3.8667060086 -0.2327478858 0.0034523391
| 17> H -4.1426460794 0.2284427079 0.4291105441
| 18> H -4.1565170007 -1.5579276852 0.6146629124
| 19> H -4.1716512872 -0.8167235368 -1.0139674393
| 20> H 0.1334229892 2.2599251565 0.0133096814
| 21> H 2.6101853657 1.9930056459 0.018504238
| 22> H 2.1268295652 -2.2514688001 -0.0167404834
| 23> H -0.3171703998 -1.9801412664 -0.0196497415
| 24> H 4.159118158 -1.1585044744 -0.0033765744
| 25> *
| 26>
| 27>                          ****END OF INPUT****

CARTESIAN COORDINATES (ANGSTROEM)
---------------------------------
  C     -3.811385   -0.722953    0.010776
  O     -2.384798   -0.786977    0.011983
  C     -1.700619    0.360090   -0.006195
  O     -2.243626    1.452795   -0.016645
  C     -0.244846    0.159755   -0.002787
  C      0.588255    1.281228    0.007232
  C      1.955715    1.136583    0.010001
  C      2.523895   -0.139959    0.001310
  C      1.694576   -1.262201   -0.009449
  C      0.324453   -1.113894   -0.011112
  O      3.866706   -0.232748    0.003452
  H     -4.142646    0.228443    0.429111
  H     -4.156517   -1.557928    0.614663
  H     -4.171651   -0.816724   -1.013967
  H      0.133423    2.259925    0.013310
  H      2.610185    1.993006    0.018504
  H      2.126830   -2.251469   -0.016740
  H     -0.317170   -1.980141   -0.019650
  H      4.159118   -1.158504   -0.003377

 Total Charge           Charge          ....    0
 Multiplicity           Mult            ....    1
 Number of Electrons    NEL             ....   80
 Basis Dimension        Dim             ....  264

ORBITAL ENERGIES
----------------

  NO   OCC          E(Eh)            E(eV)
   0   2.0000     -19.003104      -517.1007
   1   2.0000     -18.996383      -516.9179
   2   2.0000     -18.924283      -514.9559
   3   2.0000     -10.152048      -276.2513
   4   2.0000     -10.114650      -275.2336
   5   2.0000     -10.083927      -274.3976
   6   2.0000     -10.051247      -273.5083
   7   2.0000     -10.047904      -273.4174
   8   2.0000     -10.047429      -273.4044
   9   2.0000     -10.047414      -273.4040
  10   2.0000     -10.041640      -273.2469
  11   2.0000      -1.068481       -29.0748
  12   2.0000      -1.049954       -28.5707
  13   2.0000      -0.971103       -26.4251
  14   2.0000      -0.836985       -22.7755
  15   2.0000      -0.743942       -20.2437
  16   2.0000      -0.732323       -19.9275
  17   2.0000      -0.692144       -18.8342
  18   2.0000      -0.614479       -16.7208
  19   2.0000      -0.596477       -16.2310
  20   2.0000      -0.544110       -14.8060
  21   2.0000      -0.530518       -14.4361
  22   2.0000      -0.497072       -13.5260
  23   2.0000      -0.462230       -12.5779
  24   2.0000      -0.449488       -12.2312
  25   2.0000      -0.431426       -11.7397
  26   2.0000      -0.420296       -11.4368
  27   2.0000      -0.404903       -11.0180
  28   2.0000      -0.404252       -11.0003
  29   2.0000      -0.400392       -10.8952
  30   2.0000      -0.373632       -10.1670
  31   2.0000      -0.369187       -10.0461
  32   2.0000      -0.355125        -9.6634
  33   2.0000      -0.323369        -8.7993
  34   2.0000      -0.318964        -8.6794
  35   2.0000      -0.311504        -8.4765
  36   2.0000      -0.270725        -7.3668
  37   2.0000      -0.250564        -6.8182
  38   2.0000      -0.237764        -6.4699
  39   2.0000      -0.219803        -5.9812
  40   0.0000      -0.065440        -1.7807
  41   0.0000      -0.042968        -1.1692
  42   0.0000       0.035130         0.9559
  43   0.0000       0.044905         1.2219
  44   0.0000       0.063409         1.7255

MULLIKEN ATOMIC CHARGES
-----------------------
   0 C :   -0.297409
   1 O :   -0.176704
   2 C :    0.362201
   3 O :   -0.443591
   4 C :    0.076085
   5 C :   -0.211825
   6 C :   -0.304063
   7 C :    0.451183
   8 C :   -0.324605
   9 C :   -0.185812
  10 O :   -0.399326
  11 H :    0.182946
  12 H :    0.147394
  13 H :    0.150416
  14 H :    0.183360
  15 H :    0.157936
  16 H :    0.139256
  17 H :    0.173246
  18 H :    0.319312
Sum of atomic charges:   -0.0000000

LOEWDIN ATOMIC CHARGES
----------------------
   0 C :   -0.043041
   1 O :   -0.615828
   2 C :    0.383958
   3 O :   -0.449814
   4 C :   -0.053920
   5 C :   -0.091920
   6 C :   -0.137230
   7 C :    0.198302
   8 C :   -0.170503
   9 C :   -0.100165
  10 O :   -0.479689
  11 H :    0.190546
  12 H :    0.174207
  13 H :    0.172071
  14 H :    0.191937
  15 H :    0.182538
  16 H :    0.170110
  17 H :    0.189313
  18 H :    0.289128

  Mayer bond orders larger than 0.100000
B(  0-C ,  1-O ) :   0.8319 B(  0-C , 11-H ) :   0.9684 B(  0-C , 12-H ) :   0.9710
B(  0-C , 13-H ) :   0.9595 B(  1-O ,  2-C ) :   1.1523 B(  1-O ,  4-C ) :  -0.1260
B(  2-C ,  3-O ) :   1.8613 B(  2-C ,  4-C ) :   1.0585 B(  4-C ,  5-C ) :   1.4492
B(  4-C ,  9-C ) :   1.3800 B(  5-C ,  6-C ) :   1.3524 B(  5-C , 14-H ) :   0.9415
B(  6-C ,  7-C ) :   1.3737 B(  6-C , 10-O ) :   0.1004 B(  6-C , 15-H ) :   0.9594
B(  7-C ,  8-C ) :   1.3074 B(  7-C , 10-O ) :   0.9422 B(  8-C ,  9-C ) :   1.3898
B(  8-C , 16-H ) :   0.9261 B(  9-C , 17-H ) :   0.9419 B( 10-O , 18-H ) :   0.8771

Dispersion correction           -0.006359001
FINAL SINGLE POINT ENERGY      -535.248230714953

DIPOLE MOMENT
-------------

Method             : SCF
Type of density    : Electron Density
Multiplicity       :   1
Irrep              :   0
Energy             :  -535.2516848260337383 Eh
Relativity type    :
Basis              : AO
                                X                 Y                 Z
Electronic contribution:      4.025071076       1.774769882      -0.009444532
Nuclear contribution   :     -3.537330903      -3.073971497       0.020484083
                        -----------------------------------------
Total Dipole Moment    :      0.487740173      -1.299201615       0.011039551
                        -----------------------------------------
Magnitude (a.u.)       :      1.387781389
Magnitude (Debye)      :      3.527459960

Rotational constants in cm-1:             0.115053             0.019468             0.016704
Rotational constants in MHz :          3449.192777           583.636450           500.771676

                             ****ORCA TERMINATED NORMALLY****
TOTAL RUN TIME: 0 days 0 hours 0 minutes 24 seconds 321 msec
