                         Program Version 6.0.0  -   RELEASE  -
|  1> ! r2scan-3c def2/J RI DEFGRID2 scfconv6 printgap
|  2> %output
|  3>     printlevel normal
|  4> end
|  5> %cpcm
|  6>     smd true
|  7>     smdsolvent "water"
|  8> end
|  9> * xyz 0 1
| 10> C -3.8113850255 -0.7229533699 0.0107761506
| 11> O -2.3847978954 -0.7869774016 0.0119832516
| 12> C -1.700619091 0.3600904393 -0.0061946576
| 13> O -2.2436261815 1.4527946486 -0.0166447216
| 14> C -0.24484573 0.1597550461 -0.0027867188
| 15> C 0.5882546058 1.2812279091 0.0072319532
| 16> C 1.9557149405 1.1365834158 0.0100007706
| 17> C 2.523894583 -0.1399590466 0.0013102449
| 18> C 1.6945757123 -1.2622008273 -0.0094485208
| 19> C 0.3244534931 -1.1138939027 -0.0111123848
| 20> O 3.8667060086 -0.2327478858 0.0034523391
| 21> H -4.1426460794 0.2284427079 0.4291105441
| 22> H -4.1565170007 -1.5579276852 0.6146629124
| 23> H -4.1716512872 -0.8167235368 -1.0139674393
| 24> H 0.1334229892 2.2599251565 0.0133096814
| 25> H 2.6101853657 1.9930056459 0.018504238
| 26> H 2.1268295652 -2.2514688001 -0.0167404834
| 27> H -0.3171703998 -1.9801412664 -0.0196497415
| 28> H 4.159118158 -1.1585044744 -0.0033765744
| 29> *
| 30>
| 31>                          ****END OF INPUT****

CARTESIAN COORDINATES (ANGSTROEM)
---------------------------------
  C     -3.811385   -0.722953    0.010776
  O     -2.384798   -0.786977    0.011983
  C     -1.700619    0.360090   -0.006195
  O     -2.243626    1.452795   -0.016645
  C     -0.244846    0.159755   -0.002787
  C      0.588255    1.281228    0.007232
  C      1.955715    1.136583    0.010001
  C      2.523895   -0.139959    0.001310
  C      1.694576   -1.262201   -0.009449
  C      0.324453   -1.113894   -0.011112
  O      3.866706   -0.232748    0.003452
  H     -4.142646    0.228443    0.429111
  H     -4.156517   -1.557928    0.614663
  H     -4.171651   -0.816724   -1.013967
  H      0.133423    2.259925    0.013310
  H      2.610185    1.993006    0.018504
  H      2.126830   -2.251469   -0.016740
  H     -0.317170   -1.980141   -0.019650
  H      4.159118   -1.158504   -0.003377

 Total Charge           Charge          ....    0
 Multiplicity           Mult            ....    1
 Number of Electrons    NEL             ....   80
 Basis Dimension        Dim             ....  264

ORBITAL ENERGIES
----------------

  NO   OCC          E(Eh)            E(eV)
   0   2.0000     -19.002110      -517.0737
   1   2.0000     -18.993413      -516.8371
   2   2.0000     -18.940827      -515.4061
   3   2.0000     -10.164993      -276.6035
   4   2.0000     -10.112092      -275.1640
   5   2.0000     -10.075809      -274.1767
   6   2.0000     -10.048782      -273.4413
   7   2.0000     -10.048368      -273.4300
   8   2.0000     -10.047629      -273.4099
   9   2.0000     -10.040825      -273.2247
  10   2.0000     -10.039025      -273.1758
  11   2.0000      -1.076882       -29.3034
  12   2.0000      -1.040073       -28.3018
  13   2.0000      -0.986045       -26.8317
  14   2.0000      -0.836305       -22.7570
  15   2.0000      -0.743769       -20.2390
  16   2.0000      -0.729380       -19.8474
  17   2.0000      -0.689222       -18.7547
  18   2.0000      -0.608921       -16.5696
  19   2.0000      -0.593724       -16.1560
  20   2.0000      -0.541410       -14.7325
  21   2.0000      -0.524251       -14.2656
  22   2.0000      -0.498439       -13.5632
  23   2.0000      -0.465369       -12.6633
  24   2.0000      -0.451761       -12.2931
  25   2.0000      -0.435737       -11.8570
  26   2.0000      -0.420412       -11.4400
  27   2.0000      -0.404589       -11.0094
  28   2.0000      -0.398827       -10.8526
  29   2.0000      -0.397262       -10.8101
  30   2.0000      -0.375804       -10.2261
  31   2.0000      -0.366406        -9.9704
  32   2.0000      -0.353287        -9.6134
  33   2.0000      -0.323999        -8.8165
  34   2.0000      -0.319947        -8.7062
  35   2.0000      -0.309681        -8.4268
  36   2.0000      -0.279420        -7.6034
  37   2.0000      -0.256220        -6.9721
  38   2.0000      -0.250440        -6.8148
  39   2.0000      -0.219909        -5.9840
  40   0.0000      -0.070745        -1.9251
  41   0.0000      -0.041876        -1.1395
  42   0.0000       0.030409         0.8275
  43   0.0000       0.066214         1.8018
  44   0.0000       0.079705         2.1689

MULLIKEN ATOMIC CHARGES
-----------------------
   0 C :   -0.318348
   1 O :   -0.186674
   2 C :    0.398600
   3 O :   -0.521522
   4 C :    0.076392
   5 C :   -0.244574
   6 C :   -0.347191
   7 C :    0.413479
   8 C :   -0.333091
   9 C :   -0.190868
  10 O :   -0.431184
  11 H :    0.181416
  12 H :    0.175512
  13 H :    0.178109
  14 H :    0.196736
  15 H :    0.188393
  16 H :    0.188887
  17 H :    0.196921
  18 H :    0.379008
Sum of atomic charges:    0.0000000

LOEWDIN ATOMIC CHARGES
----------------------
   0 C :   -0.038405
   1 O :   -0.615052
   2 C :    0.387610
   3 O :   -0.512122
   4 C :   -0.069289
   5 C :   -0.106009
   6 C :   -0.144833
   7 C :    0.196249
   8 C :   -0.156294
   9 C :   -0.104039
  10 O :   -0.483517
  11 H :    0.189824
  12 H :    0.186656
  13 H :    0.182318
  14 H :    0.194306
  15 H :    0.192139
  16 H :    0.190603
  17 H :    0.197397
  18 H :    0.312459

  Mayer bond orders larger than 0.100000
B(  0-C ,  1-O ) :   0.8170 B(  0-C , 11-H ) :   0.9648 B(  0-C , 12-H ) :   0.9606
B(  0-C , 13-H ) :   0.9515 B(  1-O ,  2-C ) :   1.1658 B(  1-O ,  4-C ) :  -0.1101
B(  2-C ,  3-O ) :   1.8018 B(  2-C ,  4-C ) :   1.0668 B(  4-C ,  5-C ) :   1.3754
B(  4-C ,  9-C ) :   1.3115 B(  5-C ,  6-C ) :   1.3852 B(  5-C , 14-H ) :   0.9492
B(  6-C ,  7-C ) :   1.3257 B(  6-C , 15-H ) :   0.9607 B(  7-C ,  8-C ) :   1.3029
B(  7-C , 10-O ) :   0.9626 B(  8-C ,  9-C ) :   1.3690 B(  8-C , 16-H ) :   0.9492
B(  9-C , 17-H ) :   0.9579 B( 10-O , 18-H ) :   0.8441

Dispersion correction           -0.006359001
FINAL SINGLE POINT ENERGY      -535.261106350217

DIPOLE MOMENT
-------------

Method             : SCF
Type of density    : Electron Density
Multiplicity       :   1
Irrep              :   0
Energy             :  -535.2645604612979469 Eh
Relativity type    :
Basis              : AO
                                X                 Y                 Z
Electronic contribution:      4.370562781       1.109715426      -0.009819116
Nuclear contribution   :     -3.537330903      -3.073971497       0.020484083
                        -----------------------------------------
Total Dipole Moment    :      0.833231878      -1.964256071       0.010664967
                        -----------------------------------------
Magnitude (a.u.)       :      2.133703592
Magnitude (Debye)      :      5.423443522

Rotational constants in cm-1:             0.115053             0.019468             0.016704
Rotational constants in MHz :          3449.192777           583.636450           500.771676

                             ****ORCA TERMINATED NORMALLY****
TOTAL RUN TIME: 0 days 0 hours 0 minutes 32 seconds 708 msec
