                         Program Version 6.0.0  -   RELEASE  -
|  1> ! pbe def2-sv(p) def2/J RI DEFGRID1 loosescf d4 GCP(DFT/SV(P)) printgap
|  2> %output
|  3>     printlevel normal
|  4> end
|  5> * xyz 0 1
|  6> C -2.4963437703 0.4619904192 -1.3984484626
|  7> C -2.0734941368 0.4196971336 0.0772120952
|  8> H -2.9825334508 0.4291433492 0.6870797998
|  9> C -1.1649040676 1.6071946677 0.4499748513
| 10> C 0.2619228167 1.1799018072 0.7901852259
| 11> C 0.7970862618 0.2514859481 -0.3016359126
| 12> H 0.6041485503 0.7375746347 -1.2658097907
| 13> C 0.0008858179 -1.0615201136 -0.2242776521
| 14> C -1.3934799008 -0.9057897757 0.3149088943
| 15> O -1.964879171 -1.8253250712 0.8733738052
| 16> C 2.2910075841 -0.0168517806 -0.2407947574
| 17> C 2.833970871 -1.0449127539 -0.8768858914
| 18> C 3.1491293542 0.9476701407 0.5207314296
| 19> H -1.6281651098 0.4655474821 -2.0510833828
| 20> H -3.1109101952 -0.4032505627 -1.6389358678
| 21> H -3.0790204024 1.3605271242 -1.5833669864
| 22> H -1.13341986 2.3068471116 -0.3867155079
| 23> H -1.5900147503 2.1347391943 1.3043609276
| 24> H 0.8725170341 2.0761619347 0.8803685644
| 25> H 0.2764662487 0.6543765578 1.7484390775
| 26> H -0.1003955477 -1.5194870124 -1.2110873688
| 27> H 0.5193742117 -1.7866785252 0.4075845713
| 28> H 3.896009221 -1.2208914654 -0.8536872846
| 29> H 2.2573508105 -1.7513726178 -1.4473464572
| 30> H 3.0338780314 1.9559767509 0.1273868259
| 31> H 2.8744240933 0.958550535 1.573548363
| 32> H 4.1947997537 0.6639381669 0.4397780891
| 33> *
| 34>
| 35>                          ****END OF INPUT****

CARTESIAN COORDINATES (ANGSTROEM)
---------------------------------
  C     -2.496344    0.461990   -1.398448
  C     -2.073494    0.419697    0.077212
  H     -2.982533    0.429143    0.687080
  C     -1.164904    1.607195    0.449975
  C      0.261923    1.179902    0.790185
  C      0.797086    0.251486   -0.301636
  H      0.604149    0.737575   -1.265810
  C      0.000886   -1.061520   -0.224278
  C     -1.393480   -0.905790    0.314909
  O     -1.964879   -1.825325    0.873374
  C      2.291008   -0.016852   -0.240795
  C      2.833971   -1.044913   -0.876886
  C      3.149129    0.947670    0.520731
  H     -1.628165    0.465547   -2.051083
  H     -3.110910   -0.403251   -1.638936
  H     -3.079020    1.360527   -1.583367
  H     -1.133420    2.306847   -0.386716
  H     -1.590015    2.134739    1.304361
  H      0.872517    2.076162    0.880369
  H      0.276466    0.654377    1.748439
  H     -0.100396   -1.519487   -1.211087
  H      0.519374   -1.786679    0.407585
  H      3.896009   -1.220891   -0.853687
  H      2.257351   -1.751373   -1.447346
  H      3.033878    1.955977    0.127387
  H      2.874424    0.958551    1.573548
  H      4.194800    0.663938    0.439778

 Total Charge           Charge          ....    0
 Multiplicity           Mult            ....    1
 Number of Electrons    NEL             ....   84
 Basis Dimension        Dim             ....  186

ORBITAL ENERGIES
----------------

  NO   OCC          E(Eh)            E(eV)
   0   2.0000     -18.729483      -509.6552
   1   2.0000      -9.966774      -271.2097
   2   2.0000      -9.909871      -269.6613
   3   2.0000      -9.903529      -269.4887
   4   2.0000      -9.900828      -269.4152
   5   2.0000      -9.895828      -269.2792
   6   2.0000      -9.895091      -269.2591
   7   2.0000      -9.892104      -269.1778
   8   2.0000      -9.890719      -269.1401
   9   2.0000      -9.884600      -268.9736
  10   2.0000      -9.870737      -268.5964
  11   2.0000      -0.927625       -25.2420
  12   2.0000      -0.773874       -21.0582
  13   2.0000      -0.729929       -19.8624
  14   2.0000      -0.683693       -18.6042
  15   2.0000      -0.667461       -18.1625
  16   2.0000      -0.615242       -16.7416
  17   2.0000      -0.604602       -16.4521
  18   2.0000      -0.556670       -15.1477
  19   2.0000      -0.539119       -14.6702
  20   2.0000      -0.478107       -13.0100
  21   2.0000      -0.463497       -12.6124
  22   2.0000      -0.442608       -12.0440
  23   2.0000      -0.418589       -11.3904
  24   2.0000      -0.413365       -11.2482
  25   2.0000      -0.402219       -10.9449
  26   2.0000      -0.386046       -10.5048
  27   2.0000      -0.381064       -10.3693
  28   2.0000      -0.370994       -10.0953
  29   2.0000      -0.363584        -9.8936
  30   2.0000      -0.355518        -9.6741
  31   2.0000      -0.347731        -9.4623
  32   2.0000      -0.345888        -9.4121
  33   2.0000      -0.326550        -8.8859
  34   2.0000      -0.320448        -8.7198
  35   2.0000      -0.311237        -8.4692
  36   2.0000      -0.304945        -8.2980
  37   2.0000      -0.294180        -8.0051
  38   2.0000      -0.278226        -7.5709
  39   2.0000      -0.274169        -7.4605
  40   2.0000      -0.220807        -6.0085
  41   2.0000      -0.185324        -5.0429
  42   0.0000      -0.048622        -1.3231
  43   0.0000      -0.019482        -0.5301
  44   0.0000       0.028768         0.7828
  45   0.0000       0.045748         1.2449
  46   0.0000       0.053254         1.4491

MULLIKEN ATOMIC CHARGES
-----------------------
   0 C :   -0.278950
   1 C :   -0.131508
   2 H :    0.072011
   3 C :   -0.072801
   4 C :   -0.162671
   5 C :   -0.119196
   6 H :    0.083493
   7 C :   -0.138475
   8 C :   -0.007996
   9 O :   -0.159873
  10 C :   -0.068003
  11 C :   -0.220798
  12 C :   -0.218772
  13 H :    0.110289
  14 H :    0.118196
  15 H :    0.117206
  16 H :    0.071868
  17 H :    0.089733
  18 H :    0.092273
  19 H :    0.094659
  20 H :    0.120812
  21 H :    0.106585
  22 H :    0.083218
  23 H :    0.088773
  24 H :    0.114386
  25 H :    0.117336
  26 H :    0.098202
Sum of atomic charges:   -0.0000000

LOEWDIN ATOMIC CHARGES
----------------------
   0 C :   -0.320532
   1 C :   -0.170190
   2 H :    0.128805
   3 C :   -0.211367
   4 C :   -0.220477
   5 C :   -0.134198
   6 H :    0.129155
   7 C :   -0.237537
   8 C :    0.047953
   9 O :   -0.134299
  10 C :   -0.051402
  11 C :   -0.265662
  12 C :   -0.322848
  13 H :    0.117391
  14 H :    0.126188
  15 H :    0.125543
  16 H :    0.116876
  17 H :    0.124537
  18 H :    0.120991
  19 H :    0.122183
  20 H :    0.146293
  21 H :    0.142468
  22 H :    0.118663
  23 H :    0.117212
  24 H :    0.128306
  25 H :    0.130420
  26 H :    0.125525

  Mayer bond orders larger than 0.100000
B(  0-C ,  1-C ) :   1.0829 B(  0-C , 13-H ) :   0.9445 B(  0-C , 14-H ) :   0.9451
B(  0-C , 15-H ) :   0.9431 B(  1-C ,  2-H ) :   0.8729 B(  1-C ,  3-C ) :   1.0292
B(  1-C ,  8-C ) :   1.0141 B(  3-C ,  4-C ) :   1.1825 B(  3-C , 16-H ) :   0.9054
B(  3-C , 17-H ) :   0.9084 B(  4-C ,  5-C ) :   1.1568 B(  4-C , 18-H ) :   0.8970
B(  4-C , 19-H ) :   0.8914 B(  5-C ,  6-H ) :   0.8470 B(  5-C ,  7-C ) :   1.0629
B(  5-C , 10-C ) :   0.9929 B(  7-C ,  8-C ) :   1.0090 B(  7-C , 20-H ) :   0.8701
B(  7-C , 21-H ) :   0.8874 B(  8-C ,  9-O ) :   2.1960 B( 10-C , 11-C ) :   2.0392
B( 10-C , 12-C ) :   1.1497 B( 11-C , 22-H ) :   0.8995 B( 11-C , 23-H ) :   0.9094
B( 12-C , 24-H ) :   0.9276 B( 12-C , 25-H ) :   0.9177 B( 12-C , 26-H ) :   0.9330

Dispersion correction           -0.028623857
FINAL SINGLE POINT ENERGY      -464.817581268022

DIPOLE MOMENT
-------------

Method             : SCF
Type of density    : Electron Density
Multiplicity       :   1
Irrep              :   0
Energy             :  -464.9034878707308280 Eh
Relativity type    :
Basis              : AO
                                X                 Y                 Z
Electronic contribution:     -4.126239563      -5.601080041       2.611221206
Nuclear contribution   :      4.572109176       6.597985856      -3.054371725
                        -----------------------------------------
Total Dipole Moment    :      0.445869613       0.996905814      -0.443150519
                        -----------------------------------------
Magnitude (a.u.)       :      1.178559840
Magnitude (Debye)      :      2.995661044

Rotational constants in cm-1:             0.062068             0.024309             0.021198
Rotational constants in MHz :          1860.750792           728.752336           635.514136

                             ****ORCA TERMINATED NORMALLY****
TOTAL RUN TIME: 0 days 0 hours 0 minutes 14 seconds 141 msec
