                         Program Version 6.0.0  -   RELEASE  -
|  1> ! pbe def2-sv(p) def2/J RI DEFGRID1 loosescf d4 GCP(DFT/SV(P)) printgap
|  2> %output
|  3>     printlevel normal
|  4> end
|  5> * xyz 0 1
|  6> C -2.4596227549 -0.5790467822 -0.1326953936
|  7> C -1.027960346 -0.2047159431 0.2670481533
|  8> H -0.9110302459 -0.2749686739 1.3579870969
|  9> C -0.6499248849 1.2189067528 -0.188411115
| 10> H -1.1383771463 1.4182119125 -1.1557035659
| 11> C 0.8787231391 1.3220125687 -0.3938203784
| 12> H 1.1732799164 2.3312658145 -0.0712640794
| 13> C 1.6094913546 0.2855203639 0.4752023561
| 14> H 2.687081138 0.3480940921 0.2636002791
| 15> C 1.1622274756 -1.1317450489 0.0537855151
| 16> H 1.3003667851 -1.8015409164 0.9182726029
| 17> O -0.1861182083 -1.1611578091 -0.3623693572
| 18> O 1.9343120372 -1.6425358183 -0.9690343316
| 19> O 1.3543636781 0.4356222515 1.8451161653
| 20> O 1.2709566388 1.0777311262 -1.7197739325
| 21> O -0.9998236486 2.2026490741 0.751733104
| 22> O -2.8629581294 -1.8025519074 0.4236726665
| 23> H -2.5129817908 -0.6169438317 -1.2285646743
| 24> H -3.1641650098 0.1657823573 0.2404779349
| 25> H 1.8176336025 -1.0776397979 -1.753730542
| 26> H 1.6469454394 1.3099270488 2.1425030292
| 27> H 0.9723430333 1.7971707794 -2.2946331244
| 28> H -1.9451188522 2.158668085 0.9493891905
| 29> H -2.2290441621 -2.4817574015 0.151728086
| 30> *
| 31>
| 32>                          ****END OF INPUT****

CARTESIAN COORDINATES (ANGSTROEM)
---------------------------------
  C     -2.459623   -0.579047   -0.132695
  C     -1.027960   -0.204716    0.267048
  H     -0.911030   -0.274969    1.357987
  C     -0.649925    1.218907   -0.188411
  H     -1.138377    1.418212   -1.155704
  C      0.878723    1.322013   -0.393820
  H      1.173280    2.331266   -0.071264
  C      1.609491    0.285520    0.475202
  H      2.687081    0.348094    0.263600
  C      1.162227   -1.131745    0.053786
  H      1.300367   -1.801541    0.918273
  O     -0.186118   -1.161158   -0.362369
  O      1.934312   -1.642536   -0.969034
  O      1.354364    0.435622    1.845116
  O      1.270957    1.077731   -1.719774
  O     -0.999824    2.202649    0.751733
  O     -2.862958   -1.802552    0.423673
  H     -2.512982   -0.616944   -1.228565
  H     -3.164165    0.165782    0.240478
  H      1.817634   -1.077640   -1.753731
  H      1.646945    1.309927    2.142503
  H      0.972343    1.797171   -2.294633
  H     -1.945119    2.158668    0.949389
  H     -2.229044   -2.481757    0.151728

 Total Charge           Charge          ....    0
 Multiplicity           Mult            ....    1
 Number of Electrons    NEL             ....   96
 Basis Dimension        Dim             ....  192

ORBITAL ENERGIES
----------------

  NO   OCC          E(Eh)            E(eV)
   0   2.0000     -18.776397      -510.9317
   1   2.0000     -18.763807      -510.5892
   2   2.0000     -18.763074      -510.5692
   3   2.0000     -18.761630      -510.5299
   4   2.0000     -18.743773      -510.0440
   5   2.0000     -18.740701      -509.9604
   6   2.0000      -9.978956      -271.5412
   7   2.0000      -9.953426      -270.8465
   8   2.0000      -9.948090      -270.7013
   9   2.0000      -9.943460      -270.5753
  10   2.0000      -9.936866      -270.3959
  11   2.0000      -9.934649      -270.3356
  12   2.0000      -0.978363       -26.6226
  13   2.0000      -0.950931       -25.8761
  14   2.0000      -0.938972       -25.5507
  15   2.0000      -0.935404       -25.4536
  16   2.0000      -0.921358       -25.0714
  17   2.0000      -0.900866       -24.5138
  18   2.0000      -0.703635       -19.1469
  19   2.0000      -0.687187       -18.6993
  20   2.0000      -0.624164       -16.9844
  21   2.0000      -0.585649       -15.9363
  22   2.0000      -0.569194       -15.4886
  23   2.0000      -0.520573       -14.1655
  24   2.0000      -0.504756       -13.7351
  25   2.0000      -0.493266       -13.4225
  26   2.0000      -0.472218       -12.8497
  27   2.0000      -0.462482       -12.5848
  28   2.0000      -0.452659       -12.3175
  29   2.0000      -0.436970       -11.8906
  30   2.0000      -0.423564       -11.5258
  31   2.0000      -0.392925       -10.6920
  32   2.0000      -0.383795       -10.4436
  33   2.0000      -0.372828       -10.1452
  34   2.0000      -0.367049        -9.9879
  35   2.0000      -0.351314        -9.5597
  36   2.0000      -0.330591        -8.9958
  37   2.0000      -0.324450        -8.8287
  38   2.0000      -0.308376        -8.3913
  39   2.0000      -0.294397        -8.0109
  40   2.0000      -0.276121        -7.5136
  41   2.0000      -0.269643        -7.3374
  42   2.0000      -0.250666        -6.8210
  43   2.0000      -0.247132        -6.7248
  44   2.0000      -0.230571        -6.2742
  45   2.0000      -0.226644        -6.1673
  46   2.0000      -0.214215        -5.8291
  47   2.0000      -0.199707        -5.4343
  48   0.0000       0.003931         0.1070
  49   0.0000       0.011758         0.3200
  50   0.0000       0.022520         0.6128
  51   0.0000       0.044880         1.2213
  52   0.0000       0.063465         1.7270

MULLIKEN ATOMIC CHARGES
-----------------------
   0 C :    0.087879
   1 C :   -0.031504
   2 H :    0.084321
   3 C :    0.090812
   4 H :    0.032527
   5 C :    0.044229
   6 H :    0.063568
   7 C :   -0.026247
   8 H :    0.081066
   9 C :    0.220300
  10 H :    0.072104
  11 O :   -0.318585
  12 O :   -0.394326
  13 O :   -0.399837
  14 O :   -0.422149
  15 O :   -0.414350
  16 O :   -0.434747
  17 H :    0.073247
  18 H :    0.065461
  19 H :    0.301527
  20 H :    0.306371
  21 H :    0.311162
  22 H :    0.304689
  23 H :    0.302480
Sum of atomic charges:   -0.0000000

LOEWDIN ATOMIC CHARGES
----------------------
   0 C :   -0.125752
   1 C :   -0.088554
   2 H :    0.113726
   3 C :   -0.071976
   4 H :    0.093236
   5 C :   -0.070913
   6 H :    0.102752
   7 C :   -0.091661
   8 H :    0.110337
   9 C :    0.011772
  10 H :    0.102949
  11 O :   -0.158587
  12 O :   -0.295218
  13 O :   -0.304082
  14 O :   -0.310876
  15 O :   -0.317178
  16 O :   -0.335582
  17 H :    0.100432
  18 H :    0.105651
  19 H :    0.276706
  20 H :    0.289487
  21 H :    0.292339
  22 H :    0.286279
  23 H :    0.284711

  Mayer bond orders larger than 0.100000
B(  0-C ,  1-C ) :   1.0347 B(  0-C , 16-O ) :   1.0849 B(  0-C , 17-H ) :   0.9008
B(  0-C , 18-H ) :   0.9206 B(  1-C ,  2-H ) :   0.8631 B(  1-C ,  3-C ) :   1.0067
B(  1-C , 11-O ) :   1.0097 B(  3-C ,  4-H ) :   0.8824 B(  3-C ,  5-C ) :   0.9596
B(  3-C , 15-O ) :   1.0721 B(  5-C ,  6-H ) :   0.8898 B(  5-C ,  7-C ) :   1.0233
B(  5-C , 14-O ) :   1.0392 B(  7-C ,  8-H ) :   0.8998 B(  7-C ,  9-C ) :   0.9554
B(  7-C , 13-O ) :   1.0714 B(  9-C , 10-H ) :   0.9056 B(  9-C , 11-O ) :   1.0124
B(  9-C , 12-O ) :   1.1570 B( 12-O , 19-H ) :   0.8241 B( 13-O , 20-H ) :   0.8415
B( 14-O , 21-H ) :   0.8405 B( 15-O , 22-H ) :   0.8426 B( 16-O , 23-H ) :   0.8428

Dispersion correction           -0.024734627
FINAL SINGLE POINT ENERGY      -685.690974728364

DIPOLE MOMENT
-------------

Method             : SCF
Type of density    : Electron Density
Multiplicity       :   1
Irrep              :   0
Energy             :  -685.8211157343970399 Eh
Relativity type    :
Basis              : AO
                                X                 Y                 Z
Electronic contribution:      2.110991754      -1.510425461      -0.023990748
Nuclear contribution   :     -2.153102673       3.060509615      -0.450717419
                        -----------------------------------------
Total Dipole Moment    :     -0.042110919       1.550084154      -0.474708168
                        -----------------------------------------
Magnitude (a.u.)       :      1.621691111
Magnitude (Debye)      :      4.122011223

Rotational constants in cm-1:             0.038224             0.027264             0.021855
Rotational constants in MHz :          1145.933851           817.342098           655.211170

                             ****ORCA TERMINATED NORMALLY****
TOTAL RUN TIME: 0 days 0 hours 0 minutes 12 seconds 84 msec
