                         Program Version 6.0.0  -   RELEASE  -
|  1> ! pbe def2-sv(p) def2/J RI DEFGRID1 loosescf d4 GCP(DFT/SV(P)) printgap
|  2> %output
|  3>     printlevel normal
|  4> end
|  5> * xyz 0 1
|  6> C -3.0758860568 0.4795465718 0.6266151097
|  7> C -2.2690197096 -0.4576386961 -0.271239103
|  8> H -2.9727563288 -0.9933742244 -0.9152593651
|  9> C -1.4658733458 -1.473629719 0.5670778186
| 10> C 0.0322841146 -1.4305981237 0.2723641393
| 11> C 0.5571215317 -0.0093726918 0.4528458915
| 12> H 0.3391910783 0.3100684354 1.4810623531
| 13> C -0.1952060264 0.959274471 -0.432016468
| 14> O 0.1138939253 2.1336213411 -0.5239127202
| 15> C -1.3506355831 0.3675090705 -1.1856738167
| 16> C 2.0788211785 0.1705843589 0.2518302149
| 17> C 2.8800513202 -0.5356671786 1.3420786337
| 18> C 2.5314681822 -0.2942256193 -1.1309709018
| 19> H -2.4122477285 1.0825572077 1.243911834
| 20> H -3.6852813748 1.1535244721 0.028710321
| 21> H -3.7348323168 -0.0908492975 1.2766740194
| 22> H -1.6147672318 -1.2588799 1.6267883672
| 23> H -1.8361403822 -2.4829199729 0.3855537461
| 24> H 0.5485710957 -2.1018298891 0.9585084519
| 25> H 0.2214524947 -1.7784841659 -0.7425003708
| 26> H -1.9110474404 1.1667949625 -1.6733608526
| 27> H -0.931913776 -0.2766643235 -1.9618949161
| 28> H 2.2670132922 1.2487202126 0.3246021201
| 29> H 2.7667369636 -1.6139934016 1.2689898616
| 30> H 2.5564302206 -0.2157897256 2.3294471005
| 31> H 3.9355588715 -0.2986983946 1.2352132547
| 32> H 2.4226960009 -1.3702120566 -1.2369370827
| 33> H 3.5794511401 -0.0442147486 -1.277812422
| 34> H 1.9534062902 0.2008315589 -1.909064285
| 35> *
| 36>
| 37>                          ****END OF INPUT****

CARTESIAN COORDINATES (ANGSTROEM)
---------------------------------
  C     -3.075886    0.479547    0.626615
  C     -2.269020   -0.457639   -0.271239
  H     -2.972756   -0.993374   -0.915259
  C     -1.465873   -1.473630    0.567078
  C      0.032284   -1.430598    0.272364
  C      0.557122   -0.009373    0.452846
  H      0.339191    0.310068    1.481062
  C     -0.195206    0.959274   -0.432016
  O      0.113894    2.133621   -0.523913
  C     -1.350636    0.367509   -1.185674
  C      2.078821    0.170584    0.251830
  C      2.880051   -0.535667    1.342079
  C      2.531468   -0.294226   -1.130971
  H     -2.412248    1.082557    1.243912
  H     -3.685281    1.153524    0.028710
  H     -3.734832   -0.090849    1.276674
  H     -1.614767   -1.258880    1.626788
  H     -1.836140   -2.482920    0.385554
  H      0.548571   -2.101830    0.958508
  H      0.221452   -1.778484   -0.742500
  H     -1.911047    1.166795   -1.673361
  H     -0.931914   -0.276664   -1.961895
  H      2.267013    1.248720    0.324602
  H      2.766737   -1.613993    1.268990
  H      2.556430   -0.215790    2.329447
  H      3.935559   -0.298698    1.235213
  H      2.422696   -1.370212   -1.236937
  H      3.579451   -0.044215   -1.277812
  H      1.953406    0.200832   -1.909064

 Total Charge           Charge          ....    0
 Multiplicity           Mult            ....    1
 Number of Electrons    NEL             ....   86
 Basis Dimension        Dim             ....  190

ORBITAL ENERGIES
----------------

  NO   OCC          E(Eh)            E(eV)
   0   2.0000     -18.737331      -509.8687
   1   2.0000      -9.967291      -271.2238
   2   2.0000      -9.905529      -269.5432
   3   2.0000      -9.897697      -269.3300
   4   2.0000      -9.896916      -269.3088
   5   2.0000      -9.891681      -269.1663
   6   2.0000      -9.891015      -269.1482
   7   2.0000      -9.890714      -269.1400
   8   2.0000      -9.880811      -268.8705
   9   2.0000      -9.876170      -268.7442
  10   2.0000      -9.876040      -268.7407
  11   2.0000      -0.931692       -25.3526
  12   2.0000      -0.769102       -20.9283
  13   2.0000      -0.729956       -19.8631
  14   2.0000      -0.677492       -18.4355
  15   2.0000      -0.653288       -17.7769
  16   2.0000      -0.616087       -16.7646
  17   2.0000      -0.613502       -16.6942
  18   2.0000      -0.560364       -15.2483
  19   2.0000      -0.521045       -14.1784
  20   2.0000      -0.499795       -13.6001
  21   2.0000      -0.460776       -12.5384
  22   2.0000      -0.438842       -11.9415
  23   2.0000      -0.424756       -11.5582
  24   2.0000      -0.416012       -11.3203
  25   2.0000      -0.393761       -10.7148
  26   2.0000      -0.392095       -10.6694
  27   2.0000      -0.383550       -10.4369
  28   2.0000      -0.369034       -10.0419
  29   2.0000      -0.357744        -9.7347
  30   2.0000      -0.351586        -9.5671
  31   2.0000      -0.346658        -9.4331
  32   2.0000      -0.338090        -9.1999
  33   2.0000      -0.333321        -9.0701
  34   2.0000      -0.319196        -8.6858
  35   2.0000      -0.313175        -8.5219
  36   2.0000      -0.301460        -8.2031
  37   2.0000      -0.295531        -8.0418
  38   2.0000      -0.290346        -7.9007
  39   2.0000      -0.282070        -7.6755
  40   2.0000      -0.272275        -7.4090
  41   2.0000      -0.267438        -7.2773
  42   2.0000      -0.189681        -5.1615
  43   0.0000      -0.052192        -1.4202
  44   0.0000       0.022794         0.6202
  45   0.0000       0.045142         1.2284
  46   0.0000       0.046437         1.2636
  47   0.0000       0.063248         1.7211

MULLIKEN ATOMIC CHARGES
-----------------------
   0 C :   -0.255894
   1 C :   -0.206318
   2 H :    0.071525
   3 C :   -0.082967
   4 C :   -0.115443
   5 C :   -0.169010
   6 H :    0.086127
   7 C :   -0.021715
   8 O :   -0.167757
   9 C :   -0.026566
  10 C :   -0.131407
  11 C :   -0.233057
  12 C :   -0.268035
  13 H :    0.113746
  14 H :    0.102492
  15 H :    0.107344
  16 H :    0.071377
  17 H :    0.081940
  18 H :    0.088338
  19 H :    0.080911
  20 H :    0.083835
  21 H :    0.094800
  22 H :    0.087004
  23 H :    0.098170
  24 H :    0.095112
  25 H :    0.100545
  26 H :    0.100899
  27 H :    0.102749
  28 H :    0.111256
Sum of atomic charges:   -0.0000000

LOEWDIN ATOMIC CHARGES
----------------------
   0 C :   -0.329746
   1 C :   -0.147066
   2 H :    0.119967
   3 C :   -0.216219
   4 C :   -0.220720
   5 C :   -0.162736
   6 H :    0.138562
   7 C :    0.053643
   8 O :   -0.132042
   9 C :   -0.237181
  10 C :   -0.142107
  11 C :   -0.329138
  12 C :   -0.331281
  13 H :    0.119295
  14 H :    0.120038
  15 H :    0.119680
  16 H :    0.117415
  17 H :    0.121086
  18 H :    0.121557
  19 H :    0.117845
  20 H :    0.128708
  21 H :    0.138147
  22 H :    0.123319
  23 H :    0.114304
  24 H :    0.117051
  25 H :    0.120758
  26 H :    0.115163
  27 H :    0.122132
  28 H :    0.119564

  Mayer bond orders larger than 0.100000
B(  0-C ,  1-C ) :   1.1061 B(  0-C , 13-H ) :   0.9451 B(  0-C , 14-H ) :   0.9471
B(  0-C , 15-H ) :   0.9477 B(  1-C ,  2-H ) :   0.8918 B(  1-C ,  3-C ) :   1.0570
B(  1-C ,  9-C ) :   1.1093 B(  3-C ,  4-C ) :   1.1902 B(  3-C , 16-H ) :   0.9110
B(  3-C , 17-H ) :   0.9084 B(  4-C ,  5-C ) :   1.0998 B(  4-C , 18-H ) :   0.9043
B(  4-C , 19-H ) :   0.8740 B(  5-C ,  6-H ) :   0.8509 B(  5-C ,  7-C ) :   0.9184
B(  5-C , 10-C ) :   1.0450 B(  7-C ,  8-O ) :   2.1656 B(  7-C ,  9-C ) :   1.0778
B(  9-C , 20-H ) :   0.8911 B(  9-C , 21-H ) :   0.8573 B( 10-C , 11-C ) :   1.1192
B( 10-C , 12-C ) :   1.1103 B( 10-C , 22-H ) :   0.8855 B( 11-C , 23-H ) :   0.9409
B( 11-C , 24-H ) :   0.9485 B( 11-C , 25-H ) :   0.9485 B( 12-C , 26-H ) :   0.9402
B( 12-C , 27-H ) :   0.9483 B( 12-C , 28-H ) :   0.9456

Dispersion correction           -0.030551391
FINAL SINGLE POINT ENERGY      -466.030409499556

DIPOLE MOMENT
-------------

Method             : SCF
Type of density    : Electron Density
Multiplicity       :   1
Irrep              :   0
Energy             :  -466.1264229025974828 Eh
Relativity type    :
Basis              : AO
                                X                 Y                 Z
Electronic contribution:     -1.648836322       5.870791167      -2.169533644
Nuclear contribution   :      1.400982763      -6.876451696       2.283821835
                        -----------------------------------------
Total Dipole Moment    :     -0.247853559      -1.005660529       0.114288190
                        -----------------------------------------
Magnitude (a.u.)       :      1.042039479
Magnitude (Debye)      :      2.648653865

Rotational constants in cm-1:             0.060461             0.025844             0.022069
Rotational constants in MHz :          1812.585462           774.784522           661.597510

                             ****ORCA TERMINATED NORMALLY****
TOTAL RUN TIME: 0 days 0 hours 0 minutes 16 seconds 68 msec
