                         Program Version 6.0.0  -   RELEASE  -
|  1> ! r2scan-3c def2/J RI DEFGRID2 scfconv6 printgap
|  2> %output
|  3>     printlevel normal
|  4> end
|  5> * xyz 0 1
|  6> C 1.8947826334 -1.4645776963 6.2843e-06
|  7> C 2.580862622 -0.2472598698 1.72721e-05
|  8> C 1.8968166311 0.9449452513 1.90579e-05
|  9> C 0.4954435424 0.979402105 -7.50235e-05
| 10> C -0.1927730808 -0.2574513177 -6.12666e-05
| 11> C 0.5247693696 -1.4662372987 -3.09767e-05
| 12> N -1.5931837128 -0.3242396181 5.824e-06
| 13> O -2.1449972958 -1.4160152349 3.60766e-05
| 14> O -2.2428478438 0.7287681204 1.31542e-05
| 15> O -0.0883916261 2.1711884889 1.6619e-05
| 16> H 2.4379845536 -2.3944315472 1.723e-05
| 17> H 3.6589519853 -0.241125547 0.0001531803
| 18> H 2.4112250745 1.8919381735 0.0002371459
| 19> H -0.041215386 -2.3847511174 1.45309e-05
| 20> H -1.0694301339 2.0863633046 -6.29056e-05
| 21> *
| 22>
| 23>                          ****END OF INPUT****

CARTESIAN COORDINATES (ANGSTROEM)
---------------------------------
  C      1.894783   -1.464578    0.000006
  C      2.580863   -0.247260    0.000017
  C      1.896817    0.944945    0.000019
  C      0.495444    0.979402   -0.000075
  C     -0.192773   -0.257451   -0.000061
  C      0.524769   -1.466237   -0.000031
  N     -1.593184   -0.324240    0.000006
  O     -2.144997   -1.416015    0.000036
  O     -2.242848    0.728768    0.000013
  O     -0.088392    2.171188    0.000017
  H      2.437985   -2.394432    0.000017
  H      3.658952   -0.241126    0.000153
  H      2.411225    1.891938    0.000237
  H     -0.041215   -2.384751    0.000015
  H     -1.069430    2.086363   -0.000063

 Total Charge           Charge          ....    0
 Multiplicity           Mult            ....    1
 Number of Electrons    NEL             ....   72
 Basis Dimension        Dim             ....  235

ORBITAL ENERGIES
----------------

  NO   OCC          E(Eh)            E(eV)
   0   2.0000     -19.006668      -517.1977
   1   2.0000     -18.993532      -516.8403
   2   2.0000     -18.986710      -516.6547
   3   2.0000     -14.401812      -391.8932
   4   2.0000     -10.143334      -276.0142
   5   2.0000     -10.107702      -275.0446
   6   2.0000     -10.073298      -274.1084
   7   2.0000     -10.071448      -274.0580
   8   2.0000     -10.062233      -273.8073
   9   2.0000     -10.060183      -273.7515
  10   2.0000      -1.206960       -32.8430
  11   2.0000      -1.061857       -28.8946
  12   2.0000      -1.024289       -27.8723
  13   2.0000      -0.866298       -23.5732
  14   2.0000      -0.798952       -21.7406
  15   2.0000      -0.745505       -20.2862
  16   2.0000      -0.686897       -18.6914
  17   2.0000      -0.610234       -16.6053
  18   2.0000      -0.604320       -16.4444
  19   2.0000      -0.542293       -14.7565
  20   2.0000      -0.524474       -14.2717
  21   2.0000      -0.518575       -14.1111
  22   2.0000      -0.499224       -13.5846
  23   2.0000      -0.474189       -12.9034
  24   2.0000      -0.455536       -12.3958
  25   2.0000      -0.429600       -11.6900
  26   2.0000      -0.412556       -11.2262
  27   2.0000      -0.384466       -10.4619
  28   2.0000      -0.376668       -10.2496
  29   2.0000      -0.345381        -9.3983
  30   2.0000      -0.342318        -9.3149
  31   2.0000      -0.298133        -8.1126
  32   2.0000      -0.288996        -7.8640
  33   2.0000      -0.274416        -7.4672
  34   2.0000      -0.266872        -7.2620
  35   2.0000      -0.239270        -6.5109
  36   0.0000      -0.130068        -3.5393
  37   0.0000      -0.051253        -1.3947
  38   0.0000      -0.033376        -0.9082
  39   0.0000       0.054832         1.4921
  40   0.0000       0.078492         2.1359

MULLIKEN ATOMIC CHARGES
-----------------------
   0 C :   -0.152642
   1 C :   -0.080662
   2 C :   -0.272411
   3 C :    0.196879
   4 C :    0.010004
   5 C :   -0.181762
   6 N :    0.319473
   7 O :   -0.228904
   8 O :   -0.280713
   9 O :   -0.362385
  10 H :    0.155494
  11 H :    0.155283
  12 H :    0.167387
  13 H :    0.187230
  14 H :    0.367730
Sum of atomic charges:   -0.0000000

LOEWDIN ATOMIC CHARGES
----------------------
   0 C :   -0.175482
   1 C :   -0.116172
   2 C :   -0.130365
   3 C :    0.253989
   4 C :    0.193396
   5 C :   -0.062259
   6 N :   -0.488179
   7 O :   -0.017629
   8 O :   -0.073673
   9 O :   -0.436683
  10 H :    0.173570
  11 H :    0.173728
  12 H :    0.187407
  13 H :    0.202516
  14 H :    0.315837

  Mayer bond orders larger than 0.100000
B(  0-C ,  1-C ) :   1.3142 B(  0-C ,  5-C ) :   1.4072 B(  0-C , 10-H ) :   0.9518
B(  1-C ,  2-C ) :   1.4360 B(  1-C , 11-H ) :   0.9457 B(  2-C ,  3-C ) :   1.3000
B(  2-C , 12-H ) :   0.9523 B(  3-C ,  4-C ) :   1.3504 B(  3-C ,  9-O ) :   1.0916
B(  4-C ,  5-C ) :   1.2541 B(  4-C ,  6-N ) :   1.0342 B(  5-C ,  7-O ) :   0.1072
B(  5-C , 13-H ) :   0.9470 B(  6-N ,  7-O ) :   1.8804 B(  6-N ,  8-O ) :   1.6871
B(  7-O ,  8-O ) :   0.2077 B(  9-O , 14-H ) :   0.7776

Dispersion correction           -0.005273368
FINAL SINGLE POINT ENERGY      -511.900270630694

DIPOLE MOMENT
-------------

Method             : SCF
Type of density    : Electron Density
Multiplicity       :   1
Irrep              :   0
Energy             :  -511.9068963605948284 Eh
Relativity type    :
Basis              : AO
                                X                 Y                 Z
Electronic contribution:     -5.400881216       0.881048901      -0.000311810
Nuclear contribution   :      6.865076235      -0.957385705       0.000337983
                        -----------------------------------------
Total Dipole Moment    :      1.464195019      -0.076336804       0.000026173
                        -----------------------------------------
Magnitude (a.u.)       :      1.466183605
Magnitude (Debye)      :      3.726742554

Rotational constants in cm-1:             0.079368             0.043301             0.028016
Rotational constants in MHz :          2379.403663          1298.127904           839.903135

                             ****ORCA TERMINATED NORMALLY****
TOTAL RUN TIME: 0 days 0 hours 0 minutes 26 seconds 968 msec
