                         Program Version 6.0.0  -   RELEASE  -
|  1> ! r2scan-3c def2/J RI DEFGRID2 scfconv6 printgap
|  2> %output
|  3>     printlevel normal
|  4> end
|  5> %cpcm
|  6>     smd true
|  7>     smdsolvent "water"
|  8> end
|  9> * xyz 0 1
| 10> C 1.8947826334 -1.4645776963 6.2843e-06
| 11> C 2.580862622 -0.2472598698 1.72721e-05
| 12> C 1.8968166311 0.9449452513 1.90579e-05
| 13> C 0.4954435424 0.979402105 -7.50235e-05
| 14> C -0.1927730808 -0.2574513177 -6.12666e-05
| 15> C 0.5247693696 -1.4662372987 -3.09767e-05
| 16> N -1.5931837128 -0.3242396181 5.824e-06
| 17> O -2.1449972958 -1.4160152349 3.60766e-05
| 18> O -2.2428478438 0.7287681204 1.31542e-05
| 19> O -0.0883916261 2.1711884889 1.6619e-05
| 20> H 2.4379845536 -2.3944315472 1.723e-05
| 21> H 3.6589519853 -0.241125547 0.0001531803
| 22> H 2.4112250745 1.8919381735 0.0002371459
| 23> H -0.041215386 -2.3847511174 1.45309e-05
| 24> H -1.0694301339 2.0863633046 -6.29056e-05
| 25> *
| 26>
| 27>                          ****END OF INPUT****

CARTESIAN COORDINATES (ANGSTROEM)
---------------------------------
  C      1.894783   -1.464578    0.000006
  C      2.580863   -0.247260    0.000017
  C      1.896817    0.944945    0.000019
  C      0.495444    0.979402   -0.000075
  C     -0.192773   -0.257451   -0.000061
  C      0.524769   -1.466237   -0.000031
  N     -1.593184   -0.324240    0.000006
  O     -2.144997   -1.416015    0.000036
  O     -2.242848    0.728768    0.000013
  O     -0.088392    2.171188    0.000017
  H      2.437985   -2.394432    0.000017
  H      3.658952   -0.241126    0.000153
  H      2.411225    1.891938    0.000237
  H     -0.041215   -2.384751    0.000015
  H     -1.069430    2.086363   -0.000063

 Total Charge           Charge          ....    0
 Multiplicity           Mult            ....    1
 Number of Electrons    NEL             ....   72
 Basis Dimension        Dim             ....  235

ORBITAL ENERGIES
----------------

  NO   OCC          E(Eh)            E(eV)
   0   2.0000     -19.000809      -517.0383
   1   2.0000     -18.996275      -516.9149
   2   2.0000     -18.993118      -516.8290
   3   2.0000     -14.406201      -392.0127
   4   2.0000     -10.134548      -275.7751
   5   2.0000     -10.101385      -274.8727
   6   2.0000     -10.059665      -273.7374
   7   2.0000     -10.057434      -273.6767
   8   2.0000     -10.048018      -273.4205
   9   2.0000     -10.044973      -273.3376
  10   2.0000      -1.211664       -32.9710
  11   2.0000      -1.055832       -28.7307
  12   2.0000      -1.028529       -27.9877
  13   2.0000      -0.857732       -23.3401
  14   2.0000      -0.791567       -21.5396
  15   2.0000      -0.733341       -19.9552
  16   2.0000      -0.678167       -18.4539
  17   2.0000      -0.600972       -16.3533
  18   2.0000      -0.595270       -16.1981
  19   2.0000      -0.542434       -14.7604
  20   2.0000      -0.520923       -14.1750
  21   2.0000      -0.513468       -13.9722
  22   2.0000      -0.500924       -13.6308
  23   2.0000      -0.467343       -12.7171
  24   2.0000      -0.442969       -12.0538
  25   2.0000      -0.415663       -11.3108
  26   2.0000      -0.405458       -11.0331
  27   2.0000      -0.376414       -10.2428
  28   2.0000      -0.360073        -9.7981
  29   2.0000      -0.336166        -9.1475
  30   2.0000      -0.331073        -9.0090
  31   2.0000      -0.304518        -8.2864
  32   2.0000      -0.295650        -8.0450
  33   2.0000      -0.273528        -7.4431
  34   2.0000      -0.265416        -7.2223
  35   2.0000      -0.230111        -6.2616
  36   0.0000      -0.130165        -3.5420
  37   0.0000      -0.040578        -1.1042
  38   0.0000      -0.024598        -0.6693
  39   0.0000       0.067071         1.8251
  40   0.0000       0.090130         2.4526

MULLIKEN ATOMIC CHARGES
-----------------------
   0 C :   -0.193927
   1 C :   -0.098791
   2 C :   -0.298300
   3 C :    0.213129
   4 C :    0.038876
   5 C :   -0.207715
   6 N :    0.368005
   7 O :   -0.299753
   8 O :   -0.320790
   9 O :   -0.391996
  10 H :    0.191680
  11 H :    0.194741
  12 H :    0.198871
  13 H :    0.208201
  14 H :    0.397770
Sum of atomic charges:   -0.0000000

LOEWDIN ATOMIC CHARGES
----------------------
   0 C :   -0.171678
   1 C :   -0.105677
   2 C :   -0.132340
   3 C :    0.256657
   4 C :    0.199290
   5 C :   -0.064483
   6 N :   -0.488310
   7 O :   -0.062529
   8 O :   -0.091496
   9 O :   -0.443861
  10 H :    0.186175
  11 H :    0.187794
  12 H :    0.197734
  13 H :    0.208340
  14 H :    0.324384

  Mayer bond orders larger than 0.100000
B(  0-C ,  1-C ) :   1.2899 B(  0-C ,  5-C ) :   1.4047 B(  0-C , 10-H ) :   0.9556
B(  1-C ,  2-C ) :   1.4233 B(  1-C , 11-H ) :   0.9446 B(  2-C ,  3-C ) :   1.2576
B(  2-C , 12-H ) :   0.9576 B(  3-C ,  4-C ) :   1.3285 B(  3-C ,  9-O ) :   1.0947
B(  4-C ,  5-C ) :   1.1738 B(  4-C ,  6-N ) :   1.0660 B(  5-C , 13-H ) :   0.9560
B(  6-N ,  7-O ) :   1.8154 B(  6-N ,  8-O ) :   1.6443 B(  7-O ,  8-O ) :   0.1952
B(  9-O , 14-H ) :   0.7696

Dispersion correction           -0.005273368
FINAL SINGLE POINT ENERGY      -511.905445497818

DIPOLE MOMENT
-------------

Method             : SCF
Type of density    : Electron Density
Multiplicity       :   1
Irrep              :   0
Energy             :  -511.9120712277189682 Eh
Relativity type    :
Basis              : AO
                                X                 Y                 Z
Electronic contribution:     -4.759176823       0.913065219      -0.000310254
Nuclear contribution   :      6.865076235      -0.957385705       0.000337983
                        -----------------------------------------
Total Dipole Moment    :      2.105899413      -0.044320486       0.000027729
                        -----------------------------------------
Magnitude (a.u.)       :      2.106365743
Magnitude (Debye)      :      5.353956232

Rotational constants in cm-1:             0.079368             0.043301             0.028016
Rotational constants in MHz :          2379.403663          1298.127904           839.903135

                             ****ORCA TERMINATED NORMALLY****
TOTAL RUN TIME: 0 days 0 hours 0 minutes 37 seconds 236 msec
