                         Program Version 6.0.0  -   RELEASE  -
|  1> ! r2scan-3c def2/J RI DEFGRID2 scfconv6 printgap
|  2> %output
|  3>     printlevel normal
|  4> end
|  5> * xyz 0 1
|  6> C -2.9129224418 -0.0009313558 -0.0159564907
|  7> C -1.4129909679 0.0015127117 0.0070580634
|  8> C -0.6963826263 1.1917480284 0.0077155055
|  9> C 0.684083947 1.1974483683 0.0105030229
| 10> C 1.4013001836 -0.0002397927 0.0096645609
| 11> C 0.6826582584 -1.1973306065 0.0104674095
| 12> C -0.6974489387 -1.1899348267 0.0076675584
| 13> N 2.7787015938 -0.001257506 -0.0624365716
| 14> H -3.3073053463 0.9198584089 0.407094565
| 15> H -3.2727516455 -0.0838083601 -1.0420680641
| 16> H -3.3060606699 -0.8449193983 0.5465395868
| 17> H -1.2288135325 2.1327622359 0.0104406644
| 18> H 1.2203419167 2.1358459264 0.0128830882
| 19> H 1.2178183883 -2.1363698397 0.0131264446
| 20> H -1.231601798 -2.1299772449 0.010770617
| 21> H 3.2331984177 -0.8492808451 0.2337764565
| 22> H 3.2348132638 0.8462831951 0.2327630151
| 23> *
| 24>
| 25>                          ****END OF INPUT****

CARTESIAN COORDINATES (ANGSTROEM)
---------------------------------
  C     -2.912922   -0.000931   -0.015956
  C     -1.412991    0.001513    0.007058
  C     -0.696383    1.191748    0.007716
  C      0.684084    1.197448    0.010503
  C      1.401300   -0.000240    0.009665
  C      0.682658   -1.197331    0.010467
  C     -0.697449   -1.189935    0.007668
  N      2.778702   -0.001258   -0.062437
  H     -3.307305    0.919858    0.407095
  H     -3.272752   -0.083808   -1.042068
  H     -3.306061   -0.844919    0.546540
  H     -1.228814    2.132762    0.010441
  H      1.220342    2.135846    0.012883
  H      1.217818   -2.136370    0.013126
  H     -1.231602   -2.129977    0.010771
  H      3.233198   -0.849281    0.233776
  H      3.234813    0.846283    0.232763

 Total Charge           Charge          ....    0
 Multiplicity           Mult            ....    1
 Number of Electrons    NEL             ....   58
 Basis Dimension        Dim             ....  202

ORBITAL ENERGIES
----------------

  NO   OCC          E(Eh)            E(eV)
   0   2.0000     -14.164444      -385.4341
   1   2.0000     -10.066895      -273.9341
   2   2.0000     -10.024411      -272.7781
   3   2.0000     -10.023003      -272.7398
   4   2.0000     -10.022917      -272.7375
   5   2.0000     -10.021361      -272.6951
   6   2.0000     -10.021079      -272.6874
   7   2.0000     -10.018184      -272.6086
   8   2.0000      -0.887697       -24.1555
   9   2.0000      -0.806340       -21.9416
  10   2.0000      -0.719739       -19.5851
  11   2.0000      -0.707858       -19.2618
  12   2.0000      -0.637465       -17.3463
  13   2.0000      -0.579186       -15.7604
  14   2.0000      -0.547243       -14.8912
  15   2.0000      -0.486855       -13.2480
  16   2.0000      -0.482190       -13.1210
  17   2.0000      -0.425767       -11.5857
  18   2.0000      -0.406281       -11.0555
  19   2.0000      -0.390890       -10.6367
  20   2.0000      -0.383029       -10.4227
  21   2.0000      -0.381378       -10.3778
  22   2.0000      -0.347622        -9.4593
  23   2.0000      -0.344227        -9.3669
  24   2.0000      -0.314780        -8.5656
  25   2.0000      -0.298822        -8.1313
  26   2.0000      -0.274113        -7.4590
  27   2.0000      -0.228060        -6.2058
  28   2.0000      -0.175404        -4.7730
  29   0.0000      -0.024270        -0.6604
  30   0.0000      -0.002560        -0.0697
  31   0.0000       0.075080         2.0430
  32   0.0000       0.085557         2.3281
  33   0.0000       0.113305         3.0832

MULLIKEN ATOMIC CHARGES
-----------------------
   0 C :   -0.525885
   1 C :    0.157210
   2 C :   -0.189808
   3 C :   -0.387860
   4 C :    0.530830
   5 C :   -0.388196
   6 C :   -0.185310
   7 N :   -0.537880
   8 H :    0.146889
   9 H :    0.163443
  10 H :    0.147509
  11 H :    0.144974
  12 H :    0.135705
  13 H :    0.135773
  14 H :    0.145057
  15 H :    0.253791
  16 H :    0.253757
Sum of atomic charges:   -0.0000000

LOEWDIN ATOMIC CHARGES
----------------------
   0 C :   -0.392245
   1 C :   -0.130912
   2 C :   -0.155129
   3 C :   -0.162795
   4 C :    0.119682
   5 C :   -0.161994
   6 C :   -0.154141
   7 N :   -0.610544
   8 H :    0.158005
   9 H :    0.161348
  10 H :    0.158680
  11 H :    0.167408
  12 H :    0.167017
  13 H :    0.167015
  14 H :    0.167728
  15 H :    0.250422
  16 H :    0.250456

  Mayer bond orders larger than 0.100000
B(  0-C ,  1-C ) :   0.7903 B(  0-C ,  8-H ) :   0.9948 B(  0-C ,  9-H ) :   0.9699
B(  0-C , 10-H ) :   0.9915 B(  1-C ,  2-C ) :   1.4198 B(  1-C ,  6-C ) :   1.4116
B(  2-C ,  3-C ) :   1.4548 B(  2-C , 11-H ) :   0.9346 B(  3-C ,  4-C ) :   1.3394
B(  3-C , 12-H ) :   0.9483 B(  4-C ,  5-C ) :   1.3357 B(  4-C ,  7-N ) :   0.9407
B(  5-C ,  6-C ) :   1.4584 B(  5-C , 13-H ) :   0.9480 B(  6-C , 14-H ) :   0.9371
B(  7-N , 15-H ) :   0.9270 B(  7-N , 16-H ) :   0.9271

Dispersion correction           -0.005301070
FINAL SINGLE POINT ENERGY      -326.829040695558

DIPOLE MOMENT
-------------

Method             : SCF
Type of density    : Electron Density
Multiplicity       :   1
Irrep              :   0
Energy             :  -326.8309626181462590 Eh
Relativity type    :
Basis              : AO
                                X                 Y                 Z
Electronic contribution:      3.684392101       0.003006124      -0.098906865
Nuclear contribution   :     -3.212402815      -0.009018868       0.398685480
                        -----------------------------------------
Total Dipole Moment    :      0.471989286      -0.006012745       0.299778615
                        -----------------------------------------
Magnitude (a.u.)       :      0.559175516
Magnitude (Debye)      :      1.421311208

Rotational constants in cm-1:             0.183977             0.049259             0.039169
Rotational constants in MHz :          5515.485272          1476.746326          1174.259933

                             ****ORCA TERMINATED NORMALLY****
TOTAL RUN TIME: 0 days 0 hours 0 minutes 22 seconds 347 msec
