                         Program Version 6.0.0  -   RELEASE  -
|  1> ! r2scan-3c def2/J RI DEFGRID2 scfconv6 printgap
|  2> %output
|  3>     printlevel normal
|  4> end
|  5> %cpcm
|  6>     smd true
|  7>     smdsolvent "water"
|  8> end
|  9> * xyz 0 1
| 10> C -2.9129224418 -0.0009313558 -0.0159564907
| 11> C -1.4129909679 0.0015127117 0.0070580634
| 12> C -0.6963826263 1.1917480284 0.0077155055
| 13> C 0.684083947 1.1974483683 0.0105030229
| 14> C 1.4013001836 -0.0002397927 0.0096645609
| 15> C 0.6826582584 -1.1973306065 0.0104674095
| 16> C -0.6974489387 -1.1899348267 0.0076675584
| 17> N 2.7787015938 -0.001257506 -0.0624365716
| 18> H -3.3073053463 0.9198584089 0.407094565
| 19> H -3.2727516455 -0.0838083601 -1.0420680641
| 20> H -3.3060606699 -0.8449193983 0.5465395868
| 21> H -1.2288135325 2.1327622359 0.0104406644
| 22> H 1.2203419167 2.1358459264 0.0128830882
| 23> H 1.2178183883 -2.1363698397 0.0131264446
| 24> H -1.231601798 -2.1299772449 0.010770617
| 25> H 3.2331984177 -0.8492808451 0.2337764565
| 26> H 3.2348132638 0.8462831951 0.2327630151
| 27> *
| 28>
| 29>                          ****END OF INPUT****

CARTESIAN COORDINATES (ANGSTROEM)
---------------------------------
  C     -2.912922   -0.000931   -0.015956
  C     -1.412991    0.001513    0.007058
  C     -0.696383    1.191748    0.007716
  C      0.684084    1.197448    0.010503
  C      1.401300   -0.000240    0.009665
  C      0.682658   -1.197331    0.010467
  C     -0.697449   -1.189935    0.007668
  N      2.778702   -0.001258   -0.062437
  H     -3.307305    0.919858    0.407095
  H     -3.272752   -0.083808   -1.042068
  H     -3.306061   -0.844919    0.546540
  H     -1.228814    2.132762    0.010441
  H      1.220342    2.135846    0.012883
  H      1.217818   -2.136370    0.013126
  H     -1.231602   -2.129977    0.010771
  H      3.233198   -0.849281    0.233776
  H      3.234813    0.846283    0.232763

 Total Charge           Charge          ....    0
 Multiplicity           Mult            ....    1
 Number of Electrons    NEL             ....   58
 Basis Dimension        Dim             ....  202

ORBITAL ENERGIES
----------------

  NO   OCC          E(Eh)            E(eV)
   0   2.0000     -14.153598      -385.1390
   1   2.0000     -10.067555      -273.9521
   2   2.0000     -10.026831      -272.8439
   3   2.0000     -10.024415      -272.7782
   4   2.0000     -10.024344      -272.7763
   5   2.0000     -10.021565      -272.7006
   6   2.0000     -10.021276      -272.6928
   7   2.0000     -10.014282      -272.5025
   8   2.0000      -0.881368       -23.9832
   9   2.0000      -0.808008       -21.9870
  10   2.0000      -0.718940       -19.5633
  11   2.0000      -0.709824       -19.3153
  12   2.0000      -0.635582       -17.2951
  13   2.0000      -0.577984       -15.7277
  14   2.0000      -0.545795       -14.8518
  15   2.0000      -0.482929       -13.1412
  16   2.0000      -0.473161       -12.8754
  17   2.0000      -0.422326       -11.4921
  18   2.0000      -0.401979       -10.9384
  19   2.0000      -0.389953       -10.6112
  20   2.0000      -0.382700       -10.4138
  21   2.0000      -0.380079       -10.3425
  22   2.0000      -0.349595        -9.5130
  23   2.0000      -0.340618        -9.2687
  24   2.0000      -0.313997        -8.5443
  25   2.0000      -0.296909        -8.0793
  26   2.0000      -0.275565        -7.4985
  27   2.0000      -0.234419        -6.3789
  28   2.0000      -0.177037        -4.8174
  29   0.0000      -0.029044        -0.7903
  30   0.0000      -0.006230        -0.1695
  31   0.0000       0.089019         2.4223
  32   0.0000       0.091814         2.4984
  33   0.0000       0.116917         3.1815

MULLIKEN ATOMIC CHARGES
-----------------------
   0 C :   -0.542903
   1 C :    0.111055
   2 C :   -0.213994
   3 C :   -0.410346
   4 C :    0.453062
   5 C :   -0.412033
   6 C :   -0.207713
   7 N :   -0.597225
   8 H :    0.165021
   9 H :    0.175497
  10 H :    0.164610
  11 H :    0.175464
  12 H :    0.173849
  13 H :    0.173915
  14 H :    0.175243
  15 H :    0.308274
  16 H :    0.308224
Sum of atomic charges:   -0.0000000

LOEWDIN ATOMIC CHARGES
----------------------
   0 C :   -0.398744
   1 C :   -0.146735
   2 C :   -0.170901
   3 C :   -0.175329
   4 C :    0.106635
   5 C :   -0.174282
   6 C :   -0.169442
   7 N :   -0.608701
   8 H :    0.163635
   9 H :    0.165728
  10 H :    0.164196
  11 H :    0.177570
  12 H :    0.180496
  13 H :    0.180543
  14 H :    0.177814
  15 H :    0.263747
  16 H :    0.263771

  Mayer bond orders larger than 0.100000
B(  0-C ,  1-C ) :   0.8076 B(  0-C ,  8-H ) :   0.9886 B(  0-C ,  9-H ) :   0.9641
B(  0-C , 10-H ) :   0.9850 B(  1-C ,  2-C ) :   1.3747 B(  1-C ,  6-C ) :   1.3661
B(  2-C ,  3-C ) :   1.4099 B(  2-C , 11-H ) :   0.9510 B(  3-C ,  4-C ) :   1.3105
B(  3-C , 12-H ) :   0.9686 B(  4-C ,  5-C ) :   1.3072 B(  4-C ,  7-N ) :   0.9556
B(  5-C ,  6-C ) :   1.4142 B(  5-C , 13-H ) :   0.9687 B(  6-C , 14-H ) :   0.9527
B(  7-N , 15-H ) :   0.9026 B(  7-N , 16-H ) :   0.9026

Dispersion correction           -0.005301070
FINAL SINGLE POINT ENERGY      -326.837119222327

DIPOLE MOMENT
-------------

Method             : SCF
Type of density    : Electron Density
Multiplicity       :   1
Irrep              :   0
Energy             :  -326.8390411449150861 Eh
Relativity type    :
Basis              : AO
                                X                 Y                 Z
Electronic contribution:      3.873362906      -0.000241501       0.010545193
Nuclear contribution   :     -3.212402815      -0.009018868       0.398685480
                        -----------------------------------------
Total Dipole Moment    :      0.660960091      -0.009260369       0.409230673
                        -----------------------------------------
Magnitude (a.u.)       :      0.777446937
Magnitude (Debye)      :      1.976113070

Rotational constants in cm-1:             0.183977             0.049259             0.039169
Rotational constants in MHz :          5515.485272          1476.746326          1174.259933

                             ****ORCA TERMINATED NORMALLY****
TOTAL RUN TIME: 0 days 0 hours 0 minutes 25 seconds 151 msec
