                         Program Version 6.0.0  -   RELEASE  -
|  1> ! pbe def2-sv(p) def2/J RI DEFGRID1 loosescf d4 GCP(DFT/SV(P)) printgap
|  2> %output
|  3>     printlevel normal
|  4> end
|  5> * xyz 0 1
|  6> C -2.4837730101 -0.4837553231 -0.2094081842
|  7> C -1.0479463979 -0.2038527444 0.2425410228
|  8> H -0.9734461106 -0.3793902922 1.3277201426
|  9> C -0.6338245292 1.2547897598 -0.0516994177
| 10> H -1.2322109366 1.6373565022 -0.8859031759
| 11> C 0.8603795249 1.3158483974 -0.4478217978
| 12> H 1.2318215385 2.3152149583 -0.173174879
| 13> C 1.6509953454 0.2854712328 0.3706508479
| 14> H 2.6905491847 0.2939496078 0.0241596618
| 15> C 1.103002044 -1.1376332035 0.0994762125
| 16> H 1.0783474381 -1.6815580869 1.0731148625
| 17> O -0.1993103144 -1.1241862128 -0.4272915461
| 18> O 1.9396440846 -1.7845173844 -0.7898753543
| 19> O 1.5364258997 0.6458932873 1.7246759365
| 20> O 1.0854600957 1.0505388933 -1.8047858101
| 21> O -0.9149434307 2.101278818 1.0304507865
| 22> O -2.9564887209 -1.7297073216 0.2320758138
| 23> H -2.5250896258 -0.4170420816 -1.3034345654
| 24> H -3.1408743498 0.2694929728 0.2285246504
| 25> H 1.4240571195 -2.4233023421 -1.3056050945
| 26> H 2.2504799115 0.2458973246 2.2402844894
| 27> H 0.6869747729 1.7474520556 -2.3456796452
| 28> H -0.3231058535 1.8739917605 1.7658323136
| 29> H -2.3900849308 -2.4215034683 -0.1387680177
| 30> *
| 31>
| 32>                          ****END OF INPUT****

CARTESIAN COORDINATES (ANGSTROEM)
---------------------------------
  C     -2.483773   -0.483755   -0.209408
  C     -1.047946   -0.203853    0.242541
  H     -0.973446   -0.379390    1.327720
  C     -0.633825    1.254790   -0.051699
  H     -1.232211    1.637357   -0.885903
  C      0.860380    1.315848   -0.447822
  H      1.231822    2.315215   -0.173175
  C      1.650995    0.285471    0.370651
  H      2.690549    0.293950    0.024160
  C      1.103002   -1.137633    0.099476
  H      1.078347   -1.681558    1.073115
  O     -0.199310   -1.124186   -0.427292
  O      1.939644   -1.784517   -0.789875
  O      1.536426    0.645893    1.724676
  O      1.085460    1.050539   -1.804786
  O     -0.914943    2.101279    1.030451
  O     -2.956489   -1.729707    0.232076
  H     -2.525090   -0.417042   -1.303435
  H     -3.140874    0.269493    0.228525
  H      1.424057   -2.423302   -1.305605
  H      2.250480    0.245897    2.240284
  H      0.686975    1.747452   -2.345680
  H     -0.323106    1.873992    1.765832
  H     -2.390085   -2.421503   -0.138768

 Total Charge           Charge          ....    0
 Multiplicity           Mult            ....    1
 Number of Electrons    NEL             ....   96
 Basis Dimension        Dim             ....  192

ORBITAL ENERGIES
----------------

  NO   OCC          E(Eh)            E(eV)
   0   2.0000     -18.778203      -510.9809
   1   2.0000     -18.772341      -510.8214
   2   2.0000     -18.756883      -510.4007
   3   2.0000     -18.754512      -510.3362
   4   2.0000     -18.743353      -510.0326
   5   2.0000     -18.740608      -509.9579
   6   2.0000      -9.987425      -271.7716
   7   2.0000      -9.947974      -270.6981
   8   2.0000      -9.943932      -270.5882
   9   2.0000      -9.938673      -270.4450
  10   2.0000      -9.938252      -270.4336
  11   2.0000      -9.929033      -270.1827
  12   2.0000      -0.986337       -26.8396
  13   2.0000      -0.951703       -25.8971
  14   2.0000      -0.934310       -25.4239
  15   2.0000      -0.925304       -25.1788
  16   2.0000      -0.919066       -25.0091
  17   2.0000      -0.908379       -24.7183
  18   2.0000      -0.698345       -19.0029
  19   2.0000      -0.690117       -18.7790
  20   2.0000      -0.616834       -16.7849
  21   2.0000      -0.586979       -15.9725
  22   2.0000      -0.562279       -15.3004
  23   2.0000      -0.527217       -14.3463
  24   2.0000      -0.508003       -13.8235
  25   2.0000      -0.487546       -13.2668
  26   2.0000      -0.473101       -12.8737
  27   2.0000      -0.460827       -12.5398
  28   2.0000      -0.455225       -12.3873
  29   2.0000      -0.440232       -11.9793
  30   2.0000      -0.413388       -11.2489
  31   2.0000      -0.390030       -10.6133
  32   2.0000      -0.379899       -10.3376
  33   2.0000      -0.367057        -9.9881
  34   2.0000      -0.362274        -9.8580
  35   2.0000      -0.353587        -9.6216
  36   2.0000      -0.330419        -8.9912
  37   2.0000      -0.314033        -8.5453
  38   2.0000      -0.307363        -8.3638
  39   2.0000      -0.305784        -8.3208
  40   2.0000      -0.277183        -7.5425
  41   2.0000      -0.271840        -7.3971
  42   2.0000      -0.250990        -6.8298
  43   2.0000      -0.243770        -6.6333
  44   2.0000      -0.235675        -6.4130
  45   2.0000      -0.219464        -5.9719
  46   2.0000      -0.213864        -5.8195
  47   2.0000      -0.192623        -5.2415
  48   0.0000       0.003906         0.1063
  49   0.0000       0.023744         0.6461
  50   0.0000       0.036888         1.0038
  51   0.0000       0.047855         1.3022
  52   0.0000       0.058816         1.6005

MULLIKEN ATOMIC CHARGES
-----------------------
   0 C :    0.063258
   1 C :    0.020736
   2 H :    0.053365
   3 C :    0.055487
   4 H :    0.046828
   5 C :    0.044137
   6 H :    0.069911
   7 C :   -0.017185
   8 H :    0.091022
   9 C :    0.248644
  10 H :    0.030856
  11 O :   -0.327696
  12 O :   -0.387271
  13 O :   -0.425990
  14 O :   -0.403560
  15 O :   -0.427614
  16 O :   -0.433528
  17 H :    0.073551
  18 H :    0.099280
  19 H :    0.304107
  20 H :    0.317480
  21 H :    0.303312
  22 H :    0.306164
  23 H :    0.294707
Sum of atomic charges:   -0.0000000

LOEWDIN ATOMIC CHARGES
----------------------
   0 C :   -0.126169
   1 C :   -0.077782
   2 H :    0.104321
   3 C :   -0.073064
   4 H :    0.108243
   5 C :   -0.073620
   6 H :    0.103993
   7 C :   -0.083672
   8 H :    0.119566
   9 C :    0.007426
  10 H :    0.070826
  11 O :   -0.159406
  12 O :   -0.300127
  13 O :   -0.313070
  14 O :   -0.311610
  15 O :   -0.315638
  16 O :   -0.336109
  17 H :    0.100240
  18 H :    0.123112
  19 H :    0.289193
  20 H :    0.297299
  21 H :    0.288083
  22 H :    0.277759
  23 H :    0.280206

  Mayer bond orders larger than 0.100000
B(  0-C ,  1-C ) :   1.0491 B(  0-C , 16-O ) :   1.0765 B(  0-C , 17-H ) :   0.9068
B(  0-C , 18-H ) :   0.9182 B(  1-C ,  2-H ) :   0.8640 B(  1-C ,  3-C ) :   0.9661
B(  1-C , 11-O ) :   1.0087 B(  3-C ,  4-H ) :   0.8883 B(  3-C ,  5-C ) :   0.9626
B(  3-C , 15-O ) :   1.0446 B(  5-C ,  6-H ) :   0.8947 B(  5-C ,  7-C ) :   1.0345
B(  5-C , 14-O ) :   1.0790 B(  7-C ,  8-H ) :   0.8930 B(  7-C ,  9-C ) :   0.9108
B(  7-C , 13-O ) :   1.0456 B(  9-C , 10-H ) :   0.9088 B(  9-C , 11-O ) :   1.0249
B(  9-C , 12-O ) :   1.1712 B( 12-O , 19-H ) :   0.8377 B( 13-O , 20-H ) :   0.8411
B( 14-O , 21-H ) :   0.8468 B( 15-O , 22-H ) :   0.8272 B( 16-O , 23-H ) :   0.8487

Dispersion correction           -0.024631151
FINAL SINGLE POINT ENERGY      -685.688415873295

DIPOLE MOMENT
-------------

Method             : SCF
Type of density    : Electron Density
Multiplicity       :   1
Irrep              :   0
Energy             :  -685.8180931818027375 Eh
Relativity type    :
Basis              : AO
                                X                 Y                 Z
Electronic contribution:      1.934844473      -1.101394770      -0.528722794
Nuclear contribution   :     -1.139718982       0.982530137       0.475203812
                        -----------------------------------------
Total Dipole Moment    :      0.795125491      -0.118864634      -0.053518981
                        -----------------------------------------
Magnitude (a.u.)       :      0.805740423
Magnitude (Debye)      :      2.048029396

Rotational constants in cm-1:             0.037813             0.027230             0.021649
Rotational constants in MHz :          1133.615342           816.324077           649.029739

                             ****ORCA TERMINATED NORMALLY****
TOTAL RUN TIME: 0 days 0 hours 0 minutes 11 seconds 987 msec
