                         Program Version 6.0.0  -   RELEASE  -
|  1> ! pbe def2-sv(p) def2/J RI DEFGRID1 loosescf d4 GCP(DFT/SV(P)) printgap
|  2> %output
|  3>     printlevel normal
|  4> end
|  5> * xyz 0 1
|  6> C -2.4879756178 -0.8104365882 -0.0615584032
|  7> C -1.1240067124 -0.5411736893 0.5882206137
|  8> H -1.1351413667 -0.897976404 1.6320940425
|  9> C -0.7614026727 0.9636990535 0.5923305784
| 10> H -1.6437282682 1.5379214238 0.2816297871
| 11> C 0.3790005279 1.2476493374 -0.4088442695
| 12> H 0.6946156763 2.292389292 -0.2696179994
| 13> C 1.5976465546 0.3699153917 -0.0710024234
| 14> H 2.2467695637 0.3202609959 -0.9510969237
| 15> C 1.1481808021 -1.076019501 0.2492204644
| 16> H 1.2315249806 -1.2288353955 1.3484866609
| 17> O -0.1828698387 -1.3139473822 -0.1389573926
| 18> O 1.958058827 -1.9589832819 -0.4355282398
| 19> O 2.3622952942 0.9215807176 0.964209157
| 20> O 0.0028689127 1.0071821188 -1.7368201506
| 21> O -0.3024226269 1.3913256022 1.855756207
| 22> O -2.6030512527 -0.2086189406 -1.3232550095
| 23> H -3.2858057076 -0.3914552609 0.554113205
| 24> H -2.619504998 -1.8971009013 -0.1345633718
| 25> H 1.5629169912 -2.8455267938 -0.4139248144
| 26> H 1.7687141108 1.1554428214 1.6986760196
| 27> H -0.6591187064 1.6602000853 -2.0095732132
| 28> H -1.045838944 1.5080711367 2.4637860781
| 29> H -1.8389955258 -0.4811916176 -1.8556624709
| 30> *
| 31>
| 32>                          ****END OF INPUT****

CARTESIAN COORDINATES (ANGSTROEM)
---------------------------------
  C     -2.487976   -0.810437   -0.061558
  C     -1.124007   -0.541174    0.588221
  H     -1.135141   -0.897976    1.632094
  C     -0.761403    0.963699    0.592331
  H     -1.643728    1.537921    0.281630
  C      0.379001    1.247649   -0.408844
  H      0.694616    2.292389   -0.269618
  C      1.597647    0.369915   -0.071002
  H      2.246770    0.320261   -0.951097
  C      1.148181   -1.076020    0.249220
  H      1.231525   -1.228835    1.348487
  O     -0.182870   -1.313947   -0.138957
  O      1.958059   -1.958983   -0.435528
  O      2.362295    0.921581    0.964209
  O      0.002869    1.007182   -1.736820
  O     -0.302423    1.391326    1.855756
  O     -2.603051   -0.208619   -1.323255
  H     -3.285806   -0.391455    0.554113
  H     -2.619505   -1.897101   -0.134563
  H      1.562917   -2.845527   -0.413925
  H      1.768714    1.155443    1.698676
  H     -0.659119    1.660200   -2.009573
  H     -1.045839    1.508071    2.463786
  H     -1.838996   -0.481192   -1.855662

 Total Charge           Charge          ....    0
 Multiplicity           Mult            ....    1
 Number of Electrons    NEL             ....   96
 Basis Dimension        Dim             ....  192

ORBITAL ENERGIES
----------------

  NO   OCC          E(Eh)            E(eV)
   0   2.0000     -18.780288      -511.0376
   1   2.0000     -18.769582      -510.7463
   2   2.0000     -18.763279      -510.5748
   3   2.0000     -18.752745      -510.2881
   4   2.0000     -18.749820      -510.2085
   5   2.0000     -18.735093      -509.8078
   6   2.0000      -9.978999      -271.5424
   7   2.0000      -9.954235      -270.8685
   8   2.0000      -9.949735      -270.7461
   9   2.0000      -9.946569      -270.6599
  10   2.0000      -9.939333      -270.4630
  11   2.0000      -9.929972      -270.2083
  12   2.0000      -0.983596       -26.7650
  13   2.0000      -0.955606       -26.0034
  14   2.0000      -0.938957       -25.5503
  15   2.0000      -0.929398       -25.2902
  16   2.0000      -0.913979       -24.8706
  17   2.0000      -0.908321       -24.7167
  18   2.0000      -0.703447       -19.1418
  19   2.0000      -0.685948       -18.6656
  20   2.0000      -0.622844       -16.9484
  21   2.0000      -0.587829       -15.9956
  22   2.0000      -0.567058       -15.4304
  23   2.0000      -0.515610       -14.0305
  24   2.0000      -0.505513       -13.7557
  25   2.0000      -0.494882       -13.4664
  26   2.0000      -0.477122       -12.9832
  27   2.0000      -0.469692       -12.7810
  28   2.0000      -0.451970       -12.2987
  29   2.0000      -0.444440       -12.0938
  30   2.0000      -0.404455       -11.0058
  31   2.0000      -0.401478       -10.9248
  32   2.0000      -0.387873       -10.5545
  33   2.0000      -0.372587       -10.1386
  34   2.0000      -0.360883        -9.8201
  35   2.0000      -0.355873        -9.6838
  36   2.0000      -0.328994        -8.9524
  37   2.0000      -0.321906        -8.7595
  38   2.0000      -0.303650        -8.2627
  39   2.0000      -0.301482        -8.2037
  40   2.0000      -0.283780        -7.7221
  41   2.0000      -0.261292        -7.1101
  42   2.0000      -0.254986        -6.9385
  43   2.0000      -0.251040        -6.8311
  44   2.0000      -0.234111        -6.3705
  45   2.0000      -0.220829        -6.0091
  46   2.0000      -0.213950        -5.8219
  47   2.0000      -0.199227        -5.4212
  48   0.0000      -0.001514        -0.0412
  49   0.0000       0.016837         0.4582
  50   0.0000       0.038151         1.0381
  51   0.0000       0.052544         1.4298
  52   0.0000       0.063836         1.7371

MULLIKEN ATOMIC CHARGES
-----------------------
   0 C :    0.078312
   1 C :    0.029063
   2 H :    0.046556
   3 C :   -0.018642
   4 H :    0.074245
   5 C :    0.029376
   6 H :    0.078770
   7 C :    0.069671
   8 H :    0.086033
   9 C :    0.210550
  10 H :    0.026081
  11 O :   -0.312457
  12 O :   -0.379748
  13 O :   -0.427865
  14 O :   -0.402826
  15 O :   -0.426539
  16 O :   -0.448996
  17 H :    0.079818
  18 H :    0.084272
  19 H :    0.300371
  20 H :    0.302151
  21 H :    0.303593
  22 H :    0.313628
  23 H :    0.304583
Sum of atomic charges:   -0.0000000

LOEWDIN ATOMIC CHARGES
----------------------
   0 C :   -0.122016
   1 C :   -0.079486
   2 H :    0.100194
   3 C :   -0.083761
   4 H :    0.107259
   5 C :   -0.073948
   6 H :    0.108443
   7 C :   -0.072382
   8 H :    0.128703
   9 C :    0.003995
  10 H :    0.074181
  11 O :   -0.159122
  12 O :   -0.292145
  13 O :   -0.313201
  14 O :   -0.303308
  15 O :   -0.314691
  16 O :   -0.339005
  17 H :    0.110876
  18 H :    0.104344
  19 H :    0.285569
  20 H :    0.272004
  21 H :    0.285915
  22 H :    0.293801
  23 H :    0.277782

  Mayer bond orders larger than 0.100000
B(  0-C ,  1-C ) :   1.0402 B(  0-C , 16-O ) :   1.0799 B(  0-C , 17-H ) :   0.9224
B(  0-C , 18-H ) :   0.9134 B(  1-C ,  2-H ) :   0.8797 B(  1-C ,  3-C ) :   0.9478
B(  1-C , 11-O ) :   1.0119 B(  3-C ,  4-H ) :   0.8988 B(  3-C ,  5-C ) :   0.9979
B(  3-C , 15-O ) :   1.0279 B(  5-C ,  6-H ) :   0.9002 B(  5-C ,  7-C ) :   0.9991
B(  5-C , 14-O ) :   1.0633 B(  7-C ,  8-H ) :   0.8777 B(  7-C ,  9-C ) :   0.9615
B(  7-C , 13-O ) :   1.0641 B(  9-C , 10-H ) :   0.8820 B(  9-C , 11-O ) :   1.0244
B(  9-C , 12-O ) :   1.1695 B( 12-O , 19-H ) :   0.8405 B( 13-O , 20-H ) :   0.8210
B( 14-O , 21-H ) :   0.8342 B( 15-O , 22-H ) :   0.8412 B( 16-O , 23-H ) :   0.8175

Dispersion correction           -0.025373299
FINAL SINGLE POINT ENERGY      -685.691311679984

DIPOLE MOMENT
-------------

Method             : SCF
Type of density    : Electron Density
Multiplicity       :   1
Irrep              :   0
Energy             :  -685.8228229400782539 Eh
Relativity type    :
Basis              : AO
                                X                 Y                 Z
Electronic contribution:      3.043241156      -0.538926780      -1.359205543
Nuclear contribution   :     -4.413238937       0.684535616       2.187328485
                        -----------------------------------------
Total Dipole Moment    :     -1.369997781       0.145608835       0.828122941
                        -----------------------------------------
Magnitude (a.u.)       :      1.607446254
Magnitude (Debye)      :      4.085803673

Rotational constants in cm-1:             0.041447             0.027709             0.023599
Rotational constants in MHz :          1242.553527           830.698329           707.480565

                             ****ORCA TERMINATED NORMALLY****
TOTAL RUN TIME: 0 days 0 hours 0 minutes 12 seconds 55 msec
