                         Program Version 6.0.0  -   RELEASE  -
|  1> ! r2scan-3c def2/J RI DEFGRID2 scfconv6 printgap
|  2> %output
|  3>     printlevel normal
|  4> end
|  5> * xyz 0 1
|  6> C 2.7596249834 0.0022339417 0.7332962828
|  7> C 1.9900429146 -0.0027779019 -0.5903437888
|  8> C 0.5141173304 -0.00135612 -0.3294995712
|  9> C -0.1934199393 1.187045807 -0.1811000263
| 10> C -1.5477293414 1.1326585406 0.1008990221
| 11> N -2.2229865836 0.0014295022 0.2421264199
| 12> C -1.5496439894 -1.1312135168 0.1027249412
| 13> C -0.1954580977 -1.1883241551 -0.1791313014
| 14> H 2.5087712159 0.8867009945 1.3142817777
| 15> H 3.8297805918 0.0007242618 0.5452556415
| 16> H 2.5074722838 -0.8769211686 1.3218258715
| 17> H 2.2620022135 -0.8912801633 -1.1621916512
| 18> H 2.2623885089 0.881121074 -1.1691099074
| 19> H 0.3028783442 2.1393813866 -0.28687712
| 20> H -2.1296105604 2.0370171221 0.2205691548
| 21> H -2.1330616034 -2.034360131 0.2239961147
| 22> H 0.299416688 -2.1415923112 -0.2832376558
| 23> *
| 24>
| 25>                          ****END OF INPUT****

CARTESIAN COORDINATES (ANGSTROEM)
---------------------------------
  C      2.759625    0.002234    0.733296
  C      1.990043   -0.002778   -0.590344
  C      0.514117   -0.001356   -0.329500
  C     -0.193420    1.187046   -0.181100
  C     -1.547729    1.132659    0.100899
  N     -2.222987    0.001430    0.242126
  C     -1.549644   -1.131214    0.102725
  C     -0.195458   -1.188324   -0.179131
  H      2.508771    0.886701    1.314282
  H      3.829781    0.000724    0.545256
  H      2.507472   -0.876921    1.321826
  H      2.262002   -0.891280   -1.162192
  H      2.262389    0.881121   -1.169110
  H      0.302878    2.139381   -0.286877
  H     -2.129611    2.037017    0.220569
  H     -2.133062   -2.034360    0.223996
  H      0.299417   -2.141592   -0.283238

 Total Charge           Charge          ....    0
 Multiplicity           Mult            ....    1
 Number of Electrons    NEL             ....   58
 Basis Dimension        Dim             ....  202

ORBITAL ENERGIES
----------------

  NO   OCC          E(Eh)            E(eV)
   0   2.0000     -14.148769      -385.0076
   1   2.0000     -10.064065      -273.8571
   2   2.0000     -10.064058      -273.8569
   3   2.0000     -10.060354      -273.7561
   4   2.0000     -10.045507      -273.3522
   5   2.0000     -10.040469      -273.2150
   6   2.0000     -10.040458      -273.2148
   7   2.0000     -10.031350      -272.9669
   8   2.0000      -0.911460       -24.8021
   9   2.0000      -0.800041       -21.7702
  10   2.0000      -0.730366       -19.8743
  11   2.0000      -0.724048       -19.7024
  12   2.0000      -0.620684       -16.8897
  13   2.0000      -0.602687       -16.4000
  14   2.0000      -0.561842       -15.2885
  15   2.0000      -0.479247       -13.0410
  16   2.0000      -0.466517       -12.6946
  17   2.0000      -0.438828       -11.9411
  18   2.0000      -0.409449       -11.1417
  19   2.0000      -0.407053       -11.0765
  20   2.0000      -0.394599       -10.7376
  21   2.0000      -0.377112       -10.2617
  22   2.0000      -0.353002        -9.6057
  23   2.0000      -0.339160        -9.2290
  24   2.0000      -0.328607        -8.9418
  25   2.0000      -0.316069        -8.6007
  26   2.0000      -0.257349        -7.0028
  27   2.0000      -0.246682        -6.7126
  28   2.0000      -0.220800        -6.0083
  29   0.0000      -0.049505        -1.3471
  30   0.0000      -0.039347        -1.0707
  31   0.0000       0.071624         1.9490
  32   0.0000       0.095692         2.6039
  33   0.0000       0.101378         2.7586

MULLIKEN ATOMIC CHARGES
-----------------------
   0 C :   -0.458336
   1 C :   -0.319624
   2 C :    0.194605
   3 C :   -0.162814
   4 C :   -0.116005
   5 N :   -0.176399
   6 C :   -0.115945
   7 C :   -0.162917
   8 H :    0.151638
   9 H :    0.151340
  10 H :    0.151621
  11 H :    0.149336
  12 H :    0.149438
  13 H :    0.150513
  14 H :    0.131517
  15 H :    0.131522
  16 H :    0.150510
Sum of atomic charges:    0.0000000

LOEWDIN ATOMIC CHARGES
----------------------
   0 C :   -0.400955
   1 C :   -0.286845
   2 C :   -0.058955
   3 C :   -0.147742
   4 C :    0.081749
   5 N :   -0.620374
   6 C :    0.081747
   7 C :   -0.147757
   8 H :    0.155091
   9 H :    0.151259
  10 H :    0.155122
  11 H :    0.163543
  12 H :    0.163603
  13 H :    0.171422
  14 H :    0.183838
  15 H :    0.183840
  16 H :    0.171414

  Mayer bond orders larger than 0.100000
B(  0-C ,  1-C ) :   0.9259 B(  0-C ,  8-H ) :   0.9771 B(  0-C ,  9-H ) :   0.9712
B(  0-C , 10-H ) :   0.9771 B(  1-C ,  2-C ) :   0.8075 B(  1-C , 11-H ) :   0.9873
B(  1-C , 12-H ) :   0.9873 B(  2-C ,  3-C ) :   1.3584 B(  2-C ,  5-N ) :   0.1013
B(  2-C ,  7-C ) :   1.3586 B(  3-C ,  4-C ) :   1.3774 B(  3-C , 13-H ) :   0.9368
B(  4-C ,  5-N ) :   1.4726 B(  4-C , 14-H ) :   0.9897 B(  5-N ,  6-C ) :   1.4726
B(  6-C ,  7-C ) :   1.3774 B(  6-C , 15-H ) :   0.9897 B(  7-C , 16-H ) :   0.9368

Dispersion correction           -0.005281833
FINAL SINGLE POINT ENERGY      -326.817184837788

DIPOLE MOMENT
-------------

Method             : SCF
Type of density    : Electron Density
Multiplicity       :   1
Irrep              :   0
Energy             :  -326.8196289745111471 Eh
Relativity type    :
Basis              : AO
                                X                 Y                 Z
Electronic contribution:     -8.023555859      -0.001541819      -0.838859970
Nuclear contribution   :      9.097463160       0.000749990       0.681042150
                        -----------------------------------------
Total Dipole Moment    :      1.073907301      -0.000791829      -0.157817820
                        -----------------------------------------
Magnitude (a.u.)       :      1.085441838
Magnitude (Debye)      :      2.758973892

Rotational constants in cm-1:             0.159020             0.049922             0.041884
Rotational constants in MHz :          4767.314586          1496.622787          1255.652274

                             ****ORCA TERMINATED NORMALLY****
TOTAL RUN TIME: 0 days 0 hours 0 minutes 20 seconds 603 msec
