                         Program Version 6.0.0  -   RELEASE  -
|  1> ! r2scan-3c def2/J RI DEFGRID2 scfconv6 printgap
|  2> %output
|  3>     printlevel normal
|  4> end
|  5> %cpcm
|  6>     smd true
|  7>     smdsolvent "water"
|  8> end
|  9> * xyz 0 1
| 10> C 2.7596249834 0.0022339417 0.7332962828
| 11> C 1.9900429146 -0.0027779019 -0.5903437888
| 12> C 0.5141173304 -0.00135612 -0.3294995712
| 13> C -0.1934199393 1.187045807 -0.1811000263
| 14> C -1.5477293414 1.1326585406 0.1008990221
| 15> N -2.2229865836 0.0014295022 0.2421264199
| 16> C -1.5496439894 -1.1312135168 0.1027249412
| 17> C -0.1954580977 -1.1883241551 -0.1791313014
| 18> H 2.5087712159 0.8867009945 1.3142817777
| 19> H 3.8297805918 0.0007242618 0.5452556415
| 20> H 2.5074722838 -0.8769211686 1.3218258715
| 21> H 2.2620022135 -0.8912801633 -1.1621916512
| 22> H 2.2623885089 0.881121074 -1.1691099074
| 23> H 0.3028783442 2.1393813866 -0.28687712
| 24> H -2.1296105604 2.0370171221 0.2205691548
| 25> H -2.1330616034 -2.034360131 0.2239961147
| 26> H 0.299416688 -2.1415923112 -0.2832376558
| 27> *
| 28>
| 29>                          ****END OF INPUT****

CARTESIAN COORDINATES (ANGSTROEM)
---------------------------------
  C      2.759625    0.002234    0.733296
  C      1.990043   -0.002778   -0.590344
  C      0.514117   -0.001356   -0.329500
  C     -0.193420    1.187046   -0.181100
  C     -1.547729    1.132659    0.100899
  N     -2.222987    0.001430    0.242126
  C     -1.549644   -1.131214    0.102725
  C     -0.195458   -1.188324   -0.179131
  H      2.508771    0.886701    1.314282
  H      3.829781    0.000724    0.545256
  H      2.507472   -0.876921    1.321826
  H      2.262002   -0.891280   -1.162192
  H      2.262389    0.881121   -1.169110
  H      0.302878    2.139381   -0.286877
  H     -2.129611    2.037017    0.220569
  H     -2.133062   -2.034360    0.223996
  H      0.299417   -2.141592   -0.283238

 Total Charge           Charge          ....    0
 Multiplicity           Mult            ....    1
 Number of Electrons    NEL             ....   58
 Basis Dimension        Dim             ....  202

ORBITAL ENERGIES
----------------

  NO   OCC          E(Eh)            E(eV)
   0   2.0000     -14.154605      -385.1664
   1   2.0000     -10.062627      -273.8180
   2   2.0000     -10.062619      -273.8178
   3   2.0000     -10.055126      -273.6139
   4   2.0000     -10.035307      -273.0746
   5   2.0000     -10.035297      -273.0743
   6   2.0000     -10.030142      -272.9340
   7   2.0000     -10.016532      -272.5637
   8   2.0000      -0.914740       -24.8913
   9   2.0000      -0.793406       -21.5897
  10   2.0000      -0.728245       -19.8165
  11   2.0000      -0.713687       -19.4204
  12   2.0000      -0.610732       -16.6189
  13   2.0000      -0.600289       -16.3347
  14   2.0000      -0.553705       -15.0671
  15   2.0000      -0.473072       -12.8729
  16   2.0000      -0.461512       -12.5584
  17   2.0000      -0.430596       -11.7171
  18   2.0000      -0.398643       -10.8476
  19   2.0000      -0.398108       -10.8331
  20   2.0000      -0.387093       -10.5333
  21   2.0000      -0.375541       -10.2190
  22   2.0000      -0.344560        -9.3760
  23   2.0000      -0.329714        -8.9720
  24   2.0000      -0.317189        -8.6312
  25   2.0000      -0.303238        -8.2515
  26   2.0000      -0.256238        -6.9726
  27   2.0000      -0.246215        -6.6999
  28   2.0000      -0.229168        -6.2360
  29   0.0000      -0.049460        -1.3459
  30   0.0000      -0.038460        -1.0466
  31   0.0000       0.082080         2.2335
  32   0.0000       0.102703         2.7947
  33   0.0000       0.106576         2.9001

MULLIKEN ATOMIC CHARGES
-----------------------
   0 C :   -0.507561
   1 C :   -0.291586
   2 C :    0.163372
   3 C :   -0.182627
   4 C :   -0.136125
   5 N :   -0.236992
   6 C :   -0.136027
   7 C :   -0.182776
   8 H :    0.162677
   9 H :    0.165259
  10 H :    0.162596
  11 H :    0.165319
  12 H :    0.165379
  13 H :    0.185960
  14 H :    0.158585
  15 H :    0.158587
  16 H :    0.185959
Sum of atomic charges:   -0.0000000

LOEWDIN ATOMIC CHARGES
----------------------
   0 C :   -0.406003
   1 C :   -0.284632
   2 C :   -0.055491
   3 C :   -0.144332
   4 C :    0.071205
   5 N :   -0.674171
   6 C :    0.071204
   7 C :   -0.144366
   8 H :    0.156969
   9 H :    0.156359
  10 H :    0.156973
  11 H :    0.170176
  12 H :    0.170236
  13 H :    0.185213
  14 H :    0.192728
  15 H :    0.192729
  16 H :    0.185202

  Mayer bond orders larger than 0.100000
B(  0-C ,  1-C ) :   0.9057 B(  0-C ,  8-H ) :   0.9766 B(  0-C ,  9-H ) :   0.9669
B(  0-C , 10-H ) :   0.9766 B(  1-C ,  2-C ) :   0.8205 B(  1-C , 11-H ) :   0.9798
B(  1-C , 12-H ) :   0.9798 B(  2-C ,  3-C ) :   1.3465 B(  2-C ,  7-C ) :   1.3467
B(  3-C ,  4-C ) :   1.3869 B(  3-C , 13-H ) :   0.9380 B(  4-C ,  5-N ) :   1.4636
B(  4-C , 14-H ) :   0.9771 B(  5-N ,  6-C ) :   1.4636 B(  6-C ,  7-C ) :   1.3869
B(  6-C , 15-H ) :   0.9771 B(  7-C , 16-H ) :   0.9380

Dispersion correction           -0.005281833
FINAL SINGLE POINT ENERGY      -326.824048130658

DIPOLE MOMENT
-------------

Method             : SCF
Type of density    : Electron Density
Multiplicity       :   1
Irrep              :   0
Energy             :  -326.8264922673810133 Eh
Relativity type    :
Basis              : AO
                                X                 Y                 Z
Electronic contribution:     -7.559060786      -0.001865344      -0.935133071
Nuclear contribution   :      9.097463160       0.000749990       0.681042150
                        -----------------------------------------
Total Dipole Moment    :      1.538402374      -0.001115354      -0.254090921
                        -----------------------------------------
Magnitude (a.u.)       :      1.559245108
Magnitude (Debye)      :      3.963286096

Rotational constants in cm-1:             0.159020             0.049922             0.041884
Rotational constants in MHz :          4767.314586          1496.622787          1255.652274

                             ****ORCA TERMINATED NORMALLY****
TOTAL RUN TIME: 0 days 0 hours 0 minutes 26 seconds 590 msec
