                         Program Version 6.0.0  -   RELEASE  -
|  1> ! wb97x-v def2-tzvp def2/J RIJCOSX DEFGRID2 scfconv7 GCP(DFT/TZ) printgap
|  2> %output
|  3>     printlevel normal
|  4> end
|  5> * xyz 0 1
|  6> C 1.5658111953269194 -0.019710562655409103 0.5710095678129791
|  7> C 0.6798680161313996 0.3525038284525086 -0.6158120491357624
|  8> C -0.6798841184307594 -0.3524993729996752 -0.6158381784220939
|  9> C -1.5658235427362959 0.019701276122967393 0.5709901133002037
| 10> H 2.5460727736484494 0.4626227476552976 0.4975068464923283
| 11> H 1.1203262343701277 0.2867625512523578 1.5228964300582633
| 12> H 1.7286099306293359 -1.1032003299128827 0.6117127201198697
| 13> H 0.520221137874986 1.4392093946626787 -0.6273003352928797
| 14> H 1.2064612966863004 0.10641343224087085 -1.5463881720764008
| 15> H -1.2064679662954625 -0.10639201098557112 -1.54641599830035
| 16> H -0.5202327516611079 -1.4392037970766172 -0.6273440459240432
| 17> H -2.546078707840896 -0.46264237699197247 0.4974728436275881
| 18> H -1.7286367659506965 1.1031895588674516 0.6117067266089014
| 19> H -1.1203449171521744 -0.2867782550839132 1.5228790705704844
| 20> *
| 21>
| 22>                          ****END OF INPUT****

CARTESIAN COORDINATES (ANGSTROEM)
---------------------------------
  C      1.565811   -0.019711    0.571010
  C      0.679868    0.352504   -0.615812
  C     -0.679884   -0.352499   -0.615838
  C     -1.565824    0.019701    0.570990
  H      2.546073    0.462623    0.497507
  H      1.120326    0.286763    1.522896
  H      1.728610   -1.103200    0.611713
  H      0.520221    1.439209   -0.627300
  H      1.206461    0.106413   -1.546388
  H     -1.206468   -0.106392   -1.546416
  H     -0.520233   -1.439204   -0.627344
  H     -2.546079   -0.462642    0.497473
  H     -1.728637    1.103190    0.611707
  H     -1.120345   -0.286778    1.522879

 Total Charge           Charge          ....    0
 Multiplicity           Mult            ....    1
 Number of Electrons    NEL             ....   34
 Basis Dimension        Dim             ....  184

ORBITAL ENERGIES
----------------

  NO   OCC          E(Eh)            E(eV)
   0   2.0000     -12.038187      -327.5757
   1   2.0000     -12.037095      -327.5460
   2   2.0000     -12.030657      -327.3708
   3   2.0000     -12.030562      -327.3682
   4   2.0000      -1.296690       -35.2847
   5   2.0000      -1.218266       -33.1507
   6   2.0000      -1.124386       -30.5961
   7   2.0000      -1.036081       -28.1932
   8   2.0000      -0.881356       -23.9829
   9   2.0000      -0.879708       -23.9381
  10   2.0000      -0.848923       -23.1004
  11   2.0000      -0.820914       -22.3382
  12   2.0000      -0.810144       -22.0451
  13   2.0000      -0.791274       -21.5317
  14   2.0000      -0.759663       -20.6715
  15   2.0000      -0.756196       -20.5772
  16   2.0000      -0.743754       -20.2386
  17   0.0000      -0.017715        -0.4820
  18   0.0000      -0.006846        -0.1863
  19   0.0000      -0.005492        -0.1494
  20   0.0000       0.017416         0.4739
  21   0.0000       0.020040         0.5453

MULLIKEN ATOMIC CHARGES
-----------------------
   0 C :   -0.357243
   1 C :   -0.146237
   2 C :   -0.146228
   3 C :   -0.357259
   4 H :    0.112955
   5 H :    0.110411
   6 H :    0.102311
   7 H :    0.085583
   8 H :    0.092220
   9 H :    0.092221
  10 H :    0.085588
  11 H :    0.112952
  12 H :    0.102312
  13 H :    0.110413
Sum of atomic charges:    0.0000000

LOEWDIN ATOMIC CHARGES
----------------------
   0 C :   -0.309992
   1 C :   -0.295778
   2 C :   -0.295777
   3 C :   -0.309993
   4 H :    0.115631
   5 H :    0.114229
   6 H :    0.116026
   7 H :    0.129775
   8 H :    0.130108
   9 H :    0.130108
  10 H :    0.129776
  11 H :    0.115631
  12 H :    0.116026
  13 H :    0.114229

  Mayer bond orders larger than 0.100000
B(  0-C ,  1-C ) :   0.9748 B(  0-C ,  4-H ) :   0.9819 B(  0-C ,  5-H ) :   0.9847
B(  0-C ,  6-H ) :   0.9772 B(  1-C ,  2-C ) :   0.9832 B(  1-C ,  7-H ) :   0.9788
B(  1-C ,  8-H ) :   0.9765 B(  2-C ,  3-C ) :   0.9748 B(  2-C ,  9-H ) :   0.9765
B(  2-C , 10-H ) :   0.9788 B(  3-C , 11-H ) :   0.9819 B(  3-C , 12-H ) :   0.9772
B(  3-C , 13-H ) :   0.9847

FINAL SINGLE POINT ENERGY      -158.452848973565

DIPOLE MOMENT
-------------

Method             : SCF
Type of density    : Electron Density
Multiplicity       :   1
Irrep              :   0
Energy             :  -158.4626863500654395 Eh
Relativity type    :
Basis              : AO
                                X                 Y                 Z
Electronic contribution:     -0.000000883       0.000004031      -0.925825775
Nuclear contribution   :      0.000001077      -0.000005434       0.884703318
                        -----------------------------------------
Total Dipole Moment    :      0.000000194      -0.000001403      -0.041122457
                        -----------------------------------------
Magnitude (a.u.)       :      0.041122457
Magnitude (Debye)      :      0.104524979

Rotational constants in cm-1:             0.440011             0.160020             0.135943
Rotational constants in MHz :         13191.199823          4797.268477          4075.460381

                             ****ORCA TERMINATED NORMALLY****
TOTAL RUN TIME: 0 days 0 hours 0 minutes 55 seconds 65 msec
