                         Program Version 6.0.0  -   RELEASE  -
|  1> ! r2scan-3c def2/J RI DEFGRID2 scfconv6 printgap
|  2> %output
|  3>     printlevel normal
|  4> end
|  5> %cpcm
|  6>     smd true
|  7>     smdsolvent "water"
|  8> end
|  9> * xyz 0 1
| 10> C -2.0692727928 0.0707601554 -0.0001326622
| 11> C -0.7066249558 0.685634723 0.0002166613
| 12> C 0.4516494707 0.0373031357 0.0002059289
| 13> C 1.7618089715 0.7680709474 -0.0001378244
| 14> C 0.5563704657 -1.4646277538 2.8284e-05
| 15> H -2.6249870997 0.3971925245 0.8787843555
| 16> H -2.6244202576 0.3978867262 -0.879137868
| 17> H -2.023232838 -1.0133308081 -0.0006330996
| 18> H -0.7025937292 1.7689567718 0.0001597871
| 19> H 2.3428604075 0.4958666336 0.8804615688
| 20> H 2.34307321 0.4942385669 -0.8800639259
| 21> H 1.613372547 1.8448525741 -0.0011860797
| 22> H 0.0689595746 -1.8866336679 0.8773661837
| 23> H 0.0808784647 -1.8850584702 -0.8846365727
| 24> H 1.5984067126 -1.7715164613 0.006736133
| 25> *
| 26>
| 27>                          ****END OF INPUT****

CARTESIAN COORDINATES (ANGSTROEM)
---------------------------------
  C     -2.069273    0.070760   -0.000133
  C     -0.706625    0.685635    0.000217
  C      0.451649    0.037303    0.000206
  C      1.761809    0.768071   -0.000138
  C      0.556370   -1.464628    0.000028
  H     -2.624987    0.397193    0.878784
  H     -2.624420    0.397887   -0.879138
  H     -2.023233   -1.013331   -0.000633
  H     -0.702594    1.768957    0.000160
  H      2.342860    0.495867    0.880462
  H      2.343073    0.494239   -0.880064
  H      1.613373    1.844853   -0.001186
  H      0.068960   -1.886634    0.877366
  H      0.080878   -1.885058   -0.884637
  H      1.598407   -1.771516    0.006736

 Total Charge           Charge          ....    0
 Multiplicity           Mult            ....    1
 Number of Electrons    NEL             ....   40
 Basis Dimension        Dim             ....  145

ORBITAL ENERGIES
----------------

  NO   OCC          E(Eh)            E(eV)
   0   2.0000     -10.028485      -272.8890
   1   2.0000     -10.012909      -272.4651
   2   2.0000     -10.012826      -272.4629
   3   2.0000     -10.012224      -272.4465
   4   2.0000     -10.010386      -272.3964
   5   2.0000      -0.775067       -21.0907
   6   2.0000      -0.694277       -18.8922
   7   2.0000      -0.651718       -17.7341
   8   2.0000      -0.596588       -16.2340
   9   2.0000      -0.473561       -12.8862
  10   2.0000      -0.422658       -11.5011
  11   2.0000      -0.397195       -10.8082
  12   2.0000      -0.395842       -10.7714
  13   2.0000      -0.366527        -9.9737
  14   2.0000      -0.351277        -9.5587
  15   2.0000      -0.346372        -9.4253
  16   2.0000      -0.326108        -8.8739
  17   2.0000      -0.316367        -8.6088
  18   2.0000      -0.289769        -7.8850
  19   2.0000      -0.204792        -5.5727
  20   0.0000       0.007741         0.2107
  21   0.0000       0.095885         2.6092
  22   0.0000       0.123114         3.3501
  23   0.0000       0.128417         3.4944
  24   0.0000       0.143434         3.9030

MULLIKEN ATOMIC CHARGES
-----------------------
   0 C :   -0.512035
   1 C :   -0.187069
   2 C :    0.111080
   3 C :   -0.527631
   4 C :   -0.569716
   5 H :    0.163568
   6 H :    0.163609
   7 H :    0.166454
   8 H :    0.170579
   9 H :    0.166703
  10 H :    0.166614
  11 H :    0.161101
  12 H :    0.180289
  13 H :    0.180611
  14 H :    0.165842
Sum of atomic charges:   -0.0000000

LOEWDIN ATOMIC CHARGES
----------------------
   0 C :   -0.415586
   1 C :   -0.246422
   2 C :   -0.157023
   3 C :   -0.404991
   4 C :   -0.413353
   5 H :    0.162554
   6 H :    0.162578
   7 H :    0.160926
   8 H :    0.164461
   9 H :    0.163018
  10 H :    0.163022
  11 H :    0.159740
  12 H :    0.169194
  13 H :    0.169300
  14 H :    0.162584

  Mayer bond orders larger than 0.100000
B(  0-C ,  1-C ) :   0.9022 B(  0-C ,  5-H ) :   0.9649 B(  0-C ,  6-H ) :   0.9649
B(  0-C ,  7-H ) :   0.9857 B(  1-C ,  2-C ) :   1.8725 B(  1-C ,  8-H ) :   0.9525
B(  2-C ,  3-C ) :   0.8541 B(  2-C ,  4-C ) :   0.8202 B(  3-C ,  9-H ) :   0.9643
B(  3-C , 10-H ) :   0.9644 B(  3-C , 11-H ) :   0.9974 B(  4-C , 12-H ) :   0.9795
B(  4-C , 13-H ) :   0.9792 B(  4-C , 14-H ) :   0.9757

Dispersion correction           -0.003356946
FINAL SINGLE POINT ENERGY      -196.462653921615

DIPOLE MOMENT
-------------

Method             : SCF
Type of density    : Electron Density
Multiplicity       :   1
Irrep              :   0
Energy             :  -196.4659300537069839 Eh
Relativity type    :
Basis              : AO
                                X                 Y                 Z
Electronic contribution:     -0.016798374       0.916461824       0.001285988
Nuclear contribution   :      0.067845738      -1.085976250      -0.002016616
                        -----------------------------------------
Total Dipole Moment    :      0.051047363      -0.169514426      -0.000730629
                        -----------------------------------------
Magnitude (a.u.)       :      0.177035329
Magnitude (Debye)      :      0.449988045

Rotational constants in cm-1:             0.271791             0.120111             0.087342
Rotational constants in MHz :          8148.087601          3600.827454          2618.460589

                             ****ORCA TERMINATED NORMALLY****
TOTAL RUN TIME: 0 days 0 hours 0 minutes 9 seconds 694 msec
