                         Program Version 6.0.0  -   RELEASE  -
|  1> ! wb97x-v def2-tzvp def2/J RIJCOSX DEFGRID2 scfconv7 GCP(DFT/TZ) printgap
|  2> %output
|  3>     printlevel normal
|  4> end
|  5> * xyz 0 1
|  6> C 2.130825114661241 -2.1054363540600636 0.36965361917946293
|  7> C 1.1751044619603352 -0.9769439337843349 0.13460803342037864
|  8> C 1.4980377607318554 0.29131153759713163 0.4796477486675821
|  9> C 0.6348706538059892 1.4146673967602768 0.18402313720626529
| 10> O 0.9320068257800272 2.5709527755537196 0.5308467557377413
| 11> C -0.6101565561124013 1.1410979733539341 -0.6208141408940641
| 12> C -1.2245990344323223 -0.23826392686867048 -0.3403692535768586
| 13> C -0.13017670674418572 -1.301813364897288 -0.5198404669162746
| 14> C -2.3650368034908444 -0.5040918833928607 -1.3233988926427
| 15> C -1.7740448202298693 -0.2826026622372628 1.091210827166573
| 16> H 3.0446917167149996 -1.9580925123028396 -0.21661028942165877
| 17> H 1.6963663897148566 -3.069313182024248 0.09735882744963183
| 18> H 2.4329890488188908 -2.140567012259233 1.4219732907997822
| 19> H 2.4426952083232245 0.5085520160495853 0.9736824158986587
| 20> H -1.3340350482450738 1.943757280384216 -0.4455785068375988
| 21> H -0.3091434823714814 1.193359117502028 -1.6786974948939413
| 22> H -0.48292106264364904 -2.273275599487344 -0.1505534780638662
| 23> H 0.07406296355630998 -1.4513224697966238 -1.5931954100671546
| 24> H -3.1624332277392044 0.23686855329768747 -1.198906445136883
| 25> H -2.79585635252694 -1.4975367610721293 -1.1544437351683927
| 26> H -2.0112255210914514 -0.456169004198147 -2.3590377744576485
| 27> H -0.9899539119511147 -0.11201156901066707 1.8364967464317083
| 28> H -2.2286123806837663 -1.2579753850689255 1.2953045938124306
| 29> H -2.5423521130832225 0.48624061288135884 1.2273049256920314
| 30> *
| 31>
| 32>                          ****END OF INPUT****

CARTESIAN COORDINATES (ANGSTROEM)
---------------------------------
  C      2.130825   -2.105436    0.369654
  C      1.175104   -0.976944    0.134608
  C      1.498038    0.291312    0.479648
  C      0.634871    1.414667    0.184023
  O      0.932007    2.570953    0.530847
  C     -0.610157    1.141098   -0.620814
  C     -1.224599   -0.238264   -0.340369
  C     -0.130177   -1.301813   -0.519840
  C     -2.365037   -0.504092   -1.323399
  C     -1.774045   -0.282603    1.091211
  H      3.044692   -1.958093   -0.216610
  H      1.696366   -3.069313    0.097359
  H      2.432989   -2.140567    1.421973
  H      2.442695    0.508552    0.973682
  H     -1.334035    1.943757   -0.445579
  H     -0.309143    1.193359   -1.678697
  H     -0.482921   -2.273276   -0.150553
  H      0.074063   -1.451322   -1.593195
  H     -3.162433    0.236869   -1.198906
  H     -2.795856   -1.497537   -1.154444
  H     -2.011226   -0.456169   -2.359038
  H     -0.989954   -0.112012    1.836497
  H     -2.228612   -1.257975    1.295305
  H     -2.542352    0.486241    1.227305

 Total Charge           Charge          ....    0
 Multiplicity           Mult            ....    1
 Number of Electrons    NEL             ....   76
 Basis Dimension        Dim             ....  394

ORBITAL ENERGIES
----------------

  NO   OCC          E(Eh)            E(eV)
   0   2.0000     -21.642588      -588.9248
   1   2.0000     -12.124804      -329.9327
   2   2.0000     -12.088212      -328.9370
   3   2.0000     -12.072675      -328.5142
   4   2.0000     -12.063280      -328.2585
   5   2.0000     -12.058204      -328.1204
   6   2.0000     -12.048930      -327.8680
   7   2.0000     -12.044232      -327.7402
   8   2.0000     -12.044155      -327.7381
   9   2.0000     -12.040393      -327.6358
  10   2.0000      -1.676538       -45.6209
  11   2.0000      -1.382897       -37.6305
  12   2.0000      -1.325524       -36.0693
  13   2.0000      -1.266013       -34.4500
  14   2.0000      -1.208699       -32.8904
  15   2.0000      -1.201327       -32.6898
  16   2.0000      -1.187884       -32.3240
  17   2.0000      -1.103635       -30.0314
  18   2.0000      -1.060534       -28.8586
  19   2.0000      -1.007437       -27.4137
  20   2.0000      -0.961981       -26.1768
  21   2.0000      -0.959084       -26.0980
  22   2.0000      -0.916542       -24.9404
  23   2.0000      -0.897101       -24.4114
  24   2.0000      -0.885272       -24.0895
  25   2.0000      -0.879782       -23.9401
  26   2.0000      -0.870063       -23.6756
  27   2.0000      -0.856108       -23.2959
  28   2.0000      -0.850528       -23.1440
  29   2.0000      -0.829892       -22.5825
  30   2.0000      -0.828041       -22.5321
  31   2.0000      -0.815645       -22.1948
  32   2.0000      -0.808940       -22.0124
  33   2.0000      -0.798539       -21.7293
  34   2.0000      -0.779476       -21.2106
  35   2.0000      -0.777863       -21.1667
  36   2.0000      -0.769146       -20.9295
  37   2.0000      -0.670479       -18.2447
  38   0.0000      -0.333451        -9.0737
  39   0.0000      -0.172356        -4.6900
  40   0.0000      -0.068477        -1.8634
  41   0.0000      -0.065519        -1.7829
  42   0.0000      -0.048567        -1.3216

MULLIKEN ATOMIC CHARGES
-----------------------
   0 C :   -0.386913
   1 C :    0.132488
   2 C :   -0.310505
   3 C :    0.209258
   4 O :   -0.334084
   5 C :   -0.177465
   6 C :    0.116847
   7 C :   -0.210057
   8 C :   -0.351348
   9 C :   -0.389523
  10 H :    0.139593
  11 H :    0.123239
  12 H :    0.139804
  13 H :    0.123296
  14 H :    0.117525
  15 H :    0.110398
  16 H :    0.118285
  17 H :    0.116443
  18 H :    0.120689
  19 H :    0.114259
  20 H :    0.112331
  21 H :    0.135149
  22 H :    0.110411
  23 H :    0.119881
Sum of atomic charges:   -0.0000000

LOEWDIN ATOMIC CHARGES
----------------------
   0 C :   -0.249146
   1 C :   -0.140843
   2 C :   -0.122341
   3 C :   -0.309585
   4 O :    0.078811
   5 C :   -0.165823
   6 C :   -0.325208
   7 C :   -0.172736
   8 C :   -0.253199
   9 C :   -0.245211
  10 H :    0.136047
  11 H :    0.124832
  12 H :    0.136232
  13 H :    0.151103
  14 H :    0.151182
  15 H :    0.157526
  16 H :    0.149508
  17 H :    0.157248
  18 H :    0.124402
  19 H :    0.122459
  20 H :    0.120415
  21 H :    0.128002
  22 H :    0.121217
  23 H :    0.125108

  Mayer bond orders larger than 0.100000
B(  0-C ,  1-C ) :   0.9225 B(  0-C , 10-H ) :   0.9699 B(  0-C , 11-H ) :   0.9951
B(  0-C , 12-H ) :   0.9742 B(  1-C ,  2-C ) :   1.6936 B(  1-C ,  7-C ) :   0.9901
B(  2-C ,  3-C ) :   1.1036 B(  2-C , 13-H ) :   0.9786 B(  3-C ,  4-O ) :   2.1157
B(  3-C ,  5-C ) :   0.9615 B(  5-C ,  6-C ) :   0.9263 B(  5-C , 14-H ) :   0.9569
B(  5-C , 15-H ) :   0.9386 B(  6-C ,  7-C ) :   0.9650 B(  6-C ,  8-C ) :   0.9661
B(  6-C ,  9-C ) :   0.9922 B(  7-C , 16-H ) :   0.9730 B(  7-C , 17-H ) :   0.9326
B(  8-C , 18-H ) :   0.9833 B(  8-C , 19-H ) :   0.9813 B(  8-C , 20-H ) :   0.9731
B(  9-C , 21-H ) :   0.9677 B(  9-C , 22-H ) :   0.9776 B(  9-C , 23-H ) :   0.9791

FINAL SINGLE POINT ENERGY      -426.636838979940

DIPOLE MOMENT
-------------

Method             : SCF
Type of density    : Electron Density
Multiplicity       :   1
Irrep              :   0
Energy             :  -426.6527299861404572 Eh
Relativity type    :
Basis              : AO
                                X                 Y                 Z
Electronic contribution:      5.511309257       7.507091191       1.370839957
Nuclear contribution   :     -5.837991465      -9.241882609      -1.815212776
                        -----------------------------------------
Total Dipole Moment    :     -0.326682208      -1.734791418      -0.444372819
                        -----------------------------------------
Magnitude (a.u.)       :      1.820354287
Magnitude (Debye)      :      4.626972887

Rotational constants in cm-1:             0.050751             0.044208             0.028298
Rotational constants in MHz :          1521.489799          1325.335846           848.353926

                             ****ORCA TERMINATED NORMALLY****
TOTAL RUN TIME: 0 days 0 hours 5 minutes 54 seconds 595 msec
