                         Program Version 6.0.0  -   RELEASE  -
|  1> ! wb97x-v def2-tzvp def2/J RIJCOSX DEFGRID2 scfconv7 GCP(DFT/TZ) printgap
|  2> %output
|  3>     printlevel normal
|  4> end
|  5> %cpcm
|  6>     smd true
|  7>     smdsolvent "water"
|  8> end
|  9> * xyz 0 1
| 10> C 2.130825114661241 -2.1054363540600636 0.36965361917946293
| 11> C 1.1751044619603352 -0.9769439337843349 0.13460803342037864
| 12> C 1.4980377607318554 0.29131153759713163 0.4796477486675821
| 13> C 0.6348706538059892 1.4146673967602768 0.18402313720626529
| 14> O 0.9320068257800272 2.5709527755537196 0.5308467557377413
| 15> C -0.6101565561124013 1.1410979733539341 -0.6208141408940641
| 16> C -1.2245990344323223 -0.23826392686867048 -0.3403692535768586
| 17> C -0.13017670674418572 -1.301813364897288 -0.5198404669162746
| 18> C -2.3650368034908444 -0.5040918833928607 -1.3233988926427
| 19> C -1.7740448202298693 -0.2826026622372628 1.091210827166573
| 20> H 3.0446917167149996 -1.9580925123028396 -0.21661028942165877
| 21> H 1.6963663897148566 -3.069313182024248 0.09735882744963183
| 22> H 2.4329890488188908 -2.140567012259233 1.4219732907997822
| 23> H 2.4426952083232245 0.5085520160495853 0.9736824158986587
| 24> H -1.3340350482450738 1.943757280384216 -0.4455785068375988
| 25> H -0.3091434823714814 1.193359117502028 -1.6786974948939413
| 26> H -0.48292106264364904 -2.273275599487344 -0.1505534780638662
| 27> H 0.07406296355630998 -1.4513224697966238 -1.5931954100671546
| 28> H -3.1624332277392044 0.23686855329768747 -1.198906445136883
| 29> H -2.79585635252694 -1.4975367610721293 -1.1544437351683927
| 30> H -2.0112255210914514 -0.456169004198147 -2.3590377744576485
| 31> H -0.9899539119511147 -0.11201156901066707 1.8364967464317083
| 32> H -2.2286123806837663 -1.2579753850689255 1.2953045938124306
| 33> H -2.5423521130832225 0.48624061288135884 1.2273049256920314
| 34> *
| 35>
| 36>                          ****END OF INPUT****

CARTESIAN COORDINATES (ANGSTROEM)
---------------------------------
  C      2.130825   -2.105436    0.369654
  C      1.175104   -0.976944    0.134608
  C      1.498038    0.291312    0.479648
  C      0.634871    1.414667    0.184023
  O      0.932007    2.570953    0.530847
  C     -0.610157    1.141098   -0.620814
  C     -1.224599   -0.238264   -0.340369
  C     -0.130177   -1.301813   -0.519840
  C     -2.365037   -0.504092   -1.323399
  C     -1.774045   -0.282603    1.091211
  H      3.044692   -1.958093   -0.216610
  H      1.696366   -3.069313    0.097359
  H      2.432989   -2.140567    1.421973
  H      2.442695    0.508552    0.973682
  H     -1.334035    1.943757   -0.445579
  H     -0.309143    1.193359   -1.678697
  H     -0.482921   -2.273276   -0.150553
  H      0.074063   -1.451322   -1.593195
  H     -3.162433    0.236869   -1.198906
  H     -2.795856   -1.497537   -1.154444
  H     -2.011226   -0.456169   -2.359038
  H     -0.989954   -0.112012    1.836497
  H     -2.228612   -1.257975    1.295305
  H     -2.542352    0.486241    1.227305

 Total Charge           Charge          ....    0
 Multiplicity           Mult            ....    1
 Number of Electrons    NEL             ....   76
 Basis Dimension        Dim             ....  394

ORBITAL ENERGIES
----------------

  NO   OCC          E(Eh)            E(eV)
   0   2.0000     -21.657809      -589.3390
   1   2.0000     -12.136543      -330.2521
   2   2.0000     -12.084287      -328.8302
   3   2.0000     -12.058933      -328.1403
   4   2.0000     -12.044281      -327.7415
   5   2.0000     -12.041330      -327.6612
   6   2.0000     -12.038466      -327.5833
   7   2.0000     -12.036521      -327.5304
   8   2.0000     -12.025949      -327.2427
   9   2.0000     -12.025116      -327.2200
  10   2.0000      -1.696590       -46.1666
  11   2.0000      -1.372548       -37.3489
  12   2.0000      -1.313468       -35.7413
  13   2.0000      -1.260428       -34.2980
  14   2.0000      -1.194780       -32.5116
  15   2.0000      -1.188394       -32.3378
  16   2.0000      -1.171854       -31.8878
  17   2.0000      -1.107635       -30.1403
  18   2.0000      -1.053100       -28.6563
  19   2.0000      -1.013790       -27.5866
  20   2.0000      -0.960944       -26.1486
  21   2.0000      -0.949035       -25.8245
  22   2.0000      -0.912608       -24.8333
  23   2.0000      -0.900842       -24.5132
  24   2.0000      -0.877802       -23.8862
  25   2.0000      -0.868712       -23.6389
  26   2.0000      -0.864872       -23.5344
  27   2.0000      -0.846344       -23.0302
  28   2.0000      -0.833642       -22.6846
  29   2.0000      -0.814622       -22.1670
  30   2.0000      -0.811403       -22.0794
  31   2.0000      -0.803221       -21.8568
  32   2.0000      -0.793452       -21.5909
  33   2.0000      -0.787585       -21.4313
  34   2.0000      -0.768396       -20.9091
  35   2.0000      -0.764253       -20.7964
  36   2.0000      -0.758030       -20.6270
  37   2.0000      -0.665018       -18.0961
  38   0.0000      -0.330773        -9.0008
  39   0.0000      -0.167663        -4.5624
  40   0.0000      -0.064441        -1.7535
  41   0.0000      -0.049160        -1.3377
  42   0.0000      -0.035266        -0.9596

MULLIKEN ATOMIC CHARGES
-----------------------
   0 C :   -0.417747
   1 C :    0.133372
   2 C :   -0.380768
   3 C :    0.320019
   4 O :   -0.500112
   5 C :   -0.218282
   6 C :    0.175115
   7 C :   -0.220162
   8 C :   -0.425578
   9 C :   -0.444927
  10 H :    0.157007
  11 H :    0.148867
  12 H :    0.157134
  13 H :    0.148095
  14 H :    0.130618
  15 H :    0.143511
  16 H :    0.146424
  17 H :    0.141741
  18 H :    0.134820
  19 H :    0.133665
  20 H :    0.131983
  21 H :    0.137936
  22 H :    0.133034
  23 H :    0.134237
Sum of atomic charges:   -0.0000000

LOEWDIN ATOMIC CHARGES
----------------------
   0 C :   -0.242447
   1 C :   -0.114670
   2 C :   -0.141521
   3 C :   -0.301921
   4 O :   -0.021545
   5 C :   -0.164677
   6 C :   -0.319782
   7 C :   -0.162006
   8 C :   -0.256314
   9 C :   -0.250811
  10 H :    0.142287
  11 H :    0.132117
  12 H :    0.142170
  13 H :    0.153946
  14 H :    0.152580
  15 H :    0.168826
  16 H :    0.159458
  17 H :    0.167885
  18 H :    0.126117
  19 H :    0.126450
  20 H :    0.124573
  21 H :    0.126688
  22 H :    0.126074
  23 H :    0.126521

  Mayer bond orders larger than 0.100000
B(  0-C ,  1-C ) :   0.9342 B(  0-C , 10-H ) :   0.9598 B(  0-C , 11-H ) :   0.9902
B(  0-C , 12-H ) :   0.9636 B(  1-C ,  2-C ) :   1.6774 B(  1-C ,  7-C ) :   1.0075
B(  2-C ,  3-C ) :   1.1230 B(  2-C , 13-H ) :   0.9674 B(  3-C ,  4-O ) :   1.9264
B(  3-C ,  5-C ) :   0.9795 B(  5-C ,  6-C ) :   0.9225 B(  5-C , 14-H ) :   0.9610
B(  5-C , 15-H ) :   0.9219 B(  6-C ,  7-C ) :   0.9655 B(  6-C ,  8-C ) :   0.9367
B(  6-C ,  9-C ) :   0.9802 B(  7-C , 16-H ) :   0.9633 B(  7-C , 17-H ) :   0.9216
B(  8-C , 18-H ) :   0.9822 B(  8-C , 19-H ) :   0.9799 B(  8-C , 20-H ) :   0.9748
B(  9-C , 21-H ) :   0.9642 B(  9-C , 22-H ) :   0.9783 B(  9-C , 23-H ) :   0.9797

FINAL SINGLE POINT ENERGY      -426.647603679044

DIPOLE MOMENT
-------------

Method             : SCF
Type of density    : Electron Density
Multiplicity       :   1
Irrep              :   0
Energy             :  -426.6634946852437906 Eh
Relativity type    :
Basis              : AO
                                X                 Y                 Z
Electronic contribution:      5.362186587       6.560727978       1.073287133
Nuclear contribution   :     -5.837991465      -9.241882609      -1.815212776
                        -----------------------------------------
Total Dipole Moment    :     -0.475804878      -2.681154631      -0.741925643
                        -----------------------------------------
Magnitude (a.u.)       :      2.822310064
Magnitude (Debye)      :      7.173742076

Rotational constants in cm-1:             0.050751             0.044208             0.028298
Rotational constants in MHz :          1521.489799          1325.335846           848.353926

                             ****ORCA TERMINATED NORMALLY****
TOTAL RUN TIME: 0 days 0 hours 6 minutes 1 seconds 483 msec
