                         Program Version 6.0.0  -   RELEASE  -
|  1> ! pbe def2-sv(p) def2/J RI DEFGRID1 loosescf d4 GCP(DFT/SV(P)) printgap
|  2> %output
|  3>     printlevel normal
|  4> end
|  5> * xyz 0 1
|  6> C -1.7728582222 1.1311416648 0.9498971221
|  7> C -1.480974434 0.1375753156 -0.1727486954
|  8> C -2.6805627577 -0.8014032925 -0.3287371621
|  9> C -0.2259747041 -0.7145674705 0.0707690358
| 10> C 1.171994888 -0.080087155 -0.0946512152
| 11> C 1.2698898446 0.7325351445 -1.3875700461
| 12> C 1.5587412021 0.8029080328 1.0947953924
| 13> C 2.1802886871 -1.2363565349 -0.1668478825
| 14> H -1.7524864828 0.6312497399 1.915736299
| 15> H -1.0522420007 1.9423747088 0.965355174
| 16> H -2.7601160111 1.5678392241 0.8123436176
| 17> H -1.3664308965 0.6895420137 -1.1099272618
| 18> H -3.5881597356 -0.2332512036 -0.5197668309
| 19> H -2.5297724116 -1.4898684324 -1.1571966452
| 20> H -2.8256114129 -1.3832950939 0.5791457679
| 21> H -0.2911220891 -1.1426338231 1.0745534916
| 22> H -0.2745067852 -1.5485050917 -0.6348612219
| 23> H 2.3009763887 1.0333525041 -1.5602444923
| 24> H 0.6628928679 1.6324079774 -1.332315354
| 25> H 0.9393316592 0.1403897034 -2.2379627656
| 26> H 1.4159742283 0.2696949863 2.0316693402
| 27> H 0.9713387146 1.7145440826 1.1240397693
| 28> H 2.6069404057 1.0858787469 1.0201264989
| 29> H 3.1957636898 -0.853912329 -0.2418570701
| 30> H 1.9884148034 -1.8628373574 -1.0351510747
| 31> H 2.1139891568 -1.8562679654 0.7245163894
| 32> *
| 33>
| 34>                          ****END OF INPUT****

CARTESIAN COORDINATES (ANGSTROEM)
---------------------------------
  C     -1.772858    1.131142    0.949897
  C     -1.480974    0.137575   -0.172749
  C     -2.680563   -0.801403   -0.328737
  C     -0.225975   -0.714567    0.070769
  C      1.171995   -0.080087   -0.094651
  C      1.269890    0.732535   -1.387570
  C      1.558741    0.802908    1.094795
  C      2.180289   -1.236357   -0.166848
  H     -1.752486    0.631250    1.915736
  H     -1.052242    1.942375    0.965355
  H     -2.760116    1.567839    0.812344
  H     -1.366431    0.689542   -1.109927
  H     -3.588160   -0.233251   -0.519767
  H     -2.529772   -1.489868   -1.157197
  H     -2.825611   -1.383295    0.579146
  H     -0.291122   -1.142634    1.074553
  H     -0.274507   -1.548505   -0.634861
  H      2.300976    1.033353   -1.560244
  H      0.662893    1.632408   -1.332315
  H      0.939332    0.140390   -2.237963
  H      1.415974    0.269695    2.031669
  H      0.971339    1.714544    1.124040
  H      2.606940    1.085879    1.020126
  H      3.195764   -0.853912   -0.241857
  H      1.988415   -1.862837   -1.035151
  H      2.113989   -1.856268    0.724516

 Total Charge           Charge          ....    0
 Multiplicity           Mult            ....    1
 Number of Electrons    NEL             ....   66
 Basis Dimension        Dim             ....  148

ORBITAL ENERGIES
----------------

  NO   OCC          E(Eh)            E(eV)
   0   2.0000      -9.902350      -269.4566
   1   2.0000      -9.889648      -269.1110
   2   2.0000      -9.875883      -268.7364
   3   2.0000      -9.868840      -268.5448
   4   2.0000      -9.868035      -268.5229
   5   2.0000      -9.867908      -268.5194
   6   2.0000      -9.867398      -268.5056
   7   2.0000      -9.866978      -268.4941
   8   2.0000      -0.747801       -20.3487
   9   2.0000      -0.706670       -19.2295
  10   2.0000      -0.614081       -16.7100
  11   2.0000      -0.610125       -16.6023
  12   2.0000      -0.602259       -16.3883
  13   2.0000      -0.599649       -16.3173
  14   2.0000      -0.502487       -13.6734
  15   2.0000      -0.467093       -12.7102
  16   2.0000      -0.421506       -11.4698
  17   2.0000      -0.405092       -11.0231
  18   2.0000      -0.399412       -10.8686
  19   2.0000      -0.383629       -10.4391
  20   2.0000      -0.368654       -10.0316
  21   2.0000      -0.357332        -9.7235
  22   2.0000      -0.343209        -9.3392
  23   2.0000      -0.339485        -9.2379
  24   2.0000      -0.332369        -9.0442
  25   2.0000      -0.318049        -8.6546
  26   2.0000      -0.313559        -8.5324
  27   2.0000      -0.304346        -8.2817
  28   2.0000      -0.287964        -7.8359
  29   2.0000      -0.285255        -7.7622
  30   2.0000      -0.272914        -7.4264
  31   2.0000      -0.266267        -7.2455
  32   2.0000      -0.257533        -7.0078
  33   0.0000       0.026498         0.7210
  34   0.0000       0.056727         1.5436
  35   0.0000       0.064005         1.7417
  36   0.0000       0.070854         1.9280
  37   0.0000       0.078766         2.1433

MULLIKEN ATOMIC CHARGES
-----------------------
   0 C :   -0.243266
   1 C :   -0.164951
   2 C :   -0.246522
   3 C :   -0.092445
   4 C :   -0.236721
   5 C :   -0.222501
   6 C :   -0.209394
   7 C :   -0.211541
   8 H :    0.089274
   9 H :    0.107804
  10 H :    0.093182
  11 H :    0.072608
  12 H :    0.096033
  13 H :    0.096865
  14 H :    0.091697
  15 H :    0.066949
  16 H :    0.067207
  17 H :    0.091491
  18 H :    0.105314
  19 H :    0.093358
  20 H :    0.089414
  21 H :    0.099877
  22 H :    0.089285
  23 H :    0.091729
  24 H :    0.092715
  25 H :    0.092537
Sum of atomic charges:    0.0000000

LOEWDIN ATOMIC CHARGES
----------------------
   0 C :   -0.330235
   1 C :   -0.157564
   2 C :   -0.327335
   3 C :   -0.199072
   4 C :   -0.104860
   5 C :   -0.317657
   6 C :   -0.317409
   7 C :   -0.315536
   8 H :    0.116418
   9 H :    0.114950
  10 H :    0.116269
  11 H :    0.115119
  12 H :    0.114958
  13 H :    0.114754
  14 H :    0.115582
  15 H :    0.112157
  16 H :    0.113176
  17 H :    0.116906
  18 H :    0.115600
  19 H :    0.115983
  20 H :    0.115494
  21 H :    0.114136
  22 H :    0.115348
  23 H :    0.113535
  24 H :    0.113823
  25 H :    0.115460

  Mayer bond orders larger than 0.100000
B(  0-C ,  1-C ) :   1.1167 B(  0-C ,  8-H ) :   0.9471 B(  0-C ,  9-H ) :   0.9394
B(  0-C , 10-H ) :   0.9466 B(  1-C ,  2-C ) :   1.1105 B(  1-C ,  3-C ) :   1.0899
B(  1-C , 11-H ) :   0.8890 B(  2-C , 12-H ) :   0.9494 B(  2-C , 13-H ) :   0.9486
B(  2-C , 14-H ) :   0.9518 B(  3-C ,  4-C ) :   1.0413 B(  3-C , 15-H ) :   0.9075
B(  3-C , 16-H ) :   0.9117 B(  4-C ,  5-C ) :   1.0803 B(  4-C ,  6-C ) :   1.0825
B(  4-C ,  7-C ) :   1.0739 B(  5-C , 17-H ) :   0.9457 B(  5-C , 18-H ) :   0.9388
B(  5-C , 19-H ) :   0.9463 B(  6-C , 20-H ) :   0.9463 B(  6-C , 21-H ) :   0.9370
B(  6-C , 22-H ) :   0.9445 B(  7-C , 23-H ) :   0.9456 B(  7-C , 24-H ) :   0.9453
B(  7-C , 25-H ) :   0.9492

Dispersion correction           -0.023271860
FINAL SINGLE POINT ENERGY      -314.872366991272

DIPOLE MOMENT
-------------

Method             : SCF
Type of density    : Electron Density
Multiplicity       :   1
Irrep              :   0
Energy             :  -314.9590712770944378 Eh
Relativity type    :
Basis              : AO
                                X                 Y                 Z
Electronic contribution:      0.231810018      -0.286350130      -0.429877304
Nuclear contribution   :     -0.229686276       0.315881265       0.392342602
                        -----------------------------------------
Total Dipole Moment    :      0.002123742       0.029531135      -0.037534703
                        -----------------------------------------
Magnitude (a.u.)       :      0.047806402
Magnitude (Debye)      :      0.121514218

Rotational constants in cm-1:             0.099359             0.040701             0.036831
Rotational constants in MHz :          2978.707401          1220.172202          1104.153609

                             ****ORCA TERMINATED NORMALLY****
TOTAL RUN TIME: 0 days 0 hours 0 minutes 11 seconds 589 msec
