                         Program Version 6.0.0  -   RELEASE  -
|  1> ! pbe def2-sv(p) def2/J RI DEFGRID1 loosescf d4 GCP(DFT/SV(P)) printgap
|  2> %output
|  3>     printlevel normal
|  4> end
|  5> * xyz 0 1
|  6> C -2.4871013867 -1.0622436806 0.3447255171
|  7> C -1.0578915102 -0.5572492693 0.5834384863
|  8> H -0.8705763644 -0.5075884479 1.6673993814
|  9> C -0.8174728803 0.8336915429 -0.0274413516
| 10> H -0.9774045791 0.7637176589 -1.1115035547
| 11> C 0.6355764181 1.2669813075 0.2162445256
| 12> H 0.7895545628 1.4160226635 1.2961045624
| 13> C 1.6039390643 0.1852652138 -0.2662595849
| 14> H 1.5776028614 0.17421905 -1.3664409487
| 15> C 1.1836513563 -1.2010361211 0.2736746547
| 16> H 1.3649497902 -1.2089030057 1.3634310028
| 17> O -0.1632376969 -1.486920393 4.03053e-05
| 18> O 1.9613112713 -2.2096992859 -0.2658878729
| 19> O 2.8932543848 0.4987308271 0.1938991496
| 20> O 0.9181569512 2.4531884014 -0.4815435143
| 21> O -1.6488529382 1.8147102363 0.5412365931
| 22> O -2.9653244053 -0.5967907281 -0.8969652004
| 23> H -3.1273051649 -0.6994907275 1.1582955304
| 24> H -2.4480898314 -2.155464082 0.3730471128
| 25> H 1.6042960391 -2.4538199163 -1.1348551813
| 26> H 3.499182624 -0.2135611904 -0.0637726861
| 27> H 0.2840721963 3.1284275384 -0.1946474678
| 28> H -2.5434232618 1.708371757 0.1871103356
| 29> H -3.758875674 -1.0931639696 -1.1403076519
| 30> *
| 31>
| 32>                          ****END OF INPUT****

CARTESIAN COORDINATES (ANGSTROEM)
---------------------------------
  C     -2.487101   -1.062244    0.344726
  C     -1.057892   -0.557249    0.583438
  H     -0.870576   -0.507588    1.667399
  C     -0.817473    0.833692   -0.027441
  H     -0.977405    0.763718   -1.111504
  C      0.635576    1.266981    0.216245
  H      0.789555    1.416023    1.296105
  C      1.603939    0.185265   -0.266260
  H      1.577603    0.174219   -1.366441
  C      1.183651   -1.201036    0.273675
  H      1.364950   -1.208903    1.363431
  O     -0.163238   -1.486920    0.000040
  O      1.961311   -2.209699   -0.265888
  O      2.893254    0.498731    0.193899
  O      0.918157    2.453188   -0.481544
  O     -1.648853    1.814710    0.541237
  O     -2.965324   -0.596791   -0.896965
  H     -3.127305   -0.699491    1.158296
  H     -2.448090   -2.155464    0.373047
  H      1.604296   -2.453820   -1.134855
  H      3.499183   -0.213561   -0.063773
  H      0.284072    3.128428   -0.194647
  H     -2.543423    1.708372    0.187110
  H     -3.758876   -1.093164   -1.140308

 Total Charge           Charge          ....    0
 Multiplicity           Mult            ....    1
 Number of Electrons    NEL             ....   96
 Basis Dimension        Dim             ....  192

ORBITAL ENERGIES
----------------

  NO   OCC          E(Eh)            E(eV)
   0   2.0000     -18.771948      -510.8107
   1   2.0000     -18.769306      -510.7388
   2   2.0000     -18.762979      -510.5666
   3   2.0000     -18.758407      -510.4422
   4   2.0000     -18.740020      -509.9419
   5   2.0000     -18.734757      -509.7987
   6   2.0000      -9.983097      -271.6539
   7   2.0000      -9.947714      -270.6911
   8   2.0000      -9.945836      -270.6400
   9   2.0000      -9.935758      -270.3657
  10   2.0000      -9.933113      -270.2937
  11   2.0000      -9.931752      -270.2567
  12   2.0000      -0.986128       -26.8339
  13   2.0000      -0.946470       -25.7548
  14   2.0000      -0.936877       -25.4937
  15   2.0000      -0.924221       -25.1493
  16   2.0000      -0.915281       -24.9061
  17   2.0000      -0.903509       -24.5857
  18   2.0000      -0.701623       -19.0921
  19   2.0000      -0.689363       -18.7585
  20   2.0000      -0.619871       -16.8675
  21   2.0000      -0.582934       -15.8624
  22   2.0000      -0.550804       -14.9881
  23   2.0000      -0.526718       -14.3327
  24   2.0000      -0.498435       -13.5631
  25   2.0000      -0.489782       -13.3277
  26   2.0000      -0.477438       -12.9918
  27   2.0000      -0.471599       -12.8329
  28   2.0000      -0.447891       -12.1877
  29   2.0000      -0.431165       -11.7326
  30   2.0000      -0.407606       -11.0915
  31   2.0000      -0.399182       -10.8623
  32   2.0000      -0.392042       -10.6680
  33   2.0000      -0.372929       -10.1479
  34   2.0000      -0.355493        -9.6735
  35   2.0000      -0.344208        -9.3664
  36   2.0000      -0.326194        -8.8762
  37   2.0000      -0.316754        -8.6193
  38   2.0000      -0.304757        -8.2929
  39   2.0000      -0.295260        -8.0344
  40   2.0000      -0.280543        -7.6340
  41   2.0000      -0.267739        -7.2855
  42   2.0000      -0.253716        -6.9040
  43   2.0000      -0.239778        -6.5247
  44   2.0000      -0.235960        -6.4208
  45   2.0000      -0.219805        -5.9812
  46   2.0000      -0.213063        -5.7977
  47   2.0000      -0.194025        -5.2797
  48   0.0000       0.004084         0.1111
  49   0.0000       0.027885         0.7588
  50   0.0000       0.036939         1.0052
  51   0.0000       0.050487         1.3738
  52   0.0000       0.064622         1.7585

MULLIKEN ATOMIC CHARGES
-----------------------
   0 C :    0.044831
   1 C :    0.019819
   2 H :    0.058208
   3 C :    0.020930
   4 H :    0.071428
   5 C :    0.093226
   6 H :    0.055153
   7 C :    0.057514
   8 H :    0.042292
   9 C :    0.174449
  10 H :    0.051252
  11 O :   -0.308871
  12 O :   -0.390587
  13 O :   -0.406996
  14 O :   -0.409282
  15 O :   -0.426854
  16 O :   -0.437999
  17 H :    0.076113
  18 H :    0.092039
  19 H :    0.303669
  20 H :    0.298953
  21 H :    0.300685
  22 H :    0.311781
  23 H :    0.308247
Sum of atomic charges:    0.0000000

LOEWDIN ATOMIC CHARGES
----------------------
   0 C :   -0.129701
   1 C :   -0.065303
   2 H :    0.107235
   3 C :   -0.083769
   4 H :    0.111422
   5 C :   -0.062049
   6 H :    0.105870
   7 C :   -0.084805
   8 H :    0.101945
   9 C :   -0.006051
  10 H :    0.095884
  11 O :   -0.151546
  12 O :   -0.297080
  13 O :   -0.313785
  14 O :   -0.316086
  15 O :   -0.321587
  16 O :   -0.340447
  17 H :    0.099747
  18 H :    0.112035
  19 H :    0.289097
  20 H :    0.283390
  21 H :    0.283840
  22 H :    0.289187
  23 H :    0.292556

  Mayer bond orders larger than 0.100000
B(  0-C ,  1-C ) :   1.0463 B(  0-C , 16-O ) :   1.0851 B(  0-C , 17-H ) :   0.9128
B(  0-C , 18-H ) :   0.9162 B(  1-C ,  2-H ) :   0.8763 B(  1-C ,  3-C ) :   0.9934
B(  1-C , 11-O ) :   0.9739 B(  3-C ,  4-H ) :   0.8681 B(  3-C ,  5-C ) :   1.0115
B(  3-C , 15-O ) :   1.0781 B(  5-C ,  6-H ) :   0.8766 B(  5-C ,  7-C ) :   1.0094
B(  5-C , 14-O ) :   1.1007 B(  7-C ,  8-H ) :   0.8616 B(  7-C ,  9-C ) :   0.9828
B(  7-C , 13-O ) :   1.0852 B(  9-C , 10-H ) :   0.8748 B(  9-C , 11-O ) :   1.0154
B(  9-C , 12-O ) :   1.1181 B( 12-O , 19-H ) :   0.8417 B( 13-O , 20-H ) :   0.8387
B( 14-O , 21-H ) :   0.8397 B( 15-O , 22-H ) :   0.8386 B( 16-O , 23-H ) :   0.8469

Dispersion correction           -0.023857159
FINAL SINGLE POINT ENERGY      -685.696516861324

DIPOLE MOMENT
-------------

Method             : SCF
Type of density    : Electron Density
Multiplicity       :   1
Irrep              :   0
Energy             :  -685.8261283218865856 Eh
Relativity type    :
Basis              : AO
                                X                 Y                 Z
Electronic contribution:      2.708721398       0.264303124      -1.226019788
Nuclear contribution   :     -4.306482351      -1.063659891       0.956467326
                        -----------------------------------------
Total Dipole Moment    :     -1.597760953      -0.799356766      -0.269552462
                        -----------------------------------------
Magnitude (a.u.)       :      1.806784390
Magnitude (Debye)      :      4.592480949

Rotational constants in cm-1:             0.041226             0.026146             0.017470
Rotational constants in MHz :          1235.918748           783.828378           523.734864

                             ****ORCA TERMINATED NORMALLY****
TOTAL RUN TIME: 0 days 0 hours 0 minutes 11 seconds 793 msec
