                         Program Version 6.0.0  -   RELEASE  -
|  1> ! wb97x-v def2-tzvp def2/J RIJCOSX DEFGRID2 scfconv7 GCP(DFT/TZ) printgap
|  2> %output
|  3>     printlevel normal
|  4> end
|  5> * xyz 0 1
|  6> C 1.5530766690834619 0.9219741959212499 -1.561891706735489
|  7> C 2.9253271019134126 1.022767690487974 -1.7297450437057242
|  8> C 3.7741617343884752 0.5023130631284081 -0.7623758079573001
|  9> C 3.2612600730632395 -0.11418441981174025 0.3836205665567055
| 10> C 1.8729314187488408 -0.20508520552534362 0.5360202393408489
| 11> C 1.0089017465955372 0.30240312224746396 -0.4384426064896566
| 12> C -0.4638544916888231 0.2190383684883057 -0.2874530713609232
| 13> C -1.1726908021720337 1.3599951247095534 0.07311402009346002
| 14> C -2.5516589651725528 1.3191916399000023 0.2123003816689484
| 15> C -3.2562942502556482 0.13367616395143994 -0.00836995166338085
| 16> C -2.5519289581692086 -1.0184301052462794 -0.38364810935334615
| 17> C -1.1619316224319198 -0.968105543253176 -0.5249797292001662
| 18> Cl -0.2858330066392862 -2.384809169936589 -1.0206353712524001
| 19> Cl -3.406382811199603 -2.4945480768130595 -0.6784014939894047
| 20> Cl -4.976097342890564 0.0856228641927832 0.17118219352147548
| 21> Cl -3.3883893471635793 2.7743334700330036 0.6702613676864871
| 22> Cl 1.2045587431675313 -0.9384996329300884 1.9660305032959926
| 23> Cl 4.32497795140241 -0.7464916909957178 1.5964348322505395
| 24> Cl 5.496144989813976 0.6338907809346749 -0.9952588045928839
| 25> H 0.887287424103228 1.3228708866966912 -2.3180997478428993
| 26> H 3.337953862809189 1.5015788316963734 -2.6097086935150786
| 27> H -0.6370855837966543 2.284547107896119 0.25392898460748337
| 28> *
| 29>
| 30>                          ****END OF INPUT****

CARTESIAN COORDINATES (ANGSTROEM)
---------------------------------
  C      1.553077    0.921974   -1.561892
  C      2.925327    1.022768   -1.729745
  C      3.774162    0.502313   -0.762376
  C      3.261260   -0.114184    0.383621
  C      1.872931   -0.205085    0.536020
  C      1.008902    0.302403   -0.438443
  C     -0.463854    0.219038   -0.287453
  C     -1.172691    1.359995    0.073114
  C     -2.551659    1.319192    0.212300
  C     -3.256294    0.133676   -0.008370
  C     -2.551929   -1.018430   -0.383648
  C     -1.161932   -0.968106   -0.524980
  Cl    -0.285833   -2.384809   -1.020635
  Cl    -3.406383   -2.494548   -0.678401
  Cl    -4.976097    0.085623    0.171182
  Cl    -3.388389    2.774333    0.670261
  Cl     1.204559   -0.938500    1.966031
  Cl     4.324978   -0.746492    1.596435
  Cl     5.496145    0.633891   -0.995259
  H      0.887287    1.322871   -2.318100
  H      3.337954    1.501579   -2.609709
  H     -0.637086    2.284547    0.253929

 Total Charge           Charge          ....    0
 Multiplicity           Mult            ....    1
 Number of Electrons    NEL             ....  194
 Basis Dimension        Dim             ....  649

ORBITAL ENERGIES
----------------

  NO   OCC          E(Eh)            E(eV)
   0   2.0000    -107.169182     -2916.2217
   1   2.0000    -107.168887     -2916.2137
   2   2.0000    -107.167689     -2916.1811
   3   2.0000    -107.167310     -2916.1708
   4   2.0000    -107.165944     -2916.1336
   5   2.0000    -107.165907     -2916.1326
   6   2.0000    -107.164673     -2916.0990
   7   2.0000     -12.158660      -330.8539
   8   2.0000     -12.156619      -330.7984
   9   2.0000     -12.153369      -330.7100
  10   2.0000     -12.152651      -330.6904
  11   2.0000     -12.151662      -330.6635
  12   2.0000     -12.151372      -330.6556
  13   2.0000     -12.149025      -330.5918
  14   2.0000     -12.111994      -329.5841
  15   2.0000     -12.107402      -329.4592
  16   2.0000     -12.098109      -329.2063
  17   2.0000     -12.093678      -329.0857
  18   2.0000     -12.091556      -329.0280
  19   2.0000     -11.322196      -308.0926
  20   2.0000     -11.321906      -308.0847
  21   2.0000     -11.320731      -308.0528
  22   2.0000     -11.320359      -308.0426
  23   2.0000     -11.319002      -308.0057
  24   2.0000     -11.318889      -308.0026
  25   2.0000     -11.317730      -307.9711
  26   2.0000      -9.114136      -248.0083
  27   2.0000      -9.113588      -247.9933
  28   2.0000      -9.112250      -247.9569
  29   2.0000      -9.111954      -247.9489
  30   2.0000      -9.111385      -247.9334
  31   2.0000      -9.111012      -247.9232
  32   2.0000      -9.110975      -247.9222
  33   2.0000      -9.110701      -247.9148
  34   2.0000      -9.110442      -247.9077
  35   2.0000      -9.110385      -247.9062
  36   2.0000      -9.109634      -247.8857
  37   2.0000      -9.109382      -247.8789
  38   2.0000      -9.109194      -247.8738
  39   2.0000      -9.109156      -247.8727
  40   2.0000      -9.108972      -247.8677
  41   2.0000      -9.108226      -247.8474
  42   2.0000      -9.107818      -247.8363
  43   2.0000      -9.107669      -247.8323
  44   2.0000      -9.107297      -247.8221
  45   2.0000      -9.106552      -247.8019
  46   2.0000      -9.106340      -247.7961
  47   2.0000      -1.497711       -40.7548
  48   2.0000      -1.486655       -40.4540
  49   2.0000      -1.461196       -39.7612
  50   2.0000      -1.449963       -39.4555
  51   2.0000      -1.444306       -39.3016
  52   2.0000      -1.430382       -38.9227
  53   2.0000      -1.428133       -38.8615
  54   2.0000      -1.405568       -38.2474
  55   2.0000      -1.387051       -37.7436
  56   2.0000      -1.331466       -36.2310
  57   2.0000      -1.301734       -35.4220
  58   2.0000      -1.298642       -35.3378
  59   2.0000      -1.284170       -34.9441
  60   2.0000      -1.181443       -32.1487
  61   2.0000      -1.155585       -31.4451
  62   2.0000      -1.150658       -31.3110
  63   2.0000      -1.129723       -30.7413
  64   2.0000      -1.043928       -28.4067
  65   2.0000      -1.031543       -28.0697
  66   2.0000      -1.025021       -27.8922
  67   2.0000      -1.004075       -27.3223
  68   2.0000      -0.989348       -26.9215
  69   2.0000      -0.971711       -26.4416
  70   2.0000      -0.957541       -26.0560
  71   2.0000      -0.954036       -25.9606
  72   2.0000      -0.943185       -25.6654
  73   2.0000      -0.927842       -25.2479
  74   2.0000      -0.902868       -24.5683
  75   2.0000      -0.895038       -24.3552
  76   2.0000      -0.889790       -24.2124
  77   2.0000      -0.880424       -23.9576
  78   2.0000      -0.876970       -23.8636
  79   2.0000      -0.847815       -23.0702
  80   2.0000      -0.836721       -22.7683
  81   2.0000      -0.833185       -22.6721
  82   2.0000      -0.824751       -22.4426
  83   2.0000      -0.823255       -22.4019
  84   2.0000      -0.823114       -22.3981
  85   2.0000      -0.821640       -22.3580
  86   2.0000      -0.820178       -22.3182
  87   2.0000      -0.815198       -22.1827
  88   2.0000      -0.814277       -22.1576
  89   2.0000      -0.807404       -21.9706
  90   2.0000      -0.806001       -21.9324
  91   2.0000      -0.787426       -21.4270
  92   2.0000      -0.781817       -21.2743
  93   2.0000      -0.698757       -19.0141
  94   2.0000      -0.688640       -18.7389
  95   2.0000      -0.683660       -18.6033
  96   2.0000      -0.683540       -18.6001
  97   0.0000      -0.344677        -9.3791
  98   0.0000      -0.330900        -9.0042
  99   0.0000      -0.322370        -8.7721
 100   0.0000      -0.311569        -8.4782
 101   0.0000      -0.304208        -8.2779

MULLIKEN ATOMIC CHARGES
-----------------------
   0 C :   -0.161972
   1 C :   -0.209961
   2 C :    0.098479
   3 C :   -0.012885
   4 C :    0.047269
   5 C :    0.072023
   6 C :    0.071883
   7 C :   -0.257405
   8 C :    0.093059
   9 C :    0.010208
  10 C :    0.004684
  11 C :    0.025717
  12 Cl:   -0.028063
  13 Cl:   -0.019476
  14 Cl:   -0.020727
  15 Cl:   -0.047540
  16 Cl:   -0.032305
  17 Cl:   -0.023185
  18 Cl:   -0.052180
  19 H :    0.145736
  20 H :    0.143456
  21 H :    0.153184
Sum of atomic charges:    0.0000000

LOEWDIN ATOMIC CHARGES
----------------------
   0 C :   -0.084811
   1 C :   -0.131173
   2 C :   -0.421440
   3 C :   -0.438156
   4 C :   -0.387664
   5 C :   -0.124564
   6 C :   -0.122351
   7 C :   -0.092608
   8 C :   -0.425490
   9 C :   -0.441428
  10 C :   -0.437190
  11 C :   -0.393965
  12 Cl:    0.446194
  13 Cl:    0.439258
  14 Cl:    0.438959
  15 Cl:    0.417672
  16 Cl:    0.442391
  17 Cl:    0.432870
  18 Cl:    0.411941
  19 H :    0.157254
  20 H :    0.153236
  21 H :    0.161064

  Mayer bond orders larger than 0.100000
B(  0-C ,  1-C ) :   1.4425 B(  0-C ,  5-C ) :   1.3853 B(  0-C , 19-H ) :   0.9669
B(  1-C ,  2-C ) :   1.4015 B(  1-C , 20-H ) :   0.9625 B(  2-C ,  3-C ) :   1.3154
B(  2-C , 18-Cl) :   1.0901 B(  3-C ,  4-C ) :   1.3282 B(  3-C , 17-Cl) :   1.2158
B(  4-C ,  5-C ) :   1.3151 B(  4-C , 16-Cl) :   1.2030 B(  5-C ,  6-C ) :   0.8163
B(  6-C ,  7-C ) :   1.3941 B(  6-C , 11-C ) :   1.3113 B(  7-C ,  8-C ) :   1.4062
B(  7-C , 21-H ) :   0.9632 B(  8-C ,  9-C ) :   1.3281 B(  8-C , 15-Cl) :   1.0767
B(  9-C , 10-C ) :   1.3139 B(  9-C , 14-Cl) :   1.2121 B( 10-C , 11-C ) :   1.3370
B( 10-C , 13-Cl) :   1.2146 B( 11-C , 12-Cl) :   1.2133

FINAL SINGLE POINT ENERGY     -3680.130280641780

DIPOLE MOMENT
-------------

Method             : SCF
Type of density    : Electron Density
Multiplicity       :   1
Irrep              :   0
Energy             : -3680.1413174151798557 Eh
Relativity type    :
Basis              : AO
                                X                 Y                 Z
Electronic contribution:     -4.732334973      -7.242410949       6.027981058
Nuclear contribution   :      4.849170065       7.882893320      -6.647150700
                        -----------------------------------------
Total Dipole Moment    :      0.116835092       0.640482372      -0.619169642
                        -----------------------------------------
Magnitude (a.u.)       :      0.898464887
Magnitude (Debye)      :      2.283716252

Rotational constants in cm-1:             0.013100             0.003566             0.003266
Rotational constants in MHz :           392.739735           106.891039            97.918581

                             ****ORCA TERMINATED NORMALLY****
TOTAL RUN TIME: 0 days 0 hours 11 minutes 47 seconds 615 msec
