                         Program Version 6.0.0  -   RELEASE  -
|  1> ! wb97x-v def2-tzvp def2/J RIJCOSX DEFGRID2 scfconv7 GCP(DFT/TZ) printgap
|  2> %output
|  3>     printlevel normal
|  4> end
|  5> %cpcm
|  6>     smd true
|  7>     smdsolvent "water"
|  8> end
|  9> * xyz 0 1
| 10> C 1.5530766690834619 0.9219741959212499 -1.561891706735489
| 11> C 2.9253271019134126 1.022767690487974 -1.7297450437057242
| 12> C 3.7741617343884752 0.5023130631284081 -0.7623758079573001
| 13> C 3.2612600730632395 -0.11418441981174025 0.3836205665567055
| 14> C 1.8729314187488408 -0.20508520552534362 0.5360202393408489
| 15> C 1.0089017465955372 0.30240312224746396 -0.4384426064896566
| 16> C -0.4638544916888231 0.2190383684883057 -0.2874530713609232
| 17> C -1.1726908021720337 1.3599951247095534 0.07311402009346002
| 18> C -2.5516589651725528 1.3191916399000023 0.2123003816689484
| 19> C -3.2562942502556482 0.13367616395143994 -0.00836995166338085
| 20> C -2.5519289581692086 -1.0184301052462794 -0.38364810935334615
| 21> C -1.1619316224319198 -0.968105543253176 -0.5249797292001662
| 22> Cl -0.2858330066392862 -2.384809169936589 -1.0206353712524001
| 23> Cl -3.406382811199603 -2.4945480768130595 -0.6784014939894047
| 24> Cl -4.976097342890564 0.0856228641927832 0.17118219352147548
| 25> Cl -3.3883893471635793 2.7743334700330036 0.6702613676864871
| 26> Cl 1.2045587431675313 -0.9384996329300884 1.9660305032959926
| 27> Cl 4.32497795140241 -0.7464916909957178 1.5964348322505395
| 28> Cl 5.496144989813976 0.6338907809346749 -0.9952588045928839
| 29> H 0.887287424103228 1.3228708866966912 -2.3180997478428993
| 30> H 3.337953862809189 1.5015788316963734 -2.6097086935150786
| 31> H -0.6370855837966543 2.284547107896119 0.25392898460748337
| 32> *
| 33>
| 34>                          ****END OF INPUT****

CARTESIAN COORDINATES (ANGSTROEM)
---------------------------------
  C      1.553077    0.921974   -1.561892
  C      2.925327    1.022768   -1.729745
  C      3.774162    0.502313   -0.762376
  C      3.261260   -0.114184    0.383621
  C      1.872931   -0.205085    0.536020
  C      1.008902    0.302403   -0.438443
  C     -0.463854    0.219038   -0.287453
  C     -1.172691    1.359995    0.073114
  C     -2.551659    1.319192    0.212300
  C     -3.256294    0.133676   -0.008370
  C     -2.551929   -1.018430   -0.383648
  C     -1.161932   -0.968106   -0.524980
  Cl    -0.285833   -2.384809   -1.020635
  Cl    -3.406383   -2.494548   -0.678401
  Cl    -4.976097    0.085623    0.171182
  Cl    -3.388389    2.774333    0.670261
  Cl     1.204559   -0.938500    1.966031
  Cl     4.324978   -0.746492    1.596435
  Cl     5.496145    0.633891   -0.995259
  H      0.887287    1.322871   -2.318100
  H      3.337954    1.501579   -2.609709
  H     -0.637086    2.284547    0.253929

 Total Charge           Charge          ....    0
 Multiplicity           Mult            ....    1
 Number of Electrons    NEL             ....  194
 Basis Dimension        Dim             ....  649

ORBITAL ENERGIES
----------------

  NO   OCC          E(Eh)            E(eV)
   0   2.0000    -107.167256     -2916.1693
   1   2.0000    -107.167110     -2916.1653
   2   2.0000    -107.164163     -2916.0851
   3   2.0000    -107.164014     -2916.0811
   4   2.0000    -107.162971     -2916.0527
   5   2.0000    -107.162248     -2916.0330
   6   2.0000    -107.160081     -2915.9741
   7   2.0000     -12.151861      -330.6689
   8   2.0000     -12.149768      -330.6120
   9   2.0000     -12.145409      -330.4934
  10   2.0000     -12.144819      -330.4773
  11   2.0000     -12.143116      -330.4310
  12   2.0000     -12.142398      -330.4114
  13   2.0000     -12.139048      -330.3203
  14   2.0000     -12.101868      -329.3086
  15   2.0000     -12.095833      -329.1444
  16   2.0000     -12.085191      -328.8548
  17   2.0000     -12.077561      -328.6471
  18   2.0000     -12.075413      -328.5887
  19   2.0000     -11.320323      -308.0417
  20   2.0000     -11.320179      -308.0377
  21   2.0000     -11.317264      -307.9584
  22   2.0000     -11.317077      -307.9533
  23   2.0000     -11.316055      -307.9255
  24   2.0000     -11.315376      -307.9070
  25   2.0000     -11.313207      -307.8480
  26   2.0000      -9.112283      -247.9578
  27   2.0000      -9.111674      -247.9412
  28   2.0000      -9.109583      -247.8844
  29   2.0000      -9.109159      -247.8728
  30   2.0000      -9.108999      -247.8685
  31   2.0000      -9.108908      -247.8660
  32   2.0000      -9.108841      -247.8642
  33   2.0000      -9.108562      -247.8566
  34   2.0000      -9.107620      -247.8309
  35   2.0000      -9.107020      -247.8146
  36   2.0000      -9.106198      -247.7922
  37   2.0000      -9.106032      -247.7877
  38   2.0000      -9.105973      -247.7861
  39   2.0000      -9.105906      -247.7843
  40   2.0000      -9.104882      -247.7564
  41   2.0000      -9.104830      -247.7550
  42   2.0000      -9.104751      -247.7529
  43   2.0000      -9.104218      -247.7384
  44   2.0000      -9.104044      -247.7336
  45   2.0000      -9.102072      -247.6800
  46   2.0000      -9.101978      -247.6774
  47   2.0000      -1.491872       -40.5959
  48   2.0000      -1.480215       -40.2787
  49   2.0000      -1.456767       -39.6406
  50   2.0000      -1.444869       -39.3169
  51   2.0000      -1.439884       -39.1812
  52   2.0000      -1.426825       -38.8259
  53   2.0000      -1.425311       -38.7847
  54   2.0000      -1.397230       -38.0206
  55   2.0000      -1.378614       -37.5140
  56   2.0000      -1.322927       -35.9987
  57   2.0000      -1.291150       -35.1340
  58   2.0000      -1.290139       -35.1065
  59   2.0000      -1.275316       -34.7031
  60   2.0000      -1.172128       -31.8952
  61   2.0000      -1.146477       -31.1972
  62   2.0000      -1.139826       -31.0162
  63   2.0000      -1.120416       -30.4881
  64   2.0000      -1.035161       -28.1682
  65   2.0000      -1.022838       -27.8328
  66   2.0000      -1.013556       -27.5803
  67   2.0000      -0.997239       -27.1363
  68   2.0000      -0.982600       -26.7379
  69   2.0000      -0.965454       -26.2713
  70   2.0000      -0.951846       -25.9010
  71   2.0000      -0.947364       -25.7791
  72   2.0000      -0.934128       -25.4189
  73   2.0000      -0.919957       -25.0333
  74   2.0000      -0.890895       -24.2425
  75   2.0000      -0.883243       -24.0343
  76   2.0000      -0.881711       -23.9926
  77   2.0000      -0.870574       -23.6895
  78   2.0000      -0.865690       -23.5566
  79   2.0000      -0.843858       -22.9625
  80   2.0000      -0.832579       -22.6556
  81   2.0000      -0.829852       -22.5814
  82   2.0000      -0.822935       -22.3932
  83   2.0000      -0.821321       -22.3493
  84   2.0000      -0.820610       -22.3299
  85   2.0000      -0.818891       -22.2831
  86   2.0000      -0.817269       -22.2390
  87   2.0000      -0.811307       -22.0768
  88   2.0000      -0.810176       -22.0460
  89   2.0000      -0.805163       -21.9096
  90   2.0000      -0.803096       -21.8534
  91   2.0000      -0.779536       -21.2123
  92   2.0000      -0.774747       -21.0819
  93   2.0000      -0.690129       -18.7794
  94   2.0000      -0.680607       -18.5203
  95   2.0000      -0.674165       -18.3450
  96   2.0000      -0.672520       -18.3002
  97   0.0000      -0.339568        -9.2401
  98   0.0000      -0.324730        -8.8364
  99   0.0000      -0.313306        -8.5255
 100   0.0000      -0.301659        -8.2086
 101   0.0000      -0.293795        -7.9946

MULLIKEN ATOMIC CHARGES
-----------------------
   0 C :   -0.194893
   1 C :   -0.229397
   2 C :    0.110779
   3 C :   -0.004281
   4 C :    0.042954
   5 C :    0.098243
   6 C :    0.091788
   7 C :   -0.263860
   8 C :    0.099837
   9 C :    0.024088
  10 C :    0.013813
  11 C :    0.023576
  12 Cl:   -0.046667
  13 Cl:   -0.039176
  14 Cl:   -0.040295
  15 Cl:   -0.062722
  16 Cl:   -0.054632
  17 Cl:   -0.047205
  18 Cl:   -0.072399
  19 H :    0.182996
  20 H :    0.180368
  21 H :    0.187083
Sum of atomic charges:    0.0000000

LOEWDIN ATOMIC CHARGES
----------------------
   0 C :   -0.068232
   1 C :   -0.120528
   2 C :   -0.423572
   3 C :   -0.441465
   4 C :   -0.389783
   5 C :   -0.119151
   6 C :   -0.114037
   7 C :   -0.074079
   8 C :   -0.422958
   9 C :   -0.439871
  10 C :   -0.436581
  11 C :   -0.391789
  12 Cl:    0.434181
  13 Cl:    0.425706
  14 Cl:    0.425860
  15 Cl:    0.407133
  16 Cl:    0.427067
  17 Cl:    0.415439
  18 Cl:    0.397265
  19 H :    0.170640
  20 H :    0.164821
  21 H :    0.173937

  Mayer bond orders larger than 0.100000
B(  0-C ,  1-C ) :   1.4412 B(  0-C ,  5-C ) :   1.3756 B(  0-C , 19-H ) :   0.9730
B(  1-C ,  2-C ) :   1.3713 B(  1-C , 20-H ) :   0.9645 B(  2-C ,  3-C ) :   1.3137
B(  2-C , 18-Cl) :   1.0724 B(  3-C ,  4-C ) :   1.3325 B(  3-C , 17-Cl) :   1.1853
B(  4-C ,  5-C ) :   1.3062 B(  4-C , 16-Cl) :   1.1755 B(  5-C ,  6-C ) :   0.8095
B(  6-C ,  7-C ) :   1.4106 B(  6-C , 11-C ) :   1.3034 B(  7-C ,  8-C ) :   1.3852
B(  7-C , 21-H ) :   0.9631 B(  8-C ,  9-C ) :   1.3260 B(  8-C , 15-Cl) :   1.0726
B(  9-C , 10-C ) :   1.3207 B(  9-C , 14-Cl) :   1.1848 B( 10-C , 11-C ) :   1.3405
B( 10-C , 13-Cl) :   1.1883 B( 11-C , 12-Cl) :   1.1865

FINAL SINGLE POINT ENERGY     -3680.131628145235

DIPOLE MOMENT
-------------

Method             : SCF
Type of density    : Electron Density
Multiplicity       :   1
Irrep              :   0
Energy             : -3680.1426649186355462 Eh
Relativity type    :
Basis              : AO
                                X                 Y                 Z
Electronic contribution:     -4.694980038      -6.715814236       5.617598746
Nuclear contribution   :      4.849170065       7.882893320      -6.647150700
                        -----------------------------------------
Total Dipole Moment    :      0.154190027       1.167079085      -1.029551954
                        -----------------------------------------
Magnitude (a.u.)       :      1.563913482
Magnitude (Debye)      :      3.975152161

Rotational constants in cm-1:             0.013100             0.003566             0.003266
Rotational constants in MHz :           392.739735           106.891039            97.918581

                             ****ORCA TERMINATED NORMALLY****
TOTAL RUN TIME: 0 days 0 hours 12 minutes 12 seconds 699 msec
