                         Program Version 6.0.0  -   RELEASE  -
|  1> ! wb97x-v def2-tzvp def2/J RIJCOSX DEFGRID2 scfconv7 GCP(DFT/TZ) printgap
|  2> %output
|  3>     printlevel normal
|  4> end
|  5> * xyz 0 1
|  6> C -1.4235169735319204 -1.2204276754791725 -7.38861930197281e-05
|  7> C -0.05033169050978577 -1.2193736145501912 -2.8857732872157927e-05
|  8> C 0.6438236692397208 -1.0726871358191619e-05 0.0001376033341376393
|  9> C -0.05032804543509097 1.219353668926975 2.7990854001229937e-05
| 10> C -1.4235086868325522 1.2204194008609464 -1.4614149308704314e-05
| 11> C -2.144111617534591 -6.851376517252333e-07 -4.600531814044613e-05
| 12> N -3.489865380231636 7.351281263910334e-06 -4.54300442976629e-05
| 13> N 2.067226558748896 2.130105977671647e-05 0.0004455915777721471
| 14> O 2.672670300174903 1.0875488354625142 -0.0002743551037399097
| 15> O 2.672726445688568 -1.0875228127651626 -0.0002776395166695855
| 16> H -1.9699863514182165 -2.1580847903127482 -8.308570133778567e-05
| 17> H 0.49629625278923506 -2.1540643308925564 -2.0445523216037172e-05
| 18> H 0.49629784044908143 2.1540362840816742 8.26055130936928e-05
| 19> H -1.9699689478109441 2.1580798253365527 2.5522317737082227e-05
| 20> H -4.002678893351655 -0.8671810596826247 -6.691994956113662e-05
| 21> H -4.002668054645683 0.8672020273536836 -2.7110855213258954e-05
| 22> *
| 23>
| 24>                          ****END OF INPUT****

CARTESIAN COORDINATES (ANGSTROEM)
---------------------------------
  C     -1.423517   -1.220428   -0.000074
  C     -0.050332   -1.219374   -0.000029
  C      0.643824   -0.000011    0.000138
  C     -0.050328    1.219354    0.000028
  C     -1.423509    1.220419   -0.000015
  C     -2.144112   -0.000001   -0.000046
  N     -3.489865    0.000007   -0.000045
  N      2.067227    0.000021    0.000446
  O      2.672670    1.087549   -0.000274
  O      2.672726   -1.087523   -0.000278
  H     -1.969986   -2.158085   -0.000083
  H      0.496296   -2.154064   -0.000020
  H      0.496298    2.154036    0.000083
  H     -1.969969    2.158080    0.000026
  H     -4.002679   -0.867181   -0.000067
  H     -4.002668    0.867202   -0.000027

 Total Charge           Charge          ....    0
 Multiplicity           Mult            ....    1
 Number of Electrons    NEL             ....   72
 Basis Dimension        Dim             ....  346

ORBITAL ENERGIES
----------------

  NO   OCC          E(Eh)            E(eV)
   0   2.0000     -21.687728      -590.1531
   1   2.0000     -21.687592      -590.1494
   2   2.0000     -16.756742      -455.9741
   3   2.0000     -16.568341      -450.8475
   4   2.0000     -12.131417      -330.1126
   5   2.0000     -12.100104      -329.2606
   6   2.0000     -12.082285      -328.7757
   7   2.0000     -12.081794      -328.7623
   8   2.0000     -12.069212      -328.4200
   9   2.0000     -12.068866      -328.4105
  10   2.0000      -1.870529       -50.8997
  11   2.0000      -1.714607       -46.6568
  12   2.0000      -1.538354       -41.8608
  13   2.0000      -1.431192       -38.9447
  14   2.0000      -1.360282       -37.0152
  15   2.0000      -1.306848       -35.5611
  16   2.0000      -1.254652       -34.1408
  17   2.0000      -1.170746       -31.8576
  18   2.0000      -1.150068       -31.2949
  19   2.0000      -1.113686       -30.3049
  20   2.0000      -1.105501       -30.0822
  21   2.0000      -1.051734       -28.6191
  22   2.0000      -1.049973       -28.5712
  23   2.0000      -1.048799       -28.5393
  24   2.0000      -0.965949       -26.2848
  25   2.0000      -0.929994       -25.3064
  26   2.0000      -0.916665       -24.9437
  27   2.0000      -0.906215       -24.6594
  28   2.0000      -0.891693       -24.2642
  29   2.0000      -0.883178       -24.0325
  30   2.0000      -0.872952       -23.7542
  31   2.0000      -0.861766       -23.4499
  32   2.0000      -0.831183       -22.6176
  33   2.0000      -0.779932       -21.2230
  34   2.0000      -0.671683       -18.2774
  35   2.0000      -0.652295       -17.7499
  36   0.0000      -0.468910       -12.7597
  37   0.0000      -0.259118        -7.0510
  38   0.0000      -0.255923        -6.9640
  39   0.0000      -0.214443        -5.8353
  40   0.0000      -0.115734        -3.1493

MULLIKEN ATOMIC CHARGES
-----------------------
   0 C :   -0.199714
   1 C :   -0.149757
   2 C :    0.012874
   3 C :   -0.149715
   4 C :   -0.199719
   5 C :    0.294120
   6 N :   -0.419993
   7 N :    0.438332
   8 O :   -0.334157
   9 O :   -0.334168
  10 H :    0.117621
  11 H :    0.162978
  12 H :    0.162987
  13 H :    0.117655
  14 H :    0.240333
  15 H :    0.240325
Sum of atomic charges:   -0.0000000

LOEWDIN ATOMIC CHARGES
----------------------
   0 C :   -0.130748
   1 C :   -0.082773
   2 C :   -0.197742
   3 C :   -0.082776
   4 C :   -0.130748
   5 C :   -0.223238
   6 N :    0.011939
   7 N :    0.010445
   8 O :   -0.060630
   9 O :   -0.060686
  10 H :    0.143678
  11 H :    0.159390
  12 H :    0.159388
  13 H :    0.143677
  14 H :    0.170413
  15 H :    0.170413

  Mayer bond orders larger than 0.100000
B(  0-C ,  1-C ) :   1.5365 B(  0-C ,  5-C ) :   1.3160 B(  0-C , 10-H ) :   0.9598
B(  1-C ,  2-C ) :   1.3959 B(  1-C , 11-H ) :   0.9285 B(  2-C ,  3-C ) :   1.3958
B(  2-C ,  7-N ) :   1.0491 B(  3-C ,  4-C ) :   1.5365 B(  3-C , 12-H ) :   0.9285
B(  4-C ,  5-C ) :   1.3161 B(  4-C , 13-H ) :   0.9597 B(  5-C ,  6-N ) :   1.1968
B(  6-N , 14-H ) :   0.9185 B(  6-N , 15-H ) :   0.9185 B(  7-N ,  8-O ) :   1.6168
B(  7-N ,  9-O ) :   1.6169 B(  8-O ,  9-O ) :   0.1809

FINAL SINGLE POINT ENERGY      -492.143723484849

DIPOLE MOMENT
-------------

Method             : SCF
Type of density    : Electron Density
Multiplicity       :   1
Irrep              :   0
Energy             :  -492.1524213073494138 Eh
Relativity type    :
Basis              : AO
                                X                 Y                 Z
Electronic contribution:      7.120392903       0.000085048       0.000452610
Nuclear contribution   :    -10.250700488      -0.000024282       0.000045165
                        -----------------------------------------
Total Dipole Moment    :     -3.130307585       0.000060766       0.000497775
                        -----------------------------------------
Magnitude (a.u.)       :      3.130307625
Magnitude (Debye)      :      7.956609661

Rotational constants in cm-1:             0.130074             0.027701             0.022837
Rotational constants in MHz :          3899.512033           830.440476           684.639576

                             ****ORCA TERMINATED NORMALLY****
TOTAL RUN TIME: 0 days 0 hours 3 minutes 25 seconds 366 msec
