                         Program Version 6.0.0  -   RELEASE  -
|  1> ! wb97x-v def2-tzvp def2/J RIJCOSX DEFGRID2 scfconv7 GCP(DFT/TZ) printgap
|  2> %output
|  3>     printlevel normal
|  4> end
|  5> %cpcm
|  6>     smd true
|  7>     smdsolvent "water"
|  8> end
|  9> * xyz 0 1
| 10> C -1.4235169735319204 -1.2204276754791725 -7.38861930197281e-05
| 11> C -0.05033169050978577 -1.2193736145501912 -2.8857732872157927e-05
| 12> C 0.6438236692397208 -1.0726871358191619e-05 0.0001376033341376393
| 13> C -0.05032804543509097 1.219353668926975 2.7990854001229937e-05
| 14> C -1.4235086868325522 1.2204194008609464 -1.4614149308704314e-05
| 15> C -2.144111617534591 -6.851376517252333e-07 -4.600531814044613e-05
| 16> N -3.489865380231636 7.351281263910334e-06 -4.54300442976629e-05
| 17> N 2.067226558748896 2.130105977671647e-05 0.0004455915777721471
| 18> O 2.672670300174903 1.0875488354625142 -0.0002743551037399097
| 19> O 2.672726445688568 -1.0875228127651626 -0.0002776395166695855
| 20> H -1.9699863514182165 -2.1580847903127482 -8.308570133778567e-05
| 21> H 0.49629625278923506 -2.1540643308925564 -2.0445523216037172e-05
| 22> H 0.49629784044908143 2.1540362840816742 8.26055130936928e-05
| 23> H -1.9699689478109441 2.1580798253365527 2.5522317737082227e-05
| 24> H -4.002678893351655 -0.8671810596826247 -6.691994956113662e-05
| 25> H -4.002668054645683 0.8672020273536836 -2.7110855213258954e-05
| 26> *
| 27>
| 28>                          ****END OF INPUT****

CARTESIAN COORDINATES (ANGSTROEM)
---------------------------------
  C     -1.423517   -1.220428   -0.000074
  C     -0.050332   -1.219374   -0.000029
  C      0.643824   -0.000011    0.000138
  C     -0.050328    1.219354    0.000028
  C     -1.423509    1.220419   -0.000015
  C     -2.144112   -0.000001   -0.000046
  N     -3.489865    0.000007   -0.000045
  N      2.067227    0.000021    0.000446
  O      2.672670    1.087549   -0.000274
  O      2.672726   -1.087523   -0.000278
  H     -1.969986   -2.158085   -0.000083
  H      0.496296   -2.154064   -0.000020
  H      0.496298    2.154036    0.000083
  H     -1.969969    2.158080    0.000026
  H     -4.002679   -0.867181   -0.000067
  H     -4.002668    0.867202   -0.000027

 Total Charge           Charge          ....    0
 Multiplicity           Mult            ....    1
 Number of Electrons    NEL             ....   72
 Basis Dimension        Dim             ....  346

ORBITAL ENERGIES
----------------

  NO   OCC          E(Eh)            E(eV)
   0   2.0000     -21.706314      -590.6588
   1   2.0000     -21.706184      -590.6553
   2   2.0000     -16.774773      -456.4648
   3   2.0000     -16.543258      -450.1649
   4   2.0000     -12.119233      -329.7811
   5   2.0000     -12.095754      -329.1422
   6   2.0000     -12.074649      -328.5679
   7   2.0000     -12.074193      -328.5555
   8   2.0000     -12.054795      -328.0277
   9   2.0000     -12.054446      -328.0181
  10   2.0000      -1.890385       -51.4400
  11   2.0000      -1.735368       -47.2218
  12   2.0000      -1.514581       -41.2138
  13   2.0000      -1.433231       -39.0002
  14   2.0000      -1.356716       -36.9181
  15   2.0000      -1.296338       -35.2752
  16   2.0000      -1.251806       -34.0634
  17   2.0000      -1.178435       -32.0668
  18   2.0000      -1.150581       -31.3089
  19   2.0000      -1.123504       -30.5721
  20   2.0000      -1.096959       -29.8498
  21   2.0000      -1.071112       -29.1464
  22   2.0000      -1.034598       -28.1528
  23   2.0000      -1.026792       -27.9404
  24   2.0000      -0.951802       -25.8998
  25   2.0000      -0.927367       -25.2349
  26   2.0000      -0.916867       -24.9492
  27   2.0000      -0.907981       -24.7074
  28   2.0000      -0.899126       -24.4665
  29   2.0000      -0.890566       -24.2335
  30   2.0000      -0.888911       -24.1885
  31   2.0000      -0.841461       -22.8973
  32   2.0000      -0.817622       -22.2486
  33   2.0000      -0.771240       -20.9865
  34   2.0000      -0.662484       -18.0271
  35   2.0000      -0.643587       -17.5129
  36   0.0000      -0.480786       -13.0829
  37   0.0000      -0.251534        -6.8446
  38   0.0000      -0.244401        -6.6505
  39   0.0000      -0.229193        -6.2367
  40   0.0000      -0.129194        -3.5155

MULLIKEN ATOMIC CHARGES
-----------------------
   0 C :   -0.265174
   1 C :   -0.151726
   2 C :    0.059973
   3 C :   -0.151698
   4 C :   -0.265158
   5 C :    0.255348
   6 N :   -0.422393
   7 N :    0.492677
   8 O :   -0.418706
   9 O :   -0.418737
  10 H :    0.170889
  11 H :    0.179591
  12 H :    0.179599
  13 H :    0.170921
  14 H :    0.292300
  15 H :    0.292293
Sum of atomic charges:   -0.0000000

LOEWDIN ATOMIC CHARGES
----------------------
   0 C :   -0.123107
   1 C :   -0.087557
   2 C :   -0.211732
   3 C :   -0.087558
   4 C :   -0.123107
   5 C :   -0.214854
   6 N :    0.041449
   7 N :    0.015920
   8 O :   -0.116059
   9 O :   -0.116130
  10 H :    0.159318
  11 H :    0.163399
  12 H :    0.163397
  13 H :    0.159317
  14 H :    0.188652
  15 H :    0.188652

  Mayer bond orders larger than 0.100000
B(  0-C ,  1-C ) :   1.5587 B(  0-C ,  5-C ) :   1.2842 B(  0-C , 10-H ) :   0.9662
B(  1-C ,  2-C ) :   1.3010 B(  1-C , 11-H ) :   0.9437 B(  2-C ,  3-C ) :   1.3010
B(  2-C ,  7-N ) :   1.0967 B(  3-C ,  4-C ) :   1.5587 B(  3-C , 12-H ) :   0.9437
B(  4-C ,  5-C ) :   1.2843 B(  4-C , 13-H ) :   0.9661 B(  5-C ,  6-N ) :   1.2911
B(  6-N , 14-H ) :   0.8909 B(  6-N , 15-H ) :   0.8909 B(  7-N ,  8-O ) :   1.5553
B(  7-N ,  9-O ) :   1.5553 B(  8-O ,  9-O ) :   0.1511

FINAL SINGLE POINT ENERGY      -492.159722431493

DIPOLE MOMENT
-------------

Method             : SCF
Type of density    : Electron Density
Multiplicity       :   1
Irrep              :   0
Energy             :  -492.1684202539930197 Eh
Relativity type    :
Basis              : AO
                                X                 Y                 Z
Electronic contribution:      5.655205809       0.000133943       0.000643317
Nuclear contribution   :    -10.250700488      -0.000024282       0.000045165
                        -----------------------------------------
Total Dipole Moment    :     -4.595494678       0.000109661       0.000688482
                        -----------------------------------------
Magnitude (a.u.)       :      4.595494731
Magnitude (Debye)      :     11.680819317

Rotational constants in cm-1:             0.130074             0.027701             0.022837
Rotational constants in MHz :          3899.512033           830.440476           684.639576

                             ****ORCA TERMINATED NORMALLY****
TOTAL RUN TIME: 0 days 0 hours 3 minutes 37 seconds 325 msec
