                         Program Version 6.0.0  -   RELEASE  -
|  1> ! pbe def2-sv(p) def2/J RI DEFGRID1 loosescf d4 GCP(DFT/SV(P)) printgap
|  2> %output
|  3>     printlevel normal
|  4> end
|  5> * xyz 0 1
|  6> C -2.2106842671 -1.0334415239 -0.4207663563
|  7> C -1.1661815908 -0.2387361544 0.3820254131
|  8> H -1.6589745072 0.1297376921 1.2920060985
|  9> C -0.6105480118 0.954897863 -0.4046229457
| 10> H -0.4876975636 0.7028345788 -1.4646069095
| 11> C 0.7611163733 1.3341772136 0.1779372011
| 12> H 0.6581962953 1.4976379532 1.263696792
| 13> C 1.7520693327 0.1811191332 -0.0437460532
| 14> H 2.125850001 0.2508125086 -1.0771141193
| 15> C 1.0554187276 -1.1862591423 0.1367540874
| 16> H 1.6995975551 -1.8161384798 0.761204615
| 17> O -0.1332916625 -1.0931832383 0.8783980384
| 18> O 0.890838308 -1.8752661112 -1.0626719521
| 19> O 2.8254332684 0.2344388081 0.8589175172
| 20> O 1.2783986065 2.4874599071 -0.438358636
| 21> O -1.4820760142 2.054452856 -0.4054367237
| 22> O -2.9400435219 -1.9101507238 0.3998207636
| 23> H -1.7178400537 -1.5885848655 -1.2281006296
| 24> H -2.9355545314 -0.3375054016 -0.8487064628
| 25> H 0.5776926894 -1.2922541501 -1.7699427981
| 26> H 3.2856262456 1.0810890558 0.7523412067
| 27> H 0.5413653582 3.089076753 -0.6333941071
| 28> H -1.7535089593 2.2684790571 0.500102568
| 29> H -2.3166555525 -2.5022035703 0.8455633874
| 30> *
| 31>
| 32>                          ****END OF INPUT****

CARTESIAN COORDINATES (ANGSTROEM)
---------------------------------
  C     -2.210684   -1.033442   -0.420766
  C     -1.166182   -0.238736    0.382025
  H     -1.658975    0.129738    1.292006
  C     -0.610548    0.954898   -0.404623
  H     -0.487698    0.702835   -1.464607
  C      0.761116    1.334177    0.177937
  H      0.658196    1.497638    1.263697
  C      1.752069    0.181119   -0.043746
  H      2.125850    0.250813   -1.077114
  C      1.055419   -1.186259    0.136754
  H      1.699598   -1.816138    0.761205
  O     -0.133292   -1.093183    0.878398
  O      0.890838   -1.875266   -1.062672
  O      2.825433    0.234439    0.858918
  O      1.278399    2.487460   -0.438359
  O     -1.482076    2.054453   -0.405437
  O     -2.940044   -1.910151    0.399821
  H     -1.717840   -1.588585   -1.228101
  H     -2.935555   -0.337505   -0.848706
  H      0.577693   -1.292254   -1.769943
  H      3.285626    1.081089    0.752341
  H      0.541365    3.089077   -0.633394
  H     -1.753509    2.268479    0.500103
  H     -2.316656   -2.502204    0.845563

 Total Charge           Charge          ....    0
 Multiplicity           Mult            ....    1
 Number of Electrons    NEL             ....   96
 Basis Dimension        Dim             ....  192

ORBITAL ENERGIES
----------------

  NO   OCC          E(Eh)            E(eV)
   0   2.0000     -18.783593      -511.1275
   1   2.0000     -18.774450      -510.8788
   2   2.0000     -18.768631      -510.7204
   3   2.0000     -18.759613      -510.4750
   4   2.0000     -18.757853      -510.4271
   5   2.0000     -18.746271      -510.1120
   6   2.0000      -9.989863      -271.8380
   7   2.0000      -9.964037      -271.1352
   8   2.0000      -9.954777      -270.8833
   9   2.0000      -9.950147      -270.7573
  10   2.0000      -9.949794      -270.7477
  11   2.0000      -9.935326      -270.3540
  12   2.0000      -0.986617       -26.8472
  13   2.0000      -0.965371       -26.2691
  14   2.0000      -0.941612       -25.6226
  15   2.0000      -0.927459       -25.2374
  16   2.0000      -0.924750       -25.1637
  17   2.0000      -0.914591       -24.8873
  18   2.0000      -0.717402       -19.5215
  19   2.0000      -0.697680       -18.9848
  20   2.0000      -0.624730       -16.9998
  21   2.0000      -0.604450       -16.4479
  22   2.0000      -0.570334       -15.5196
  23   2.0000      -0.544846       -14.8260
  24   2.0000      -0.511290       -13.9129
  25   2.0000      -0.499444       -13.5906
  26   2.0000      -0.483693       -13.1620
  27   2.0000      -0.468001       -12.7350
  28   2.0000      -0.438694       -11.9375
  29   2.0000      -0.433801       -11.8043
  30   2.0000      -0.422315       -11.4918
  31   2.0000      -0.415108       -11.2957
  32   2.0000      -0.402280       -10.9466
  33   2.0000      -0.385157       -10.4807
  34   2.0000      -0.376030       -10.2323
  35   2.0000      -0.349233        -9.5031
  36   2.0000      -0.339019        -9.2252
  37   2.0000      -0.316730        -8.6187
  38   2.0000      -0.310002        -8.4356
  39   2.0000      -0.304505        -8.2860
  40   2.0000      -0.294948        -8.0259
  41   2.0000      -0.275466        -7.4958
  42   2.0000      -0.262597        -7.1456
  43   2.0000      -0.252189        -6.8624
  44   2.0000      -0.243298        -6.6205
  45   2.0000      -0.227683        -6.1956
  46   2.0000      -0.225287        -6.1304
  47   2.0000      -0.206717        -5.6251
  48   0.0000      -0.004327        -0.1178
  49   0.0000       0.010956         0.2981
  50   0.0000       0.026517         0.7216
  51   0.0000       0.038497         1.0476
  52   0.0000       0.053875         1.4660

MULLIKEN ATOMIC CHARGES
-----------------------
   0 C :    0.093663
   1 C :    0.025701
   2 H :    0.059561
   3 C :   -0.035585
   4 H :    0.052036
   5 C :    0.076033
   6 H :    0.048095
   7 C :    0.039290
   8 H :    0.062931
   9 C :    0.208618
  10 H :    0.086417
  11 O :   -0.313788
  12 O :   -0.399216
  13 O :   -0.412836
  14 O :   -0.421119
  15 O :   -0.409762
  16 O :   -0.434490
  17 H :    0.060420
  18 H :    0.087641
  19 H :    0.304250
  20 H :    0.310728
  21 H :    0.302301
  22 H :    0.306577
  23 H :    0.302532
Sum of atomic charges:    0.0000000

LOEWDIN ATOMIC CHARGES
----------------------
   0 C :   -0.133261
   1 C :   -0.079902
   2 H :    0.113739
   3 C :   -0.087802
   4 H :    0.108052
   5 C :   -0.085691
   6 H :    0.103474
   7 C :   -0.078632
   8 H :    0.104871
   9 C :    0.002113
  10 H :    0.122219
  11 O :   -0.146601
  12 O :   -0.299605
  13 O :   -0.313407
  14 O :   -0.328541
  15 O :   -0.301560
  16 O :   -0.335846
  17 H :    0.097058
  18 H :    0.117116
  19 H :    0.274587
  20 H :    0.292215
  21 H :    0.280762
  22 H :    0.289395
  23 H :    0.285244

  Mayer bond orders larger than 0.100000
B(  0-C ,  1-C ) :   1.0580 B(  0-C , 16-O ) :   1.0781 B(  0-C , 17-H ) :   0.8971
B(  0-C , 18-H ) :   0.9123 B(  1-C ,  2-H ) :   0.8742 B(  1-C ,  3-C ) :   0.9540
B(  1-C , 11-O ) :   0.9823 B(  3-C ,  4-H ) :   0.8745 B(  3-C ,  5-C ) :   1.0141
B(  3-C , 15-O ) :   1.0219 B(  5-C ,  6-H ) :   0.8507 B(  5-C ,  7-C ) :   1.0177
B(  5-C , 14-O ) :   1.0981 B(  7-C ,  8-H ) :   0.8912 B(  7-C ,  9-C ) :   0.9889
B(  7-C , 13-O ) :   1.0854 B(  9-C , 10-H ) :   0.8913 B(  9-C , 11-O ) :   1.0610
B(  9-C , 12-O ) :   1.0906 B( 12-O , 19-H ) :   0.8302 B( 13-O , 20-H ) :   0.8429
B( 14-O , 21-H ) :   0.8237 B( 15-O , 22-H ) :   0.8411 B( 16-O , 23-H ) :   0.8439

Dispersion correction           -0.024368625
FINAL SINGLE POINT ENERGY      -685.690255387967

DIPOLE MOMENT
-------------

Method             : SCF
Type of density    : Electron Density
Multiplicity       :   1
Irrep              :   0
Energy             :  -685.8204382410929156 Eh
Relativity type    :
Basis              : AO
                                X                 Y                 Z
Electronic contribution:      1.850285332      -0.360593292       1.385742602
Nuclear contribution   :     -1.852854795       1.389773823      -1.504175564
                        -----------------------------------------
Total Dipole Moment    :     -0.002569463       1.029180532      -0.118432962
                        -----------------------------------------
Magnitude (a.u.)       :      1.035975644
Magnitude (Debye)      :      2.633240821

Rotational constants in cm-1:             0.041816             0.025780             0.018336
Rotational constants in MHz :          1253.623076           772.857062           549.693370

                             ****ORCA TERMINATED NORMALLY****
TOTAL RUN TIME: 0 days 0 hours 0 minutes 11 seconds 634 msec
