                         Program Version 6.0.0  -   RELEASE  -
|  1> ! r2scan-3c def2/J RI DEFGRID2 scfconv6 printgap
|  2> %output
|  3>     printlevel normal
|  4> end
|  5> * xyz 0 1
|  6> C -3.0824997181 0.3854545416 -0.0005945287
|  7> C -1.6228091483 0.0419446192 0.0003799008
|  8> C -1.1873570319 -1.2747909667 0.0002784141
|  9> C 0.1628746317 -1.5695664249 0.0001044776
| 10> C 1.1061788381 -0.5507868937 -3.27395e-05
| 11> C 0.6924745574 0.7852155776 0.0001004551
| 12> C -0.6673665549 1.0509087039 0.0002677169
| 13> C 1.6972230529 1.9031041365 9.88927e-05
| 14> O 2.4245077274 -0.9129093996 -0.000264281
| 15> H -3.6907337154 -0.5147182939 0.0155109147
| 16> H -3.3305301852 0.9900508643 0.87026917
| 17> H -3.3355177217 0.961123742 -0.8895933527
| 18> H -1.9053657224 -2.0815022418 0.000362025
| 19> H 0.5116654047 -2.5907657249 7.6779e-05
| 20> H -0.9959276853 2.0808417929 0.000430185
| 21> H 2.3289554833 1.8592534666 -0.8872716256
| 22> H 1.1860895776 2.8614802786 0.0018395183
| 23> H 2.3313492697 1.8573139672 0.8856447895
| 24> H 2.9875454459 -0.1252141673 -0.0002541729
| 25> *
| 26>
| 27>                          ****END OF INPUT****

CARTESIAN COORDINATES (ANGSTROEM)
---------------------------------
  C     -3.082500    0.385455   -0.000595
  C     -1.622809    0.041945    0.000380
  C     -1.187357   -1.274791    0.000278
  C      0.162875   -1.569566    0.000104
  C      1.106179   -0.550787   -0.000033
  C      0.692475    0.785216    0.000100
  C     -0.667367    1.050909    0.000268
  C      1.697223    1.903104    0.000099
  O      2.424508   -0.912909   -0.000264
  H     -3.690734   -0.514718    0.015511
  H     -3.330530    0.990051    0.870269
  H     -3.335518    0.961124   -0.889593
  H     -1.905366   -2.081502    0.000362
  H      0.511665   -2.590766    0.000077
  H     -0.995928    2.080842    0.000430
  H      2.328955    1.859253   -0.887272
  H      1.186090    2.861480    0.001840
  H      2.331349    1.857314    0.885645
  H      2.987545   -0.125214   -0.000254

 Total Charge           Charge          ....    0
 Multiplicity           Mult            ....    1
 Number of Electrons    NEL             ....   66
 Basis Dimension        Dim             ....  226

ORBITAL ENERGIES
----------------

  NO   OCC          E(Eh)            E(eV)
   0   2.0000     -18.980915      -516.4969
   1   2.0000     -10.087475      -274.4942
   2   2.0000     -10.040939      -273.2279
   3   2.0000     -10.040704      -273.2214
   4   2.0000     -10.031316      -272.9660
   5   2.0000     -10.026680      -272.8398
   6   2.0000     -10.025777      -272.8153
   7   2.0000     -10.023746      -272.7600
   8   2.0000     -10.022683      -272.7311
   9   2.0000      -1.023184       -27.8423
  10   2.0000      -0.823789       -22.4164
  11   2.0000      -0.750170       -20.4132
  12   2.0000      -0.727598       -19.7989
  13   2.0000      -0.663663       -18.0592
  14   2.0000      -0.646957       -17.6046
  15   2.0000      -0.574095       -15.6219
  16   2.0000      -0.551903       -15.0180
  17   2.0000      -0.508091       -13.8259
  18   2.0000      -0.457203       -12.4411
  19   2.0000      -0.422975       -11.5097
  20   2.0000      -0.411064       -11.1856
  21   2.0000      -0.401005       -10.9119
  22   2.0000      -0.386232       -10.5099
  23   2.0000      -0.382920       -10.4198
  24   2.0000      -0.370496       -10.0817
  25   2.0000      -0.364224        -9.9110
  26   2.0000      -0.360027        -9.7968
  27   2.0000      -0.337222        -9.1763
  28   2.0000      -0.316140        -8.6026
  29   2.0000      -0.299474        -8.1491
  30   2.0000      -0.296105        -8.0574
  31   2.0000      -0.227202        -6.1825
  32   2.0000      -0.192845        -5.2476
  33   0.0000      -0.026426        -0.7191
  34   0.0000      -0.009370        -0.2550
  35   0.0000       0.049234         1.3397
  36   0.0000       0.079300         2.1579
  37   0.0000       0.109285         2.9738

MULLIKEN ATOMIC CHARGES
-----------------------
   0 C :   -0.546848
   1 C :    0.182608
   2 C :   -0.195276
   3 C :   -0.314032
   4 C :    0.389342
   5 C :    0.054634
   6 C :   -0.251712
   7 C :   -0.628771
   8 O :   -0.425483
   9 H :    0.149184
  10 H :    0.157816
  11 H :    0.158815
  12 H :    0.146557
  13 H :    0.154613
  14 H :    0.143477
  15 H :    0.169442
  16 H :    0.160837
  17 H :    0.169116
  18 H :    0.325683
Sum of atomic charges:    0.0000000

LOEWDIN ATOMIC CHARGES
----------------------
   0 C :   -0.391106
   1 C :   -0.116775
   2 C :   -0.161158
   3 C :   -0.136910
   4 C :    0.183047
   5 C :   -0.096911
   6 C :   -0.154805
   7 C :   -0.392832
   8 O :   -0.503436
   9 H :    0.158199
  10 H :    0.161687
  11 H :    0.161827
  12 H :    0.167982
  13 H :    0.179252
  14 H :    0.168940
  15 H :    0.161073
  16 H :    0.166937
  17 H :    0.161005
  18 H :    0.283985

  Mayer bond orders larger than 0.100000
B(  0-C ,  1-C ) :   0.7764 B(  0-C ,  9-H ) :   0.9967 B(  0-C , 10-H ) :   0.9794
B(  0-C , 11-H ) :   0.9785 B(  1-C ,  2-C ) :   1.4262 B(  1-C ,  6-C ) :   1.4500
B(  2-C ,  3-C ) :   1.3962 B(  2-C , 12-H ) :   0.9332 B(  3-C ,  4-C ) :   1.4111
B(  3-C , 13-H ) :   0.9472 B(  4-C ,  5-C ) :   1.4090 B(  4-C ,  8-O ) :   0.9480
B(  5-C ,  6-C ) :   1.4046 B(  5-C ,  7-C ) :   0.7454 B(  6-C , 14-H ) :   0.9248
B(  7-C , 15-H ) :   0.9834 B(  7-C , 16-H ) :   0.9738 B(  7-C , 17-H ) :   0.9833
B(  8-O , 18-H ) :   0.8665

Dispersion correction           -0.006163214
FINAL SINGLE POINT ENERGY      -386.004643304080

DIPOLE MOMENT
-------------

Method             : SCF
Type of density    : Electron Density
Multiplicity       :   1
Irrep              :   0
Energy             :  -386.0058131337511895 Eh
Relativity type    :
Basis              : AO
                                X                 Y                 Z
Electronic contribution:      3.732619970      -4.285242631       0.001883445
Nuclear contribution   :     -3.634625489       4.956760641      -0.002805073
                        -----------------------------------------
Total Dipole Moment    :      0.097994481       0.671518010      -0.000921627
                        -----------------------------------------
Magnitude (a.u.)       :      0.678631126
Magnitude (Debye)      :      1.724943238

Rotational constants in cm-1:             0.100279             0.044011             0.030940
Rotational constants in MHz :          3006.289494          1319.416783           927.559290

                             ****ORCA TERMINATED NORMALLY****
TOTAL RUN TIME: 0 days 0 hours 0 minutes 34 seconds 514 msec
