                         Program Version 6.0.0  -   RELEASE  -
|  1> ! r2scan-3c def2/J RI DEFGRID2 scfconv6 printgap
|  2> %output
|  3>     printlevel normal
|  4> end
|  5> %cpcm
|  6>     smd true
|  7>     smdsolvent "water"
|  8> end
|  9> * xyz 0 1
| 10> C -3.0824997181 0.3854545416 -0.0005945287
| 11> C -1.6228091483 0.0419446192 0.0003799008
| 12> C -1.1873570319 -1.2747909667 0.0002784141
| 13> C 0.1628746317 -1.5695664249 0.0001044776
| 14> C 1.1061788381 -0.5507868937 -3.27395e-05
| 15> C 0.6924745574 0.7852155776 0.0001004551
| 16> C -0.6673665549 1.0509087039 0.0002677169
| 17> C 1.6972230529 1.9031041365 9.88927e-05
| 18> O 2.4245077274 -0.9129093996 -0.000264281
| 19> H -3.6907337154 -0.5147182939 0.0155109147
| 20> H -3.3305301852 0.9900508643 0.87026917
| 21> H -3.3355177217 0.961123742 -0.8895933527
| 22> H -1.9053657224 -2.0815022418 0.000362025
| 23> H 0.5116654047 -2.5907657249 7.6779e-05
| 24> H -0.9959276853 2.0808417929 0.000430185
| 25> H 2.3289554833 1.8592534666 -0.8872716256
| 26> H 1.1860895776 2.8614802786 0.0018395183
| 27> H 2.3313492697 1.8573139672 0.8856447895
| 28> H 2.9875454459 -0.1252141673 -0.0002541729
| 29> *
| 30>
| 31>                          ****END OF INPUT****

CARTESIAN COORDINATES (ANGSTROEM)
---------------------------------
  C     -3.082500    0.385455   -0.000595
  C     -1.622809    0.041945    0.000380
  C     -1.187357   -1.274791    0.000278
  C      0.162875   -1.569566    0.000104
  C      1.106179   -0.550787   -0.000033
  C      0.692475    0.785216    0.000100
  C     -0.667367    1.050909    0.000268
  C      1.697223    1.903104    0.000099
  O      2.424508   -0.912909   -0.000264
  H     -3.690734   -0.514718    0.015511
  H     -3.330530    0.990051    0.870269
  H     -3.335518    0.961124   -0.889593
  H     -1.905366   -2.081502    0.000362
  H      0.511665   -2.590766    0.000077
  H     -0.995928    2.080842    0.000430
  H      2.328955    1.859253   -0.887272
  H      1.186090    2.861480    0.001840
  H      2.331349    1.857314    0.885645
  H      2.987545   -0.125214   -0.000254

 Total Charge           Charge          ....    0
 Multiplicity           Mult            ....    1
 Number of Electrons    NEL             ....   66
 Basis Dimension        Dim             ....  226

ORBITAL ENERGIES
----------------

  NO   OCC          E(Eh)            E(eV)
   0   2.0000     -18.981039      -516.5003
   1   2.0000     -10.089179      -274.5405
   2   2.0000     -10.039990      -273.2020
   3   2.0000     -10.032366      -272.9945
   4   2.0000     -10.026558      -272.8365
   5   2.0000     -10.026070      -272.8232
   6   2.0000     -10.024927      -272.7921
   7   2.0000     -10.023276      -272.7472
   8   2.0000     -10.015852      -272.5452
   9   2.0000      -1.023282       -27.8449
  10   2.0000      -0.825104       -22.4522
  11   2.0000      -0.745301       -20.2807
  12   2.0000      -0.727468       -19.7954
  13   2.0000      -0.655449       -17.8357
  14   2.0000      -0.644616       -17.5409
  15   2.0000      -0.572435       -15.5767
  16   2.0000      -0.549609       -14.9556
  17   2.0000      -0.504491       -13.7279
  18   2.0000      -0.455593       -12.3973
  19   2.0000      -0.421002       -11.4561
  20   2.0000      -0.403750       -10.9866
  21   2.0000      -0.397722       -10.8226
  22   2.0000      -0.379899       -10.3376
  23   2.0000      -0.375645       -10.2218
  24   2.0000      -0.366284        -9.9671
  25   2.0000      -0.357769        -9.7354
  26   2.0000      -0.355614        -9.6767
  27   2.0000      -0.334159        -9.0929
  28   2.0000      -0.312201        -8.4954
  29   2.0000      -0.298950        -8.1349
  30   2.0000      -0.297307        -8.0901
  31   2.0000      -0.230133        -6.2622
  32   2.0000      -0.196186        -5.3385
  33   0.0000      -0.029133        -0.7927
  34   0.0000      -0.011942        -0.3250
  35   0.0000       0.069330         1.8866
  36   0.0000       0.088698         2.4136
  37   0.0000       0.113076         3.0770

MULLIKEN ATOMIC CHARGES
-----------------------
   0 C :   -0.565082
   1 C :    0.144414
   2 C :   -0.233678
   3 C :   -0.354711
   4 C :    0.375127
   5 C :    0.016183
   6 C :   -0.264816
   7 C :   -0.630618
   8 O :   -0.475680
   9 H :    0.168687
  10 H :    0.172836
  11 H :    0.173616
  12 H :    0.178382
  13 H :    0.179964
  14 H :    0.176297
  15 H :    0.189765
  16 H :    0.179052
  17 H :    0.189565
  18 H :    0.380698
Sum of atomic charges:    0.0000000

LOEWDIN ATOMIC CHARGES
----------------------
   0 C :   -0.396513
   1 C :   -0.126719
   2 C :   -0.177791
   3 C :   -0.157689
   4 C :    0.168564
   5 C :   -0.094770
   6 C :   -0.162909
   7 C :   -0.392697
   8 O :   -0.522970
   9 H :    0.163846
  10 H :    0.167410
  11 H :    0.167518
  12 H :    0.178593
  13 H :    0.186385
  14 H :    0.181418
  15 H :    0.171850
  16 H :    0.171619
  17 H :    0.171809
  18 H :    0.303046

  Mayer bond orders larger than 0.100000
B(  0-C ,  1-C ) :   0.7993 B(  0-C ,  9-H ) :   0.9917 B(  0-C , 10-H ) :   0.9719
B(  0-C , 11-H ) :   0.9710 B(  1-C ,  2-C ) :   1.3939 B(  1-C ,  6-C ) :   1.3995
B(  2-C ,  3-C ) :   1.3704 B(  2-C , 12-H ) :   0.9476 B(  3-C ,  4-C ) :   1.3548
B(  3-C , 13-H ) :   0.9658 B(  4-C ,  5-C ) :   1.3624 B(  4-C ,  8-O ) :   0.9420
B(  5-C ,  6-C ) :   1.3947 B(  5-C ,  7-C ) :   0.7971 B(  6-C , 14-H ) :   0.9417
B(  7-C , 15-H ) :   0.9700 B(  7-C , 16-H ) :   0.9713 B(  7-C , 17-H ) :   0.9700
B(  8-O , 18-H ) :   0.8383

Dispersion correction           -0.006163214
FINAL SINGLE POINT ENERGY      -386.012670883661

DIPOLE MOMENT
-------------

Method             : SCF
Type of density    : Electron Density
Multiplicity       :   1
Irrep              :   0
Energy             :  -386.0138407133327973 Eh
Relativity type    :
Basis              : AO
                                X                 Y                 Z
Electronic contribution:      3.806809836      -3.944241703       0.001490178
Nuclear contribution   :     -3.634625489       4.956760641      -0.002805073
                        -----------------------------------------
Total Dipole Moment    :      0.172184348       1.012518937      -0.001314895
                        -----------------------------------------
Magnitude (a.u.)       :      1.027055878
Magnitude (Debye)      :      2.610568577

Rotational constants in cm-1:             0.100279             0.044011             0.030940
Rotational constants in MHz :          3006.289494          1319.416783           927.559290

                             ****ORCA TERMINATED NORMALLY****
TOTAL RUN TIME: 0 days 0 hours 0 minutes 38 seconds 161 msec
