                         Program Version 6.0.0  -   RELEASE  -
|  1> ! wb97x-v def2-tzvp def2/J RIJCOSX DEFGRID2 scfconv7 GCP(DFT/TZ) printgap
|  2> %output
|  3>     printlevel normal
|  4> end
|  5> * xyz 0 1
|  6> C -1.264799869429645 -0.7191386629672107 -0.09428010148012105
|  7> C -3.2341909325719336e-07 -0.01040526191593831 0.363897544378399
|  8> C 1.259942405827428 -0.7287218525464215 -0.09270077802419595
|  9> O 0.005586380862291565 1.3656015749947412 -0.09463728890358247
| 10> H -2.1561038063561537 -0.18043365813572187 0.24094953185086887
| 11> H -1.2865678285243547 -0.7867973027509805 -1.1884601895145994
| 12> H -1.3028951838376146 -1.7354254196706114 0.31076991529156683
| 13> H -0.00041654110886533665 0.06959816921861944 1.4569435283348322
| 14> H 2.1549272741113654 -0.19817087035042275 0.24565141792521067
| 15> H 1.2836631562372474 -0.7942178371541297 -1.1869596608947746
| 16> H 1.2886225760683825 -1.7461125795622636 0.31025196779172326
| 17> H 0.006302868572896705 1.3377529878919725 -1.0614616162672317
| 18> *
| 19>
| 20>                          ****END OF INPUT****

CARTESIAN COORDINATES (ANGSTROEM)
---------------------------------
  C     -1.264800   -0.719139   -0.094280
  C     -0.000000   -0.010405    0.363898
  C      1.259942   -0.728722   -0.092701
  O      0.005586    1.365602   -0.094637
  H     -2.156104   -0.180434    0.240950
  H     -1.286568   -0.786797   -1.188460
  H     -1.302895   -1.735425    0.310770
  H     -0.000417    0.069598    1.456944
  H      2.154927   -0.198171    0.245651
  H      1.283663   -0.794218   -1.186960
  H      1.288623   -1.746113    0.310252
  H      0.006303    1.337753   -1.061462

 Total Charge           Charge          ....    0
 Multiplicity           Mult            ....    1
 Number of Electrons    NEL             ....   34
 Basis Dimension        Dim             ....  172

ORBITAL ENERGIES
----------------

  NO   OCC          E(Eh)            E(eV)
   0   2.0000     -21.664427      -589.5190
   1   2.0000     -12.097802      -329.1979
   2   2.0000     -12.038502      -327.5843
   3   2.0000     -12.038169      -327.5752
   4   2.0000      -1.662393       -45.2360
   5   2.0000      -1.293390       -35.1949
   6   2.0000      -1.187487       -32.3132
   7   2.0000      -1.113290       -30.2942
   8   2.0000      -0.992291       -27.0016
   9   2.0000      -0.953770       -25.9534
  10   2.0000      -0.921442       -25.0737
  11   2.0000      -0.873371       -23.7656
  12   2.0000      -0.828506       -22.5448
  13   2.0000      -0.821310       -22.3490
  14   2.0000      -0.814305       -22.1584
  15   2.0000      -0.786533       -21.4026
  16   2.0000      -0.770878       -20.9767
  17   0.0000      -0.142862        -3.8875
  18   0.0000      -0.054842        -1.4923
  19   0.0000      -0.008662        -0.2357
  20   0.0000       0.004370         0.1189
  21   0.0000       0.004377         0.1191

MULLIKEN ATOMIC CHARGES
-----------------------
   0 C :   -0.338522
   1 C :    0.106581
   2 C :   -0.338428
   3 O :   -0.449962
   4 H :    0.126419
   5 H :    0.093711
   6 H :    0.105104
   7 H :    0.078660
   8 H :    0.126392
   9 H :    0.093699
  10 H :    0.105085
  11 H :    0.291259
Sum of atomic charges:   -0.0000000

LOEWDIN ATOMIC CHARGES
----------------------
   0 C :   -0.293663
   1 C :   -0.388319
   2 C :   -0.293642
   3 O :   -0.045191
   4 H :    0.121601
   5 H :    0.115758
   6 H :    0.121460
   7 H :    0.138275
   8 H :    0.121588
   9 H :    0.115755
  10 H :    0.121458
  11 H :    0.164921

  Mayer bond orders larger than 0.100000
B(  0-C ,  1-C ) :   1.0008 B(  0-C ,  4-H ) :   0.9805 B(  0-C ,  5-H ) :   0.9652
B(  0-C ,  6-H ) :   0.9718 B(  1-C ,  2-C ) :   1.0008 B(  1-C ,  3-O ) :   0.9783
B(  1-C ,  7-H ) :   0.9600 B(  2-C ,  8-H ) :   0.9805 B(  2-C ,  9-H ) :   0.9652
B(  2-C , 10-H ) :   0.9718 B(  3-O , 11-H ) :   0.9046

FINAL SINGLE POINT ENERGY      -194.366113816282

DIPOLE MOMENT
-------------

Method             : SCF
Type of density    : Electron Density
Multiplicity       :   1
Irrep              :   0
Energy             :  -194.3744829426819365 Eh
Relativity type    :
Basis              : AO
                                X                 Y                 Z
Electronic contribution:      0.011949703       3.194678685       0.461387558
Nuclear contribution   :     -0.013924401      -3.797631324      -0.786192253
                        -----------------------------------------
Total Dipole Moment    :     -0.001974698      -0.602952639      -0.324804695
                        -----------------------------------------
Magnitude (a.u.)       :      0.684875079
Magnitude (Debye)      :      1.740814106

Rotational constants in cm-1:             0.280719             0.268818             0.158934
Rotational constants in MHz :          8415.745290          8058.950040          4764.707784

                             ****ORCA TERMINATED NORMALLY****
TOTAL RUN TIME: 0 days 0 hours 0 minutes 40 seconds 362 msec
