                         Program Version 6.0.0  -   RELEASE  -
|  1> ! wb97x-v def2-tzvp def2/J RIJCOSX DEFGRID2 scfconv7 GCP(DFT/TZ) printgap
|  2> %output
|  3>     printlevel normal
|  4> end
|  5> %cpcm
|  6>     smd true
|  7>     smdsolvent "water"
|  8> end
|  9> * xyz 0 1
| 10> C -1.264799869429645 -0.7191386629672107 -0.09428010148012105
| 11> C -3.2341909325719336e-07 -0.01040526191593831 0.363897544378399
| 12> C 1.259942405827428 -0.7287218525464215 -0.09270077802419595
| 13> O 0.005586380862291565 1.3656015749947412 -0.09463728890358247
| 14> H -2.1561038063561537 -0.18043365813572187 0.24094953185086887
| 15> H -1.2865678285243547 -0.7867973027509805 -1.1884601895145994
| 16> H -1.3028951838376146 -1.7354254196706114 0.31076991529156683
| 17> H -0.00041654110886533665 0.06959816921861944 1.4569435283348322
| 18> H 2.1549272741113654 -0.19817087035042275 0.24565141792521067
| 19> H 1.2836631562372474 -0.7942178371541297 -1.1869596608947746
| 20> H 1.2886225760683825 -1.7461125795622636 0.31025196779172326
| 21> H 0.006302868572896705 1.3377529878919725 -1.0614616162672317
| 22> *
| 23>
| 24>                          ****END OF INPUT****

CARTESIAN COORDINATES (ANGSTROEM)
---------------------------------
  C     -1.264800   -0.719139   -0.094280
  C     -0.000000   -0.010405    0.363898
  C      1.259942   -0.728722   -0.092701
  O      0.005586    1.365602   -0.094637
  H     -2.156104   -0.180434    0.240950
  H     -1.286568   -0.786797   -1.188460
  H     -1.302895   -1.735425    0.310770
  H     -0.000417    0.069598    1.456944
  H      2.154927   -0.198171    0.245651
  H      1.283663   -0.794218   -1.186960
  H      1.288623   -1.746113    0.310252
  H      0.006303    1.337753   -1.061462

 Total Charge           Charge          ....    0
 Multiplicity           Mult            ....    1
 Number of Electrons    NEL             ....   34
 Basis Dimension        Dim             ....  172

ORBITAL ENERGIES
----------------

  NO   OCC          E(Eh)            E(eV)
   0   2.0000     -21.668583      -589.6321
   1   2.0000     -12.091525      -329.0271
   2   2.0000     -12.026521      -327.2583
   3   2.0000     -12.026190      -327.2493
   4   2.0000      -1.666861       -45.3576
   5   2.0000      -1.285302       -34.9749
   6   2.0000      -1.176692       -32.0194
   7   2.0000      -1.111229       -30.2381
   8   2.0000      -0.994636       -27.0654
   9   2.0000      -0.951885       -25.9021
  10   2.0000      -0.924507       -25.1571
  11   2.0000      -0.865517       -23.5519
  12   2.0000      -0.821092       -22.3431
  13   2.0000      -0.811209       -22.0741
  14   2.0000      -0.802393       -21.8342
  15   2.0000      -0.777142       -21.1471
  16   2.0000      -0.761018       -20.7084
  17   0.0000      -0.138202        -3.7607
  18   0.0000      -0.032856        -0.8941
  19   0.0000       0.001140         0.0310
  20   0.0000       0.013875         0.3775
  21   0.0000       0.018917         0.5148

MULLIKEN ATOMIC CHARGES
-----------------------
   0 C :   -0.395480
   1 C :    0.144352
   2 C :   -0.395465
   3 O :   -0.567374
   4 H :    0.128504
   5 H :    0.124845
   6 H :    0.128030
   7 H :    0.097803
   8 H :    0.128512
   9 H :    0.124877
  10 H :    0.128009
  11 H :    0.353386
Sum of atomic charges:    0.0000000

LOEWDIN ATOMIC CHARGES
----------------------
   0 C :   -0.296462
   1 C :   -0.387004
   2 C :   -0.296448
   3 O :   -0.090649
   4 H :    0.120536
   5 H :    0.123213
   6 H :    0.127385
   7 H :    0.141085
   8 H :    0.120528
   9 H :    0.123221
  10 H :    0.127381
  11 H :    0.187214

  Mayer bond orders larger than 0.100000
B(  0-C ,  1-C ) :   0.9932 B(  0-C ,  4-H ) :   0.9753 B(  0-C ,  5-H ) :   0.9682
B(  0-C ,  6-H ) :   0.9682 B(  1-C ,  2-C ) :   0.9932 B(  1-C ,  3-O ) :   0.9376
B(  1-C ,  7-H ) :   0.9638 B(  2-C ,  8-H ) :   0.9753 B(  2-C ,  9-H ) :   0.9682
B(  2-C , 10-H ) :   0.9682 B(  3-O , 11-H ) :   0.8700

FINAL SINGLE POINT ENERGY      -194.373885251976

DIPOLE MOMENT
-------------

Method             : SCF
Type of density    : Electron Density
Multiplicity       :   1
Irrep              :   0
Energy             :  -194.3822543783757339 Eh
Relativity type    :
Basis              : AO
                                X                 Y                 Z
Electronic contribution:      0.011214376       2.959979258       0.303224655
Nuclear contribution   :     -0.013924401      -3.797631324      -0.786192253
                        -----------------------------------------
Total Dipole Moment    :     -0.002710025      -0.837652065      -0.482967598
                        -----------------------------------------
Magnitude (a.u.)       :      0.966915729
Magnitude (Debye)      :      2.457704467

Rotational constants in cm-1:             0.280719             0.268818             0.158934
Rotational constants in MHz :          8415.745290          8058.950040          4764.707784

                             ****ORCA TERMINATED NORMALLY****
TOTAL RUN TIME: 0 days 0 hours 0 minutes 46 seconds 396 msec
