                         Program Version 6.0.0  -   RELEASE  -
|  1> ! pbe def2-sv(p) def2/J RI DEFGRID1 loosescf d4 GCP(DFT/SV(P)) printgap
|  2> %output
|  3>     printlevel normal
|  4> end
|  5> * xyz 0 1
|  6> C -2.5524493594 -0.9014261423 0.3149525573
|  7> C -1.1116350159 -0.4635432465 0.6230598556
|  8> H -0.9603366038 -0.4535690427 1.7144729662
|  9> C -0.8264923718 0.9372486298 0.0565311551
| 10> H -1.1022118413 0.946742346 -1.0041236388
| 11> C 0.663880678 1.3018884339 0.187394926
| 12> H 0.9057789275 1.4769316712 1.2499863007
| 13> C 1.565920754 0.1677798848 -0.3049006942
| 14> H 1.4921747448 0.1215504808 -1.401834957
| 15> C 1.1105130612 -1.1774931381 0.3020160831
| 16> H 1.2907156339 -1.1452193169 1.3905003962
| 17> O -0.2480951732 -1.4221391848 0.0372780747
| 18> O 1.8560956842 -2.2343241761 -0.1827009993
| 19> O 2.8841233626 0.4450496578 0.0932559444
| 20> O 0.9536441756 2.4552380553 -0.5626791122
| 21> O -1.6249040948 1.9231141263 0.6596671899
| 22> O -2.7853778428 -1.0373877315 -1.0608076553
| 23> H -3.2382837597 -0.1289477161 0.6667374568
| 24> H -2.7557305038 -1.8423944961 0.8393696465
| 25> H 1.5597020036 -2.4593234407 -1.0788316848
| 26> H 3.4493448051 -0.3072104342 -0.1421670635
| 27> H 0.2810508201 3.1265548432 -0.3668824536
| 28> H -1.4571590063 1.9467805967 1.6138578976
| 29> H -2.1948364308 -1.723106204 -1.4039352019
| 30> *
| 31>
| 32>                          ****END OF INPUT****

CARTESIAN COORDINATES (ANGSTROEM)
---------------------------------
  C     -2.552449   -0.901426    0.314953
  C     -1.111635   -0.463543    0.623060
  H     -0.960337   -0.453569    1.714473
  C     -0.826492    0.937249    0.056531
  H     -1.102212    0.946742   -1.004124
  C      0.663881    1.301888    0.187395
  H      0.905779    1.476932    1.249986
  C      1.565921    0.167780   -0.304901
  H      1.492175    0.121550   -1.401835
  C      1.110513   -1.177493    0.302016
  H      1.290716   -1.145219    1.390500
  O     -0.248095   -1.422139    0.037278
  O      1.856096   -2.234324   -0.182701
  O      2.884123    0.445050    0.093256
  O      0.953644    2.455238   -0.562679
  O     -1.624904    1.923114    0.659667
  O     -2.785378   -1.037388   -1.060808
  H     -3.238284   -0.128948    0.666737
  H     -2.755731   -1.842394    0.839370
  H      1.559702   -2.459323   -1.078832
  H      3.449345   -0.307210   -0.142167
  H      0.281051    3.126555   -0.366882
  H     -1.457159    1.946781    1.613858
  H     -2.194836   -1.723106   -1.403935

 Total Charge           Charge          ....    0
 Multiplicity           Mult            ....    1
 Number of Electrons    NEL             ....   96
 Basis Dimension        Dim             ....  192

ORBITAL ENERGIES
----------------

  NO   OCC          E(Eh)            E(eV)
   0   2.0000     -18.786851      -511.2162
   1   2.0000     -18.775271      -510.9011
   2   2.0000     -18.770580      -510.7734
   3   2.0000     -18.753811      -510.3171
   4   2.0000     -18.749633      -510.2035
   5   2.0000     -18.744748      -510.0705
   6   2.0000      -9.994764      -271.9713
   7   2.0000      -9.954365      -270.8720
   8   2.0000      -9.945804      -270.6391
   9   2.0000      -9.944407      -270.6011
  10   2.0000      -9.942367      -270.5455
  11   2.0000      -9.937754      -270.4200
  12   2.0000      -0.997789       -27.1512
  13   2.0000      -0.953507       -25.9462
  14   2.0000      -0.940643       -25.5962
  15   2.0000      -0.929205       -25.2850
  16   2.0000      -0.922610       -25.1055
  17   2.0000      -0.913246       -24.8507
  18   2.0000      -0.705874       -19.2078
  19   2.0000      -0.695351       -18.9215
  20   2.0000      -0.621704       -16.9174
  21   2.0000      -0.597441       -16.2572
  22   2.0000      -0.562357       -15.3025
  23   2.0000      -0.544056       -14.8045
  24   2.0000      -0.510904       -13.9024
  25   2.0000      -0.490002       -13.3336
  26   2.0000      -0.481210       -13.0944
  27   2.0000      -0.469749       -12.7825
  28   2.0000      -0.453134       -12.3304
  29   2.0000      -0.432858       -11.7787
  30   2.0000      -0.432004       -11.7554
  31   2.0000      -0.391978       -10.6663
  32   2.0000      -0.386272       -10.5110
  33   2.0000      -0.382659       -10.4127
  34   2.0000      -0.371150       -10.0995
  35   2.0000      -0.353925        -9.6308
  36   2.0000      -0.334535        -9.1032
  37   2.0000      -0.324402        -8.8274
  38   2.0000      -0.304027        -8.2730
  39   2.0000      -0.296959        -8.0807
  40   2.0000      -0.285719        -7.7748
  41   2.0000      -0.283478        -7.7138
  42   2.0000      -0.264794        -7.2054
  43   2.0000      -0.245489        -6.6801
  44   2.0000      -0.240072        -6.5327
  45   2.0000      -0.226657        -6.1676
  46   2.0000      -0.223085        -6.0705
  47   2.0000      -0.201435        -5.4813
  48   0.0000       0.004735         0.1288
  49   0.0000       0.021563         0.5868
  50   0.0000       0.026758         0.7281
  51   0.0000       0.042293         1.1509
  52   0.0000       0.059766         1.6263

MULLIKEN ATOMIC CHARGES
-----------------------
   0 C :    0.109308
   1 C :   -0.024292
   2 H :    0.039599
   3 C :    0.031126
   4 H :    0.071698
   5 C :    0.094030
   6 H :    0.037557
   7 C :    0.057898
   8 H :    0.045536
   9 C :    0.172472
  10 H :    0.054855
  11 O :   -0.316820
  12 O :   -0.382773
  13 O :   -0.404656
  14 O :   -0.403653
  15 O :   -0.415694
  16 O :   -0.434815
  17 H :    0.085387
  18 H :    0.083242
  19 H :    0.303781
  20 H :    0.299335
  21 H :    0.299906
  22 H :    0.298826
  23 H :    0.298148
Sum of atomic charges:    0.0000000

LOEWDIN ATOMIC CHARGES
----------------------
   0 C :   -0.122488
   1 C :   -0.081646
   2 H :    0.098426
   3 C :   -0.085348
   4 H :    0.122528
   5 C :   -0.071252
   6 H :    0.097047
   7 C :   -0.086182
   8 H :    0.103258
   9 C :   -0.006817
  10 H :    0.098238
  11 O :   -0.156569
  12 O :   -0.290785
  13 O :   -0.313104
  14 O :   -0.316363
  15 O :   -0.303796
  16 O :   -0.327425
  17 H :    0.120452
  18 H :    0.101978
  19 H :    0.289337
  20 H :    0.283175
  21 H :    0.282406
  22 H :    0.283790
  23 H :    0.281140

  Mayer bond orders larger than 0.100000
B(  0-C ,  1-C ) :   1.0316 B(  0-C , 16-O ) :   1.0711 B(  0-C , 17-H ) :   0.9111
B(  0-C , 18-H ) :   0.9186 B(  1-C ,  2-H ) :   0.8683 B(  1-C ,  3-C ) :   0.9839
B(  1-C , 11-O ) :   0.9792 B(  3-C ,  4-H ) :   0.8547 B(  3-C ,  5-C ) :   1.0133
B(  3-C , 15-O ) :   1.0061 B(  5-C ,  6-H ) :   0.8689 B(  5-C ,  7-C ) :   0.9976
B(  5-C , 14-O ) :   1.1071 B(  7-C ,  8-H ) :   0.8630 B(  7-C ,  9-C ) :   0.9821
B(  7-C , 13-O ) :   1.0881 B(  9-C , 10-H ) :   0.8765 B(  9-C , 11-O ) :   1.0019
B(  9-C , 12-O ) :   1.1274 B( 12-O , 19-H ) :   0.8410 B( 13-O , 20-H ) :   0.8367
B( 14-O , 21-H ) :   0.8361 B( 15-O , 22-H ) :   0.8447 B( 16-O , 23-H ) :   0.8436

Dispersion correction           -0.023876692
FINAL SINGLE POINT ENERGY      -685.698941596279

DIPOLE MOMENT
-------------

Method             : SCF
Type of density    : Electron Density
Multiplicity       :   1
Irrep              :   0
Energy             :  -685.8287757718721878 Eh
Relativity type    :
Basis              : AO
                                X                 Y                 Z
Electronic contribution:      2.422644201      -0.182164922      -1.490508277
Nuclear contribution   :     -2.545668342      -0.412011478       1.933668422
                        -----------------------------------------
Total Dipole Moment    :     -0.123024141      -0.594176400       0.443160144
                        -----------------------------------------
Magnitude (a.u.)       :      0.751379696
Magnitude (Debye)      :      1.909855408

Rotational constants in cm-1:             0.038880             0.027012             0.017781
Rotational constants in MHz :          1165.601047           809.786683           533.069507

                             ****ORCA TERMINATED NORMALLY****
TOTAL RUN TIME: 0 days 0 hours 0 minutes 12 seconds 144 msec
