                         Program Version 6.0.0  -   RELEASE  -
|  1> ! pbe def2-sv(p) def2/J RI DEFGRID1 loosescf d4 GCP(DFT/SV(P)) printgap
|  2> %output
|  3>     printlevel normal
|  4> end
|  5> * xyz 0 1
|  6> C -2.0957896154 -1.3583808982 -0.0930062734
|  7> C -0.9938698779 -0.5249000609 0.590394436
|  8> H -1.3791236362 -0.1841343392 1.5612129416
|  9> C -0.6218209322 0.6951269496 -0.2616991466
| 10> H -0.535653877 0.407735105 -1.3162957139
| 11> C 0.7347888468 1.2502806413 0.1904398372
| 12> H 0.7069669311 1.4715482257 1.2704978567
| 13> C 1.8273006385 0.1980633979 -0.037374014
| 14> H 2.2157280991 0.3423890615 -1.0527885278
| 15> C 1.2387445951 -1.2333166508 0.0370605438
| 16> H 1.9839618097 -1.8874785443 0.5113980695
| 17> O 0.1369297538 -1.3331604143 0.9026819169
| 18> O 0.9392087253 -1.6485969249 -1.2589373587
| 19> O 2.8247888931 0.3898705569 0.9322571593
| 20> O 1.0681443507 2.4103854066 -0.529430997
| 21> O -1.6182762361 1.686809708 -0.222023107
| 22> O -3.3345515183 -0.6962418053 -0.0900891747
| 23> H -2.2399268167 -2.2836962727 0.4692226812
| 24> H -1.784597367 -1.6044515606 -1.116561357
| 25> H 0.7750767547 -2.6040728803 -1.2767400068
| 26> H 3.6714448402 0.0414716565 0.6199689583
| 27> H 0.2536803193 2.9161077282 -0.6881905682
| 28> H -1.7558165698 1.9767084196 0.6929685884
| 29> H -3.2344118817 0.1613656644 -0.5338683461
| 30> *
| 31>
| 32>                          ****END OF INPUT****

CARTESIAN COORDINATES (ANGSTROEM)
---------------------------------
  C     -2.095790   -1.358381   -0.093006
  C     -0.993870   -0.524900    0.590394
  H     -1.379124   -0.184134    1.561213
  C     -0.621821    0.695127   -0.261699
  H     -0.535654    0.407735   -1.316296
  C      0.734789    1.250281    0.190440
  H      0.706967    1.471548    1.270498
  C      1.827301    0.198063   -0.037374
  H      2.215728    0.342389   -1.052789
  C      1.238745   -1.233317    0.037061
  H      1.983962   -1.887479    0.511398
  O      0.136930   -1.333160    0.902682
  O      0.939209   -1.648597   -1.258937
  O      2.824789    0.389871    0.932257
  O      1.068144    2.410385   -0.529431
  O     -1.618276    1.686810   -0.222023
  O     -3.334552   -0.696242   -0.090089
  H     -2.239927   -2.283696    0.469223
  H     -1.784597   -1.604452   -1.116561
  H      0.775077   -2.604073   -1.276740
  H      3.671445    0.041472    0.619969
  H      0.253680    2.916108   -0.688191
  H     -1.755817    1.976708    0.692969
  H     -3.234412    0.161366   -0.533868

 Total Charge           Charge          ....    0
 Multiplicity           Mult            ....    1
 Number of Electrons    NEL             ....   96
 Basis Dimension        Dim             ....  192

ORBITAL ENERGIES
----------------

  NO   OCC          E(Eh)            E(eV)
   0   2.0000     -18.784330      -511.1476
   1   2.0000     -18.772727      -510.8319
   2   2.0000     -18.770472      -510.7705
   3   2.0000     -18.754582      -510.3381
   4   2.0000     -18.745571      -510.0929
   5   2.0000     -18.740920      -509.9664
   6   2.0000      -9.988482      -271.8004
   7   2.0000      -9.951227      -270.7867
   8   2.0000      -9.946251      -270.6512
   9   2.0000      -9.943634      -270.5800
  10   2.0000      -9.942970      -270.5620
  11   2.0000      -9.927147      -270.1314
  12   2.0000      -0.985807       -26.8252
  13   2.0000      -0.963297       -26.2126
  14   2.0000      -0.935137       -25.4464
  15   2.0000      -0.921496       -25.0752
  16   2.0000      -0.916929       -24.9509
  17   2.0000      -0.913744       -24.8642
  18   2.0000      -0.708359       -19.2754
  19   2.0000      -0.693959       -18.8836
  20   2.0000      -0.615168       -16.7396
  21   2.0000      -0.599932       -16.3250
  22   2.0000      -0.563679       -15.3385
  23   2.0000      -0.528173       -14.3723
  24   2.0000      -0.515026       -14.0146
  25   2.0000      -0.490121       -13.3369
  26   2.0000      -0.483402       -13.1540
  27   2.0000      -0.469824       -12.7846
  28   2.0000      -0.446504       -12.1500
  29   2.0000      -0.419843       -11.4245
  30   2.0000      -0.410323       -11.1655
  31   2.0000      -0.404922       -11.0185
  32   2.0000      -0.383013       -10.4223
  33   2.0000      -0.375199       -10.2097
  34   2.0000      -0.370892       -10.0925
  35   2.0000      -0.358428        -9.7533
  36   2.0000      -0.343415        -9.3448
  37   2.0000      -0.308656        -8.3990
  38   2.0000      -0.301958        -8.2167
  39   2.0000      -0.298225        -8.1151
  40   2.0000      -0.286255        -7.7894
  41   2.0000      -0.272748        -7.4219
  42   2.0000      -0.265765        -7.2318
  43   2.0000      -0.243623        -6.6293
  44   2.0000      -0.240237        -6.5372
  45   2.0000      -0.227919        -6.2020
  46   2.0000      -0.214439        -5.8352
  47   2.0000      -0.199186        -5.4201
  48   0.0000       0.005902         0.1606
  49   0.0000       0.017634         0.4799
  50   0.0000       0.026141         0.7113
  51   0.0000       0.037611         1.0235
  52   0.0000       0.062318         1.6958

MULLIKEN ATOMIC CHARGES
-----------------------
   0 C :    0.075008
   1 C :    0.056047
   2 H :    0.058421
   3 C :   -0.025615
   4 H :    0.085655
   5 C :    0.060953
   6 H :    0.052287
   7 C :    0.084560
   8 H :    0.076431
   9 C :    0.149678
  10 H :    0.050565
  11 O :   -0.311964
  12 O :   -0.393653
  13 O :   -0.406177
  14 O :   -0.410802
  15 O :   -0.417028
  16 O :   -0.446114
  17 H :    0.086459
  18 H :    0.062690
  19 H :    0.308253
  20 H :    0.304535
  21 H :    0.296478
  22 H :    0.306123
  23 H :    0.297210
Sum of atomic charges:   -0.0000000

LOEWDIN ATOMIC CHARGES
----------------------
   0 C :   -0.130431
   1 C :   -0.075022
   2 H :    0.110583
   3 C :   -0.095403
   4 H :    0.123811
   5 C :   -0.066783
   6 H :    0.105317
   7 C :   -0.071578
   8 H :    0.116506
   9 C :   -0.012711
  10 H :    0.096716
  11 O :   -0.142850
  12 O :   -0.309766
  13 O :   -0.311045
  14 O :   -0.319458
  15 O :   -0.299137
  16 O :   -0.340518
  17 H :    0.112611
  18 H :    0.093819
  19 H :    0.288465
  20 H :    0.289565
  21 H :    0.277030
  22 H :    0.287713
  23 H :    0.272567

  Mayer bond orders larger than 0.100000
B(  0-C ,  1-C ) :   1.0430 B(  0-C , 16-O ) :   1.0802 B(  0-C , 17-H ) :   0.9207
B(  0-C , 18-H ) :   0.9081 B(  1-C ,  2-H ) :   0.8786 B(  1-C ,  3-C ) :   0.9675
B(  1-C , 11-O ) :   0.9704 B(  3-C ,  4-H ) :   0.8635 B(  3-C ,  5-C ) :   1.0552
B(  3-C , 15-O ) :   0.9913 B(  5-C ,  6-H ) :   0.8540 B(  5-C ,  7-C ) :   1.0241
B(  5-C , 14-O ) :   1.1064 B(  7-C ,  8-H ) :   0.8772 B(  7-C ,  9-C ) :   0.9855
B(  7-C , 13-O ) :   1.1048 B(  9-C , 10-H ) :   0.8949 B(  9-C , 11-O ) :   1.0788
B(  9-C , 12-O ) :   1.0965 B( 12-O , 19-H ) :   0.8345 B( 13-O , 20-H ) :   0.8477
B( 14-O , 21-H ) :   0.8287 B( 15-O , 22-H ) :   0.8370 B( 16-O , 23-H ) :   0.8278

Dispersion correction           -0.024585329
FINAL SINGLE POINT ENERGY      -685.692234740514

DIPOLE MOMENT
-------------

Method             : SCF
Type of density    : Electron Density
Multiplicity       :   1
Irrep              :   0
Energy             :  -685.8230309876743149 Eh
Relativity type    :
Basis              : AO
                                X                 Y                 Z
Electronic contribution:      1.680329418       0.863822860       0.652605315
Nuclear contribution   :     -1.240650132      -1.157450401      -0.809986572
                        -----------------------------------------
Total Dipole Moment    :      0.439679286      -0.293627541      -0.157381257
                        -----------------------------------------
Magnitude (a.u.)       :      0.551637442
Magnitude (Debye)      :      1.402150946

Rotational constants in cm-1:             0.043955             0.025925             0.019015
Rotational constants in MHz :          1317.727076           777.209594           570.052390

                             ****ORCA TERMINATED NORMALLY****
TOTAL RUN TIME: 0 days 0 hours 0 minutes 12 seconds 295 msec
