                         Program Version 6.0.0  -   RELEASE  -
|  1> ! r2scan-3c def2/J RI DEFGRID2 scfconv6 printgap
|  2> %output
|  3>     printlevel normal
|  4> end
|  5> * xyz 0 1
|  6> C 1.2545223244 1.4599834441 -0.2320964604
|  7> C 0.7168812035 0.045624804 -0.4251362249
|  8> C 1.5184602345 -0.9609025935 0.4112659142
|  9> C -0.7380232427 -0.0548483385 -0.0113226687
| 10> O -1.280812219 0.7917978218 0.6716908493
| 11> C -1.4710566759 -1.281969502 -0.4771586662
| 12> H 1.1506679054 1.7595559992 0.8083372162
| 13> H 2.3032519623 1.5082546402 -0.5112116833
| 14> H 0.6939404319 2.1652514541 -0.8414053564
| 15> H 0.7892925576 -0.2351462225 -1.4802703115
| 16> H 1.15748741 -1.9742603441 0.261926521
| 17> H 1.4365521296 -0.7138288495 1.4674523684
| 18> H 2.5661286132 -0.918134997 0.1266124267
| 19> H -0.8485934739 -1.9236309918 -1.0899126284
| 20> H -2.3465207167 -0.9683005728 -1.0422441925
| 21> H -1.833517196 -1.8292676122 0.3906110929
| 22> *
| 23>
| 24>                          ****END OF INPUT****

CARTESIAN COORDINATES (ANGSTROEM)
---------------------------------
  C      1.254522    1.459983   -0.232096
  C      0.716881    0.045625   -0.425136
  C      1.518460   -0.960903    0.411266
  C     -0.738023   -0.054848   -0.011323
  O     -1.280812    0.791798    0.671691
  C     -1.471057   -1.281970   -0.477159
  H      1.150668    1.759556    0.808337
  H      2.303252    1.508255   -0.511212
  H      0.693940    2.165251   -0.841405
  H      0.789293   -0.235146   -1.480270
  H      1.157487   -1.974260    0.261927
  H      1.436552   -0.713829    1.467452
  H      2.566129   -0.918135    0.126612
  H     -0.848593   -1.923631   -1.089913
  H     -2.346521   -0.968301   -1.042244
  H     -1.833517   -1.829268    0.390611

 Total Charge           Charge          ....    0
 Multiplicity           Mult            ....    1
 Number of Electrons    NEL             ....   48
 Basis Dimension        Dim             ....  169

ORBITAL ENERGIES
----------------

  NO   OCC          E(Eh)            E(eV)
   0   2.0000     -18.935066      -515.2493
   1   2.0000     -10.116906      -275.2950
   2   2.0000     -10.047066      -273.3946
   3   2.0000     -10.034521      -273.0532
   4   2.0000     -10.034511      -273.0529
   5   2.0000     -10.017380      -272.5868
   6   2.0000      -1.002367       -27.2758
   7   2.0000      -0.778775       -21.1915
   8   2.0000      -0.711315       -19.3559
   9   2.0000      -0.658274       -17.9126
  10   2.0000      -0.591709       -16.1012
  11   2.0000      -0.489942       -13.3320
  12   2.0000      -0.449588       -12.2339
  13   2.0000      -0.431897       -11.7525
  14   2.0000      -0.419925       -11.4267
  15   2.0000      -0.395891       -10.7727
  16   2.0000      -0.379909       -10.3379
  17   2.0000      -0.369430       -10.0527
  18   2.0000      -0.359637        -9.7862
  19   2.0000      -0.329409        -8.9637
  20   2.0000      -0.327586        -8.9141
  21   2.0000      -0.313285        -8.5249
  22   2.0000      -0.309824        -8.4307
  23   2.0000      -0.212124        -5.7722
  24   0.0000      -0.046362        -1.2616
  25   0.0000       0.067665         1.8412
  26   0.0000       0.116910         3.1813
  27   0.0000       0.119731         3.2581
  28   0.0000       0.124556         3.3893

MULLIKEN ATOMIC CHARGES
-----------------------
   0 C :   -0.498468
   1 C :   -0.037840
   2 C :   -0.470296
   3 C :    0.290064
   4 O :   -0.347001
   5 C :   -0.537111
   6 H :    0.168013
   7 H :    0.142733
   8 H :    0.152388
   9 H :    0.152527
  10 H :    0.146433
  11 H :    0.166162
  12 H :    0.154351
  13 H :    0.156401
  14 H :    0.179126
  15 H :    0.182517
Sum of atomic charges:   -0.0000000

LOEWDIN ATOMIC CHARGES
----------------------
   0 C :   -0.397349
   1 C :   -0.226850
   2 C :   -0.388582
   3 C :    0.222171
   4 O :   -0.465644
   5 C :   -0.391512
   6 H :    0.168169
   7 H :    0.151397
   8 H :    0.161310
   9 H :    0.167337
  10 H :    0.155910
  11 H :    0.162077
  12 H :    0.157997
  13 H :    0.158107
  14 H :    0.182992
  15 H :    0.182470

  Mayer bond orders larger than 0.100000
B(  0-C ,  1-C ) :   0.9298 B(  0-C ,  6-H ) :   0.9774 B(  0-C ,  7-H ) :   0.9764
B(  0-C ,  8-H ) :   0.9713 B(  1-C ,  2-C ) :   0.8795 B(  1-C ,  3-C ) :   0.8890
B(  1-C ,  9-H ) :   0.9301 B(  2-C , 10-H ) :   0.9638 B(  2-C , 11-H ) :   0.9815
B(  2-C , 12-H ) :   0.9689 B(  3-C ,  4-O ) :   1.9240 B(  3-C ,  5-C ) :   0.8957
B(  5-C , 13-H ) :   0.9728 B(  5-C , 14-H ) :   0.9542 B(  5-C , 15-H ) :   0.9613

Dispersion correction           -0.003917674
FINAL SINGLE POINT ENERGY      -271.704877964169

DIPOLE MOMENT
-------------

Method             : SCF
Type of density    : Electron Density
Multiplicity       :   1
Irrep              :   0
Energy             :  -271.7085003590566430 Eh
Relativity type    :
Basis              : AO
                                X                 Y                 Z
Electronic contribution:     -4.210196361       2.123815877       1.190923513
Nuclear contribution   :      4.736271567      -2.924251302      -1.782031054
                        -----------------------------------------
Total Dipole Moment    :      0.526075205      -0.800435425      -0.591107541
                        -----------------------------------------
Magnitude (a.u.)       :      1.125548807
Magnitude (Debye)      :      2.860917706

Rotational constants in cm-1:             0.158858             0.099782             0.073322
Rotational constants in MHz :          4762.440091          2991.378541          2198.135944

                             ****ORCA TERMINATED NORMALLY****
TOTAL RUN TIME: 0 days 0 hours 0 minutes 22 seconds 41 msec
