                         Program Version 6.0.0  -   RELEASE  -
|  1> ! r2scan-3c def2/J RI DEFGRID2 scfconv6 printgap
|  2> %output
|  3>     printlevel normal
|  4> end
|  5> %cpcm
|  6>     smd true
|  7>     smdsolvent "water"
|  8> end
|  9> * xyz 0 1
| 10> C 1.2545223244 1.4599834441 -0.2320964604
| 11> C 0.7168812035 0.045624804 -0.4251362249
| 12> C 1.5184602345 -0.9609025935 0.4112659142
| 13> C -0.7380232427 -0.0548483385 -0.0113226687
| 14> O -1.280812219 0.7917978218 0.6716908493
| 15> C -1.4710566759 -1.281969502 -0.4771586662
| 16> H 1.1506679054 1.7595559992 0.8083372162
| 17> H 2.3032519623 1.5082546402 -0.5112116833
| 18> H 0.6939404319 2.1652514541 -0.8414053564
| 19> H 0.7892925576 -0.2351462225 -1.4802703115
| 20> H 1.15748741 -1.9742603441 0.261926521
| 21> H 1.4365521296 -0.7138288495 1.4674523684
| 22> H 2.5661286132 -0.918134997 0.1266124267
| 23> H -0.8485934739 -1.9236309918 -1.0899126284
| 24> H -2.3465207167 -0.9683005728 -1.0422441925
| 25> H -1.833517196 -1.8292676122 0.3906110929
| 26> *
| 27>
| 28>                          ****END OF INPUT****

CARTESIAN COORDINATES (ANGSTROEM)
---------------------------------
  C      1.254522    1.459983   -0.232096
  C      0.716881    0.045625   -0.425136
  C      1.518460   -0.960903    0.411266
  C     -0.738023   -0.054848   -0.011323
  O     -1.280812    0.791798    0.671691
  C     -1.471057   -1.281970   -0.477159
  H      1.150668    1.759556    0.808337
  H      2.303252    1.508255   -0.511212
  H      0.693940    2.165251   -0.841405
  H      0.789293   -0.235146   -1.480270
  H      1.157487   -1.974260    0.261927
  H      1.436552   -0.713829    1.467452
  H      2.566129   -0.918135    0.126612
  H     -0.848593   -1.923631   -1.089913
  H     -2.346521   -0.968301   -1.042244
  H     -1.833517   -1.829268    0.390611

 Total Charge           Charge          ....    0
 Multiplicity           Mult            ....    1
 Number of Electrons    NEL             ....   48
 Basis Dimension        Dim             ....  169

ORBITAL ENERGIES
----------------

  NO   OCC          E(Eh)            E(eV)
   0   2.0000     -18.945739      -515.5398
   1   2.0000     -10.122488      -275.4469
   2   2.0000     -10.037986      -273.1475
   3   2.0000     -10.022005      -272.7126
   4   2.0000     -10.020076      -272.6601
   5   2.0000     -10.011368      -272.4232
   6   2.0000      -1.014573       -27.6079
   7   2.0000      -0.770270       -20.9601
   8   2.0000      -0.702143       -19.1063
   9   2.0000      -0.648246       -17.6397
  10   2.0000      -0.583968       -15.8906
  11   2.0000      -0.486890       -13.2490
  12   2.0000      -0.445862       -12.1325
  13   2.0000      -0.425571       -11.5804
  14   2.0000      -0.416991       -11.3469
  15   2.0000      -0.393102       -10.6968
  16   2.0000      -0.372553       -10.1377
  17   2.0000      -0.357354        -9.7241
  18   2.0000      -0.349793        -9.5184
  19   2.0000      -0.328622        -8.9423
  20   2.0000      -0.324622        -8.8334
  21   2.0000      -0.305552        -8.3145
  22   2.0000      -0.303171        -8.2497
  23   2.0000      -0.222136        -6.0446
  24   0.0000      -0.048540        -1.3208
  25   0.0000       0.079125         2.1531
  26   0.0000       0.130328         3.5464
  27   0.0000       0.132566         3.6073
  28   0.0000       0.137382         3.7384

MULLIKEN ATOMIC CHARGES
-----------------------
   0 C :   -0.560501
   1 C :   -0.003410
   2 C :   -0.508615
   3 C :    0.329064
   4 O :   -0.452952
   5 C :   -0.572980
   6 H :    0.166505
   7 H :    0.164313
   8 H :    0.164859
   9 H :    0.180760
  10 H :    0.166685
  11 H :    0.172352
  12 H :    0.171134
  13 H :    0.184010
  14 H :    0.197579
  15 H :    0.201197
Sum of atomic charges:   -0.0000000

LOEWDIN ATOMIC CHARGES
----------------------
   0 C :   -0.407760
   1 C :   -0.218950
   2 C :   -0.389954
   3 C :    0.240704
   4 O :   -0.542220
   5 C :   -0.388803
   6 H :    0.163669
   7 H :    0.159666
   8 H :    0.161442
   9 H :    0.180815
  10 H :    0.163405
  11 H :    0.162995
  12 H :    0.163921
  13 H :    0.171353
  14 H :    0.190081
  15 H :    0.189638

  Mayer bond orders larger than 0.100000
B(  0-C ,  1-C ) :   0.8918 B(  0-C ,  6-H ) :   0.9810 B(  0-C ,  7-H ) :   0.9700
B(  0-C ,  8-H ) :   0.9745 B(  1-C ,  2-C ) :   0.8692 B(  1-C ,  3-C ) :   0.9051
B(  1-C ,  9-H ) :   0.9192 B(  2-C , 10-H ) :   0.9594 B(  2-C , 11-H ) :   0.9782
B(  2-C , 12-H ) :   0.9642 B(  3-C ,  4-O ) :   1.8442 B(  3-C ,  5-C ) :   0.9137
B(  5-C , 13-H ) :   0.9597 B(  5-C , 14-H ) :   0.9459 B(  5-C , 15-H ) :   0.9530

Dispersion correction           -0.003917674
FINAL SINGLE POINT ENERGY      -271.711098538333

DIPOLE MOMENT
-------------

Method             : SCF
Type of density    : Electron Density
Multiplicity       :   1
Irrep              :   0
Energy             :  -271.7147209332203488 Eh
Relativity type    :
Basis              : AO
                                X                 Y                 Z
Electronic contribution:     -3.962931295       1.707805791       0.872451501
Nuclear contribution   :      4.736271567      -2.924251302      -1.782031054
                        -----------------------------------------
Total Dipole Moment    :      0.773340272      -1.216445511      -0.909579553
                        -----------------------------------------
Magnitude (a.u.)       :      1.704444138
Magnitude (Debye)      :      4.332352701

Rotational constants in cm-1:             0.158858             0.099782             0.073322
Rotational constants in MHz :          4762.440091          2991.378541          2198.135944

                             ****ORCA TERMINATED NORMALLY****
TOTAL RUN TIME: 0 days 0 hours 0 minutes 21 seconds 925 msec
