                         Program Version 6.0.0  -   RELEASE  -
|  1> ! pbe def2-sv(p) def2/J RI DEFGRID1 loosescf d4 GCP(DFT/SV(P)) printgap
|  2> %output
|  3>     printlevel normal
|  4> end
|  5> * xyz 0 1
|  6> C 3.7094966315 -0.151504094 0.0824689758
|  7> C 2.2255875127 -0.1787778287 -0.0277694967
|  8> C 1.4659206826 0.9013252412 0.2094889186
|  9> C 0.0190382061 0.9374852398 0.0668174464
| 10> O -0.607396558 1.9664201112 0.3028479046
| 11> C -0.6281000495 -0.3368060083 -0.4484943753
| 12> H -0.504654936 -0.2878298929 -1.5403980179
| 13> C 0.1560880345 -1.551545821 0.0541787715
| 14> C 1.6023548456 -1.4788566921 -0.4205907801
| 15> C -2.1391430713 -0.4577520791 -0.1655317894
| 16> C -2.4727259405 -0.2632901173 1.3123896091
| 17> C -2.941731335 0.5193739341 -1.0240407994
| 18> H 4.1566380012 -0.5501009214 -0.8261325725
| 19> H 4.0270954761 -0.7873268502 0.9077933537
| 20> H 4.076924427 0.8558754701 0.2535065868
| 21> H 1.9139389955 1.8389740588 0.5102253537
| 22> H 0.1365704898 -1.5713930829 1.1454420692
| 23> H -0.3145226224 -2.4653809926 -0.3109596571
| 24> H 2.1823332792 -2.3083703346 -0.0139773669
| 25> H 1.6338656928 -1.5607803554 -1.5120132947
| 26> H -2.4335196408 -1.4760215452 -0.4491967149
| 27> H -2.2043293593 0.7413634367 1.6304873071
| 28> H -1.9411805812 -0.9800796175 1.9329963669
| 29> H -3.5396764223 -0.3978763596 1.472635382
| 30> H -4.0059559889 0.3980044255 -0.8367418233
| 31> H -2.7563599583 0.3460022474 -2.0821514771
| 32> H -2.6639069566 1.5428712675 -0.7859411428
| 33> *
| 34>
| 35>                          ****END OF INPUT****

CARTESIAN COORDINATES (ANGSTROEM)
---------------------------------
  C      3.709497   -0.151504    0.082469
  C      2.225588   -0.178778   -0.027769
  C      1.465921    0.901325    0.209489
  C      0.019038    0.937485    0.066817
  O     -0.607397    1.966420    0.302848
  C     -0.628100   -0.336806   -0.448494
  H     -0.504655   -0.287830   -1.540398
  C      0.156088   -1.551546    0.054179
  C      1.602355   -1.478857   -0.420591
  C     -2.139143   -0.457752   -0.165532
  C     -2.472726   -0.263290    1.312390
  C     -2.941731    0.519374   -1.024041
  H      4.156638   -0.550101   -0.826133
  H      4.027095   -0.787327    0.907793
  H      4.076924    0.855875    0.253507
  H      1.913939    1.838974    0.510225
  H      0.136570   -1.571393    1.145442
  H     -0.314523   -2.465381   -0.310960
  H      2.182333   -2.308370   -0.013977
  H      1.633866   -1.560780   -1.512013
  H     -2.433520   -1.476022   -0.449197
  H     -2.204329    0.741363    1.630487
  H     -1.941181   -0.980080    1.932996
  H     -3.539676   -0.397876    1.472635
  H     -4.005956    0.398004   -0.836742
  H     -2.756360    0.346002   -2.082151
  H     -2.663907    1.542871   -0.785941

 Total Charge           Charge          ....    0
 Multiplicity           Mult            ....    1
 Number of Electrons    NEL             ....   84
 Basis Dimension        Dim             ....  186

ORBITAL ENERGIES
----------------

  NO   OCC          E(Eh)            E(eV)
   0   2.0000     -18.727022      -509.5882
   1   2.0000      -9.964034      -271.1352
   2   2.0000      -9.922639      -270.0087
   3   2.0000      -9.902678      -269.4656
   4   2.0000      -9.897877      -269.3349
   5   2.0000      -9.896160      -269.2882
   6   2.0000      -9.895313      -269.2652
   7   2.0000      -9.892453      -269.1873
   8   2.0000      -9.888987      -269.0930
   9   2.0000      -9.862457      -268.3711
  10   2.0000      -9.858241      -268.2564
  11   2.0000      -0.922401       -25.0998
  12   2.0000      -0.775790       -21.1103
  13   2.0000      -0.729116       -19.8403
  14   2.0000      -0.683141       -18.5892
  15   2.0000      -0.657158       -17.8822
  16   2.0000      -0.620615       -16.8878
  17   2.0000      -0.600931       -16.3522
  18   2.0000      -0.553878       -15.0718
  19   2.0000      -0.524648       -14.2764
  20   2.0000      -0.496890       -13.5211
  21   2.0000      -0.461616       -12.5612
  22   2.0000      -0.434150       -11.8138
  23   2.0000      -0.417775       -11.3682
  24   2.0000      -0.403903       -10.9907
  25   2.0000      -0.394232       -10.7276
  26   2.0000      -0.381703       -10.3867
  27   2.0000      -0.379184       -10.3181
  28   2.0000      -0.370981       -10.0949
  29   2.0000      -0.358255        -9.7486
  30   2.0000      -0.348114        -9.4727
  31   2.0000      -0.346704        -9.4343
  32   2.0000      -0.333792        -9.0829
  33   2.0000      -0.325088        -8.8461
  34   2.0000      -0.319818        -8.7027
  35   2.0000      -0.302665        -8.2359
  36   2.0000      -0.298357        -8.1187
  37   2.0000      -0.282844        -7.6966
  38   2.0000      -0.276228        -7.5166
  39   2.0000      -0.269082        -7.3221
  40   2.0000      -0.233489        -6.3536
  41   2.0000      -0.185579        -5.0499
  42   0.0000      -0.080220        -2.1829
  43   0.0000       0.012352         0.3361
  44   0.0000       0.034694         0.9441
  45   0.0000       0.047644         1.2965
  46   0.0000       0.064458         1.7540

MULLIKEN ATOMIC CHARGES
-----------------------
   0 C :   -0.213220
   1 C :   -0.100500
   2 C :   -0.108133
   3 C :    0.082126
   4 O :   -0.174997
   5 C :   -0.187004
   6 H :    0.087611
   7 C :   -0.136325
   8 C :   -0.063786
   9 C :   -0.105651
  10 C :   -0.268310
  11 C :   -0.247130
  12 H :    0.117696
  13 H :    0.122804
  14 H :    0.112696
  15 H :    0.042762
  16 H :    0.100655
  17 H :    0.081643
  18 H :    0.090189
  19 H :    0.099300
  20 H :    0.058850
  21 H :    0.123220
  22 H :    0.094532
  23 H :    0.093856
  24 H :    0.090597
  25 H :    0.084438
  26 H :    0.122080
Sum of atomic charges:   -0.0000000

LOEWDIN ATOMIC CHARGES
----------------------
   0 C :   -0.321393
   1 C :   -0.014480
   2 C :   -0.170008
   3 C :    0.047748
   4 O :   -0.141031
   5 C :   -0.157162
   6 H :    0.136065
   7 C :   -0.207423
   8 C :   -0.213617
   9 C :   -0.139643
  10 C :   -0.337308
  11 C :   -0.337511
  12 H :    0.135722
  13 H :    0.138752
  14 H :    0.129712
  15 H :    0.128433
  16 H :    0.121908
  17 H :    0.119216
  18 H :    0.125754
  19 H :    0.136755
  20 H :    0.111244
  21 H :    0.126462
  22 H :    0.111643
  23 H :    0.117904
  24 H :    0.114503
  25 H :    0.110844
  26 H :    0.126912

  Mayer bond orders larger than 0.100000
B(  0-C ,  1-C ) :   1.1297 B(  0-C , 12-H ) :   0.9284 B(  0-C , 13-H ) :   0.9214
B(  0-C , 14-H ) :   0.9420 B(  1-C ,  2-C ) :   1.7202 B(  1-C ,  8-C ) :   1.0709
B(  2-C ,  3-C ) :   1.0693 B(  2-C , 15-H ) :   0.9355 B(  3-C ,  4-O ) :   2.0669
B(  3-C ,  5-C ) :   0.9411 B(  5-C ,  6-H ) :   0.8595 B(  5-C ,  7-C ) :   1.0710
B(  5-C ,  9-C ) :   1.0304 B(  7-C ,  8-C ) :   1.1251 B(  7-C , 16-H ) :   0.9106
B(  7-C , 17-H ) :   0.9080 B(  8-C , 18-H ) :   0.9058 B(  8-C , 19-H ) :   0.8697
B(  9-C , 10-C ) :   1.1069 B(  9-C , 11-C ) :   1.1079 B(  9-C , 20-H ) :   0.8997
B( 10-C , 21-H ) :   0.9371 B( 10-C , 22-H ) :   0.9472 B( 10-C , 23-H ) :   0.9464
B( 11-C , 24-H ) :   0.9473 B( 11-C , 25-H ) :   0.9467 B( 11-C , 26-H ) :   0.9363

Dispersion correction           -0.028283517
FINAL SINGLE POINT ENERGY      -464.843437916693

DIPOLE MOMENT
-------------

Method             : SCF
Type of density    : Electron Density
Multiplicity       :   1
Irrep              :   0
Energy             :  -464.9295649731485582 Eh
Relativity type    :
Basis              : AO
                                X                 Y                 Z
Electronic contribution:      3.121101739       5.081217828       0.202740984
Nuclear contribution   :     -2.107441687      -6.220970703      -0.468744404
                        -----------------------------------------
Total Dipole Moment    :      1.013660052      -1.139752876      -0.266003420
                        -----------------------------------------
Magnitude (a.u.)       :      1.548322039
Magnitude (Debye)      :      3.935521863

Rotational constants in cm-1:             0.072685             0.023683             0.020550
Rotational constants in MHz :          2179.046573           710.012645           616.081720

                             ****ORCA TERMINATED NORMALLY****
TOTAL RUN TIME: 0 days 0 hours 0 minutes 10 seconds 765 msec
