                         Program Version 6.0.0  -   RELEASE  -
|  1> ! r2scan-3c def2/J RI DEFGRID2 scfconv6 printgap
|  2> %output
|  3>     printlevel normal
|  4> end
|  5> * xyz 0 1
|  6> C -2.571371883 -0.7014583838 -0.2966272977
|  7> C -1.1949386727 -0.2830879034 0.2361453734
|  8> H -1.2236855043 -0.2395865068 1.3359621228
|  9> C -0.7336762128 1.0822089726 -0.3048867061
| 10> H -0.737398485 1.050783903 -1.403731611
| 11> C 0.7041145233 1.343790761 0.1675551861
| 12> H 0.6912021454 1.4508974851 1.2636829136
| 13> C 1.6248286798 0.1751561658 -0.2018186457
| 14> H 1.6984362194 0.1266774138 -1.3001101728
| 15> C 1.021293065 -1.1435596961 0.3155556864
| 16> H 1.0206985534 -1.1208500634 1.4170758382
| 17> O -0.292669096 -1.2958910717 -0.1781846649
| 18> O 1.7417312743 -2.2577780849 -0.0428506334
| 19> O 2.8955233072 0.3257095094 0.3701210523
| 20> O 1.2386452904 2.5017847868 -0.4252634674
| 21> O -1.5093090336 2.1528811276 0.1743718592
| 22> O -2.9946217835 -1.9213732653 0.2517299781
| 23> H -2.5183850907 -0.769005526 -1.3911743912
| 24> H -3.3238213634 0.0321791222 -0.0052460547
| 25> H 1.7515186482 -2.3516413724 -1.0090894515
| 26> H 3.2382750045 1.1987140743 0.12137881
| 27> H 0.64469748 3.2443120826 -0.2387633916
| 28> H -2.370212441 2.1737662478 -0.2643924348
| 29> H -2.3027156801 -2.5811733152 0.0964394291
| 30> *
| 31>
| 32>                          ****END OF INPUT****

CARTESIAN COORDINATES (ANGSTROEM)
---------------------------------
  C     -2.571372   -0.701458   -0.296627
  C     -1.194939   -0.283088    0.236145
  H     -1.223686   -0.239587    1.335962
  C     -0.733676    1.082209   -0.304887
  H     -0.737398    1.050784   -1.403732
  C      0.704115    1.343791    0.167555
  H      0.691202    1.450897    1.263683
  C      1.624829    0.175156   -0.201819
  H      1.698436    0.126677   -1.300110
  C      1.021293   -1.143560    0.315556
  H      1.020699   -1.120850    1.417076
  O     -0.292669   -1.295891   -0.178185
  O      1.741731   -2.257778   -0.042851
  O      2.895523    0.325710    0.370121
  O      1.238645    2.501785   -0.425263
  O     -1.509309    2.152881    0.174372
  O     -2.994622   -1.921373    0.251730
  H     -2.518385   -0.769006   -1.391174
  H     -3.323821    0.032179   -0.005246
  H      1.751519   -2.351641   -1.009089
  H      3.238275    1.198714    0.121379
  H      0.644697    3.244312   -0.238763
  H     -2.370212    2.173766   -0.264392
  H     -2.302716   -2.581173    0.096439

 Total Charge           Charge          ....    0
 Multiplicity           Mult            ....    1
 Number of Electrons    NEL             ....   96
 Basis Dimension        Dim             ....  318

ORBITAL ENERGIES
----------------

  NO   OCC          E(Eh)            E(eV)
   0   2.0000     -18.981299      -516.5074
   1   2.0000     -18.978143      -516.4215
   2   2.0000     -18.968176      -516.1503
   3   2.0000     -18.967467      -516.1310
   4   2.0000     -18.957835      -515.8689
   5   2.0000     -18.955337      -515.8009
   6   2.0000     -10.143400      -276.0159
   7   2.0000     -10.102883      -274.9134
   8   2.0000     -10.099302      -274.8160
   9   2.0000     -10.097805      -274.7752
  10   2.0000     -10.094785      -274.6931
  11   2.0000     -10.091803      -274.6119
  12   2.0000      -1.056719       -28.7548
  13   2.0000      -1.026222       -27.9249
  14   2.0000      -1.009633       -27.4735
  15   2.0000      -0.999389       -27.1948
  16   2.0000      -0.989869       -26.9357
  17   2.0000      -0.982544       -26.7364
  18   2.0000      -0.760401       -20.6916
  19   2.0000      -0.741444       -20.1757
  20   2.0000      -0.666689       -18.1415
  21   2.0000      -0.623570       -16.9682
  22   2.0000      -0.600076       -16.3289
  23   2.0000      -0.571559       -15.5529
  24   2.0000      -0.532580       -14.4922
  25   2.0000      -0.524042       -14.2599
  26   2.0000      -0.502283       -13.6678
  27   2.0000      -0.483534       -13.1576
  28   2.0000      -0.474329       -12.9071
  29   2.0000      -0.458372       -12.4729
  30   2.0000      -0.439296       -11.9539
  31   2.0000      -0.437842       -11.9143
  32   2.0000      -0.422680       -11.5017
  33   2.0000      -0.404149       -10.9975
  34   2.0000      -0.391406       -10.6507
  35   2.0000      -0.369282       -10.0487
  36   2.0000      -0.359228        -9.7751
  37   2.0000      -0.343436        -9.3454
  38   2.0000      -0.336757        -9.1636
  39   2.0000      -0.326028        -8.8717
  40   2.0000      -0.314777        -8.5655
  41   2.0000      -0.304496        -8.2858
  42   2.0000      -0.282244        -7.6803
  43   2.0000      -0.265568        -7.2265
  44   2.0000      -0.260898        -7.0994
  45   2.0000      -0.249365        -6.7856
  46   2.0000      -0.245449        -6.6790
  47   2.0000      -0.235317        -6.4033
  48   0.0000       0.017277         0.4701
  49   0.0000       0.046219         1.2577
  50   0.0000       0.060391         1.6433
  51   0.0000       0.066704         1.8151
  52   0.0000       0.082956         2.2573

MULLIKEN ATOMIC CHARGES
-----------------------
   0 C :   -0.282471
   1 C :    0.009420
   2 H :    0.184703
   3 C :   -0.021805
   4 H :    0.163745
   5 C :   -0.030550
   6 H :    0.170113
   7 C :    0.075138
   8 H :    0.159276
   9 C :   -0.174378
  10 H :    0.158277
  11 O :   -0.201798
  12 O :   -0.348524
  13 O :   -0.417480
  14 O :   -0.442213
  15 O :   -0.435351
  16 O :   -0.409840
  17 H :    0.143634
  18 H :    0.136115
  19 H :    0.312051
  20 H :    0.315716
  21 H :    0.313668
  22 H :    0.304913
  23 H :    0.317641
Sum of atomic charges:   -0.0000000

LOEWDIN ATOMIC CHARGES
----------------------
   0 C :    0.035366
   1 C :    0.106163
   2 H :    0.188623
   3 C :    0.104159
   4 H :    0.182796
   5 C :    0.109527
   6 H :    0.187586
   7 C :    0.118114
   8 H :    0.181314
   9 C :    0.300955
  10 H :    0.200650
  11 O :   -0.693628
  12 O :   -0.464730
  13 O :   -0.556099
  14 O :   -0.578012
  15 O :   -0.586269
  16 O :   -0.584818
  17 H :    0.167717
  18 H :    0.180371
  19 H :    0.280178
  20 H :    0.284347
  21 H :    0.283199
  22 H :    0.274729
  23 H :    0.277762

  Mayer bond orders larger than 0.100000
B(  0-C ,  1-C ) :   0.8827 B(  0-C , 16-O ) :   1.0123 B(  0-C , 17-H ) :   0.9969
B(  0-C , 18-H ) :   0.9753 B(  1-C ,  2-H ) :   0.9552 B(  1-C ,  3-C ) :   0.7781
B(  1-C , 11-O ) :   0.7689 B(  3-C ,  4-H ) :   0.9791 B(  3-C ,  5-C ) :   0.8566
B(  3-C , 15-O ) :   0.8984 B(  5-C ,  6-H ) :   0.9938 B(  5-C ,  7-C ) :   0.8796
B(  5-C , 14-O ) :   0.9233 B(  7-C ,  8-H ) :   0.9476 B(  7-C ,  9-C ) :   0.8502
B(  7-C , 13-O ) :   0.8896 B(  9-C , 10-H ) :   1.0018 B(  9-C , 11-O ) :   0.9336
B(  9-C , 12-O ) :   1.1452 B( 12-O , 19-H ) :   0.8755 B( 13-O , 20-H ) :   0.8766
B( 14-O , 21-H ) :   0.8763 B( 15-O , 22-H ) :   0.8923 B( 16-O , 23-H ) :   0.8700

Dispersion correction           -0.007977952
FINAL SINGLE POINT ENERGY      -687.076237942367

DIPOLE MOMENT
-------------

Method             : SCF
Type of density    : Electron Density
Multiplicity       :   1
Irrep              :   0
Energy             :  -687.0876137582002912 Eh
Relativity type    :
Basis              : AO
                                X                 Y                 Z
Electronic contribution:      2.698062186      -1.174152146       0.474112593
Nuclear contribution   :     -3.203238763       2.070787569      -1.290547721
                        -----------------------------------------
Total Dipole Moment    :     -0.505176578       0.896635424      -0.816435128
                        -----------------------------------------
Magnitude (a.u.)       :      1.313668442
Magnitude (Debye)      :      3.339079819

Rotational constants in cm-1:             0.038807             0.026310             0.016399
Rotational constants in MHz :          1163.404427           788.755701           491.625060

                             ****ORCA TERMINATED NORMALLY****
TOTAL RUN TIME: 0 days 0 hours 0 minutes 48 seconds 207 msec
