                         Program Version 6.0.0  -   RELEASE  -
|  1> ! r2scan-3c def2/J RI DEFGRID2 scfconv6 printgap
|  2> %output
|  3>     printlevel normal
|  4> end
|  5> %cpcm
|  6>     smd true
|  7>     smdsolvent "water"
|  8> end
|  9> * xyz 0 1
| 10> C -2.571371883 -0.7014583838 -0.2966272977
| 11> C -1.1949386727 -0.2830879034 0.2361453734
| 12> H -1.2236855043 -0.2395865068 1.3359621228
| 13> C -0.7336762128 1.0822089726 -0.3048867061
| 14> H -0.737398485 1.050783903 -1.403731611
| 15> C 0.7041145233 1.343790761 0.1675551861
| 16> H 0.6912021454 1.4508974851 1.2636829136
| 17> C 1.6248286798 0.1751561658 -0.2018186457
| 18> H 1.6984362194 0.1266774138 -1.3001101728
| 19> C 1.021293065 -1.1435596961 0.3155556864
| 20> H 1.0206985534 -1.1208500634 1.4170758382
| 21> O -0.292669096 -1.2958910717 -0.1781846649
| 22> O 1.7417312743 -2.2577780849 -0.0428506334
| 23> O 2.8955233072 0.3257095094 0.3701210523
| 24> O 1.2386452904 2.5017847868 -0.4252634674
| 25> O -1.5093090336 2.1528811276 0.1743718592
| 26> O -2.9946217835 -1.9213732653 0.2517299781
| 27> H -2.5183850907 -0.769005526 -1.3911743912
| 28> H -3.3238213634 0.0321791222 -0.0052460547
| 29> H 1.7515186482 -2.3516413724 -1.0090894515
| 30> H 3.2382750045 1.1987140743 0.12137881
| 31> H 0.64469748 3.2443120826 -0.2387633916
| 32> H -2.370212441 2.1737662478 -0.2643924348
| 33> H -2.3027156801 -2.5811733152 0.0964394291
| 34> *
| 35>
| 36>                          ****END OF INPUT****

CARTESIAN COORDINATES (ANGSTROEM)
---------------------------------
  C     -2.571372   -0.701458   -0.296627
  C     -1.194939   -0.283088    0.236145
  H     -1.223686   -0.239587    1.335962
  C     -0.733676    1.082209   -0.304887
  H     -0.737398    1.050784   -1.403732
  C      0.704115    1.343791    0.167555
  H      0.691202    1.450897    1.263683
  C      1.624829    0.175156   -0.201819
  H      1.698436    0.126677   -1.300110
  C      1.021293   -1.143560    0.315556
  H      1.020699   -1.120850    1.417076
  O     -0.292669   -1.295891   -0.178185
  O      1.741731   -2.257778   -0.042851
  O      2.895523    0.325710    0.370121
  O      1.238645    2.501785   -0.425263
  O     -1.509309    2.152881    0.174372
  O     -2.994622   -1.921373    0.251730
  H     -2.518385   -0.769006   -1.391174
  H     -3.323821    0.032179   -0.005246
  H      1.751519   -2.351641   -1.009089
  H      3.238275    1.198714    0.121379
  H      0.644697    3.244312   -0.238763
  H     -2.370212    2.173766   -0.264392
  H     -2.302716   -2.581173    0.096439

 Total Charge           Charge          ....    0
 Multiplicity           Mult            ....    1
 Number of Electrons    NEL             ....   96
 Basis Dimension        Dim             ....  318

ORBITAL ENERGIES
----------------

  NO   OCC          E(Eh)            E(eV)
   0   2.0000     -18.973847      -516.3046
   1   2.0000     -18.970456      -516.2124
   2   2.0000     -18.963618      -516.0263
   3   2.0000     -18.961620      -515.9719
   4   2.0000     -18.960691      -515.9466
   5   2.0000     -18.956205      -515.8246
   6   2.0000     -10.138586      -275.8850
   7   2.0000     -10.087723      -274.5009
   8   2.0000     -10.087594      -274.4974
   9   2.0000     -10.087213      -274.4870
  10   2.0000     -10.086927      -274.4792
  11   2.0000     -10.077206      -274.2147
  12   2.0000      -1.054071       -28.6827
  13   2.0000      -1.014824       -27.6148
  14   2.0000      -1.005036       -27.3484
  15   2.0000      -0.996303       -27.1108
  16   2.0000      -0.985497       -26.8167
  17   2.0000      -0.981537       -26.7090
  18   2.0000      -0.748715       -20.3736
  19   2.0000      -0.733344       -19.9553
  20   2.0000      -0.656740       -17.8708
  21   2.0000      -0.615202       -16.7405
  22   2.0000      -0.591941       -16.1075
  23   2.0000      -0.561600       -15.2819
  24   2.0000      -0.521345       -14.1865
  25   2.0000      -0.516472       -14.0539
  26   2.0000      -0.490712       -13.3530
  27   2.0000      -0.476150       -12.9567
  28   2.0000      -0.467682       -12.7263
  29   2.0000      -0.450643       -12.2626
  30   2.0000      -0.437016       -11.8918
  31   2.0000      -0.429253       -11.6806
  32   2.0000      -0.413511       -11.2522
  33   2.0000      -0.396103       -10.7785
  34   2.0000      -0.383804       -10.4438
  35   2.0000      -0.363045        -9.8789
  36   2.0000      -0.355225        -9.6662
  37   2.0000      -0.342673        -9.3246
  38   2.0000      -0.331642        -9.0244
  39   2.0000      -0.324766        -8.8373
  40   2.0000      -0.314180        -8.5493
  41   2.0000      -0.299864        -8.1597
  42   2.0000      -0.279666        -7.6101
  43   2.0000      -0.261887        -7.1263
  44   2.0000      -0.254534        -6.9262
  45   2.0000      -0.250819        -6.8251
  46   2.0000      -0.244264        -6.6468
  47   2.0000      -0.229203        -6.2369
  48   0.0000       0.037824         1.0293
  49   0.0000       0.063490         1.7277
  50   0.0000       0.080843         2.1999
  51   0.0000       0.087028         2.3682
  52   0.0000       0.094788         2.5793

MULLIKEN ATOMIC CHARGES
-----------------------
   0 C :   -0.264688
   1 C :   -0.022929
   2 H :    0.199146
   3 C :   -0.031199
   4 H :    0.188675
   5 C :   -0.009668
   6 H :    0.181703
   7 C :    0.062133
   8 H :    0.184540
   9 C :   -0.136916
  10 H :    0.178365
  11 O :   -0.245043
  12 O :   -0.428832
  13 O :   -0.491658
  14 O :   -0.497136
  15 O :   -0.491369
  16 O :   -0.487391
  17 H :    0.157869
  18 H :    0.168626
  19 H :    0.368903
  20 H :    0.354325
  21 H :    0.351648
  22 H :    0.356798
  23 H :    0.354098
Sum of atomic charges:   -0.0000000

LOEWDIN ATOMIC CHARGES
----------------------
   0 C :    0.039069
   1 C :    0.110500
   2 H :    0.194615
   3 C :    0.111148
   4 H :    0.192597
   5 C :    0.110366
   6 H :    0.193687
   7 C :    0.118724
   8 H :    0.193395
   9 C :    0.298165
  10 H :    0.207936
  11 O :   -0.704225
  12 O :   -0.498352
  13 O :   -0.590949
  14 O :   -0.598691
  15 O :   -0.598977
  16 O :   -0.624681
  17 H :    0.176571
  18 H :    0.193936
  19 H :    0.299604
  20 H :    0.297562
  21 H :    0.295479
  22 H :    0.293970
  23 H :    0.288550

  Mayer bond orders larger than 0.100000
B(  0-C ,  1-C ) :   0.9168 B(  0-C , 16-O ) :   0.9852 B(  0-C , 17-H ) :   0.9838
B(  0-C , 18-H ) :   0.9620 B(  1-C ,  2-H ) :   0.9473 B(  1-C ,  3-C ) :   0.8142
B(  1-C , 11-O ) :   0.7658 B(  3-C ,  4-H ) :   0.9772 B(  3-C ,  5-C ) :   0.8717
B(  3-C , 15-O ) :   0.8953 B(  5-C ,  6-H ) :   0.9683 B(  5-C ,  7-C ) :   0.9000
B(  5-C , 14-O ) :   0.9080 B(  7-C ,  8-H ) :   0.9435 B(  7-C ,  9-C ) :   0.8572
B(  7-C , 13-O ) :   0.8680 B(  9-C , 10-H ) :   0.9914 B(  9-C , 11-O ) :   0.9384
B(  9-C , 12-O ) :   1.1207 B( 12-O , 19-H ) :   0.8463 B( 13-O , 20-H ) :   0.8581
B( 14-O , 21-H ) :   0.8573 B( 15-O , 22-H ) :   0.8658 B( 16-O , 23-H ) :   0.8522

Dispersion correction           -0.007977952
FINAL SINGLE POINT ENERGY      -687.112437343764

DIPOLE MOMENT
-------------

Method             : SCF
Type of density    : Electron Density
Multiplicity       :   1
Irrep              :   0
Energy             :  -687.1238131595972618 Eh
Relativity type    :
Basis              : AO
                                X                 Y                 Z
Electronic contribution:      2.388359599      -0.798162929       0.102728468
Nuclear contribution   :     -3.203238763       2.070787569      -1.290547721
                        -----------------------------------------
Total Dipole Moment    :     -0.814879165       1.272624641      -1.187819253
                        -----------------------------------------
Magnitude (a.u.)       :      1.922112408
Magnitude (Debye)      :      4.885621473

Rotational constants in cm-1:             0.038807             0.026310             0.016399
Rotational constants in MHz :          1163.404427           788.755701           491.625060

                             ****ORCA TERMINATED NORMALLY****
TOTAL RUN TIME: 0 days 0 hours 0 minutes 57 seconds 146 msec
