                         Program Version 6.0.0  -   RELEASE  -
|  1> ! r2scan-3c def2/J RI DEFGRID2 scfconv6 printgap
|  2> %output
|  3>     printlevel normal
|  4> end
|  5> * xyz 0 1
|  6> C -2.3354869251 -0.1745720774 -0.5448152415
|  7> C -1.275606402 -0.6005009712 0.4723471375
|  8> C 0.0097370743 0.1468594344 0.2293284489
|  9> O 0.13382459 1.3529924328 0.2699739931
| 10> O 1.0140842969 -0.6761833528 -0.0509767231
| 11> C 2.2951413193 -0.0960790876 -0.3123891542
| 12> H -2.4640913998 0.9047206786 -0.5149339136
| 13> H -2.0352197864 -0.4601553764 -1.549803565
| 14> H -3.2831999249 -0.6509198878 -0.3137912759
| 15> H -1.0760736532 -1.6688988929 0.4079573826
| 16> H -1.6193949226 -0.3517167156 1.4774343685
| 17> H 2.6056941819 0.5177280975 0.5338304266
| 18> H 2.2450675509 0.5291431523 -1.2044642734
| 19> H 2.9710533959 -0.932380552 -0.4591524676
| 20> *
| 21>
| 22>                          ****END OF INPUT****

CARTESIAN COORDINATES (ANGSTROEM)
---------------------------------
  C     -2.335487   -0.174572   -0.544815
  C     -1.275606   -0.600501    0.472347
  C      0.009737    0.146859    0.229328
  O      0.133825    1.352992    0.269974
  O      1.014084   -0.676183   -0.050977
  C      2.295141   -0.096079   -0.312389
  H     -2.464091    0.904721   -0.514934
  H     -2.035220   -0.460155   -1.549804
  H     -3.283200   -0.650920   -0.313791
  H     -1.076074   -1.668899    0.407957
  H     -1.619395   -0.351717    1.477434
  H      2.605694    0.517728    0.533830
  H      2.245068    0.529143   -1.204464
  H      2.971053   -0.932381   -0.459152

 Total Charge           Charge          ....    0
 Multiplicity           Mult            ....    1
 Number of Electrons    NEL             ....   48
 Basis Dimension        Dim             ....  164

ORBITAL ENERGIES
----------------

  NO   OCC          E(Eh)            E(eV)
   0   2.0000     -19.000999      -517.0435
   1   2.0000     -18.929160      -515.0886
   2   2.0000     -10.152399      -276.2608
   3   2.0000     -10.087482      -274.4943
   4   2.0000     -10.044795      -273.3328
   5   2.0000     -10.029285      -272.9107
   6   2.0000      -1.074269       -29.2324
   7   2.0000      -0.976576       -26.5740
   8   2.0000      -0.759958       -20.6795
   9   2.0000      -0.697824       -18.9888
  10   2.0000      -0.611846       -16.6492
  11   2.0000      -0.532808       -14.4985
  12   2.0000      -0.470840       -12.8122
  13   2.0000      -0.454916       -12.3789
  14   2.0000      -0.446740       -12.1564
  15   2.0000      -0.414689       -11.2843
  16   2.0000      -0.399193       -10.8626
  17   2.0000      -0.375187       -10.2094
  18   2.0000      -0.348169        -9.4742
  19   2.0000      -0.334953        -9.1145
  20   2.0000      -0.323605        -8.8057
  21   2.0000      -0.317476        -8.6389
  22   2.0000      -0.275128        -7.4866
  23   2.0000      -0.237188        -6.4542
  24   0.0000      -0.016847        -0.4584
  25   0.0000       0.064932         1.7669
  26   0.0000       0.096980         2.6390
  27   0.0000       0.119112         3.2412
  28   0.0000       0.130239         3.5440

MULLIKEN ATOMIC CHARGES
-----------------------
   0 C :   -0.459855
   1 C :   -0.291240
   2 C :    0.395638
   3 O :   -0.426868
   4 O :   -0.185688
   5 C :   -0.295139
   6 H :    0.171272
   7 H :    0.144864
   8 H :    0.150689
   9 H :    0.161235
  10 H :    0.161102
  11 H :    0.163162
  12 H :    0.160230
  13 H :    0.150599
Sum of atomic charges:   -0.0000000

LOEWDIN ATOMIC CHARGES
----------------------
   0 C :   -0.394220
   1 C :   -0.237693
   2 C :    0.352978
   3 O :   -0.425957
   4 O :   -0.604393
   5 C :   -0.044823
   6 H :    0.164908
   7 H :    0.154735
   8 H :    0.152167
   9 H :    0.174233
  10 H :    0.177813
  11 H :    0.177927
  12 H :    0.176149
  13 H :    0.176175

  Mayer bond orders larger than 0.100000
B(  0-C ,  1-C ) :   0.9010 B(  0-C ,  6-H ) :   0.9723 B(  0-C ,  7-H ) :   0.9747
B(  0-C ,  8-H ) :   0.9728 B(  1-C ,  2-C ) :   0.9546 B(  1-C ,  9-H ) :   0.9847
B(  1-C , 10-H ) :   0.9496 B(  2-C ,  3-O ) :   1.8064 B(  2-C ,  4-O ) :   1.0685
B(  4-O ,  5-C ) :   0.8524 B(  5-C , 11-H ) :   0.9620 B(  5-C , 12-H ) :   0.9618
B(  5-C , 13-H ) :   0.9690

Dispersion correction           -0.002968280
FINAL SINGLE POINT ENERGY      -307.632088139433

DIPOLE MOMENT
-------------

Method             : SCF
Type of density    : Electron Density
Multiplicity       :   1
Irrep              :   0
Energy             :  -307.6384755438695038 Eh
Relativity type    :
Basis              : AO
                                X                 Y                 Z
Electronic contribution:      2.633260203       1.245116525       1.399209899
Nuclear contribution   :     -2.474891467      -1.971818411      -1.519330246
                        -----------------------------------------
Total Dipole Moment    :      0.158368736      -0.726701887      -0.120120347
                        -----------------------------------------
Magnitude (a.u.)       :      0.753395770
Magnitude (Debye)      :      1.914979862

Rotational constants in cm-1:             0.264981             0.074290             0.065104
Rotational constants in MHz :          7943.918182          2227.171535          1951.779215

                             ****ORCA TERMINATED NORMALLY****
TOTAL RUN TIME: 0 days 0 hours 0 minutes 18 seconds 190 msec
