                         Program Version 6.0.0  -   RELEASE  -
|  1> ! r2scan-3c def2/J RI DEFGRID2 scfconv6 printgap
|  2> %output
|  3>     printlevel normal
|  4> end
|  5> %cpcm
|  6>     smd true
|  7>     smdsolvent "water"
|  8> end
|  9> * xyz 0 1
| 10> C -2.3354869251 -0.1745720774 -0.5448152415
| 11> C -1.275606402 -0.6005009712 0.4723471375
| 12> C 0.0097370743 0.1468594344 0.2293284489
| 13> O 0.13382459 1.3529924328 0.2699739931
| 14> O 1.0140842969 -0.6761833528 -0.0509767231
| 15> C 2.2951413193 -0.0960790876 -0.3123891542
| 16> H -2.4640913998 0.9047206786 -0.5149339136
| 17> H -2.0352197864 -0.4601553764 -1.549803565
| 18> H -3.2831999249 -0.6509198878 -0.3137912759
| 19> H -1.0760736532 -1.6688988929 0.4079573826
| 20> H -1.6193949226 -0.3517167156 1.4774343685
| 21> H 2.6056941819 0.5177280975 0.5338304266
| 22> H 2.2450675509 0.5291431523 -1.2044642734
| 23> H 2.9710533959 -0.932380552 -0.4591524676
| 24> *
| 25>
| 26>                          ****END OF INPUT****

CARTESIAN COORDINATES (ANGSTROEM)
---------------------------------
  C     -2.335487   -0.174572   -0.544815
  C     -1.275606   -0.600501    0.472347
  C      0.009737    0.146859    0.229328
  O      0.133825    1.352992    0.269974
  O      1.014084   -0.676183   -0.050977
  C      2.295141   -0.096079   -0.312389
  H     -2.464091    0.904721   -0.514934
  H     -2.035220   -0.460155   -1.549804
  H     -3.283200   -0.650920   -0.313791
  H     -1.076074   -1.668899    0.407957
  H     -1.619395   -0.351717    1.477434
  H      2.605694    0.517728    0.533830
  H      2.245068    0.529143   -1.204464
  H      2.971053   -0.932381   -0.459152

 Total Charge           Charge          ....    0
 Multiplicity           Mult            ....    1
 Number of Electrons    NEL             ....   48
 Basis Dimension        Dim             ....  164

ORBITAL ENERGIES
----------------

  NO   OCC          E(Eh)            E(eV)
   0   2.0000     -19.005689      -517.1711
   1   2.0000     -18.944680      -515.5110
   2   2.0000     -10.162413      -276.5333
   3   2.0000     -10.076573      -274.1975
   4   2.0000     -10.038173      -273.1526
   5   2.0000     -10.020990      -272.6850
   6   2.0000      -1.080688       -29.4070
   7   2.0000      -0.989741       -26.9322
   8   2.0000      -0.755536       -20.5592
   9   2.0000      -0.691921       -18.8281
  10   2.0000      -0.605102       -16.4657
  11   2.0000      -0.530911       -14.4468
  12   2.0000      -0.471214       -12.8224
  13   2.0000      -0.459167       -12.4946
  14   2.0000      -0.450382       -12.2555
  15   2.0000      -0.410354       -11.1663
  16   2.0000      -0.398439       -10.8421
  17   2.0000      -0.372033       -10.1235
  18   2.0000      -0.342521        -9.3205
  19   2.0000      -0.331975        -9.0335
  20   2.0000      -0.322213        -8.7679
  21   2.0000      -0.313126        -8.5206
  22   2.0000      -0.282428        -7.6852
  23   2.0000      -0.253418        -6.8958
  24   0.0000      -0.024083        -0.6553
  25   0.0000       0.070206         1.9104
  26   0.0000       0.105220         2.8632
  27   0.0000       0.129371         3.5204
  28   0.0000       0.140155         3.8138

MULLIKEN ATOMIC CHARGES
-----------------------
   0 C :   -0.490700
   1 C :   -0.303838
   2 C :    0.440297
   3 O :   -0.513296
   4 O :   -0.201117
   5 C :   -0.329913
   6 H :    0.165741
   7 H :    0.163192
   8 H :    0.170665
   9 H :    0.176194
  10 H :    0.187001
  11 H :    0.177846
  12 H :    0.179190
  13 H :    0.178738
Sum of atomic charges:   -0.0000000

LOEWDIN ATOMIC CHARGES
----------------------
   0 C :   -0.397493
   1 C :   -0.233936
   2 C :    0.363611
   3 O :   -0.488028
   4 O :   -0.605464
   5 C :   -0.042409
   6 H :    0.161383
   7 H :    0.159968
   8 H :    0.159941
   9 H :    0.181718
  10 H :    0.187104
  11 H :    0.182793
  12 H :    0.182362
  13 H :    0.188452

  Mayer bond orders larger than 0.100000
B(  0-C ,  1-C ) :   0.8852 B(  0-C ,  6-H ) :   0.9734 B(  0-C ,  7-H ) :   0.9716
B(  0-C ,  8-H ) :   0.9669 B(  1-C ,  2-C ) :   0.9573 B(  1-C ,  9-H ) :   0.9761
B(  1-C , 10-H ) :   0.9424 B(  2-C ,  3-O ) :   1.7411 B(  2-C ,  4-O ) :   1.0937
B(  4-O ,  5-C ) :   0.8328 B(  5-C , 11-H ) :   0.9567 B(  5-C , 12-H ) :   0.9561
B(  5-C , 13-H ) :   0.9591

Dispersion correction           -0.002968280
FINAL SINGLE POINT ENERGY      -307.637273588810

DIPOLE MOMENT
-------------

Method             : SCF
Type of density    : Electron Density
Multiplicity       :   1
Irrep              :   0
Energy             :  -307.6436609932459305 Eh
Relativity type    :
Basis              : AO
                                X                 Y                 Z
Electronic contribution:      2.672810827       0.908674217       1.370344520
Nuclear contribution   :     -2.474891467      -1.971818411      -1.519330246
                        -----------------------------------------
Total Dipole Moment    :      0.197919360      -1.063144194      -0.148985726
                        -----------------------------------------
Magnitude (a.u.)       :      1.091624660
Magnitude (Debye)      :      2.774689377

Rotational constants in cm-1:             0.264981             0.074290             0.065104
Rotational constants in MHz :          7943.918182          2227.171535          1951.779215

                             ****ORCA TERMINATED NORMALLY****
TOTAL RUN TIME: 0 days 0 hours 0 minutes 20 seconds 654 msec
