                         Program Version 6.0.0  -   RELEASE  -
|  1> ! r2scan-3c def2/J RI DEFGRID2 scfconv6 printgap
|  2> %output
|  3>     printlevel normal
|  4> end
|  5> * xyz 0 1
|  6> C -0.6919837011 -3.0127209628 -0.0045842764
|  7> C 0.6913925417 -3.012879943 0.0045787278
|  8> C 1.3857810796 -1.814121871 0.0122081969
|  9> C 0.6996018422 -0.6058819594 0.0115192611
| 10> C -0.699616561 -0.6057132492 -0.0118552031
| 11> C -1.3860769609 -1.8137944668 -0.0123589073
| 12> C -1.5009317154 0.6674140375 -0.0028010788
| 13> F -1.571561656 1.2274490423 1.2239732566
| 14> F -1.0292029382 1.619647297 -0.8268950365
| 15> F -2.7760976071 0.4710572281 -0.3776086195
| 16> C 1.5011021042 0.6671408935 0.0027177117
| 17> F 1.030053177 1.6186343749 0.8281439698
| 18> F 2.7765481073 0.4703750255 0.3763054793
| 19> F 1.5707824937 1.2283078567 -1.2235614498
| 20> H -1.2388264532 -3.9411280312 -0.0067930434
| 21> H 1.2380092149 -3.94142465 0.0070407863
| 22> H 2.4638112076 -1.8094909416 0.0240231572
| 23> H -2.4641097828 -1.8089014364 -0.0241525124
| 24> *
| 25>
| 26>                          ****END OF INPUT****

CARTESIAN COORDINATES (ANGSTROEM)
---------------------------------
  C     -0.691984   -3.012721   -0.004584
  C      0.691393   -3.012880    0.004579
  C      1.385781   -1.814122    0.012208
  C      0.699602   -0.605882    0.011519
  C     -0.699617   -0.605713   -0.011855
  C     -1.386077   -1.813794   -0.012359
  C     -1.500932    0.667414   -0.002801
  F     -1.571562    1.227449    1.223973
  F     -1.029203    1.619647   -0.826895
  F     -2.776098    0.471057   -0.377609
  C      1.501102    0.667141    0.002718
  F      1.030053    1.618634    0.828144
  F      2.776548    0.470375    0.376305
  F      1.570782    1.228308   -1.223561
  H     -1.238826   -3.941128   -0.006793
  H      1.238009   -3.941425    0.007041
  H      2.463811   -1.809491    0.024023
  H     -2.464110   -1.808901   -0.024153

 Total Charge           Charge          ....    0
 Multiplicity           Mult            ....    1
 Number of Electrons    NEL             ....  106
 Basis Dimension        Dim             ....  316

ORBITAL ENERGIES
----------------

  NO   OCC          E(Eh)            E(eV)
   0   2.0000     -24.523988      -667.3316
   1   2.0000     -24.523980      -667.3314
   2   2.0000     -24.519739      -667.2160
   3   2.0000     -24.519726      -667.2157
   4   2.0000     -24.516151      -667.1184
   5   2.0000     -24.516142      -667.1181
   6   2.0000     -10.293333      -280.0958
   7   2.0000     -10.293332      -280.0958
   8   2.0000     -10.097332      -274.7624
   9   2.0000     -10.096927      -274.7514
  10   2.0000     -10.077749      -274.2295
  11   2.0000     -10.077739      -274.2292
  12   2.0000     -10.074349      -274.1370
  13   2.0000     -10.073881      -274.1242
  14   2.0000      -1.282122       -34.8883
  15   2.0000      -1.277763       -34.7697
  16   2.0000      -1.192384       -32.4464
  17   2.0000      -1.188114       -32.3302
  18   2.0000      -1.186654       -32.2905
  19   2.0000      -1.184039       -32.2193
  20   2.0000      -0.877865       -23.8879
  21   2.0000      -0.785624       -21.3779
  22   2.0000      -0.775467       -21.1015
  23   2.0000      -0.696857       -18.9624
  24   2.0000      -0.672063       -18.2878
  25   2.0000      -0.620808       -16.8930
  26   2.0000      -0.615441       -16.7470
  27   2.0000      -0.574244       -15.6260
  28   2.0000      -0.560356       -15.2481
  29   2.0000      -0.559855       -15.2344
  30   2.0000      -0.555048       -15.1036
  31   2.0000      -0.554511       -15.0890
  32   2.0000      -0.524895       -14.2831
  33   2.0000      -0.478848       -13.0301
  34   2.0000      -0.464282       -12.6338
  35   2.0000      -0.448290       -12.1986
  36   2.0000      -0.436925       -11.8893
  37   2.0000      -0.436499       -11.8777
  38   2.0000      -0.427774       -11.6403
  39   2.0000      -0.422594       -11.4994
  40   2.0000      -0.405715       -11.0401
  41   2.0000      -0.397890       -10.8271
  42   2.0000      -0.393946       -10.7198
  43   2.0000      -0.384714       -10.4686
  44   2.0000      -0.384126       -10.4526
  45   2.0000      -0.376659       -10.2494
  46   2.0000      -0.375469       -10.2170
  47   2.0000      -0.368345       -10.0232
  48   2.0000      -0.367203        -9.9921
  49   2.0000      -0.353626        -9.6227
  50   2.0000      -0.342762        -9.3270
  51   2.0000      -0.279606        -7.6085
  52   2.0000      -0.278708        -7.5840
  53   0.0000      -0.088830        -2.4172
  54   0.0000      -0.073748        -2.0068
  55   0.0000       0.057140         1.5549
  56   0.0000       0.064517         1.7556
  57   0.0000       0.075902         2.0654

MULLIKEN ATOMIC CHARGES
-----------------------
   0 C :   -0.109531
   1 C :   -0.109496
   2 C :   -0.211044
   3 C :    0.067976
   4 C :    0.067955
   5 C :   -0.210922
   6 C :    0.552916
   7 F :   -0.201291
   8 F :   -0.205384
   9 F :   -0.219772
  10 C :    0.552954
  11 F :   -0.205433
  12 F :   -0.219764
  13 F :   -0.201262
  14 H :    0.153227
  15 H :    0.153227
  16 H :    0.172824
  17 H :    0.172821
Sum of atomic charges:   -0.0000000

LOEWDIN ATOMIC CHARGES
----------------------
   0 C :   -0.134961
   1 C :   -0.134962
   2 C :   -0.110444
   3 C :   -0.034940
   4 C :   -0.034940
   5 C :   -0.110436
   6 C :    0.532787
   7 F :   -0.205766
   8 F :   -0.196759
   9 F :   -0.212852
  10 C :    0.532788
  11 F :   -0.196811
  12 F :   -0.212846
  13 F :   -0.205739
  14 H :    0.174347
  15 H :    0.174347
  16 H :    0.188593
  17 H :    0.188593

  Mayer bond orders larger than 0.100000
B(  0-C ,  1-C ) :   1.3941 B(  0-C ,  5-C ) :   1.3544 B(  0-C , 14-H ) :   0.9514
B(  1-C ,  2-C ) :   1.3543 B(  1-C , 15-H ) :   0.9514 B(  2-C ,  3-C ) :   1.3802
B(  2-C , 16-H ) :   0.9487 B(  3-C ,  4-C ) :   1.3950 B(  3-C , 10-C ) :   0.9877
B(  4-C ,  5-C ) :   1.3803 B(  4-C ,  6-C ) :   0.9876 B(  5-C , 17-H ) :   0.9486
B(  6-C ,  7-F ) :   0.9992 B(  6-C ,  8-F ) :   1.0359 B(  6-C ,  9-F ) :   1.0663
B( 10-C , 11-F ) :   1.0358 B( 10-C , 12-F ) :   1.0663 B( 10-C , 13-F ) :   0.9993

Dispersion correction           -0.006829596
FINAL SINGLE POINT ENERGY      -906.271415964265

DIPOLE MOMENT
-------------

Method             : SCF
Type of density    : Electron Density
Multiplicity       :   1
Irrep              :   0
Energy             :  -906.2813430972571496 Eh
Relativity type    :
Basis              : AO
                                X                 Y                 Z
Electronic contribution:      0.001464562      15.129925166       0.000041977
Nuclear contribution   :     -0.001530091     -16.937935367      -0.000220261
                        -----------------------------------------
Total Dipole Moment    :     -0.000065529      -1.808010201      -0.000178284
                        -----------------------------------------
Magnitude (a.u.)       :      1.808010211
Magnitude (Debye)      :      4.595596739

Rotational constants in cm-1:             0.027719             0.025771             0.015528
Rotational constants in MHz :           830.993994           772.603379           465.518337

                             ****ORCA TERMINATED NORMALLY****
TOTAL RUN TIME: 0 days 0 hours 0 minutes 37 seconds 439 msec
