                         Program Version 6.0.0  -   RELEASE  -
|  1> ! r2scan-3c def2/J RI DEFGRID2 scfconv6 printgap
|  2> %output
|  3>     printlevel normal
|  4> end
|  5> %cpcm
|  6>     smd true
|  7>     smdsolvent "water"
|  8> end
|  9> * xyz 0 1
| 10> C -0.6919837011 -3.0127209628 -0.0045842764
| 11> C 0.6913925417 -3.012879943 0.0045787278
| 12> C 1.3857810796 -1.814121871 0.0122081969
| 13> C 0.6996018422 -0.6058819594 0.0115192611
| 14> C -0.699616561 -0.6057132492 -0.0118552031
| 15> C -1.3860769609 -1.8137944668 -0.0123589073
| 16> C -1.5009317154 0.6674140375 -0.0028010788
| 17> F -1.571561656 1.2274490423 1.2239732566
| 18> F -1.0292029382 1.619647297 -0.8268950365
| 19> F -2.7760976071 0.4710572281 -0.3776086195
| 20> C 1.5011021042 0.6671408935 0.0027177117
| 21> F 1.030053177 1.6186343749 0.8281439698
| 22> F 2.7765481073 0.4703750255 0.3763054793
| 23> F 1.5707824937 1.2283078567 -1.2235614498
| 24> H -1.2388264532 -3.9411280312 -0.0067930434
| 25> H 1.2380092149 -3.94142465 0.0070407863
| 26> H 2.4638112076 -1.8094909416 0.0240231572
| 27> H -2.4641097828 -1.8089014364 -0.0241525124
| 28> *
| 29>
| 30>                          ****END OF INPUT****

CARTESIAN COORDINATES (ANGSTROEM)
---------------------------------
  C     -0.691984   -3.012721   -0.004584
  C      0.691393   -3.012880    0.004579
  C      1.385781   -1.814122    0.012208
  C      0.699602   -0.605882    0.011519
  C     -0.699617   -0.605713   -0.011855
  C     -1.386077   -1.813794   -0.012359
  C     -1.500932    0.667414   -0.002801
  F     -1.571562    1.227449    1.223973
  F     -1.029203    1.619647   -0.826895
  F     -2.776098    0.471057   -0.377609
  C      1.501102    0.667141    0.002718
  F      1.030053    1.618634    0.828144
  F      2.776548    0.470375    0.376305
  F      1.570782    1.228308   -1.223561
  H     -1.238826   -3.941128   -0.006793
  H      1.238009   -3.941425    0.007041
  H      2.463811   -1.809491    0.024023
  H     -2.464110   -1.808901   -0.024153

 Total Charge           Charge          ....    0
 Multiplicity           Mult            ....    1
 Number of Electrons    NEL             ....  106
 Basis Dimension        Dim             ....  316

ORBITAL ENERGIES
----------------

  NO   OCC          E(Eh)            E(eV)
   0   2.0000     -24.524782      -667.3532
   1   2.0000     -24.524768      -667.3529
   2   2.0000     -24.524673      -667.3503
   3   2.0000     -24.524667      -667.3501
   4   2.0000     -24.520657      -667.2410
   5   2.0000     -24.520650      -667.2408
   6   2.0000     -10.294512      -280.1279
   7   2.0000     -10.294512      -280.1279
   8   2.0000     -10.085130      -274.4303
   9   2.0000     -10.084725      -274.4193
  10   2.0000     -10.060706      -273.7657
  11   2.0000     -10.060695      -273.7654
  12   2.0000     -10.054649      -273.6009
  13   2.0000     -10.054179      -273.5881
  14   2.0000      -1.286084       -34.9961
  15   2.0000      -1.281552       -34.8728
  16   2.0000      -1.195732       -32.5375
  17   2.0000      -1.193052       -32.4646
  18   2.0000      -1.190489       -32.3948
  19   2.0000      -1.189257       -32.3613
  20   2.0000      -0.864181       -23.5156
  21   2.0000      -0.772491       -21.0205
  22   2.0000      -0.763000       -20.7623
  23   2.0000      -0.690838       -18.7987
  24   2.0000      -0.668950       -18.2031
  25   2.0000      -0.610367       -16.6089
  26   2.0000      -0.610306       -16.6073
  27   2.0000      -0.569234       -15.4897
  28   2.0000      -0.564853       -15.3704
  29   2.0000      -0.562693       -15.3117
  30   2.0000      -0.558137       -15.1877
  31   2.0000      -0.554700       -15.0941
  32   2.0000      -0.514587       -14.0026
  33   2.0000      -0.462759       -12.5923
  34   2.0000      -0.451670       -12.2906
  35   2.0000      -0.441788       -12.0217
  36   2.0000      -0.441743       -12.0204
  37   2.0000      -0.435804       -11.8588
  38   2.0000      -0.431592       -11.7442
  39   2.0000      -0.421428       -11.4676
  40   2.0000      -0.406110       -11.0508
  41   2.0000      -0.395248       -10.7553
  42   2.0000      -0.390665       -10.6305
  43   2.0000      -0.386968       -10.5299
  44   2.0000      -0.378930       -10.3112
  45   2.0000      -0.378476       -10.2988
  46   2.0000      -0.372850       -10.1458
  47   2.0000      -0.372475       -10.1356
  48   2.0000      -0.365732        -9.9521
  49   2.0000      -0.337052        -9.1717
  50   2.0000      -0.332615        -9.0509
  51   2.0000      -0.265870        -7.2347
  52   2.0000      -0.263761        -7.1773
  53   0.0000      -0.076109        -2.0710
  54   0.0000      -0.058125        -1.5816
  55   0.0000       0.069931         1.9029
  56   0.0000       0.080162         2.1813
  57   0.0000       0.087953         2.3933

MULLIKEN ATOMIC CHARGES
-----------------------
   0 C :   -0.141678
   1 C :   -0.141643
   2 C :   -0.224860
   3 C :    0.074528
   4 C :    0.074512
   5 C :   -0.224731
   6 C :    0.545228
   7 F :   -0.210560
   8 F :   -0.214570
   9 F :   -0.221765
  10 C :    0.545271
  11 F :   -0.214623
  12 F :   -0.221754
  13 F :   -0.210528
  14 H :    0.191274
  15 H :    0.191273
  16 H :    0.202312
  17 H :    0.202312
Sum of atomic charges:   -0.0000000

LOEWDIN ATOMIC CHARGES
----------------------
   0 C :   -0.128934
   1 C :   -0.128935
   2 C :   -0.107886
   3 C :   -0.043774
   4 C :   -0.043778
   5 C :   -0.107883
   6 C :    0.530667
   7 F :   -0.215211
   8 F :   -0.206590
   9 F :   -0.214302
  10 C :    0.530668
  11 F :   -0.206646
  12 F :   -0.214293
  13 F :   -0.215182
  14 H :    0.187793
  15 H :    0.187793
  16 H :    0.198246
  17 H :    0.198247

  Mayer bond orders larger than 0.100000
B(  0-C ,  1-C ) :   1.3750 B(  0-C ,  5-C ) :   1.3452 B(  0-C , 14-H ) :   0.9525
B(  1-C ,  2-C ) :   1.3452 B(  1-C , 15-H ) :   0.9525 B(  2-C ,  3-C ) :   1.3502
B(  2-C , 16-H ) :   0.9523 B(  3-C ,  4-C ) :   1.3561 B(  3-C , 10-C ) :   0.9947
B(  4-C ,  5-C ) :   1.3503 B(  4-C ,  6-C ) :   0.9946 B(  5-C , 17-H ) :   0.9522
B(  6-C ,  7-F ) :   0.9943 B(  6-C ,  8-F ) :   1.0270 B(  6-C ,  9-F ) :   1.0730
B( 10-C , 11-F ) :   1.0268 B( 10-C , 12-F ) :   1.0731 B( 10-C , 13-F ) :   0.9944

Dispersion correction           -0.006829596
FINAL SINGLE POINT ENERGY      -906.271631212772

DIPOLE MOMENT
-------------

Method             : SCF
Type of density    : Electron Density
Multiplicity       :   1
Irrep              :   0
Energy             :  -906.2815583457645516 Eh
Relativity type    :
Basis              : AO
                                X                 Y                 Z
Electronic contribution:      0.001449254      14.516954678      -0.000021524
Nuclear contribution   :     -0.001530091     -16.937935367      -0.000220261
                        -----------------------------------------
Total Dipole Moment    :     -0.000080837      -2.420980689      -0.000241785
                        -----------------------------------------
Magnitude (a.u.)       :      2.420980702
Magnitude (Debye)      :      6.153643907

Rotational constants in cm-1:             0.027719             0.025771             0.015528
Rotational constants in MHz :           830.993994           772.603379           465.518337

                             ****ORCA TERMINATED NORMALLY****
TOTAL RUN TIME: 0 days 0 hours 0 minutes 49 seconds 180 msec
