                         Program Version 6.0.0  -   RELEASE  -
|  1> ! wb97x-v def2-tzvp def2/J RIJCOSX DEFGRID2 scfconv7 GCP(DFT/TZ) printgap
|  2> %output
|  3>     printlevel normal
|  4> end
|  5> * xyz 0 1
|  6> C 2.86807414951406 0.7133755755033478 -0.1742071712070039
|  7> C 1.9771051661161037 -0.48571221424794947 0.13463617809577025
|  8> C 0.4947940748267156 -0.21479919547386733 0.06843758398121175
|  9> C -0.06511137479198482 1.0510436843434032 0.23819931236240152
| 10> C -1.4472632667471494 1.1988493691176139 0.1817226856017944
| 11> C -2.2341382933671503 0.07889105570338212 -0.044741266719406855
| 12> N -1.7245428354803667 -1.1511499153732403 -0.21805368777658132
| 13> C -0.39232788542970015 -1.270859004800992 -0.1608265308602955
| 14> H 2.618061971123539 1.1524701064601606 -1.1458884162420413
| 15> H 3.9166781975657208 0.4034185122723874 -0.20292767877123147
| 16> H 2.7775435689612284 1.495569675089969 0.5853782597766157
| 17> H 2.216045306455131 -0.8654811149550193 1.1373509085437863
| 18> H 2.205190215889211 -1.3060746962119192 -0.5553986629854593
| 19> H 0.5654000226194703 1.9170436664493293 0.41082918770762133
| 20> H -1.9089754015564753 2.1723978696951947 0.30896497166868936
| 21> H -3.316885647584613 0.16780134962194895 -0.09552232369102014
| 22> H 0.005159642975898304 -2.274571007836343 -0.30902876767417176
| 23> *
| 24>
| 25>                          ****END OF INPUT****

CARTESIAN COORDINATES (ANGSTROEM)
---------------------------------
  C      2.868074    0.713376   -0.174207
  C      1.977105   -0.485712    0.134636
  C      0.494794   -0.214799    0.068438
  C     -0.065111    1.051044    0.238199
  C     -1.447263    1.198849    0.181723
  C     -2.234138    0.078891   -0.044741
  N     -1.724543   -1.151150   -0.218054
  C     -0.392328   -1.270859   -0.160827
  H      2.618062    1.152470   -1.145888
  H      3.916678    0.403419   -0.202928
  H      2.777544    1.495570    0.585378
  H      2.216045   -0.865481    1.137351
  H      2.205190   -1.306075   -0.555399
  H      0.565400    1.917044    0.410829
  H     -1.908975    2.172398    0.308965
  H     -3.316886    0.167801   -0.095522
  H      0.005160   -2.274571   -0.309029

 Total Charge           Charge          ....    0
 Multiplicity           Mult            ....    1
 Number of Electrons    NEL             ....   58
 Basis Dimension        Dim             ....  302

ORBITAL ENERGIES
----------------

  NO   OCC          E(Eh)            E(eV)
   0   2.0000     -16.523991      -449.6406
   1   2.0000     -12.080156      -328.7178
   2   2.0000     -12.079691      -328.7051
   3   2.0000     -12.067519      -328.3739
   4   2.0000     -12.065313      -328.3139
   5   2.0000     -12.058887      -328.1390
   6   2.0000     -12.057554      -328.1027
   7   2.0000     -12.046573      -327.8039
   8   2.0000      -1.514749       -41.2184
   9   2.0000      -1.355076       -36.8735
  10   2.0000      -1.309491       -35.6331
  11   2.0000      -1.259141       -34.2630
  12   2.0000      -1.161935       -31.6179
  13   2.0000      -1.144546       -31.1447
  14   2.0000      -1.092957       -29.7409
  15   2.0000      -0.998325       -27.1658
  16   2.0000      -0.974475       -26.5168
  17   2.0000      -0.921479       -25.0747
  18   2.0000      -0.887611       -24.1531
  19   2.0000      -0.881605       -23.9897
  20   2.0000      -0.871747       -23.7214
  21   2.0000      -0.842022       -22.9126
  22   2.0000      -0.839861       -22.8538
  23   2.0000      -0.825185       -22.4544
  24   2.0000      -0.796305       -21.6686
  25   2.0000      -0.785531       -21.3754
  26   2.0000      -0.760035       -20.6816
  27   2.0000      -0.692921       -18.8553
  28   2.0000      -0.644546       -17.5390
  29   0.0000      -0.289743        -7.8843
  30   0.0000      -0.244677        -6.6580
  31   0.0000      -0.096574        -2.6279
  32   0.0000      -0.059126        -1.6089
  33   0.0000      -0.036883        -1.0036

MULLIKEN ATOMIC CHARGES
-----------------------
   0 C :   -0.357758
   1 C :   -0.148337
   2 C :    0.128063
   3 C :   -0.202763
   4 C :   -0.090258
   5 C :   -0.054682
   6 N :   -0.215311
   7 C :   -0.116184
   8 H :    0.122672
   9 H :    0.122081
  10 H :    0.109028
  11 H :    0.107791
  12 H :    0.108992
  13 H :    0.127293
  14 H :    0.121822
  15 H :    0.120557
  16 H :    0.116993
Sum of atomic charges:   -0.0000000

LOEWDIN ATOMIC CHARGES
----------------------
   0 C :   -0.299495
   1 C :   -0.241249
   2 C :   -0.155827
   3 C :   -0.095455
   4 C :   -0.152480
   5 C :   -0.206899
   6 N :    0.121158
   7 C :   -0.175499
   8 H :    0.121113
   9 H :    0.119728
  10 H :    0.115799
  11 H :    0.144612
  12 H :    0.143041
  13 H :    0.146938
  14 H :    0.143355
  15 H :    0.133864
  16 H :    0.137297

  Mayer bond orders larger than 0.100000
B(  0-C ,  1-C ) :   0.9929 B(  0-C ,  8-H ) :   0.9810 B(  0-C ,  9-H ) :   0.9798
B(  0-C , 10-H ) :   0.9743 B(  1-C ,  2-C ) :   0.9521 B(  1-C , 11-H ) :   0.9481
B(  1-C , 12-H ) :   0.9852 B(  2-C ,  3-C ) :   1.3979 B(  2-C ,  7-C ) :   1.3452
B(  3-C ,  4-C ) :   1.4604 B(  3-C , 13-H ) :   0.9654 B(  4-C ,  5-C ) :   1.4231
B(  4-C , 14-H ) :   0.9656 B(  5-C ,  6-N ) :   1.4823 B(  5-C , 15-H ) :   0.9841
B(  6-N ,  7-C ) :   1.5385 B(  7-C , 16-H ) :   1.0004

FINAL SINGLE POINT ENERGY      -326.924211606481

DIPOLE MOMENT
-------------

Method             : SCF
Type of density    : Electron Density
Multiplicity       :   1
Irrep              :   0
Energy             :  -326.9339838853811671 Eh
Relativity type    :
Basis              : AO
                                X                 Y                 Z
Electronic contribution:     -7.800332303      -2.052230146       0.033066691
Nuclear contribution   :      8.553049850       2.709020733       0.124139567
                        -----------------------------------------
Total Dipole Moment    :      0.752717547       0.656790587       0.157206259
                        -----------------------------------------
Magnitude (a.u.)       :      1.011272163
Magnitude (Debye)      :      2.570449563

Rotational constants in cm-1:             0.164716             0.049620             0.039055
Rotational constants in MHz :          4938.071330          1487.567897          1170.848287

                             ****ORCA TERMINATED NORMALLY****
TOTAL RUN TIME: 0 days 0 hours 2 minutes 12 seconds 721 msec
