                         Program Version 6.0.0  -   RELEASE  -
|  1> ! wb97x-v def2-tzvp def2/J RIJCOSX DEFGRID2 scfconv7 GCP(DFT/TZ) printgap
|  2> %output
|  3>     printlevel normal
|  4> end
|  5> %cpcm
|  6>     smd true
|  7>     smdsolvent "water"
|  8> end
|  9> * xyz 0 1
| 10> C 2.86807414951406 0.7133755755033478 -0.1742071712070039
| 11> C 1.9771051661161037 -0.48571221424794947 0.13463617809577025
| 12> C 0.4947940748267156 -0.21479919547386733 0.06843758398121175
| 13> C -0.06511137479198482 1.0510436843434032 0.23819931236240152
| 14> C -1.4472632667471494 1.1988493691176139 0.1817226856017944
| 15> C -2.2341382933671503 0.07889105570338212 -0.044741266719406855
| 16> N -1.7245428354803667 -1.1511499153732403 -0.21805368777658132
| 17> C -0.39232788542970015 -1.270859004800992 -0.1608265308602955
| 18> H 2.618061971123539 1.1524701064601606 -1.1458884162420413
| 19> H 3.9166781975657208 0.4034185122723874 -0.20292767877123147
| 20> H 2.7775435689612284 1.495569675089969 0.5853782597766157
| 21> H 2.216045306455131 -0.8654811149550193 1.1373509085437863
| 22> H 2.205190215889211 -1.3060746962119192 -0.5553986629854593
| 23> H 0.5654000226194703 1.9170436664493293 0.41082918770762133
| 24> H -1.9089754015564753 2.1723978696951947 0.30896497166868936
| 25> H -3.316885647584613 0.16780134962194895 -0.09552232369102014
| 26> H 0.005159642975898304 -2.274571007836343 -0.30902876767417176
| 27> *
| 28>
| 29>                          ****END OF INPUT****

CARTESIAN COORDINATES (ANGSTROEM)
---------------------------------
  C      2.868074    0.713376   -0.174207
  C      1.977105   -0.485712    0.134636
  C      0.494794   -0.214799    0.068438
  C     -0.065111    1.051044    0.238199
  C     -1.447263    1.198849    0.181723
  C     -2.234138    0.078891   -0.044741
  N     -1.724543   -1.151150   -0.218054
  C     -0.392328   -1.270859   -0.160827
  H      2.618062    1.152470   -1.145888
  H      3.916678    0.403419   -0.202928
  H      2.777544    1.495570    0.585378
  H      2.216045   -0.865481    1.137351
  H      2.205190   -1.306075   -0.555399
  H      0.565400    1.917044    0.410829
  H     -1.908975    2.172398    0.308965
  H     -3.316886    0.167801   -0.095522
  H      0.005160   -2.274571   -0.309029

 Total Charge           Charge          ....    0
 Multiplicity           Mult            ....    1
 Number of Electrons    NEL             ....   58
 Basis Dimension        Dim             ....  302

ORBITAL ENERGIES
----------------

  NO   OCC          E(Eh)            E(eV)
   0   2.0000     -16.528460      -449.7623
   1   2.0000     -12.078202      -328.6646
   2   2.0000     -12.077862      -328.6553
   3   2.0000     -12.062007      -328.2239
   4   2.0000     -12.059937      -328.1676
   5   2.0000     -12.052282      -327.9593
   6   2.0000     -12.044130      -327.7374
   7   2.0000     -12.029265      -327.3329
   8   2.0000      -1.518260       -41.3140
   9   2.0000      -1.349895       -36.7325
  10   2.0000      -1.305089       -35.5133
  11   2.0000      -1.248749       -33.9802
  12   2.0000      -1.155705       -31.4483
  13   2.0000      -1.140802       -31.0428
  14   2.0000      -1.082499       -29.4563
  15   2.0000      -0.995032       -27.0762
  16   2.0000      -0.969931       -26.3932
  17   2.0000      -0.912414       -24.8281
  18   2.0000      -0.880322       -23.9548
  19   2.0000      -0.868099       -23.6222
  20   2.0000      -0.866457       -23.5775
  21   2.0000      -0.834587       -22.7103
  22   2.0000      -0.830629       -22.6026
  23   2.0000      -0.823147       -22.3990
  24   2.0000      -0.781374       -21.2623
  25   2.0000      -0.771612       -20.9966
  26   2.0000      -0.761717       -20.7274
  27   2.0000      -0.690844       -18.7988
  28   2.0000      -0.641986       -17.4693
  29   0.0000      -0.289102        -7.8669
  30   0.0000      -0.242365        -6.5951
  31   0.0000      -0.092998        -2.5306
  32   0.0000      -0.050914        -1.3854
  33   0.0000      -0.026271        -0.7149

MULLIKEN ATOMIC CHARGES
-----------------------
   0 C :   -0.399033
   1 C :   -0.149410
   2 C :    0.093584
   3 C :   -0.225162
   4 C :   -0.137095
   5 C :   -0.070130
   6 N :   -0.294527
   7 C :   -0.120620
   8 H :    0.129810
   9 H :    0.136805
  10 H :    0.129184
  11 H :    0.122098
  12 H :    0.128085
  13 H :    0.172371
  14 H :    0.167516
  15 H :    0.159657
  16 H :    0.156867
Sum of atomic charges:   -0.0000000

LOEWDIN ATOMIC CHARGES
----------------------
   0 C :   -0.302898
   1 C :   -0.238222
   2 C :   -0.154721
   3 C :   -0.088050
   4 C :   -0.152383
   5 C :   -0.219727
   6 N :    0.075499
   7 C :   -0.183172
   8 H :    0.122153
   9 H :    0.122095
  10 H :    0.120628
  11 H :    0.149508
  12 H :    0.148349
  13 H :    0.159079
  14 H :    0.154845
  15 H :    0.141416
  16 H :    0.145601

  Mayer bond orders larger than 0.100000
B(  0-C ,  1-C ) :   0.9880 B(  0-C ,  8-H ) :   0.9790 B(  0-C ,  9-H ) :   0.9764
B(  0-C , 10-H ) :   0.9716 B(  1-C ,  2-C ) :   0.9554 B(  1-C , 11-H ) :   0.9429
B(  1-C , 12-H ) :   0.9836 B(  2-C ,  3-C ) :   1.3874 B(  2-C ,  7-C ) :   1.3692
B(  3-C ,  4-C ) :   1.4465 B(  3-C , 13-H ) :   0.9652 B(  4-C ,  5-C ) :   1.4432
B(  4-C , 14-H ) :   0.9622 B(  5-C ,  6-N ) :   1.4686 B(  5-C , 15-H ) :   0.9660
B(  6-N ,  7-C ) :   1.5232 B(  7-C , 16-H ) :   0.9770

FINAL SINGLE POINT ENERGY      -326.931366538291

DIPOLE MOMENT
-------------

Method             : SCF
Type of density    : Electron Density
Multiplicity       :   1
Irrep              :   0
Energy             :  -326.9411388171910744 Eh
Relativity type    :
Basis              : AO
                                X                 Y                 Z
Electronic contribution:     -7.501686287      -1.757925395       0.117823469
Nuclear contribution   :      8.553049850       2.709020733       0.124139567
                        -----------------------------------------
Total Dipole Moment    :      1.051363563       0.951095338       0.241963036
                        -----------------------------------------
Magnitude (a.u.)       :      1.438225919
Magnitude (Debye)      :      3.655679765

Rotational constants in cm-1:             0.164716             0.049620             0.039055
Rotational constants in MHz :          4938.071330          1487.567897          1170.848287

                             ****ORCA TERMINATED NORMALLY****
TOTAL RUN TIME: 0 days 0 hours 2 minutes 18 seconds 494 msec
