                         Program Version 6.0.0  -   RELEASE  -
|  1> ! r2scan-3c def2/J RI DEFGRID2 scfconv6 printgap
|  2> %output
|  3>     printlevel normal
|  4> end
|  5> * xyz 0 1
|  6> C -2.219158145 0.2554348511 0.3727335087
|  7> C -0.9799166432 0.2553641463 -0.5218605826
|  8> C 0.0017064159 -0.7868023519 -0.0826351573
|  9> C 1.2887886034 -0.5964099871 0.1650157399
| 10> C 2.0181924758 0.7077422789 0.0413274052
| 11> H -2.7052739192 -0.7175048782 0.3517000134
| 12> H -2.9312127092 1.004912649 0.0357274197
| 13> H -1.942361751 0.4777048241 1.4009464243
| 14> H -1.2863490763 0.040509659 -1.5504034248
| 15> H -0.5195001437 1.242639882 -0.5058599063
| 16> H -0.4188005713 -1.7771330351 0.0402441123
| 17> H 1.8861400256 -1.4377340884 0.4907600427
| 18> H 3.0899168448 0.55336659 0.1272903106
| 19> H 1.7085916974 1.3943060315 0.8291155816
| 20> H 1.8126921982 1.1811713598 -0.9166238714
| 21> *
| 22>
| 23>                          ****END OF INPUT****

CARTESIAN COORDINATES (ANGSTROEM)
---------------------------------
  C     -2.219158    0.255435    0.372734
  C     -0.979917    0.255364   -0.521861
  C      0.001706   -0.786802   -0.082635
  C      1.288789   -0.596410    0.165016
  C      2.018192    0.707742    0.041327
  H     -2.705274   -0.717505    0.351700
  H     -2.931213    1.004913    0.035727
  H     -1.942362    0.477705    1.400946
  H     -1.286349    0.040510   -1.550403
  H     -0.519500    1.242640   -0.505860
  H     -0.418801   -1.777133    0.040244
  H      1.886140   -1.437734    0.490760
  H      3.089917    0.553367    0.127290
  H      1.708592    1.394306    0.829116
  H      1.812692    1.181171   -0.916624

 Total Charge           Charge          ....    0
 Multiplicity           Mult            ....    1
 Number of Electrons    NEL             ....   40
 Basis Dimension        Dim             ....  145

ORBITAL ENERGIES
----------------

  NO   OCC          E(Eh)            E(eV)
   0   2.0000     -10.027975      -272.8751
   1   2.0000     -10.022496      -272.7260
   2   2.0000     -10.021367      -272.6953
   3   2.0000     -10.019237      -272.6373
   4   2.0000     -10.018324      -272.6125
   5   2.0000      -0.772188       -21.0123
   6   2.0000      -0.717647       -19.5282
   7   2.0000      -0.646747       -17.5989
   8   2.0000      -0.582229       -15.8433
   9   2.0000      -0.493602       -13.4316
  10   2.0000      -0.447332       -12.1725
  11   2.0000      -0.404874       -11.0172
  12   2.0000      -0.396819       -10.7980
  13   2.0000      -0.380249       -10.3471
  14   2.0000      -0.349502        -9.5104
  15   2.0000      -0.338092        -9.1999
  16   2.0000      -0.332392        -9.0448
  17   2.0000      -0.309652        -8.4260
  18   2.0000      -0.289767        -7.8850
  19   2.0000      -0.217472        -5.9177
  20   0.0000      -0.003825        -0.1041
  21   0.0000       0.092137         2.5072
  22   0.0000       0.120149         3.2694
  23   0.0000       0.129476         3.5232
  24   0.0000       0.143587         3.9072

MULLIKEN ATOMIC CHARGES
-----------------------
   0 C :   -0.454513
   1 C :   -0.248475
   2 C :   -0.142768
   3 C :   -0.145492
   4 C :   -0.497895
   5 H :    0.141970
   6 H :    0.144301
   7 H :    0.147378
   8 H :    0.148662
   9 H :    0.140703
  10 H :    0.146455
  11 H :    0.152220
  12 H :    0.145349
  13 H :    0.161883
  14 H :    0.160221
Sum of atomic charges:   -0.0000000

LOEWDIN ATOMIC CHARGES
----------------------
   0 C :   -0.415522
   1 C :   -0.304453
   2 C :   -0.209372
   3 C :   -0.217381
   4 C :   -0.422890
   5 H :    0.150026
   6 H :    0.149194
   7 H :    0.152769
   8 H :    0.161013
   9 H :    0.157299
  10 H :    0.162213
  11 H :    0.159928
  12 H :    0.155558
  13 H :    0.162017
  14 H :    0.159600

  Mayer bond orders larger than 0.100000
B(  0-C ,  1-C ) :   0.8889 B(  0-C ,  5-H ) :   0.9802 B(  0-C ,  6-H ) :   0.9725
B(  0-C ,  7-H ) :   0.9778 B(  1-C ,  2-C ) :   0.9334 B(  1-C ,  8-H ) :   0.9720
B(  1-C ,  9-H ) :   0.9798 B(  2-C ,  3-C ) :   1.9467 B(  2-C , 10-H ) :   0.9376
B(  3-C ,  4-C ) :   0.8921 B(  3-C , 11-H ) :   0.9471 B(  4-C , 12-H ) :   0.9739
B(  4-C , 13-H ) :   0.9721 B(  4-C , 14-H ) :   0.9855

Dispersion correction           -0.003262821
FINAL SINGLE POINT ENERGY      -196.459269287773

DIPOLE MOMENT
-------------

Method             : SCF
Type of density    : Electron Density
Multiplicity       :   1
Irrep              :   0
Energy             :  -196.4621459395849001 Eh
Relativity type    :
Basis              : AO
                                X                 Y                 Z
Electronic contribution:      1.197955781      -1.705524807      -0.311606221
Nuclear contribution   :     -1.225399593       1.840916613       0.284169040
                        -----------------------------------------
Total Dipole Moment    :     -0.027443812       0.135391805      -0.027437181
                        -----------------------------------------
Magnitude (a.u.)       :      0.140843540
Magnitude (Debye)      :      0.357995827

Rotational constants in cm-1:             0.387446             0.087420             0.079279
Rotational constants in MHz :         11615.333879          2620.776404          2376.732529

                             ****ORCA TERMINATED NORMALLY****
TOTAL RUN TIME: 0 days 0 hours 0 minutes 11 seconds 110 msec
