                         Program Version 6.0.0  -   RELEASE  -
|  1> ! r2scan-3c def2/J RI DEFGRID2 scfconv6 printgap
|  2> %output
|  3>     printlevel normal
|  4> end
|  5> %cpcm
|  6>     smd true
|  7>     smdsolvent "water"
|  8> end
|  9> * xyz 0 1
| 10> C -2.219158145 0.2554348511 0.3727335087
| 11> C -0.9799166432 0.2553641463 -0.5218605826
| 12> C 0.0017064159 -0.7868023519 -0.0826351573
| 13> C 1.2887886034 -0.5964099871 0.1650157399
| 14> C 2.0181924758 0.7077422789 0.0413274052
| 15> H -2.7052739192 -0.7175048782 0.3517000134
| 16> H -2.9312127092 1.004912649 0.0357274197
| 17> H -1.942361751 0.4777048241 1.4009464243
| 18> H -1.2863490763 0.040509659 -1.5504034248
| 19> H -0.5195001437 1.242639882 -0.5058599063
| 20> H -0.4188005713 -1.7771330351 0.0402441123
| 21> H 1.8861400256 -1.4377340884 0.4907600427
| 22> H 3.0899168448 0.55336659 0.1272903106
| 23> H 1.7085916974 1.3943060315 0.8291155816
| 24> H 1.8126921982 1.1811713598 -0.9166238714
| 25> *
| 26>
| 27>                          ****END OF INPUT****

CARTESIAN COORDINATES (ANGSTROEM)
---------------------------------
  C     -2.219158    0.255435    0.372734
  C     -0.979917    0.255364   -0.521861
  C      0.001706   -0.786802   -0.082635
  C      1.288789   -0.596410    0.165016
  C      2.018192    0.707742    0.041327
  H     -2.705274   -0.717505    0.351700
  H     -2.931213    1.004913    0.035727
  H     -1.942362    0.477705    1.400946
  H     -1.286349    0.040510   -1.550403
  H     -0.519500    1.242640   -0.505860
  H     -0.418801   -1.777133    0.040244
  H      1.886140   -1.437734    0.490760
  H      3.089917    0.553367    0.127290
  H      1.708592    1.394306    0.829116
  H      1.812692    1.181171   -0.916624

 Total Charge           Charge          ....    0
 Multiplicity           Mult            ....    1
 Number of Electrons    NEL             ....   40
 Basis Dimension        Dim             ....  145

ORBITAL ENERGIES
----------------

  NO   OCC          E(Eh)            E(eV)
   0   2.0000     -10.021756      -272.7058
   1   2.0000     -10.020853      -272.6813
   2   2.0000     -10.017981      -272.6031
   3   2.0000     -10.014093      -272.4973
   4   2.0000     -10.011484      -272.4263
   5   2.0000      -0.769210       -20.9313
   6   2.0000      -0.712502       -19.3882
   7   2.0000      -0.642212       -17.4755
   8   2.0000      -0.577223       -15.7070
   9   2.0000      -0.489093       -13.3089
  10   2.0000      -0.442733       -12.0474
  11   2.0000      -0.399549       -10.8723
  12   2.0000      -0.391474       -10.6525
  13   2.0000      -0.374285       -10.1848
  14   2.0000      -0.342982        -9.3330
  15   2.0000      -0.332329        -9.0431
  16   2.0000      -0.326860        -8.8943
  17   2.0000      -0.303128        -8.2485
  18   2.0000      -0.284820        -7.7504
  19   2.0000      -0.218451        -5.9443
  20   0.0000      -0.003721        -0.1013
  21   0.0000       0.098006         2.6669
  22   0.0000       0.126191         3.4338
  23   0.0000       0.136239         3.7073
  24   0.0000       0.150126         4.0851

MULLIKEN ATOMIC CHARGES
-----------------------
   0 C :   -0.489644
   1 C :   -0.247692
   2 C :   -0.191845
   3 C :   -0.195226
   4 C :   -0.515755
   5 H :    0.156263
   6 H :    0.157417
   7 H :    0.153811
   8 H :    0.159791
   9 H :    0.156614
  10 H :    0.169908
  11 H :    0.176021
  12 H :    0.161910
  13 H :    0.175103
  14 H :    0.173323
Sum of atomic charges:   -0.0000000

LOEWDIN ATOMIC CHARGES
----------------------
   0 C :   -0.422571
   1 C :   -0.306986
   2 C :   -0.223876
   3 C :   -0.231107
   4 C :   -0.429132
   5 H :    0.153757
   6 H :    0.153381
   7 H :    0.153590
   8 H :    0.165561
   9 H :    0.161867
  10 H :    0.168027
  11 H :    0.165696
  12 H :    0.160170
  13 H :    0.167328
  14 H :    0.164295

  Mayer bond orders larger than 0.100000
B(  0-C ,  1-C ) :   0.8796 B(  0-C ,  5-H ) :   0.9775 B(  0-C ,  6-H ) :   0.9695
B(  0-C ,  7-H ) :   0.9762 B(  1-C ,  2-C ) :   0.9198 B(  1-C ,  8-H ) :   0.9657
B(  1-C ,  9-H ) :   0.9812 B(  2-C ,  3-C ) :   1.9123 B(  2-C , 10-H ) :   0.9412
B(  3-C ,  4-C ) :   0.8862 B(  3-C , 11-H ) :   0.9515 B(  4-C , 12-H ) :   0.9705
B(  4-C , 13-H ) :   0.9658 B(  4-C , 14-H ) :   0.9805

Dispersion correction           -0.003262821
FINAL SINGLE POINT ENERGY      -196.458047587062

DIPOLE MOMENT
-------------

Method             : SCF
Type of density    : Electron Density
Multiplicity       :   1
Irrep              :   0
Energy             :  -196.4609242388741848 Eh
Relativity type    :
Basis              : AO
                                X                 Y                 Z
Electronic contribution:      1.178806276      -1.645195240      -0.333514476
Nuclear contribution   :     -1.225399593       1.840916613       0.284169040
                        -----------------------------------------
Total Dipole Moment    :     -0.046593317       0.195721373      -0.049345436
                        -----------------------------------------
Magnitude (a.u.)       :      0.207153964
Magnitude (Debye)      :      0.526543532

Rotational constants in cm-1:             0.387446             0.087420             0.079279
Rotational constants in MHz :         11615.333879          2620.776404          2376.732529

                             ****ORCA TERMINATED NORMALLY****
TOTAL RUN TIME: 0 days 0 hours 0 minutes 13 seconds 899 msec
