                         Program Version 6.0.0  -   RELEASE  -
|  1> ! pbe def2-sv(p) def2/J RI DEFGRID1 loosescf d4 GCP(DFT/SV(P)) printgap
|  2> %output
|  3>     printlevel normal
|  4> end
|  5> * xyz 0 1
|  6> C -3.8530569368 -0.6263959897 0.0018429832
|  7> N -2.6726071855 0.2113096022 0.0003166959
|  8> C -2.8952256342 1.6443396067 -0.001211476
|  9> C -1.4477465578 -0.3719307819 -0.0003669066
| 10> O -1.3149149756 -1.5977752112 -1.33012e-05
| 11> N -0.3908929752 0.5037092699 -0.0010051228
| 12> C 0.9774126819 0.231154672 -0.0004786613
| 13> C 1.8473757781 1.3229141439 0.0005692258
| 14> C 3.2146488825 1.1305744205 0.0011522858
| 15> C 3.7395192953 -0.1515279566 0.000676164
| 16> C 2.8801822114 -1.2366834667 -0.0005083652
| 17> C 1.5088727162 -1.0552653861 -0.0011218121
| 18> H -3.532187083 -1.6659311147 0.0058161667
| 19> H -4.4509549477 -0.4386568083 -0.891161097
| 20> H -4.4527505329 -0.4321952832 0.8921865068
| 21> H -2.4767192375 2.1108702299 -0.8956142915
| 22> H -2.4791735219 2.1124117984 0.8936166458
| 23> H -3.9681329325 1.8147190806 -0.0030055247
| 24> H -0.6099602016 1.4889293885 -8.50953e-05
| 25> H 1.4463991302 2.3259655481 0.0008828208
| 26> H 3.8737638437 1.9855088593 0.0019215462
| 27> H 4.8078179596 -0.3031460255 0.00132599
| 28> H 3.2765461084 -2.2410493592 -0.0007934252
| 29> H 0.8442454671 -1.9032941977 -0.001907325
| 30> *
| 31>
| 32>                          ****END OF INPUT****

CARTESIAN COORDINATES (ANGSTROEM)
---------------------------------
  C     -3.853057   -0.626396    0.001843
  N     -2.672607    0.211310    0.000317
  C     -2.895226    1.644340   -0.001211
  C     -1.447747   -0.371931   -0.000367
  O     -1.314915   -1.597775   -0.000013
  N     -0.390893    0.503709   -0.001005
  C      0.977413    0.231155   -0.000479
  C      1.847376    1.322914    0.000569
  C      3.214649    1.130574    0.001152
  C      3.739519   -0.151528    0.000676
  C      2.880182   -1.236683   -0.000508
  C      1.508873   -1.055265   -0.001122
  H     -3.532187   -1.665931    0.005816
  H     -4.450955   -0.438657   -0.891161
  H     -4.452751   -0.432195    0.892187
  H     -2.476719    2.110870   -0.895614
  H     -2.479174    2.112412    0.893617
  H     -3.968133    1.814719   -0.003006
  H     -0.609960    1.488929   -0.000085
  H      1.446399    2.325966    0.000883
  H      3.873764    1.985509    0.001922
  H      4.807818   -0.303146    0.001326
  H      3.276546   -2.241049   -0.000793
  H      0.844245   -1.903294   -0.001907

 Total Charge           Charge          ....    0
 Multiplicity           Mult            ....    1
 Number of Electrons    NEL             ....   88
 Basis Dimension        Dim             ....  192

ORBITAL ENERGIES
----------------

  NO   OCC          E(Eh)            E(eV)
   0   2.0000     -18.703130      -508.9380
   1   2.0000     -14.028072      -381.7232
   2   2.0000     -14.024216      -381.6183
   3   2.0000     -10.002695      -272.1872
   4   2.0000      -9.939049      -270.4553
   5   2.0000      -9.935489      -270.3584
   6   2.0000      -9.914983      -269.8004
   7   2.0000      -9.889663      -269.1114
   8   2.0000      -9.888155      -269.0704
   9   2.0000      -9.883258      -268.9371
  10   2.0000      -9.879738      -268.8413
  11   2.0000      -9.874801      -268.7070
  12   2.0000      -0.945827       -25.7373
  13   2.0000      -0.854340       -23.2478
  14   2.0000      -0.845958       -23.0197
  15   2.0000      -0.762188       -20.7402
  16   2.0000      -0.676708       -18.4142
  17   2.0000      -0.664677       -18.0868
  18   2.0000      -0.662062       -18.0156
  19   2.0000      -0.624923       -17.0050
  20   2.0000      -0.561813       -15.2877
  21   2.0000      -0.546742       -14.8776
  22   2.0000      -0.502259       -13.6672
  23   2.0000      -0.496724       -13.5165
  24   2.0000      -0.472229       -12.8500
  25   2.0000      -0.440261       -11.9801
  26   2.0000      -0.438424       -11.9301
  27   2.0000      -0.415959       -11.3188
  28   2.0000      -0.395482       -10.7616
  29   2.0000      -0.380885       -10.3644
  30   2.0000      -0.377737       -10.2787
  31   2.0000      -0.373057       -10.1514
  32   2.0000      -0.372368       -10.1326
  33   2.0000      -0.368285       -10.0215
  34   2.0000      -0.355131        -9.6636
  35   2.0000      -0.332656        -9.0520
  36   2.0000      -0.326537        -8.8855
  37   2.0000      -0.310547        -8.4504
  38   2.0000      -0.295339        -8.0366
  39   2.0000      -0.268336        -7.3018
  40   2.0000      -0.222694        -6.0598
  41   2.0000      -0.203680        -5.5424
  42   2.0000      -0.202148        -5.5007
  43   2.0000      -0.185259        -5.0412
  44   0.0000      -0.027618        -0.7515
  45   0.0000      -0.024686        -0.6717
  46   0.0000       0.013472         0.3666
  47   0.0000       0.040744         1.1087
  48   0.0000       0.046803         1.2736

MULLIKEN ATOMIC CHARGES
-----------------------
   0 C :   -0.181798
   1 N :   -0.268504
   2 C :   -0.204152
   3 C :    0.187054
   4 O :   -0.258907
   5 N :   -0.237916
   6 C :    0.194534
   7 C :   -0.144113
   8 C :   -0.061458
   9 C :   -0.041903
  10 C :   -0.053147
  11 C :   -0.136153
  12 H :    0.148279
  13 H :    0.108141
  14 H :    0.108094
  15 H :    0.123183
  16 H :    0.123189
  17 H :    0.125511
  18 H :    0.223802
  19 H :    0.024546
  20 H :    0.048562
  21 H :    0.046280
  22 H :    0.052516
  23 H :    0.074359
Sum of atomic charges:   -0.0000000

LOEWDIN ATOMIC CHARGES
----------------------
   0 C :   -0.252889
   1 N :   -0.084792
   2 C :   -0.259388
   3 C :    0.036719
   4 O :   -0.232151
   5 N :   -0.129850
   6 C :    0.012076
   7 C :   -0.155605
   8 C :   -0.120825
   9 C :   -0.144529
  10 C :   -0.114524
  11 C :   -0.145656
  12 H :    0.140119
  13 H :    0.112843
  14 H :    0.112851
  15 H :    0.117435
  16 H :    0.117400
  17 H :    0.133116
  18 H :    0.233034
  19 H :    0.115844
  20 H :    0.122521
  21 H :    0.120712
  22 H :    0.124018
  23 H :    0.141523

  Mayer bond orders larger than 0.100000
B(  0-C ,  1-N ) :   1.0145 B(  0-C , 12-H ) :   0.9272 B(  0-C , 13-H ) :   0.9536
B(  0-C , 14-H ) :   0.9536 B(  1-N ,  2-C ) :   1.0141 B(  1-N ,  3-C ) :   1.1343
B(  2-C , 15-H ) :   0.9393 B(  2-C , 16-H ) :   0.9393 B(  2-C , 17-H ) :   0.9463
B(  3-C ,  4-O ) :   1.9471 B(  3-C ,  5-N ) :   1.1101 B(  5-N ,  6-C ) :   1.1038
B(  5-N , 18-H ) :   0.8192 B(  6-C ,  7-C ) :   1.3198 B(  6-C , 11-C ) :   1.3907
B(  7-C ,  8-C ) :   1.3990 B(  7-C , 19-H ) :   0.9531 B(  8-C ,  9-C ) :   1.3706
B(  8-C , 20-H ) :   0.9613 B(  9-C , 10-C ) :   1.3695 B(  9-C , 21-H ) :   0.9670
B( 10-C , 11-C ) :   1.3446 B( 10-C , 22-H ) :   0.9638 B( 11-C , 23-H ) :   0.9421

Dispersion correction           -0.025478113
FINAL SINGLE POINT ENERGY      -533.770932479982

DIPOLE MOMENT
-------------

Method             : SCF
Type of density    : Electron Density
Multiplicity       :   1
Irrep              :   0
Energy             :  -533.8510699167410394 Eh
Relativity type    :
Basis              : AO
                                X                 Y                 Z
Electronic contribution:      6.388427104      -3.051977237      -0.002639421
Nuclear contribution   :     -7.279995743       4.534247647       0.002982142
                        -----------------------------------------
Total Dipole Moment    :     -0.891568638       1.482270409       0.000342722
                        -----------------------------------------
Magnitude (a.u.)       :      1.729745739
Magnitude (Debye)      :      4.396664259

Rotational constants in cm-1:             0.087763             0.016178             0.013732
Rotational constants in MHz :          2631.059228           485.008014           411.663676

                             ****ORCA TERMINATED NORMALLY****
TOTAL RUN TIME: 0 days 0 hours 0 minutes 12 seconds 649 msec
