                         Program Version 6.0.0  -   RELEASE  -
|  1> ! wb97x-v def2-tzvp def2/J RIJCOSX DEFGRID2 scfconv7 GCP(DFT/TZ) printgap
|  2> %output
|  3>     printlevel normal
|  4> end
|  5> * xyz 0 1
|  6> C 2.02327281912947 0.7604251406783965 -0.0004196811429845995
|  7> C 0.7813252707765457 -0.07707506589904549 0.0001690075789700074
|  8> O 0.8285529760864395 -1.3091418387285714 0.002088722838603781
|  9> C -0.5010859188244216 0.6523228107697343 -0.0019550278314191868
| 10> C -1.673561765773136 0.018886236668508433 -0.740245908063188
| 11> C -1.672985789890559 0.02312240488046061 0.7410807685857559
| 12> H 2.0198063428952624 1.418468566122419 0.8763648300485899
| 13> H 2.9186717104186672 0.13774946561975185 0.0010882464978472846
| 14> H 2.020963211044482 1.4159183165193014 -0.879111894126874
| 15> H -0.4394117883785593 1.7345340603485604 -0.004880198235363713
| 16> H -2.3299649629570984 0.706683187005186 -1.261201093490035
| 17> H -1.4597421798753505 -0.9176237588289393 -1.244633898706619
| 18> H -2.3288450838085595 0.7139780820049788 1.2586659839783647
| 19> H -1.458694376087481 -0.9104135886258158 1.250756946963327
| 20> *
| 21>
| 22>                          ****END OF INPUT****

CARTESIAN COORDINATES (ANGSTROEM)
---------------------------------
  C      2.023273    0.760425   -0.000420
  C      0.781325   -0.077075    0.000169
  O      0.828553   -1.309142    0.002089
  C     -0.501086    0.652323   -0.001955
  C     -1.673562    0.018886   -0.740246
  C     -1.672986    0.023122    0.741081
  H      2.019806    1.418469    0.876365
  H      2.918672    0.137749    0.001088
  H      2.020963    1.415918   -0.879112
  H     -0.439412    1.734534   -0.004880
  H     -2.329965    0.706683   -1.261201
  H     -1.459742   -0.917624   -1.244634
  H     -2.328845    0.713978    1.258666
  H     -1.458694   -0.910414    1.250757

 Total Charge           Charge          ....    0
 Multiplicity           Mult            ....    1
 Number of Electrons    NEL             ....   46
 Basis Dimension        Dim             ....  234

ORBITAL ENERGIES
----------------

  NO   OCC          E(Eh)            E(eV)
   0   2.0000     -21.652047      -589.1822
   1   2.0000     -12.136431      -330.2491
   2   2.0000     -12.065528      -328.3197
   3   2.0000     -12.062472      -328.2365
   4   2.0000     -12.061448      -328.2087
   5   2.0000     -12.051637      -327.9417
   6   2.0000      -1.694079       -46.0982
   7   2.0000      -1.405234       -38.2383
   8   2.0000      -1.271502       -34.5993
   9   2.0000      -1.153380       -31.3851
  10   2.0000      -1.085588       -29.5404
  11   2.0000      -1.063660       -28.9437
  12   2.0000      -0.982910       -26.7464
  13   2.0000      -0.962982       -26.2041
  14   2.0000      -0.926423       -25.2092
  15   2.0000      -0.903647       -24.5895
  16   2.0000      -0.870030       -23.6747
  17   2.0000      -0.836585       -22.7646
  18   2.0000      -0.829531       -22.5727
  19   2.0000      -0.804407       -21.8890
  20   2.0000      -0.800497       -21.7826
  21   2.0000      -0.755639       -20.5620
  22   2.0000      -0.742161       -20.1952
  23   0.0000      -0.309832        -8.4310
  24   0.0000      -0.081950        -2.2300
  25   0.0000      -0.057949        -1.5769
  26   0.0000      -0.038481        -1.0471
  27   0.0000      -0.029955        -0.8151

MULLIKEN ATOMIC CHARGES
-----------------------
   0 C :   -0.354268
   1 C :    0.197740
   2 O :   -0.351076
   3 C :   -0.096137
   4 C :   -0.207014
   5 C :   -0.207089
   6 H :    0.129034
   7 H :    0.136819
   8 H :    0.129061
   9 H :    0.114094
  10 H :    0.117177
  11 H :    0.137265
  12 H :    0.117171
  13 H :    0.137222
Sum of atomic charges:    0.0000000

LOEWDIN ATOMIC CHARGES
----------------------
   0 C :   -0.256325
   1 C :   -0.332416
   2 O :    0.090744
   3 C :   -0.194839
   4 C :   -0.194569
   5 C :   -0.194531
   6 H :    0.135348
   7 H :    0.129944
   8 H :    0.135334
   9 H :    0.145758
  10 H :    0.128830
  11 H :    0.138963
  12 H :    0.128817
  13 H :    0.138943

  Mayer bond orders larger than 0.100000
B(  0-C ,  1-C ) :   0.9762 B(  0-C ,  6-H ) :   0.9562 B(  0-C ,  7-H ) :   0.9821
B(  0-C ,  8-H ) :   0.9563 B(  1-C ,  2-O ) :   2.0806 B(  1-C ,  3-C ) :   0.9729
B(  3-C ,  4-C ) :   0.9094 B(  3-C ,  5-C ) :   0.9092 B(  3-C ,  9-H ) :   0.9582
B(  4-C ,  5-C ) :   1.0054 B(  4-C , 10-H ) :   0.9724 B(  4-C , 11-H ) :   0.9616
B(  5-C , 12-H ) :   0.9724 B(  5-C , 13-H ) :   0.9616

FINAL SINGLE POINT ENERGY      -270.560506240573

DIPOLE MOMENT
-------------

Method             : SCF
Type of density    : Electron Density
Multiplicity       :   1
Irrep              :   0
Energy             :  -270.5690241848733422 Eh
Relativity type    :
Basis              : AO
                                X                 Y                 Z
Electronic contribution:      0.694324540      -2.840285386       0.002343730
Nuclear contribution   :     -0.949424942       4.019851424      -0.003987348
                        -----------------------------------------
Total Dipole Moment    :     -0.255100402       1.179566038      -0.001643618
                        -----------------------------------------
Magnitude (a.u.)       :      1.206836755
Magnitude (Debye)      :      3.067535251

Rotational constants in cm-1:             0.239356             0.088227             0.076849
Rotational constants in MHz :          7175.699314          2644.991580          2303.885803

                             ****ORCA TERMINATED NORMALLY****
TOTAL RUN TIME: 0 days 0 hours 1 minutes 42 seconds 355 msec
