                         Program Version 6.0.0  -   RELEASE  -
|  1> ! wb97x-v def2-tzvp def2/J RIJCOSX DEFGRID2 scfconv7 GCP(DFT/TZ) printgap
|  2> %output
|  3>     printlevel normal
|  4> end
|  5> %cpcm
|  6>     smd true
|  7>     smdsolvent "water"
|  8> end
|  9> * xyz 0 1
| 10> C 2.02327281912947 0.7604251406783965 -0.0004196811429845995
| 11> C 0.7813252707765457 -0.07707506589904549 0.0001690075789700074
| 12> O 0.8285529760864395 -1.3091418387285714 0.002088722838603781
| 13> C -0.5010859188244216 0.6523228107697343 -0.0019550278314191868
| 14> C -1.673561765773136 0.018886236668508433 -0.740245908063188
| 15> C -1.672985789890559 0.02312240488046061 0.7410807685857559
| 16> H 2.0198063428952624 1.418468566122419 0.8763648300485899
| 17> H 2.9186717104186672 0.13774946561975185 0.0010882464978472846
| 18> H 2.020963211044482 1.4159183165193014 -0.879111894126874
| 19> H -0.4394117883785593 1.7345340603485604 -0.004880198235363713
| 20> H -2.3299649629570984 0.706683187005186 -1.261201093490035
| 21> H -1.4597421798753505 -0.9176237588289393 -1.244633898706619
| 22> H -2.3288450838085595 0.7139780820049788 1.2586659839783647
| 23> H -1.458694376087481 -0.9104135886258158 1.250756946963327
| 24> *
| 25>
| 26>                          ****END OF INPUT****

CARTESIAN COORDINATES (ANGSTROEM)
---------------------------------
  C      2.023273    0.760425   -0.000420
  C      0.781325   -0.077075    0.000169
  O      0.828553   -1.309142    0.002089
  C     -0.501086    0.652323   -0.001955
  C     -1.673562    0.018886   -0.740246
  C     -1.672986    0.023122    0.741081
  H      2.019806    1.418469    0.876365
  H      2.918672    0.137749    0.001088
  H      2.020963    1.415918   -0.879112
  H     -0.439412    1.734534   -0.004880
  H     -2.329965    0.706683   -1.261201
  H     -1.459742   -0.917624   -1.244634
  H     -2.328845    0.713978    1.258666
  H     -1.458694   -0.910414    1.250757

 Total Charge           Charge          ....    0
 Multiplicity           Mult            ....    1
 Number of Electrons    NEL             ....   46
 Basis Dimension        Dim             ....  234

ORBITAL ENERGIES
----------------

  NO   OCC          E(Eh)            E(eV)
   0   2.0000     -21.663203      -589.4857
   1   2.0000     -12.144159      -330.4594
   2   2.0000     -12.057761      -328.1084
   3   2.0000     -12.054637      -328.0233
   4   2.0000     -12.053612      -327.9955
   5   2.0000     -12.039885      -327.6219
   6   2.0000      -1.708744       -46.4973
   7   2.0000      -1.398651       -38.0592
   8   2.0000      -1.266159       -34.4539
   9   2.0000      -1.149017       -31.2663
  10   2.0000      -1.077635       -29.3239
  11   2.0000      -1.075151       -29.2564
  12   2.0000      -0.982245       -26.7282
  13   2.0000      -0.960287       -26.1307
  14   2.0000      -0.921028       -25.0624
  15   2.0000      -0.917482       -24.9659
  16   2.0000      -0.864919       -23.5357
  17   2.0000      -0.826671       -22.4949
  18   2.0000      -0.821175       -22.3453
  19   2.0000      -0.801278       -21.8039
  20   2.0000      -0.796097       -21.6629
  21   2.0000      -0.748751       -20.3746
  22   2.0000      -0.735687       -20.0191
  23   0.0000      -0.309006        -8.4085
  24   0.0000      -0.074546        -2.0285
  25   0.0000      -0.051443        -1.3998
  26   0.0000      -0.034023        -0.9258
  27   0.0000      -0.014490        -0.3943

MULLIKEN ATOMIC CHARGES
-----------------------
   0 C :   -0.381248
   1 C :    0.273119
   2 O :   -0.487917
   3 C :   -0.121131
   4 C :   -0.249768
   5 C :   -0.249816
   6 H :    0.161996
   7 H :    0.139126
   8 H :    0.162033
   9 H :    0.159108
  10 H :    0.151458
  11 H :    0.145772
  12 H :    0.151455
  13 H :    0.145812
Sum of atomic charges:    0.0000000

LOEWDIN ATOMIC CHARGES
----------------------
   0 C :   -0.249763
   1 C :   -0.315065
   2 O :    0.011470
   3 C :   -0.186337
   4 C :   -0.197576
   5 C :   -0.197501
   6 H :    0.147661
   7 H :    0.129710
   8 H :    0.147652
   9 H :    0.158920
  10 H :    0.138067
  11 H :    0.137347
  12 H :    0.138058
  13 H :    0.137358

  Mayer bond orders larger than 0.100000
B(  0-C ,  1-C ) :   1.0039 B(  0-C ,  6-H ) :   0.9450 B(  0-C ,  7-H ) :   0.9720
B(  0-C ,  8-H ) :   0.9450 B(  1-C ,  2-O ) :   1.9267 B(  1-C ,  3-C ) :   0.9914
B(  3-C ,  4-C ) :   0.9008 B(  3-C ,  5-C ) :   0.9006 B(  3-C ,  9-H ) :   0.9544
B(  4-C ,  5-C ) :   0.9923 B(  4-C , 10-H ) :   0.9662 B(  4-C , 11-H ) :   0.9617
B(  5-C , 12-H ) :   0.9662 B(  5-C , 13-H ) :   0.9617

FINAL SINGLE POINT ENERGY      -270.569020652001

DIPOLE MOMENT
-------------

Method             : SCF
Type of density    : Electron Density
Multiplicity       :   1
Irrep              :   0
Energy             :  -270.5775385963005988 Eh
Relativity type    :
Basis              : AO
                                X                 Y                 Z
Electronic contribution:      0.594762747      -2.237725021       0.001541157
Nuclear contribution   :     -0.949424942       4.019851424      -0.003987348
                        -----------------------------------------
Total Dipole Moment    :     -0.354662195       1.782126403      -0.002446191
                        -----------------------------------------
Magnitude (a.u.)       :      1.817076161
Magnitude (Debye)      :      4.618640551

Rotational constants in cm-1:             0.239356             0.088227             0.076849
Rotational constants in MHz :          7175.699314          2644.991580          2303.885803

                             ****ORCA TERMINATED NORMALLY****
TOTAL RUN TIME: 0 days 0 hours 1 minutes 37 seconds 803 msec
