                         Program Version 6.0.0  -   RELEASE  -
|  1> ! pbe def2-sv(p) def2/J RI DEFGRID1 loosescf d4 GCP(DFT/SV(P)) printgap
|  2> %output
|  3>     printlevel normal
|  4> end
|  5> * xyz 0 1
|  6> C -3.3521237228 0.2580173647 0.2988224845
|  7> O -2.1715542736 0.3701540894 -0.4999275767
|  8> C -1.0516764147 -0.1715595532 -0.0210708889
|  9> O -1.0156226674 -0.7558659272 1.0400360916
| 10> C 0.1002892254 0.0833808085 -0.9655607747
| 11> C 1.0826356185 -1.0901151682 -1.0462812884
| 12> C 1.8968834223 -1.2589989374 0.2337393528
| 13> C 2.6225324538 0.0351754648 0.5859297946
| 14> C 1.6119850518 1.1649107896 0.7572484262
| 15> C 0.8274318485 1.3699176759 -0.534236015
| 16> H -3.1995701147 0.7478387265 1.2612575753
| 17> H -3.5873450216 -0.7931895231 0.4694999894
| 18> H -4.1372220583 0.7472097673 -0.2685976007
| 19> H -0.3487332251 0.2549805959 -1.9487770821
| 20> H 0.5337833444 -2.0101570179 -1.2574083532
| 21> H 1.7607055548 -0.9005025651 -1.8807967294
| 22> H 1.2283977791 -1.5325553445 1.0512383681
| 23> H 2.6158777464 -2.0690082545 0.0987684487
| 24> H 3.1907121357 -0.0985475277 1.5076849295
| 25> H 3.324232041 0.2915582076 -0.2110596855
| 26> H 0.9263050111 0.9115358941 1.5691267504
| 27> H 2.123133167 2.0918725282 1.0230895718
| 28> H 0.1008637067 2.1764467619 -0.415740198
| 29> H 1.5173879855 1.6490507695 -1.3325451054
| 30> *
| 31>
| 32>                          ****END OF INPUT****

CARTESIAN COORDINATES (ANGSTROEM)
---------------------------------
  C     -3.352124    0.258017    0.298822
  O     -2.171554    0.370154   -0.499928
  C     -1.051676   -0.171560   -0.021071
  O     -1.015623   -0.755866    1.040036
  C      0.100289    0.083381   -0.965561
  C      1.082636   -1.090115   -1.046281
  C      1.896883   -1.258999    0.233739
  C      2.622532    0.035175    0.585930
  C      1.611985    1.164911    0.757248
  C      0.827432    1.369918   -0.534236
  H     -3.199570    0.747839    1.261258
  H     -3.587345   -0.793190    0.469500
  H     -4.137222    0.747210   -0.268598
  H     -0.348733    0.254981   -1.948777
  H      0.533783   -2.010157   -1.257408
  H      1.760706   -0.900503   -1.880797
  H      1.228398   -1.532555    1.051238
  H      2.615878   -2.069008    0.098768
  H      3.190712   -0.098548    1.507685
  H      3.324232    0.291558   -0.211060
  H      0.926305    0.911536    1.569127
  H      2.123133    2.091873    1.023090
  H      0.100864    2.176447   -0.415740
  H      1.517388    1.649051   -1.332545

 Total Charge           Charge          ....    0
 Multiplicity           Mult            ....    1
 Number of Electrons    NEL             ....   78
 Basis Dimension        Dim             ....  168

ORBITAL ENERGIES
----------------

  NO   OCC          E(Eh)            E(eV)
   0   2.0000     -18.797721      -511.5120
   1   2.0000     -18.737644      -509.8772
   2   2.0000     -10.004476      -272.2356
   3   2.0000      -9.941144      -270.5123
   4   2.0000      -9.902982      -269.4738
   5   2.0000      -9.890753      -269.1411
   6   2.0000      -9.885446      -268.9966
   7   2.0000      -9.878341      -268.8033
   8   2.0000      -9.876604      -268.7561
   9   2.0000      -9.871504      -268.6173
  10   2.0000      -1.005818       -27.3697
  11   2.0000      -0.911938       -24.8151
  12   2.0000      -0.758917       -20.6512
  13   2.0000      -0.691446       -18.8152
  14   2.0000      -0.665448       -18.1077
  15   2.0000      -0.650310       -17.6958
  16   2.0000      -0.557958       -15.1828
  17   2.0000      -0.540464       -14.7068
  18   2.0000      -0.511463       -13.9176
  19   2.0000      -0.493512       -13.4292
  20   2.0000      -0.441169       -12.0048
  21   2.0000      -0.433805       -11.8044
  22   2.0000      -0.427983       -11.6460
  23   2.0000      -0.411918       -11.2089
  24   2.0000      -0.395534       -10.7630
  25   2.0000      -0.389006       -10.5854
  26   2.0000      -0.376690       -10.2503
  27   2.0000      -0.352539        -9.5931
  28   2.0000      -0.334306        -9.0969
  29   2.0000      -0.333145        -9.0653
  30   2.0000      -0.330111        -8.9828
  31   2.0000      -0.324130        -8.8200
  32   2.0000      -0.299640        -8.1536
  33   2.0000      -0.297569        -8.0973
  34   2.0000      -0.282738        -7.6937
  35   2.0000      -0.262666        -7.1475
  36   2.0000      -0.258481        -7.0336
  37   2.0000      -0.255664        -6.9570
  38   2.0000      -0.215126        -5.8539
  39   0.0000      -0.021367        -0.5814
  40   0.0000       0.032962         0.8969
  41   0.0000       0.051414         1.3990
  42   0.0000       0.065711         1.7881
  43   0.0000       0.077099         2.0980

MULLIKEN ATOMIC CHARGES
-----------------------
   0 C :   -0.107798
   1 O :   -0.240058
   2 C :    0.129469
   3 O :   -0.203249
   4 C :   -0.153976
   5 C :   -0.112671
   6 C :   -0.156567
   7 C :   -0.159195
   8 C :   -0.154550
   9 C :   -0.131840
  10 H :    0.117727
  11 H :    0.119350
  12 H :    0.121412
  13 H :    0.079783
  14 H :    0.086898
  15 H :    0.077110
  16 H :    0.106524
  17 H :    0.079024
  18 H :    0.083932
  19 H :    0.067950
  20 H :    0.095358
  21 H :    0.083374
  22 H :    0.089258
  23 H :    0.082734
Sum of atomic charges:    0.0000000

LOEWDIN ATOMIC CHARGES
----------------------
   0 C :   -0.204440
   1 O :   -0.073578
   2 C :    0.049657
   3 O :   -0.162080
   4 C :   -0.165896
   5 C :   -0.208767
   6 C :   -0.235344
   7 C :   -0.224807
   8 C :   -0.231748
   9 C :   -0.205885
  10 H :    0.118824
  11 H :    0.119769
  12 H :    0.120579
  13 H :    0.129342
  14 H :    0.119443
  15 H :    0.116912
  16 H :    0.125470
  17 H :    0.114058
  18 H :    0.116448
  19 H :    0.109226
  20 H :    0.121216
  21 H :    0.115937
  22 H :    0.117542
  23 H :    0.118125

  Mayer bond orders larger than 0.100000
B(  0-C ,  1-O ) :   0.9396 B(  0-C , 10-H ) :   0.9520 B(  0-C , 11-H ) :   0.9517
B(  0-C , 12-H ) :   0.9593 B(  1-O ,  2-C ) :   1.2241 B(  2-C ,  3-O ) :   2.0222
B(  2-C ,  4-C ) :   0.9486 B(  4-C ,  5-C ) :   1.0780 B(  4-C ,  9-C ) :   1.0773
B(  4-C , 13-H ) :   0.8736 B(  5-C ,  6-C ) :   1.1277 B(  5-C , 14-H ) :   0.9195
B(  5-C , 15-H ) :   0.9127 B(  6-C ,  7-C ) :   1.1333 B(  6-C , 16-H ) :   0.9021
B(  6-C , 17-H ) :   0.9160 B(  7-C ,  8-C ) :   1.1313 B(  7-C , 18-H ) :   0.9190
B(  7-C , 19-H ) :   0.9176 B(  8-C ,  9-C ) :   1.1345 B(  8-C , 20-H ) :   0.9048
B(  8-C , 21-H ) :   0.9174 B(  9-C , 22-H ) :   0.9146 B(  9-C , 23-H ) :   0.9119

Dispersion correction           -0.023578615
FINAL SINGLE POINT ENERGY      -462.706452511624

DIPOLE MOMENT
-------------

Method             : SCF
Type of density    : Electron Density
Multiplicity       :   1
Irrep              :   0
Energy             :  -462.7944561618083981 Eh
Relativity type    :
Basis              : AO
                                X                 Y                 Z
Electronic contribution:     -5.973298039      -1.006490988      -0.093922092
Nuclear contribution   :      5.627276247       1.370134425      -0.305583104
                        -----------------------------------------
Total Dipole Moment    :     -0.346021792       0.363643437      -0.399505196
                        -----------------------------------------
Magnitude (a.u.)       :      0.641538800
Magnitude (Debye)      :      1.630662039

Rotational constants in cm-1:             0.087933             0.028875             0.027527
Rotational constants in MHz :          2636.177982           865.647648           825.252159

                             ****ORCA TERMINATED NORMALLY****
TOTAL RUN TIME: 0 days 0 hours 0 minutes 12 seconds 297 msec
