                         Program Version 6.0.0  -   RELEASE  -
|  1> ! pbe def2-sv(p) def2/J RI DEFGRID1 loosescf d4 GCP(DFT/SV(P)) printgap
|  2> %output
|  3>     printlevel normal
|  4> end
|  5> * xyz 0 1
|  6> C -2.3872412292 -1.1596398569 -0.3252919926
|  7> C -1.0667533935 -0.6268311911 0.24079619
|  8> H -1.1089083463 -0.6332362637 1.3414351391
|  9> C -0.7814796777 0.8106417031 -0.2222200622
| 10> H -0.848395492 0.8476428404 -1.3227956397
| 11> C 0.63844492 1.2501663488 0.1786802466
| 12> H 0.6697912782 1.3824104144 1.2711047408
| 13> C 1.6784314407 0.1959419943 -0.2036616196
| 14> H 1.7805168183 0.1962910734 -1.2996614368
| 15> C 1.2200223855 -1.2000459943 0.2719463473
| 16> H 1.2295001861 -1.2080633572 1.3755341072
| 17> O -0.0620181689 -1.5101575909 -0.2148405201
| 18> O 2.0922679118 -2.1898893081 -0.140262414
| 19> O 2.8982625689 0.5288923443 0.4064417965
| 20> O 0.9749079916 2.4530011273 -0.4649925894
| 21> O -1.6652532602 1.7403311209 0.3530638435
| 22> O -3.4483159425 -0.373360889 0.1637094054
| 23> H -2.4858517126 -2.2055503652 -0.0150499864
| 24> H -2.3352090121 -1.1186749277 -1.4203039717
| 25> H 1.8898772956 -2.4311944582 -1.0584713174
| 26> H 3.5354867235 -0.1838106351 0.2406150258
| 27> H 0.3153356123 3.1200189753 -0.2209025694
| 28> H -2.5653919717 1.3701785077 0.3280128362
| 29> H -4.2900192813 -0.7387979835 -0.1443929403
| 30> *
| 31>
| 32>                          ****END OF INPUT****

CARTESIAN COORDINATES (ANGSTROEM)
---------------------------------
  C     -2.387241   -1.159640   -0.325292
  C     -1.066753   -0.626831    0.240796
  H     -1.108908   -0.633236    1.341435
  C     -0.781480    0.810642   -0.222220
  H     -0.848395    0.847643   -1.322796
  C      0.638445    1.250166    0.178680
  H      0.669791    1.382410    1.271105
  C      1.678431    0.195942   -0.203662
  H      1.780517    0.196291   -1.299661
  C      1.220022   -1.200046    0.271946
  H      1.229500   -1.208063    1.375534
  O     -0.062018   -1.510158   -0.214841
  O      2.092268   -2.189889   -0.140262
  O      2.898263    0.528892    0.406442
  O      0.974908    2.453001   -0.464993
  O     -1.665253    1.740331    0.353064
  O     -3.448316   -0.373361    0.163709
  H     -2.485852   -2.205550   -0.015050
  H     -2.335209   -1.118675   -1.420304
  H      1.889877   -2.431194   -1.058471
  H      3.535487   -0.183811    0.240615
  H      0.315336    3.120019   -0.220903
  H     -2.565392    1.370179    0.328013
  H     -4.290019   -0.738798   -0.144393

 Total Charge           Charge          ....    0
 Multiplicity           Mult            ....    1
 Number of Electrons    NEL             ....   96
 Basis Dimension        Dim             ....  192

ORBITAL ENERGIES
----------------

  NO   OCC          E(Eh)            E(eV)
   0   2.0000     -18.786070      -511.1949
   1   2.0000     -18.779967      -511.0289
   2   2.0000     -18.766830      -510.6714
   3   2.0000     -18.742593      -510.0119
   4   2.0000     -18.741279      -509.9761
   5   2.0000     -18.735472      -509.8181
   6   2.0000      -9.986955      -271.7589
   7   2.0000      -9.952143      -270.8116
   8   2.0000      -9.951853      -270.8037
   9   2.0000      -9.936318      -270.3810
  10   2.0000      -9.932788      -270.2849
  11   2.0000      -9.932632      -270.2807
  12   2.0000      -0.990842       -26.9622
  13   2.0000      -0.958776       -26.0896
  14   2.0000      -0.931660       -25.3518
  15   2.0000      -0.928340       -25.2614
  16   2.0000      -0.914659       -24.8891
  17   2.0000      -0.902579       -24.5604
  18   2.0000      -0.704442       -19.1688
  19   2.0000      -0.691328       -18.8120
  20   2.0000      -0.620745       -16.8913
  21   2.0000      -0.584211       -15.8972
  22   2.0000      -0.556953       -15.1555
  23   2.0000      -0.526285       -14.3209
  24   2.0000      -0.514300       -13.9948
  25   2.0000      -0.488372       -13.2893
  26   2.0000      -0.474766       -12.9190
  27   2.0000      -0.462654       -12.5895
  28   2.0000      -0.458767       -12.4837
  29   2.0000      -0.436843       -11.8871
  30   2.0000      -0.415954       -11.3187
  31   2.0000      -0.405158       -11.0249
  32   2.0000      -0.387784       -10.5521
  33   2.0000      -0.369752       -10.0615
  34   2.0000      -0.352474        -9.5913
  35   2.0000      -0.346202        -9.4206
  36   2.0000      -0.331820        -9.0293
  37   2.0000      -0.328699        -8.9444
  38   2.0000      -0.317601        -8.6424
  39   2.0000      -0.294087        -8.0025
  40   2.0000      -0.281133        -7.6500
  41   2.0000      -0.268648        -7.3103
  42   2.0000      -0.251915        -6.8550
  43   2.0000      -0.246041        -6.6951
  44   2.0000      -0.237914        -6.4740
  45   2.0000      -0.215773        -5.8715
  46   2.0000      -0.211489        -5.7549
  47   2.0000      -0.197499        -5.3742
  48   0.0000      -0.001730        -0.0471
  49   0.0000       0.025565         0.6957
  50   0.0000       0.041666         1.1338
  51   0.0000       0.049639         1.3508
  52   0.0000       0.064661         1.7595

MULLIKEN ATOMIC CHARGES
-----------------------
   0 C :    0.075090
   1 C :   -0.011217
   2 H :    0.066849
   3 C :    0.036579
   4 H :    0.044331
   5 C :    0.099432
   6 H :    0.056208
   7 C :    0.060862
   8 H :    0.040102
   9 C :    0.171490
  10 H :    0.055346
  11 O :   -0.310813
  12 O :   -0.387339
  13 O :   -0.406083
  14 O :   -0.410332
  15 O :   -0.437439
  16 O :   -0.444886
  17 H :    0.092583
  18 H :    0.075658
  19 H :    0.303788
  20 H :    0.298471
  21 H :    0.305290
  22 H :    0.306901
  23 H :    0.319129
Sum of atomic charges:    0.0000000

LOEWDIN ATOMIC CHARGES
----------------------
   0 C :   -0.122440
   1 C :   -0.067196
   2 H :    0.108770
   3 C :   -0.078426
   4 H :    0.099078
   5 C :   -0.061789
   6 H :    0.107792
   7 C :   -0.085768
   8 H :    0.100444
   9 C :   -0.004510
  10 H :    0.098564
  11 O :   -0.150012
  12 O :   -0.294495
  13 O :   -0.313001
  14 O :   -0.315896
  15 O :   -0.333750
  16 O :   -0.329949
  17 H :    0.107356
  18 H :    0.102117
  19 H :    0.289258
  20 H :    0.282648
  21 H :    0.287762
  22 H :    0.275344
  23 H :    0.298098

  Mayer bond orders larger than 0.100000
B(  0-C ,  1-C ) :   1.0585 B(  0-C , 16-O ) :   1.0495 B(  0-C , 17-H ) :   0.9184
B(  0-C , 18-H ) :   0.9068 B(  1-C ,  2-H ) :   0.8757 B(  1-C ,  3-C ) :   1.0056
B(  1-C , 11-O ) :   0.9874 B(  3-C ,  4-H ) :   0.8659 B(  3-C ,  5-C ) :   1.0086
B(  3-C , 15-O ) :   1.0827 B(  5-C ,  6-H ) :   0.8757 B(  5-C ,  7-C ) :   1.0023
B(  5-C , 14-O ) :   1.0998 B(  7-C ,  8-H ) :   0.8612 B(  7-C ,  9-C ) :   0.9841
B(  7-C , 13-O ) :   1.0880 B(  9-C , 10-H ) :   0.8772 B(  9-C , 11-O ) :   1.0034
B(  9-C , 12-O ) :   1.1215 B( 12-O , 19-H ) :   0.8412 B( 13-O , 20-H ) :   0.8379
B( 14-O , 21-H ) :   0.8408 B( 15-O , 22-H ) :   0.8045 B( 16-O , 22-H ) :   0.1027
B( 16-O , 23-H ) :   0.8403

Dispersion correction           -0.023734253
FINAL SINGLE POINT ENERGY      -685.700177116753

DIPOLE MOMENT
-------------

Method             : SCF
Type of density    : Electron Density
Multiplicity       :   1
Irrep              :   0
Energy             :  -685.8310542287022145 Eh
Relativity type    :
Basis              : AO
                                X                 Y                 Z
Electronic contribution:      2.500239559       0.433166520       0.236610160
Nuclear contribution   :     -3.941060803      -1.494074208      -0.866163375
                        -----------------------------------------
Total Dipole Moment    :     -1.440821244      -1.060907688      -0.629553215
                        -----------------------------------------
Magnitude (a.u.)       :      1.896794198
Magnitude (Debye)      :      4.821267699

Rotational constants in cm-1:             0.043783             0.024546             0.016532
Rotational constants in MHz :          1312.576151           735.868359           495.614942

                             ****ORCA TERMINATED NORMALLY****
TOTAL RUN TIME: 0 days 0 hours 0 minutes 12 seconds 13 msec
