                         Program Version 6.0.0  -   RELEASE  -
|  1> ! pbe def2-sv(p) def2/J RI DEFGRID1 loosescf d4 GCP(DFT/SV(P)) printgap
|  2> %output
|  3>     printlevel normal
|  4> end
|  5> * xyz 0 1
|  6> C -3.5330915323 0.3644303655 -0.4143057101
|  7> O -2.1283243568 0.3938917675 -0.6889713416
|  8> C -1.2987598517 -0.2343674505 0.1370350957
|  9> O -1.6646302515 -0.8585067101 1.1111203137
| 10> C 0.1365860794 -0.0335082948 -0.2798484076
| 11> C 0.9906671614 -1.2607049398 0.0320185516
| 12> C 2.4016800613 -1.0805937171 -0.5399772225
| 13> C 2.831970038 0.3915859608 -0.525620885
| 14> C 2.1992525287 1.1145110193 0.6578133321
| 15> C 0.6776303191 1.1936168959 0.4869517161
| 16> H -4.0352428615 0.2395340962 -1.3700911798
| 17> H -3.8191503704 1.3094417854 0.0463898387
| 18> H -3.761193866 -0.461900771 0.2598167086
| 19> H 0.1462012273 0.1658820195 -1.3535989959
| 20> H 1.0209436328 -1.3907277654 1.1145860531
| 21> H 0.5250527718 -2.1545199 -0.3863595185
| 22> H 3.098163707 -1.676933753 0.0504014165
| 23> H 2.4341648573 -1.4553535184 -1.5638023474
| 24> H 3.9187499605 0.4572538218 -0.4678706501
| 25> H 2.5207648862 0.8842062715 -1.4480186287
| 26> H 2.4457293288 0.5762633378 1.5737906444
| 27> H 2.6039867047 2.1229575788 0.7470605569
| 28> H 0.2041249248 1.2412429084 1.4703734262
| 29> H 0.4021549726 2.096138929 -0.0597421513
| 30> *
| 31>
| 32>                          ****END OF INPUT****

CARTESIAN COORDINATES (ANGSTROEM)
---------------------------------
  C     -3.533092    0.364430   -0.414306
  O     -2.128324    0.393892   -0.688971
  C     -1.298760   -0.234367    0.137035
  O     -1.664630   -0.858507    1.111120
  C      0.136586   -0.033508   -0.279848
  C      0.990667   -1.260705    0.032019
  C      2.401680   -1.080594   -0.539977
  C      2.831970    0.391586   -0.525621
  C      2.199253    1.114511    0.657813
  C      0.677630    1.193617    0.486952
  H     -4.035243    0.239534   -1.370091
  H     -3.819150    1.309442    0.046390
  H     -3.761194   -0.461901    0.259817
  H      0.146201    0.165882   -1.353599
  H      1.020944   -1.390728    1.114586
  H      0.525053   -2.154520   -0.386360
  H      3.098164   -1.676934    0.050401
  H      2.434165   -1.455354   -1.563802
  H      3.918750    0.457254   -0.467871
  H      2.520765    0.884206   -1.448019
  H      2.445729    0.576263    1.573791
  H      2.603987    2.122958    0.747061
  H      0.204125    1.241243    1.470373
  H      0.402155    2.096139   -0.059742

 Total Charge           Charge          ....    0
 Multiplicity           Mult            ....    1
 Number of Electrons    NEL             ....   78
 Basis Dimension        Dim             ....  168

ORBITAL ENERGIES
----------------

  NO   OCC          E(Eh)            E(eV)
   0   2.0000     -18.795454      -511.4503
   1   2.0000     -18.731284      -509.7041
   2   2.0000     -10.000665      -272.1319
   3   2.0000      -9.937886      -270.4236
   4   2.0000      -9.900899      -269.4172
   5   2.0000      -9.890595      -269.1368
   6   2.0000      -9.885028      -268.9853
   7   2.0000      -9.883555      -268.9452
   8   2.0000      -9.883295      -268.9381
   9   2.0000      -9.883184      -268.9351
  10   2.0000      -1.001567       -27.2540
  11   2.0000      -0.907015       -24.6811
  12   2.0000      -0.761850       -20.7310
  13   2.0000      -0.692469       -18.8430
  14   2.0000      -0.666197       -18.1281
  15   2.0000      -0.650380       -17.6977
  16   2.0000      -0.564072       -15.3492
  17   2.0000      -0.548038       -14.9129
  18   2.0000      -0.507554       -13.8112
  19   2.0000      -0.470371       -12.7994
  20   2.0000      -0.461598       -12.5607
  21   2.0000      -0.443267       -12.0619
  22   2.0000      -0.427269       -11.6266
  23   2.0000      -0.411327       -11.1928
  24   2.0000      -0.400010       -10.8848
  25   2.0000      -0.386987       -10.5305
  26   2.0000      -0.365747        -9.9525
  27   2.0000      -0.360484        -9.8093
  28   2.0000      -0.342529        -9.3207
  29   2.0000      -0.332311        -9.0426
  30   2.0000      -0.322476        -8.7750
  31   2.0000      -0.317646        -8.6436
  32   2.0000      -0.312892        -8.5142
  33   2.0000      -0.298368        -8.1190
  34   2.0000      -0.270743        -7.3673
  35   2.0000      -0.264721        -7.2034
  36   2.0000      -0.263116        -7.1598
  37   2.0000      -0.252904        -6.8819
  38   2.0000      -0.216562        -5.8930
  39   0.0000      -0.014304        -0.3892
  40   0.0000       0.029166         0.7936
  41   0.0000       0.048608         1.3227
  42   0.0000       0.057362         1.5609
  43   0.0000       0.070514         1.9188

MULLIKEN ATOMIC CHARGES
-----------------------
   0 C :   -0.125838
   1 O :   -0.241548
   2 C :    0.154268
   3 O :   -0.206585
   4 C :   -0.192322
   5 C :   -0.118296
   6 C :   -0.137165
   7 C :   -0.157867
   8 C :   -0.142023
   9 C :   -0.135476
  10 H :    0.121288
  11 H :    0.119949
  12 H :    0.131993
  13 H :    0.075992
  14 H :    0.087970
  15 H :    0.089898
  16 H :    0.081174
  17 H :    0.081113
  18 H :    0.086540
  19 H :    0.078236
  20 H :    0.081131
  21 H :    0.087015
  22 H :    0.093941
  23 H :    0.086614
Sum of atomic charges:    0.0000000

LOEWDIN ATOMIC CHARGES
----------------------
   0 C :   -0.208385
   1 O :   -0.074002
   2 C :    0.046530
   3 O :   -0.170966
   4 C :   -0.166287
   5 C :   -0.214445
   6 C :   -0.227382
   7 C :   -0.230340
   8 C :   -0.227232
   9 C :   -0.209382
  10 H :    0.120259
  11 H :    0.119177
  12 H :    0.123711
  13 H :    0.125975
  14 H :    0.122797
  15 H :    0.121532
  16 H :    0.118299
  17 H :    0.116460
  18 H :    0.118553
  19 H :    0.114290
  20 H :    0.117646
  21 H :    0.119881
  22 H :    0.123372
  23 H :    0.119939

  Mayer bond orders larger than 0.100000
B(  0-C ,  1-O ) :   0.9362 B(  0-C , 10-H ) :   0.9613 B(  0-C , 11-H ) :   0.9599
B(  0-C , 12-H ) :   0.9320 B(  1-O ,  2-C ) :   1.2291 B(  2-C ,  3-O ) :   2.0663
B(  2-C ,  4-C ) :   0.9435 B(  4-C ,  5-C ) :   1.1344 B(  4-C ,  9-C ) :   1.0809
B(  4-C , 13-H ) :   0.8712 B(  5-C ,  6-C ) :   1.1463 B(  5-C , 14-H ) :   0.8903
B(  5-C , 15-H ) :   0.9264 B(  6-C ,  7-C ) :   1.1412 B(  6-C , 16-H ) :   0.9175
B(  6-C , 17-H ) :   0.9198 B(  7-C ,  8-C ) :   1.1846 B(  7-C , 18-H ) :   0.9221
B(  7-C , 19-H ) :   0.9109 B(  8-C ,  9-C ) :   1.1492 B(  8-C , 20-H ) :   0.9073
B(  8-C , 21-H ) :   0.9193 B(  9-C , 22-H ) :   0.9098 B(  9-C , 23-H ) :   0.9162

Dispersion correction           -0.022580729
FINAL SINGLE POINT ENERGY      -462.697192934135

DIPOLE MOMENT
-------------

Method             : SCF
Type of density    : Electron Density
Multiplicity       :   1
Irrep              :   0
Energy             :  -462.7850199616137843 Eh
Relativity type    :
Basis              : AO
                                X                 Y                 Z
Electronic contribution:     -7.198484055      -1.376900742       0.770664554
Nuclear contribution   :      7.171826261       1.825806977      -1.295039749
                        -----------------------------------------
Total Dipole Moment    :     -0.026657794       0.448906234      -0.524375195
                        -----------------------------------------
Magnitude (a.u.)       :      0.690794318
Magnitude (Debye)      :      1.755859616

Rotational constants in cm-1:             0.099324             0.024567             0.022947
Rotational constants in MHz :          2977.659402           736.490855           687.934582

                             ****ORCA TERMINATED NORMALLY****
TOTAL RUN TIME: 0 days 0 hours 0 minutes 10 seconds 905 msec
