                         Program Version 6.0.0  -   RELEASE  -
|  1> ! r2scan-3c def2/J RI DEFGRID2 scfconv6 printgap
|  2> %output
|  3>     printlevel normal
|  4> end
|  5> * xyz 0 1
|  6> C 4.1102222812 -0.0735356558 0.0004821133
|  7> C 3.7376501124 1.2581237031 4.03979e-05
|  8> C 2.3958008937 1.6056111034 -0.0003425332
|  9> C 1.4278458097 0.6165438218 -0.0003095747
| 10> C 1.802696586 -0.7255476577 -1.40884e-05
| 11> C 3.1440579086 -1.0672987186 0.0004364011
| 12> O 0.8718739696 -1.74550224 -0.0001692946
| 13> C -0.4462407252 -1.3620086277 -0.0001621503
| 14> C -1.414155869 -2.3523264795 -0.0001060511
| 15> C -2.7564400085 -2.0091392587 3.20922e-05
| 16> C -3.1409986604 -0.6817886009 0.0001818864
| 17> C -2.1679531121 0.3058689904 7.39874e-05
| 18> C -0.8168059559 -0.0152097158 -0.0001841849
| 19> O 0.1015283 1.0053474085 -0.0005563318
| 20> Cl -2.6102188096 1.9825685722 0.0002485809
| 21> H 5.1524801366 -0.3472720841 0.0009153166
| 22> H 4.4855411211 2.0340044187 6.67952e-05
| 23> H 2.0763152367 2.6349335205 -0.0006240549
| 24> H 3.4060185077 -2.1124246708 0.0007491447
| 25> H -1.0924424869 -3.3801798035 -0.000225561
| 26> H -3.5048267413 -2.7834350153 -2.37037e-05
| 27> H -4.179746568 -0.399210502 0.0003879105
| 28> *
| 29>
| 30>                          ****END OF INPUT****

CARTESIAN COORDINATES (ANGSTROEM)
---------------------------------
  C      4.110222   -0.073536    0.000482
  C      3.737650    1.258124    0.000040
  C      2.395801    1.605611   -0.000343
  C      1.427846    0.616544   -0.000310
  C      1.802697   -0.725548   -0.000014
  C      3.144058   -1.067299    0.000436
  O      0.871874   -1.745502   -0.000169
  C     -0.446241   -1.362009   -0.000162
  C     -1.414156   -2.352326   -0.000106
  C     -2.756440   -2.009139    0.000032
  C     -3.140999   -0.681789    0.000182
  C     -2.167953    0.305869    0.000074
  C     -0.816806   -0.015210   -0.000184
  O      0.101528    1.005347   -0.000556
  Cl    -2.610219    1.982569    0.000249
  H      5.152480   -0.347272    0.000915
  H      4.485541    2.034004    0.000067
  H      2.076315    2.634934   -0.000624
  H      3.406019   -2.112425    0.000749
  H     -1.092442   -3.380180   -0.000226
  H     -3.504827   -2.783435   -0.000024
  H     -4.179747   -0.399211    0.000388

 Total Charge           Charge          ....    0
 Multiplicity           Mult            ....    1
 Number of Electrons    NEL             ....  112
 Basis Dimension        Dim             ....  338

ORBITAL ENERGIES
----------------

  NO   OCC          E(Eh)            E(eV)
   0   2.0000    -101.223721     -2754.4375
   1   2.0000     -19.022316      -517.6235
   2   2.0000     -19.021711      -517.6071
   3   2.0000     -10.122366      -275.4436
   4   2.0000     -10.120582      -275.3950
   5   2.0000     -10.115637      -275.2605
   6   2.0000     -10.115209      -275.2488
   7   2.0000     -10.108604      -275.0691
   8   2.0000     -10.051972      -273.5281
   9   2.0000     -10.051463      -273.5142
  10   2.0000     -10.050745      -273.4947
  11   2.0000     -10.049660      -273.4652
  12   2.0000     -10.049299      -273.4553
  13   2.0000     -10.045872      -273.3621
  14   2.0000     -10.045363      -273.3482
  15   2.0000      -9.379365      -255.2255
  16   2.0000      -7.125812      -193.9032
  17   2.0000      -7.115633      -193.6262
  18   2.0000      -7.114970      -193.6082
  19   2.0000      -1.090272       -29.6678
  20   2.0000      -1.056758       -28.7559
  21   2.0000      -0.873533       -23.7700
  22   2.0000      -0.840632       -22.8748
  23   2.0000      -0.813468       -22.1356
  24   2.0000      -0.751219       -20.4417
  25   2.0000      -0.746947       -20.3255
  26   2.0000      -0.711374       -19.3575
  27   2.0000      -0.706260       -19.2183
  28   2.0000      -0.642636       -17.4870
  29   2.0000      -0.615710       -16.7543
  30   2.0000      -0.583824       -15.8866
  31   2.0000      -0.567494       -15.4423
  32   2.0000      -0.558275       -15.1914
  33   2.0000      -0.498068       -13.5531
  34   2.0000      -0.489737       -13.3264
  35   2.0000      -0.461899       -12.5689
  36   2.0000      -0.459444       -12.5021
  37   2.0000      -0.457131       -12.4392
  38   2.0000      -0.427219       -11.6252
  39   2.0000      -0.426238       -11.5985
  40   2.0000      -0.418754       -11.3949
  41   2.0000      -0.396128       -10.7792
  42   2.0000      -0.394198       -10.7267
  43   2.0000      -0.377826       -10.2812
  44   2.0000      -0.377370       -10.2688
  45   2.0000      -0.369227       -10.0472
  46   2.0000      -0.349544        -9.5116
  47   2.0000      -0.347275        -9.4498
  48   2.0000      -0.335567        -9.1312
  49   2.0000      -0.313267        -8.5244
  50   2.0000      -0.309145        -8.4123
  51   2.0000      -0.288120        -7.8401
  52   2.0000      -0.258509        -7.0344
  53   2.0000      -0.249920        -6.8007
  54   2.0000      -0.225476        -6.1355
  55   2.0000      -0.191596        -5.2136
  56   0.0000      -0.054029        -1.4702
  57   0.0000      -0.045673        -1.2428
  58   0.0000      -0.042815        -1.1651
  59   0.0000      -0.010290        -0.2800
  60   0.0000      -0.005175        -0.1408

MULLIKEN ATOMIC CHARGES
-----------------------
   0 C :   -0.129990
   1 C :   -0.128679
   2 C :   -0.328877
   3 C :    0.207423
   4 C :    0.213423
   5 C :   -0.330292
   6 O :   -0.099203
   7 C :    0.260689
   8 C :   -0.367957
   9 C :   -0.098613
  10 C :   -0.228806
  11 C :   -0.107734
  12 C :    0.260671
  13 O :   -0.092652
  14 Cl:   -0.125076
  15 H :    0.150806
  16 H :    0.151069
  17 H :    0.159662
  18 H :    0.157714
  19 H :    0.159290
  20 H :    0.153381
  21 H :    0.163751
Sum of atomic charges:   -0.0000000

LOEWDIN ATOMIC CHARGES
----------------------
   0 C :   -0.163774
   1 C :   -0.163763
   2 C :   -0.117785
   3 C :    0.221825
   4 C :    0.219151
   5 C :   -0.120774
   6 O :   -0.559892
   7 C :    0.223986
   8 C :   -0.126693
   9 C :   -0.155509
  10 C :   -0.177840
  11 C :   -0.131671
  12 C :    0.205074
  13 O :   -0.573644
  14 Cl:    0.173156
  15 H :    0.170446
  16 H :    0.170648
  17 H :    0.185484
  18 H :    0.183928
  19 H :    0.184643
  20 H :    0.172955
  21 H :    0.180047

  Mayer bond orders larger than 0.100000
B(  0-C ,  1-C ) :   1.4141 B(  0-C ,  5-C ) :   1.3388 B(  0-C , 15-H ) :   0.9507
B(  1-C ,  2-C ) :   1.3351 B(  1-C , 16-H ) :   0.9512 B(  2-C ,  3-C ) :   1.3573
B(  2-C , 17-H ) :   0.9651 B(  3-C ,  4-C ) :   1.4370 B(  3-C , 13-O ) :   0.9137
B(  4-C ,  5-C ) :   1.3564 B(  4-C ,  6-O ) :   0.9287 B(  5-C , 18-H ) :   0.9621
B(  6-O ,  7-C ) :   0.9380 B(  7-C ,  8-C ) :   1.3458 B(  7-C , 11-C ) :  -0.1188
B(  7-C , 12-C ) :   1.3865 B(  8-C ,  9-C ) :   1.3277 B(  8-C , 19-H ) :   0.9567
B(  9-C , 10-C ) :   1.3815 B(  9-C , 12-C ) :   0.1088 B(  9-C , 20-H ) :   0.9551
B( 10-C , 11-C ) :   1.2835 B( 10-C , 21-H ) :   0.9404 B( 11-C , 12-C ) :   1.1933
B( 11-C , 14-Cl) :   1.1254 B( 12-C , 13-O ) :   1.0489 B( 12-C , 14-Cl) :  -0.1116

Dispersion correction           -0.010127719
FINAL SINGLE POINT ENERGY     -1071.972923206745

DIPOLE MOMENT
-------------

Method             : SCF
Type of density    : Electron Density
Multiplicity       :   1
Irrep              :   0
Energy             : -1071.9707703554149703 Eh
Relativity type    :
Basis              : AO
                                X                 Y                 Z
Electronic contribution:     -9.115710532       6.244696285      -0.000688498
Nuclear contribution   :      9.469016418      -6.756391288       0.000824436
                        -----------------------------------------
Total Dipole Moment    :      0.353305885      -0.511695004       0.000135938
                        -----------------------------------------
Magnitude (a.u.)       :      0.621817372
Magnitude (Debye)      :      1.580534152

Rotational constants in cm-1:             0.036800             0.013267             0.009751
Rotational constants in MHz :          1103.229634           397.721787           292.333559

                             ****ORCA TERMINATED NORMALLY****
TOTAL RUN TIME: 0 days 0 hours 0 minutes 55 seconds 713 msec
