                         Program Version 6.0.0  -   RELEASE  -
|  1> ! r2scan-3c def2/J RI DEFGRID2 scfconv6 printgap
|  2> %output
|  3>     printlevel normal
|  4> end
|  5> %cpcm
|  6>     smd true
|  7>     smdsolvent "water"
|  8> end
|  9> * xyz 0 1
| 10> C 4.1102222812 -0.0735356558 0.0004821133
| 11> C 3.7376501124 1.2581237031 4.03979e-05
| 12> C 2.3958008937 1.6056111034 -0.0003425332
| 13> C 1.4278458097 0.6165438218 -0.0003095747
| 14> C 1.802696586 -0.7255476577 -1.40884e-05
| 15> C 3.1440579086 -1.0672987186 0.0004364011
| 16> O 0.8718739696 -1.74550224 -0.0001692946
| 17> C -0.4462407252 -1.3620086277 -0.0001621503
| 18> C -1.414155869 -2.3523264795 -0.0001060511
| 19> C -2.7564400085 -2.0091392587 3.20922e-05
| 20> C -3.1409986604 -0.6817886009 0.0001818864
| 21> C -2.1679531121 0.3058689904 7.39874e-05
| 22> C -0.8168059559 -0.0152097158 -0.0001841849
| 23> O 0.1015283 1.0053474085 -0.0005563318
| 24> Cl -2.6102188096 1.9825685722 0.0002485809
| 25> H 5.1524801366 -0.3472720841 0.0009153166
| 26> H 4.4855411211 2.0340044187 6.67952e-05
| 27> H 2.0763152367 2.6349335205 -0.0006240549
| 28> H 3.4060185077 -2.1124246708 0.0007491447
| 29> H -1.0924424869 -3.3801798035 -0.000225561
| 30> H -3.5048267413 -2.7834350153 -2.37037e-05
| 31> H -4.179746568 -0.399210502 0.0003879105
| 32> *
| 33>
| 34>                          ****END OF INPUT****

CARTESIAN COORDINATES (ANGSTROEM)
---------------------------------
  C      4.110222   -0.073536    0.000482
  C      3.737650    1.258124    0.000040
  C      2.395801    1.605611   -0.000343
  C      1.427846    0.616544   -0.000310
  C      1.802697   -0.725548   -0.000014
  C      3.144058   -1.067299    0.000436
  O      0.871874   -1.745502   -0.000169
  C     -0.446241   -1.362009   -0.000162
  C     -1.414156   -2.352326   -0.000106
  C     -2.756440   -2.009139    0.000032
  C     -3.140999   -0.681789    0.000182
  C     -2.167953    0.305869    0.000074
  C     -0.816806   -0.015210   -0.000184
  O      0.101528    1.005347   -0.000556
  Cl    -2.610219    1.982569    0.000249
  H      5.152480   -0.347272    0.000915
  H      4.485541    2.034004    0.000067
  H      2.076315    2.634934   -0.000624
  H      3.406019   -2.112425    0.000749
  H     -1.092442   -3.380180   -0.000226
  H     -3.504827   -2.783435   -0.000024
  H     -4.179747   -0.399211    0.000388

 Total Charge           Charge          ....    0
 Multiplicity           Mult            ....    1
 Number of Electrons    NEL             ....  112
 Basis Dimension        Dim             ....  338

ORBITAL ENERGIES
----------------

  NO   OCC          E(Eh)            E(eV)
   0   2.0000    -101.229755     -2754.6017
   1   2.0000     -19.024149      -517.6734
   2   2.0000     -19.021605      -517.6042
   3   2.0000     -10.122426      -275.4452
   4   2.0000     -10.118891      -275.3490
   5   2.0000     -10.113583      -275.2046
   6   2.0000     -10.113002      -275.1888
   7   2.0000     -10.108759      -275.0733
   8   2.0000     -10.047599      -273.4091
   9   2.0000     -10.045970      -273.3647
  10   2.0000     -10.045495      -273.3518
  11   2.0000     -10.044380      -273.3215
  12   2.0000     -10.044038      -273.3122
  13   2.0000     -10.039389      -273.1857
  14   2.0000     -10.038916      -273.1728
  15   2.0000      -9.385521      -255.3930
  16   2.0000      -7.131817      -194.0666
  17   2.0000      -7.121837      -193.7950
  18   2.0000      -7.121207      -193.7779
  19   2.0000      -1.090602       -29.6768
  20   2.0000      -1.057423       -28.7739
  21   2.0000      -0.874328       -23.7917
  22   2.0000      -0.838962       -22.8293
  23   2.0000      -0.813636       -22.1402
  24   2.0000      -0.748165       -20.3586
  25   2.0000      -0.744563       -20.2606
  26   2.0000      -0.709122       -19.2962
  27   2.0000      -0.703227       -19.1358
  28   2.0000      -0.639682       -17.4066
  29   2.0000      -0.612968       -16.6797
  30   2.0000      -0.580058       -15.7842
  31   2.0000      -0.565689       -15.3932
  32   2.0000      -0.553651       -15.0656
  33   2.0000      -0.494275       -13.4499
  34   2.0000      -0.485381       -13.2079
  35   2.0000      -0.457314       -12.4441
  36   2.0000      -0.455816       -12.4034
  37   2.0000      -0.454067       -12.3558
  38   2.0000      -0.425987       -11.5917
  39   2.0000      -0.421831       -11.4786
  40   2.0000      -0.413853       -11.2615
  41   2.0000      -0.396785       -10.7971
  42   2.0000      -0.395593       -10.7646
  43   2.0000      -0.377623       -10.2756
  44   2.0000      -0.373112       -10.1529
  45   2.0000      -0.361724        -9.8430
  46   2.0000      -0.343183        -9.3385
  47   2.0000      -0.340007        -9.2521
  48   2.0000      -0.336924        -9.1682
  49   2.0000      -0.311955        -8.4887
  50   2.0000      -0.310430        -8.4472
  51   2.0000      -0.294215        -8.0060
  52   2.0000      -0.256573        -6.9817
  53   2.0000      -0.249052        -6.7771
  54   2.0000      -0.225583        -6.1384
  55   2.0000      -0.191286        -5.2051
  56   0.0000      -0.052054        -1.4165
  57   0.0000      -0.044705        -1.2165
  58   0.0000      -0.039960        -1.0874
  59   0.0000      -0.008019        -0.2182
  60   0.0000      -0.006889        -0.1875

MULLIKEN ATOMIC CHARGES
-----------------------
   0 C :   -0.167629
   1 C :   -0.168418
   2 C :   -0.355220
   3 C :    0.207923
   4 C :    0.216713
   5 C :   -0.353112
   6 O :   -0.109659
   7 C :    0.256723
   8 C :   -0.383989
   9 C :   -0.144068
  10 C :   -0.243910
  11 C :   -0.116964
  12 C :    0.279058
  13 O :   -0.108524
  14 Cl:   -0.145106
  15 H :    0.185997
  16 H :    0.186070
  17 H :    0.191404
  18 H :    0.190840
  19 H :    0.193208
  20 H :    0.191632
  21 H :    0.197029
Sum of atomic charges:   -0.0000000

LOEWDIN ATOMIC CHARGES
----------------------
   0 C :   -0.168979
   1 C :   -0.169749
   2 C :   -0.123832
   3 C :    0.216588
   4 C :    0.215268
   5 C :   -0.124559
   6 O :   -0.568800
   7 C :    0.222006
   8 C :   -0.125394
   9 C :   -0.155578
  10 C :   -0.179691
  11 C :   -0.141240
  12 C :    0.204422
  13 O :   -0.588307
  14 Cl:    0.157484
  15 H :    0.182162
  16 H :    0.182181
  17 H :    0.195864
  18 H :    0.195532
  19 H :    0.196896
  20 H :    0.186367
  21 H :    0.191358

  Mayer bond orders larger than 0.100000
B(  0-C ,  1-C ) :   1.3792 B(  0-C ,  5-C ) :   1.3190 B(  0-C , 15-H ) :   0.9570
B(  1-C ,  2-C ) :   1.3183 B(  1-C , 16-H ) :   0.9568 B(  2-C ,  3-C ) :   1.3016
B(  2-C , 17-H ) :   0.9753 B(  3-C ,  4-C ) :   1.4168 B(  3-C , 13-O ) :   0.9091
B(  4-C ,  5-C ) :   1.3052 B(  4-C ,  6-O ) :   0.9222 B(  5-C , 18-H ) :   0.9732
B(  6-O ,  7-C ) :   0.9344 B(  7-C ,  8-C ) :   1.2941 B(  7-C , 11-C ) :  -0.1162
B(  7-C , 12-C ) :   1.3716 B(  8-C ,  9-C ) :   1.3117 B(  8-C , 19-H ) :   0.9688
B(  9-C , 10-C ) :   1.3666 B(  9-C , 12-C ) :   0.1042 B(  9-C , 20-H ) :   0.9606
B( 10-C , 11-C ) :   1.2469 B( 10-C , 21-H ) :   0.9454 B( 11-C , 12-C ) :   1.1626
B( 11-C , 14-Cl) :   1.1001 B( 12-C , 13-O ) :   1.0481 B( 12-C , 14-Cl) :  -0.1041

Dispersion correction           -0.010127719
FINAL SINGLE POINT ENERGY     -1071.976301008393

DIPOLE MOMENT
-------------

Method             : SCF
Type of density    : Electron Density
Multiplicity       :   1
Irrep              :   0
Energy             : -1071.9741481570636097 Eh
Relativity type    :
Basis              : AO
                                X                 Y                 Z
Electronic contribution:     -9.044665635       5.975474475      -0.000626709
Nuclear contribution   :      9.469016418      -6.756391288       0.000824436
                        -----------------------------------------
Total Dipole Moment    :      0.424350782      -0.780916813       0.000197727
                        -----------------------------------------
Magnitude (a.u.)       :      0.888765827
Magnitude (Debye)      :      2.259063201

Rotational constants in cm-1:             0.036800             0.013267             0.009751
Rotational constants in MHz :          1103.229634           397.721787           292.333559

                             ****ORCA TERMINATED NORMALLY****
TOTAL RUN TIME: 0 days 0 hours 1 minutes 2 seconds 73 msec
