                         Program Version 6.0.0  -   RELEASE  -
|  1> ! r2scan-3c def2/J RI DEFGRID2 scfconv6 printgap
|  2> %output
|  3>     printlevel normal
|  4> end
|  5> * xyz 0 1
|  6> C 3.6835983905 0.3627632037 0.0704776702
|  7> C 2.2131712658 0.3033222859 -0.3331920027
|  8> H 2.1466043484 0.3686316114 -1.425489083
|  9> C 1.4253428211 1.4644393282 0.2710166862
| 10> C -0.0449947053 1.3815157527 -0.1257788134
| 11> C -0.6741533415 0.0719317251 0.3542785046
| 12> H -0.5327419856 -0.0051528658 1.439161384
| 13> C 0.1043968752 -1.1028590157 -0.2706035641
| 14> H 0.021716536 -1.0543787157 -1.3674519762
| 15> C 1.5835101713 -1.0141453517 0.110894565
| 16> O -0.3480019348 -2.3702614921 0.180034265
| 17> C -2.1933260351 -0.0073889696 0.0946071605
| 18> C -2.9610088824 0.9388696023 1.0189818613
| 19> C -2.5834619233 0.2629953217 -1.3582176109
| 20> H 4.1307753935 1.2973882582 -0.259278635
| 21> H 3.7819746372 0.2962597962 1.1516057627
| 22> H 4.2356823293 -0.4609126215 -0.3753973232
| 23> H 1.5138760836 1.4311492481 1.3591524741
| 24> H 1.8450209732 2.4126357349 -0.0709119214
| 25> H -0.5829046215 2.2269299637 0.3035851605
| 26> H -0.1207317144 1.4449577059 -1.212618906
| 27> H 1.6602512215 -1.1202622196 1.1950017894
| 28> H 2.1055516451 -1.8606717826 -0.3395269865
| 29> H -1.2177114803 -2.5567467508 -0.195536033
| 30> H -2.5090473799 -1.0253416161 0.3522098365
| 31> H -2.7381316957 1.9772229708 0.7879944048
| 32> H -2.7046691369 0.7528311072 2.0592868129
| 33> H -4.0313888341 0.7892255622 0.89793364
| 34> H -2.4201952202 1.3069070842 -1.6121791044
| 35> H -3.6389157126 0.0427615116 -1.5021876037
| 36> H -2.0117455203 -0.3539595873 -2.046719709
| 37> *
| 38>
| 39>                          ****END OF INPUT****

CARTESIAN COORDINATES (ANGSTROEM)
---------------------------------
  C      3.683598    0.362763    0.070478
  C      2.213171    0.303322   -0.333192
  H      2.146604    0.368632   -1.425489
  C      1.425343    1.464439    0.271017
  C     -0.044995    1.381516   -0.125779
  C     -0.674153    0.071932    0.354279
  H     -0.532742   -0.005153    1.439161
  C      0.104397   -1.102859   -0.270604
  H      0.021717   -1.054379   -1.367452
  C      1.583510   -1.014145    0.110895
  O     -0.348002   -2.370261    0.180034
  C     -2.193326   -0.007389    0.094607
  C     -2.961009    0.938870    1.018982
  C     -2.583462    0.262995   -1.358218
  H      4.130775    1.297388   -0.259279
  H      3.781975    0.296260    1.151606
  H      4.235682   -0.460913   -0.375397
  H      1.513876    1.431149    1.359152
  H      1.845021    2.412636   -0.070912
  H     -0.582905    2.226930    0.303585
  H     -0.120732    1.444958   -1.212619
  H      1.660251   -1.120262    1.195002
  H      2.105552   -1.860672   -0.339527
  H     -1.217711   -2.556747   -0.195536
  H     -2.509047   -1.025342    0.352210
  H     -2.738132    1.977223    0.787994
  H     -2.704669    0.752831    2.059287
  H     -4.031389    0.789226    0.897934
  H     -2.420195    1.306907   -1.612179
  H     -3.638916    0.042762   -1.502188
  H     -2.011746   -0.353960   -2.046720

 Total Charge           Charge          ....    0
 Multiplicity           Mult            ....    1
 Number of Electrons    NEL             ....   88
 Basis Dimension        Dim             ....  314

ORBITAL ENERGIES
----------------

  NO   OCC          E(Eh)            E(eV)
   0   2.0000     -18.943608      -515.4818
   1   2.0000     -10.074727      -274.1473
   2   2.0000     -10.035940      -273.0918
   3   2.0000     -10.031271      -272.9647
   4   2.0000     -10.026927      -272.8465
   5   2.0000     -10.023408      -272.7508
   6   2.0000     -10.021637      -272.7026
   7   2.0000     -10.018991      -272.6306
   8   2.0000     -10.017295      -272.5845
   9   2.0000     -10.016477      -272.5622
  10   2.0000     -10.014095      -272.4974
  11   2.0000      -0.980966       -26.6934
  12   2.0000      -0.806484       -21.9456
  13   2.0000      -0.769930       -20.9509
  14   2.0000      -0.713065       -19.4035
  15   2.0000      -0.698636       -19.0108
  16   2.0000      -0.652915       -17.7667
  17   2.0000      -0.640536       -17.4299
  18   2.0000      -0.579095       -15.7580
  19   2.0000      -0.566995       -15.4287
  20   2.0000      -0.530713       -14.4414
  21   2.0000      -0.512609       -13.9488
  22   2.0000      -0.475084       -12.9277
  23   2.0000      -0.442628       -12.0445
  24   2.0000      -0.428509       -11.6603
  25   2.0000      -0.417453       -11.3595
  26   2.0000      -0.413695       -11.2572
  27   2.0000      -0.392015       -10.6673
  28   2.0000      -0.381926       -10.3927
  29   2.0000      -0.376313       -10.2400
  30   2.0000      -0.367513       -10.0005
  31   2.0000      -0.354663        -9.6509
  32   2.0000      -0.346235        -9.4215
  33   2.0000      -0.341626        -9.2961
  34   2.0000      -0.329828        -8.9751
  35   2.0000      -0.315674        -8.5899
  36   2.0000      -0.310667        -8.4537
  37   2.0000      -0.301444        -8.2027
  38   2.0000      -0.295153        -8.0315
  39   2.0000      -0.293263        -7.9801
  40   2.0000      -0.287280        -7.8173
  41   2.0000      -0.271722        -7.3939
  42   2.0000      -0.261381        -7.1125
  43   2.0000      -0.228061        -6.2059
  44   0.0000       0.050044         1.3618
  45   0.0000       0.079488         2.1630
  46   0.0000       0.090166         2.4535
  47   0.0000       0.100978         2.7477
  48   0.0000       0.116615         3.1733

MULLIKEN ATOMIC CHARGES
-----------------------
   0 C :   -0.502802
   1 C :   -0.033394
   2 H :    0.159557
   3 C :   -0.340912
   4 C :   -0.381046
   5 C :    0.005753
   6 H :    0.175027
   7 C :   -0.108813
   8 H :    0.156019
   9 C :   -0.381984
  10 O :   -0.421257
  11 C :   -0.041017
  12 C :   -0.520472
  13 C :   -0.513066
  14 H :    0.146765
  15 H :    0.151383
  16 H :    0.148590
  17 H :    0.157386
  18 H :    0.146814
  19 H :    0.151486
  20 H :    0.164222
  21 H :    0.167779
  22 H :    0.154986
  23 H :    0.290770
  24 H :    0.147473
  25 H :    0.154847
  26 H :    0.151075
  27 H :    0.149085
  28 H :    0.159314
  29 H :    0.152776
  30 H :    0.153656
Sum of atomic charges:    0.0000000

LOEWDIN ATOMIC CHARGES
----------------------
   0 C :   -0.411842
   1 C :   -0.232683
   2 H :    0.158023
   3 C :   -0.291179
   4 C :   -0.287461
   5 C :   -0.198848
   6 H :    0.172262
   7 C :    0.068619
   8 H :    0.165530
   9 C :   -0.252723
  10 O :   -0.610563
  11 C :   -0.235639
  12 C :   -0.411769
  13 C :   -0.415836
  14 H :    0.152850
  15 H :    0.154483
  16 H :    0.154034
  17 H :    0.159511
  18 H :    0.157483
  19 H :    0.160164
  20 H :    0.161659
  21 H :    0.169090
  22 H :    0.168099
  23 H :    0.265321
  24 H :    0.157386
  25 H :    0.152184
  26 H :    0.155371
  27 H :    0.153468
  28 H :    0.156250
  29 H :    0.154436
  30 H :    0.152322

  Mayer bond orders larger than 0.100000
B(  0-C ,  1-C ) :   0.8850 B(  0-C , 14-H ) :   0.9769 B(  0-C , 15-H ) :   0.9965
B(  0-C , 16-H ) :   0.9773 B(  1-C ,  2-H ) :   0.9509 B(  1-C ,  3-C ) :   0.9112
B(  1-C ,  9-C ) :   0.9049 B(  3-C ,  4-C ) :   0.8940 B(  3-C , 17-H ) :   1.0172
B(  3-C , 18-H ) :   0.9449 B(  4-C ,  5-C ) :   0.8542 B(  4-C , 19-H ) :   0.9453
B(  4-C , 20-H ) :   0.9868 B(  5-C ,  6-H ) :   1.0086 B(  5-C ,  7-C ) :   0.8766
B(  5-C , 11-C ) :   0.8226 B(  7-C ,  8-H ) :   0.9883 B(  7-C ,  9-C ) :   0.9160
B(  7-C , 10-O ) :   0.8741 B(  9-C , 21-H ) :   1.0306 B(  9-C , 22-H ) :   0.9406
B( 10-O , 23-H ) :   0.8934 B( 11-C , 12-C ) :   0.9175 B( 11-C , 13-C ) :   0.8650
B( 11-C , 24-H ) :   0.9833 B( 12-C , 25-H ) :   0.9886 B( 12-C , 26-H ) :   0.9807
B( 12-C , 27-H ) :   0.9742 B( 13-C , 28-H ) :   0.9790 B( 13-C , 29-H ) :   0.9736
B( 13-C , 30-H ) :   0.9769

Dispersion correction           -0.010839010
FINAL SINGLE POINT ENERGY      -468.209147827777

DIPOLE MOMENT
-------------

Method             : SCF
Type of density    : Electron Density
Multiplicity       :   1
Irrep              :   0
Energy             :  -468.2135681659792681 Eh
Relativity type    :
Basis              : AO
                                X                 Y                 Z
Electronic contribution:      0.715332302      -5.111069882       0.485124713
Nuclear contribution   :     -1.005931667       5.508890064      -0.805431698
                        -----------------------------------------
Total Dipole Moment    :     -0.290599365       0.397820182      -0.320306984
                        -----------------------------------------
Magnitude (a.u.)       :      0.587626967
Magnitude (Debye)      :      1.493629050

Rotational constants in cm-1:             0.059119             0.023252             0.019256
Rotational constants in MHz :          1772.333966           697.091539           577.278835

                             ****ORCA TERMINATED NORMALLY****
TOTAL RUN TIME: 0 days 0 hours 0 minutes 48 seconds 276 msec
