                         Program Version 6.0.0  -   RELEASE  -
|  1> ! r2scan-3c def2/J RI DEFGRID2 scfconv6 printgap
|  2> %output
|  3>     printlevel normal
|  4> end
|  5> %cpcm
|  6>     smd true
|  7>     smdsolvent "water"
|  8> end
|  9> * xyz 0 1
| 10> C 3.6835983905 0.3627632037 0.0704776702
| 11> C 2.2131712658 0.3033222859 -0.3331920027
| 12> H 2.1466043484 0.3686316114 -1.425489083
| 13> C 1.4253428211 1.4644393282 0.2710166862
| 14> C -0.0449947053 1.3815157527 -0.1257788134
| 15> C -0.6741533415 0.0719317251 0.3542785046
| 16> H -0.5327419856 -0.0051528658 1.439161384
| 17> C 0.1043968752 -1.1028590157 -0.2706035641
| 18> H 0.021716536 -1.0543787157 -1.3674519762
| 19> C 1.5835101713 -1.0141453517 0.110894565
| 20> O -0.3480019348 -2.3702614921 0.180034265
| 21> C -2.1933260351 -0.0073889696 0.0946071605
| 22> C -2.9610088824 0.9388696023 1.0189818613
| 23> C -2.5834619233 0.2629953217 -1.3582176109
| 24> H 4.1307753935 1.2973882582 -0.259278635
| 25> H 3.7819746372 0.2962597962 1.1516057627
| 26> H 4.2356823293 -0.4609126215 -0.3753973232
| 27> H 1.5138760836 1.4311492481 1.3591524741
| 28> H 1.8450209732 2.4126357349 -0.0709119214
| 29> H -0.5829046215 2.2269299637 0.3035851605
| 30> H -0.1207317144 1.4449577059 -1.212618906
| 31> H 1.6602512215 -1.1202622196 1.1950017894
| 32> H 2.1055516451 -1.8606717826 -0.3395269865
| 33> H -1.2177114803 -2.5567467508 -0.195536033
| 34> H -2.5090473799 -1.0253416161 0.3522098365
| 35> H -2.7381316957 1.9772229708 0.7879944048
| 36> H -2.7046691369 0.7528311072 2.0592868129
| 37> H -4.0313888341 0.7892255622 0.89793364
| 38> H -2.4201952202 1.3069070842 -1.6121791044
| 39> H -3.6389157126 0.0427615116 -1.5021876037
| 40> H -2.0117455203 -0.3539595873 -2.046719709
| 41> *
| 42>
| 43>                          ****END OF INPUT****

CARTESIAN COORDINATES (ANGSTROEM)
---------------------------------
  C      3.683598    0.362763    0.070478
  C      2.213171    0.303322   -0.333192
  H      2.146604    0.368632   -1.425489
  C      1.425343    1.464439    0.271017
  C     -0.044995    1.381516   -0.125779
  C     -0.674153    0.071932    0.354279
  H     -0.532742   -0.005153    1.439161
  C      0.104397   -1.102859   -0.270604
  H      0.021717   -1.054379   -1.367452
  C      1.583510   -1.014145    0.110895
  O     -0.348002   -2.370261    0.180034
  C     -2.193326   -0.007389    0.094607
  C     -2.961009    0.938870    1.018982
  C     -2.583462    0.262995   -1.358218
  H      4.130775    1.297388   -0.259279
  H      3.781975    0.296260    1.151606
  H      4.235682   -0.460913   -0.375397
  H      1.513876    1.431149    1.359152
  H      1.845021    2.412636   -0.070912
  H     -0.582905    2.226930    0.303585
  H     -0.120732    1.444958   -1.212619
  H      1.660251   -1.120262    1.195002
  H      2.105552   -1.860672   -0.339527
  H     -1.217711   -2.556747   -0.195536
  H     -2.509047   -1.025342    0.352210
  H     -2.738132    1.977223    0.787994
  H     -2.704669    0.752831    2.059287
  H     -4.031389    0.789226    0.897934
  H     -2.420195    1.306907   -1.612179
  H     -3.638916    0.042762   -1.502188
  H     -2.011746   -0.353960   -2.046720

 Total Charge           Charge          ....    0
 Multiplicity           Mult            ....    1
 Number of Electrons    NEL             ....   88
 Basis Dimension        Dim             ....  314

ORBITAL ENERGIES
----------------

  NO   OCC          E(Eh)            E(eV)
   0   2.0000     -18.948320      -515.6100
   1   2.0000     -10.069515      -274.0054
   2   2.0000     -10.024396      -272.7777
   3   2.0000     -10.023448      -272.7519
   4   2.0000     -10.018677      -272.6221
   5   2.0000     -10.012953      -272.4663
   6   2.0000     -10.012776      -272.4615
   7   2.0000     -10.011930      -272.4385
   8   2.0000     -10.006467      -272.2898
   9   2.0000     -10.005696      -272.2688
  10   2.0000     -10.005549      -272.2648
  11   2.0000      -0.984440       -26.7880
  12   2.0000      -0.798239       -21.7212
  13   2.0000      -0.760086       -20.6830
  14   2.0000      -0.703886       -19.1537
  15   2.0000      -0.692903       -18.8549
  16   2.0000      -0.641326       -17.4514
  17   2.0000      -0.632903       -17.2222
  18   2.0000      -0.569990       -15.5102
  19   2.0000      -0.561588       -15.2816
  20   2.0000      -0.523341       -14.2408
  21   2.0000      -0.503469       -13.7001
  22   2.0000      -0.471160       -12.8209
  23   2.0000      -0.433403       -11.7935
  24   2.0000      -0.419736       -11.4216
  25   2.0000      -0.409160       -11.1338
  26   2.0000      -0.406489       -11.0611
  27   2.0000      -0.384694       -10.4681
  28   2.0000      -0.373784       -10.1712
  29   2.0000      -0.367206        -9.9922
  30   2.0000      -0.359032        -9.7698
  31   2.0000      -0.344884        -9.3848
  32   2.0000      -0.343262        -9.3406
  33   2.0000      -0.333468        -9.0741
  34   2.0000      -0.322603        -8.7785
  35   2.0000      -0.305923        -8.3246
  36   2.0000      -0.302166        -8.2223
  37   2.0000      -0.293585        -7.9888
  38   2.0000      -0.290057        -7.8929
  39   2.0000      -0.285337        -7.7644
  40   2.0000      -0.278660        -7.5827
  41   2.0000      -0.264872        -7.2075
  42   2.0000      -0.254471        -6.9245
  43   2.0000      -0.229734        -6.2514
  44   0.0000       0.067121         1.8265
  45   0.0000       0.090008         2.4492
  46   0.0000       0.099713         2.7133
  47   0.0000       0.111680         3.0390
  48   0.0000       0.123879         3.3709

MULLIKEN ATOMIC CHARGES
-----------------------
   0 C :   -0.552200
   1 C :   -0.014451
   2 H :    0.169621
   3 C :   -0.359936
   4 C :   -0.403140
   5 C :   -0.032393
   6 H :    0.181676
   7 C :   -0.088376
   8 H :    0.172174
   9 C :   -0.394290
  10 O :   -0.512738
  11 C :   -0.002580
  12 C :   -0.564199
  13 C :   -0.557620
  14 H :    0.158874
  15 H :    0.163316
  16 H :    0.158823
  17 H :    0.165067
  18 H :    0.155118
  19 H :    0.162973
  20 H :    0.174924
  21 H :    0.172729
  22 H :    0.156833
  23 H :    0.346812
  24 H :    0.159114
  25 H :    0.168081
  26 H :    0.158962
  27 H :    0.160421
  28 H :    0.166777
  29 H :    0.162382
  30 H :    0.167247
Sum of atomic charges:    0.0000000

LOEWDIN ATOMIC CHARGES
----------------------
   0 C :   -0.420953
   1 C :   -0.229256
   2 H :    0.162127
   3 C :   -0.294150
   4 C :   -0.287962
   5 C :   -0.198779
   6 H :    0.172507
   7 C :    0.068412
   8 H :    0.174938
   9 C :   -0.260317
  10 O :   -0.648512
  11 C :   -0.232257
  12 C :   -0.421333
  13 C :   -0.421612
  14 H :    0.155801
  15 H :    0.156565
  16 H :    0.155817
  17 H :    0.161303
  18 H :    0.159616
  19 H :    0.163536
  20 H :    0.165173
  21 H :    0.168927
  22 H :    0.166734
  23 H :    0.283261
  24 H :    0.162448
  25 H :    0.155315
  26 H :    0.156292
  27 H :    0.155659
  28 H :    0.157155
  29 H :    0.156421
  30 H :    0.157124

  Mayer bond orders larger than 0.100000
B(  0-C ,  1-C ) :   0.8675 B(  0-C , 14-H ) :   0.9743 B(  0-C , 15-H ) :   0.9953
B(  0-C , 16-H ) :   0.9756 B(  1-C ,  2-H ) :   0.9486 B(  1-C ,  3-C ) :   0.9126
B(  1-C ,  9-C ) :   0.9119 B(  3-C ,  4-C ) :   0.8915 B(  3-C , 17-H ) :   1.0151
B(  3-C , 18-H ) :   0.9444 B(  4-C ,  5-C ) :   0.8610 B(  4-C , 19-H ) :   0.9456
B(  4-C , 20-H ) :   0.9856 B(  5-C ,  6-H ) :   1.0092 B(  5-C ,  7-C ) :   0.9022
B(  5-C , 11-C ) :   0.8262 B(  7-C ,  8-H ) :   0.9826 B(  7-C ,  9-C ) :   0.9070
B(  7-C , 10-O ) :   0.8486 B(  9-C , 21-H ) :   1.0203 B(  9-C , 22-H ) :   0.9409
B( 10-O , 23-H ) :   0.8679 B( 11-C , 12-C ) :   0.8996 B( 11-C , 13-C ) :   0.8578
B( 11-C , 24-H ) :   0.9805 B( 12-C , 25-H ) :   0.9850 B( 12-C , 26-H ) :   0.9790
B( 12-C , 27-H ) :   0.9734 B( 13-C , 28-H ) :   0.9781 B( 13-C , 29-H ) :   0.9721
B( 13-C , 30-H ) :   0.9741

Dispersion correction           -0.010839010
FINAL SINGLE POINT ENERGY      -468.214783756769

DIPOLE MOMENT
-------------

Method             : SCF
Type of density    : Electron Density
Multiplicity       :   1
Irrep              :   0
Energy             :  -468.2192040949709053 Eh
Relativity type    :
Basis              : AO
                                X                 Y                 Z
Electronic contribution:      0.569894201      -4.936393726       0.269462238
Nuclear contribution   :     -1.005931667       5.508890064      -0.805431698
                        -----------------------------------------
Total Dipole Moment    :     -0.436037465       0.572496339      -0.535969460
                        -----------------------------------------
Magnitude (a.u.)       :      0.897298162
Magnitude (Debye)      :      2.280750673

Rotational constants in cm-1:             0.059119             0.023252             0.019256
Rotational constants in MHz :          1772.333966           697.091539           577.278835

                             ****ORCA TERMINATED NORMALLY****
TOTAL RUN TIME: 0 days 0 hours 0 minutes 59 seconds 729 msec
