                         Program Version 6.0.0  -   RELEASE  -
|  1> ! pbe def2-sv(p) def2/J RI DEFGRID1 loosescf d4 GCP(DFT/SV(P)) printgap
|  2> %output
|  3>     printlevel normal
|  4> end
|  5> * xyz 0 1
|  6> C 0.0005826034 1.4257992571 -7.60449e-05
|  7> C 0.7879998508 0.3272712952 -1.01345e-05
|  8> C 0.20512789 -1.0061978692 -0.0001075094
|  9> O 0.8225307409 -2.0568801142 -1.98733e-05
| 10> N -1.1769793769 -0.9923990148 1.18244e-05
| 11> C -2.0033726788 0.10650527 0.0001207446
| 12> O -3.2146807246 0.014699765 1.84105e-05
| 13> N -1.351912656 1.3126814556 -2.55103e-05
| 14> Cl 2.5104314297 0.4301461233 4.3191e-05
| 15> H 0.4166781827 2.420920638 -0.0002081073
| 16> H -1.6383653728 -1.8983223949 -5.064e-05
| 17> H -1.9342173151 2.1441541026 -0.0001778219
| 18> *
| 19>
| 20>                          ****END OF INPUT****

CARTESIAN COORDINATES (ANGSTROEM)
---------------------------------
  C      0.000583    1.425799   -0.000076
  C      0.788000    0.327271   -0.000010
  C      0.205128   -1.006198   -0.000108
  O      0.822531   -2.056880   -0.000020
  N     -1.176979   -0.992399    0.000012
  C     -2.003373    0.106505    0.000121
  O     -3.214681    0.014700    0.000018
  N     -1.351913    1.312681   -0.000026
  Cl     2.510431    0.430146    0.000043
  H      0.416678    2.420921   -0.000208
  H     -1.638365   -1.898322   -0.000051
  H     -1.934217    2.144154   -0.000178

 Total Charge           Charge          ....    0
 Multiplicity           Mult            ....    1
 Number of Electrons    NEL             ....   74
 Basis Dimension        Dim             ....  136

ORBITAL ENERGIES
----------------

  NO   OCC          E(Eh)            E(eV)
   0   2.0000    -100.655208     -2738.9675
   1   2.0000     -18.741273      -509.9760
   2   2.0000     -18.739285      -509.9219
   3   2.0000     -14.076808      -383.0494
   4   2.0000     -14.059075      -382.5669
   5   2.0000     -10.041636      -273.2468
   6   2.0000     -10.012421      -272.4518
   7   2.0000      -9.976774      -271.4818
   8   2.0000      -9.965958      -271.1875
   9   2.0000      -9.190490      -250.0859
  10   2.0000      -7.022444      -191.0904
  11   2.0000      -7.010227      -190.7580
  12   2.0000      -7.009652      -190.7423
  13   2.0000      -0.994091       -27.0506
  14   2.0000      -0.953725       -25.9522
  15   2.0000      -0.905508       -24.6401
  16   2.0000      -0.857319       -23.3288
  17   2.0000      -0.811194       -22.0737
  18   2.0000      -0.705959       -19.2101
  19   2.0000      -0.643854       -17.5202
  20   2.0000      -0.618905       -16.8413
  21   2.0000      -0.541699       -14.7404
  22   2.0000      -0.533144       -14.5076
  23   2.0000      -0.490246       -13.3403
  24   2.0000      -0.451423       -12.2838
  25   2.0000      -0.435147       -11.8409
  26   2.0000      -0.408414       -11.1135
  27   2.0000      -0.382109       -10.3977
  28   2.0000      -0.379479       -10.3262
  29   2.0000      -0.372153       -10.1268
  30   2.0000      -0.354492        -9.6462
  31   2.0000      -0.301637        -8.2079
  32   2.0000      -0.281203        -7.6519
  33   2.0000      -0.257713        -7.0127
  34   2.0000      -0.250991        -6.8298
  35   2.0000      -0.224177        -6.1002
  36   2.0000      -0.216650        -5.8953
  37   0.0000      -0.082839        -2.2542
  38   0.0000      -0.030087        -0.8187
  39   0.0000      -0.017063        -0.4643
  40   0.0000       0.028512         0.7759
  41   0.0000       0.047168         1.2835

MULLIKEN ATOMIC CHARGES
-----------------------
   0 C :    0.042512
   1 C :   -0.140578
   2 C :    0.172966
   3 O :   -0.153670
   4 N :   -0.245087
   5 C :    0.138222
   6 O :   -0.183806
   7 N :   -0.200703
   8 Cl:   -0.035456
   9 H :    0.089095
  10 H :    0.256011
  11 H :    0.260494
Sum of atomic charges:    0.0000000

LOEWDIN ATOMIC CHARGES
----------------------
   0 C :   -0.078059
   1 C :   -0.223209
   2 C :    0.008641
   3 O :   -0.165501
   4 N :   -0.113807
   5 C :    0.027689
   6 O :   -0.191214
   7 N :   -0.091680
   8 Cl:    0.164787
   9 H :    0.140922
  10 H :    0.260451
  11 H :    0.260982

  Mayer bond orders larger than 0.100000
B(  0-C ,  1-C ) :   1.6644 B(  0-C ,  7-N ) :   1.1785 B(  0-C ,  9-H ) :   0.9267
B(  1-C ,  2-C ) :   0.9914 B(  1-C ,  8-Cl) :   1.0525 B(  2-C ,  3-O ) :   2.1931
B(  2-C ,  4-N ) :   1.0674 B(  4-N ,  5-C ) :   1.1011 B(  4-N , 10-H ) :   0.8265
B(  5-C ,  6-O ) :   2.1366 B(  5-C ,  7-N ) :   1.0810 B(  7-N , 11-H ) :   0.8416

Dispersion correction           -0.014152186
FINAL SINGLE POINT ENERGY      -873.281340353982

DIPOLE MOMENT
-------------

Method             : SCF
Type of density    : Electron Density
Multiplicity       :   1
Irrep              :   0
Energy             :  -873.3204811051523393 Eh
Relativity type    :
Basis              : AO
                                X                 Y                 Z
Electronic contribution:      6.125397239      -0.375361783       0.000312427
Nuclear contribution   :     -6.379618076       1.896086345      -0.000467647
                        -----------------------------------------
Total Dipole Moment    :     -0.254220837       1.520724562      -0.000155219
                        -----------------------------------------
Magnitude (a.u.)       :      1.541827309
Magnitude (Debye)      :      3.919013571

Rotational constants in cm-1:             0.102568             0.033222             0.025094
Rotational constants in MHz :          3074.898829           995.978182           752.302794

                             ****ORCA TERMINATED NORMALLY****
TOTAL RUN TIME: 0 days 0 hours 0 minutes 7 seconds 154 msec
