                         Program Version 6.0.0  -   RELEASE  -
|  1> ! pbe def2-sv(p) def2/J RI DEFGRID1 loosescf d4 GCP(DFT/SV(P)) printgap
|  2> %output
|  3>     printlevel normal
|  4> end
|  5> * xyz 0 1
|  6> C -3.8113850255 -0.7229533699 0.0107761506
|  7> O -2.3847978954 -0.7869774016 0.0119832516
|  8> C -1.700619091 0.3600904393 -0.0061946576
|  9> O -2.2436261815 1.4527946486 -0.0166447216
| 10> C -0.24484573 0.1597550461 -0.0027867188
| 11> C 0.5882546058 1.2812279091 0.0072319532
| 12> C 1.9557149405 1.1365834158 0.0100007706
| 13> C 2.523894583 -0.1399590466 0.0013102449
| 14> C 1.6945757123 -1.2622008273 -0.0094485208
| 15> C 0.3244534931 -1.1138939027 -0.0111123848
| 16> O 3.8667060086 -0.2327478858 0.0034523391
| 17> H -4.1426460794 0.2284427079 0.4291105441
| 18> H -4.1565170007 -1.5579276852 0.6146629124
| 19> H -4.1716512872 -0.8167235368 -1.0139674393
| 20> H 0.1334229892 2.2599251565 0.0133096814
| 21> H 2.6101853657 1.9930056459 0.018504238
| 22> H 2.1268295652 -2.2514688001 -0.0167404834
| 23> H -0.3171703998 -1.9801412664 -0.0196497415
| 24> H 4.159118158 -1.1585044744 -0.0033765744
| 25> *
| 26>
| 27>                          ****END OF INPUT****

CARTESIAN COORDINATES (ANGSTROEM)
---------------------------------
  C     -3.811385   -0.722953    0.010776
  O     -2.384798   -0.786977    0.011983
  C     -1.700619    0.360090   -0.006195
  O     -2.243626    1.452795   -0.016645
  C     -0.244846    0.159755   -0.002787
  C      0.588255    1.281228    0.007232
  C      1.955715    1.136583    0.010001
  C      2.523895   -0.139959    0.001310
  C      1.694576   -1.262201   -0.009449
  C      0.324453   -1.113894   -0.011112
  O      3.866706   -0.232748    0.003452
  H     -4.142646    0.228443    0.429111
  H     -4.156517   -1.557928    0.614663
  H     -4.171651   -0.816724   -1.013967
  H      0.133423    2.259925    0.013310
  H      2.610185    1.993006    0.018504
  H      2.126830   -2.251469   -0.016740
  H     -0.317170   -1.980141   -0.019650
  H      4.159118   -1.158504   -0.003377

 Total Charge           Charge          ....    0
 Multiplicity           Mult            ....    1
 Number of Electrons    NEL             ....   80
 Basis Dimension        Dim             ....  170

ORBITAL ENERGIES
----------------

  NO   OCC          E(Eh)            E(eV)
   0   2.0000     -18.799731      -511.5667
   1   2.0000     -18.794536      -511.4253
   2   2.0000     -18.725854      -509.5564
   3   2.0000     -10.002215      -272.1741
   4   2.0000      -9.968191      -271.2483
   5   2.0000      -9.937113      -270.4026
   6   2.0000      -9.903959      -269.5004
   7   2.0000      -9.902001      -269.4471
   8   2.0000      -9.901046      -269.4212
   9   2.0000      -9.899433      -269.3773
  10   2.0000      -9.895037      -269.2576
  11   2.0000      -0.998874       -27.1807
  12   2.0000      -0.982568       -26.7370
  13   2.0000      -0.902080       -24.5468
  14   2.0000      -0.782773       -21.3003
  15   2.0000      -0.697261       -18.9734
  16   2.0000      -0.682103       -18.5610
  17   2.0000      -0.651353       -17.7242
  18   2.0000      -0.580949       -15.8084
  19   2.0000      -0.558898       -15.2084
  20   2.0000      -0.514332       -13.9957
  21   2.0000      -0.504656       -13.7324
  22   2.0000      -0.473031       -12.8718
  23   2.0000      -0.436128       -11.8676
  24   2.0000      -0.429469       -11.6864
  25   2.0000      -0.408843       -11.1252
  26   2.0000      -0.394472       -10.7341
  27   2.0000      -0.385665       -10.4945
  28   2.0000      -0.380704       -10.3595
  29   2.0000      -0.379954       -10.3391
  30   2.0000      -0.356824        -9.7097
  31   2.0000      -0.348382        -9.4800
  32   2.0000      -0.335907        -9.1405
  33   2.0000      -0.305307        -8.3078
  34   2.0000      -0.301050        -8.1920
  35   2.0000      -0.292854        -7.9690
  36   2.0000      -0.252332        -6.8663
  37   2.0000      -0.238488        -6.4896
  38   2.0000      -0.217225        -5.9110
  39   2.0000      -0.207081        -5.6350
  40   0.0000      -0.063225        -1.7205
  41   0.0000      -0.041726        -1.1354
  42   0.0000       0.012434         0.3383
  43   0.0000       0.031554         0.8586
  44   0.0000       0.049448         1.3456

MULLIKEN ATOMIC CHARGES
-----------------------
   0 C :   -0.118878
   1 O :   -0.252564
   2 C :    0.150808
   3 O :   -0.201848
   4 C :    0.039847
   5 C :   -0.092610
   6 C :   -0.112165
   7 C :    0.247774
   8 C :   -0.152504
   9 C :   -0.090576
  10 O :   -0.316264
  11 H :    0.130444
  12 H :    0.119049
  13 H :    0.118834
  14 H :    0.066719
  15 H :    0.052189
  16 H :    0.031582
  17 H :    0.058057
  18 H :    0.322104
Sum of atomic charges:    0.0000000

LOEWDIN ATOMIC CHARGES
----------------------
   0 C :   -0.205712
   1 O :   -0.077619
   2 C :    0.045484
   3 O :   -0.175742
   4 C :   -0.099236
   5 C :   -0.078742
   6 C :   -0.145352
   7 C :    0.031258
   8 C :   -0.176073
   9 C :   -0.090930
  10 O :   -0.215263
  11 H :    0.123642
  12 H :    0.119031
  13 H :    0.118433
  14 H :    0.137486
  15 H :    0.133809
  16 H :    0.121895
  17 H :    0.131731
  18 H :    0.301899

  Mayer bond orders larger than 0.100000
B(  0-C ,  1-O ) :   0.9399 B(  0-C , 11-H ) :   0.9332 B(  0-C , 12-H ) :   0.9611
B(  0-C , 13-H ) :   0.9593 B(  1-O ,  2-C ) :   1.2263 B(  2-C ,  3-O ) :   2.0617
B(  2-C ,  4-C ) :   0.9598 B(  4-C ,  5-C ) :   1.3545 B(  4-C ,  9-C ) :   1.3516
B(  5-C ,  6-C ) :   1.3659 B(  5-C , 14-H ) :   0.9598 B(  6-C ,  7-C ) :   1.3269
B(  6-C , 15-H ) :   0.9688 B(  7-C ,  8-C ) :   1.2895 B(  7-C , 10-O ) :   1.2136
B(  8-C ,  9-C ) :   1.3600 B(  8-C , 16-H ) :   0.9587 B(  9-C , 17-H ) :   0.9554
B( 10-O , 18-H ) :   0.8381

Dispersion correction           -0.019649429
FINAL SINGLE POINT ENERGY      -534.245309465074

DIPOLE MOMENT
-------------

Method             : SCF
Type of density    : Electron Density
Multiplicity       :   1
Irrep              :   0
Energy             :  -534.3106641949240156 Eh
Relativity type    :
Basis              : AO
                                X                 Y                 Z
Electronic contribution:      4.012495904       1.789401562      -0.015546312
Nuclear contribution   :     -3.537330903      -3.073971497       0.020484083
                        -----------------------------------------
Total Dipole Moment    :      0.475165001      -1.284569935       0.004937771
                        -----------------------------------------
Magnitude (a.u.)       :      1.369644508
Magnitude (Debye)      :      3.481359670

Rotational constants in cm-1:             0.115053             0.019468             0.016704
Rotational constants in MHz :          3449.192777           583.636450           500.771676

                             ****ORCA TERMINATED NORMALLY****
TOTAL RUN TIME: 0 days 0 hours 0 minutes 9 seconds 246 msec
