                         Program Version 6.0.0  -   RELEASE  -
|  1> ! pbe def2-sv(p) def2/J RI DEFGRID1 loosescf d4 GCP(DFT/SV(P)) printgap
|  2> %output
|  3>     printlevel normal
|  4> end
|  5> * xyz 0 1
|  6> C -1.8773986383 -0.5703871853 -0.8497650836
|  7> C -1.1836786046 -0.1144516876 0.4402205106
|  8> H -1.9308928799 -0.104472555 1.2420332831
|  9> C -0.6010454552 1.3014870237 0.3109471034
| 10> H -1.3358340832 1.9200533199 -0.2184831992
| 11> C 0.7026476292 1.3019444684 -0.5110231871
| 12> H 1.1851156581 2.287352645 -0.387031244
| 13> C 1.678998472 0.2596679866 0.0681348807
| 14> H 2.5225747614 0.1162278524 -0.6161330606
| 15> C 1.0096563602 -1.1154080821 0.2535649959
| 16> H 1.639286839 -1.6980938247 0.9469561298
| 17> O -0.2237879172 -1.0476290577 0.9199707085
| 18> O 0.9370518211 -1.7415606537 -0.990294326
| 19> O 2.2263433818 0.7159208473 1.2775368458
| 20> O 0.3686238152 1.0904602699 -1.8560217835
| 21> O -0.3726256669 1.7888570673 1.615141466
| 22> O -2.6246323313 -1.7330205359 -0.5621137367
| 23> H -1.1290899067 -0.7579420111 -1.6250111153
| 24> H -2.5385769457 0.239459694 -1.1823017888
| 25> H 0.5835902181 -2.6373099944 -0.8801717722
| 26> H 1.4949179062 0.8936676719 1.8958673699
| 27> H 1.1733483451 1.0605115518 -2.3931853944
| 28> H -0.3000571086 2.7540845148 1.5999973408
| 29> H -3.0734424272 -2.0246499294 -1.3679991606
| 30> *
| 31>
| 32>                          ****END OF INPUT****

CARTESIAN COORDINATES (ANGSTROEM)
---------------------------------
  C     -1.877399   -0.570387   -0.849765
  C     -1.183679   -0.114452    0.440221
  H     -1.930893   -0.104473    1.242033
  C     -0.601045    1.301487    0.310947
  H     -1.335834    1.920053   -0.218483
  C      0.702648    1.301944   -0.511023
  H      1.185116    2.287353   -0.387031
  C      1.678998    0.259668    0.068135
  H      2.522575    0.116228   -0.616133
  C      1.009656   -1.115408    0.253565
  H      1.639287   -1.698094    0.946956
  O     -0.223788   -1.047629    0.919971
  O      0.937052   -1.741561   -0.990294
  O      2.226343    0.715921    1.277537
  O      0.368624    1.090460   -1.856022
  O     -0.372626    1.788857    1.615141
  O     -2.624632   -1.733021   -0.562114
  H     -1.129090   -0.757942   -1.625011
  H     -2.538577    0.239460   -1.182302
  H      0.583590   -2.637310   -0.880172
  H      1.494918    0.893668    1.895867
  H      1.173348    1.060512   -2.393185
  H     -0.300057    2.754085    1.599997
  H     -3.073442   -2.024650   -1.367999

 Total Charge           Charge          ....    0
 Multiplicity           Mult            ....    1
 Number of Electrons    NEL             ....   96
 Basis Dimension        Dim             ....  192

ORBITAL ENERGIES
----------------

  NO   OCC          E(Eh)            E(eV)
   0   2.0000     -18.772053      -510.8135
   1   2.0000     -18.760291      -510.4935
   2   2.0000     -18.755309      -510.3579
   3   2.0000     -18.755219      -510.3555
   4   2.0000     -18.738036      -509.8879
   5   2.0000     -18.737762      -509.8804
   6   2.0000      -9.974538      -271.4210
   7   2.0000      -9.950727      -270.7731
   8   2.0000      -9.944438      -270.6019
   9   2.0000      -9.937451      -270.4118
  10   2.0000      -9.935669      -270.3633
  11   2.0000      -9.917967      -269.8816
  12   2.0000      -0.973083       -26.4789
  13   2.0000      -0.948076       -25.7985
  14   2.0000      -0.935327       -25.4515
  15   2.0000      -0.915479       -24.9114
  16   2.0000      -0.913952       -24.8699
  17   2.0000      -0.900781       -24.5115
  18   2.0000      -0.705574       -19.1997
  19   2.0000      -0.679303       -18.4848
  20   2.0000      -0.615867       -16.7586
  21   2.0000      -0.580920       -15.8076
  22   2.0000      -0.571140       -15.5415
  23   2.0000      -0.515593       -14.0300
  24   2.0000      -0.497241       -13.5306
  25   2.0000      -0.478331       -13.0161
  26   2.0000      -0.465678       -12.6717
  27   2.0000      -0.458053       -12.4642
  28   2.0000      -0.444283       -12.0895
  29   2.0000      -0.427191       -11.6244
  30   2.0000      -0.416361       -11.3297
  31   2.0000      -0.392527       -10.6812
  32   2.0000      -0.374867       -10.2007
  33   2.0000      -0.366716        -9.9788
  34   2.0000      -0.359933        -9.7943
  35   2.0000      -0.342820        -9.3286
  36   2.0000      -0.327225        -8.9042
  37   2.0000      -0.325310        -8.8521
  38   2.0000      -0.303504        -8.2588
  39   2.0000      -0.287834        -7.8324
  40   2.0000      -0.279683        -7.6106
  41   2.0000      -0.257914        -7.0182
  42   2.0000      -0.247792        -6.7428
  43   2.0000      -0.232871        -6.3367
  44   2.0000      -0.230248        -6.2654
  45   2.0000      -0.216691        -5.8964
  46   2.0000      -0.203259        -5.5310
  47   2.0000      -0.201216        -5.4754
  48   0.0000       0.008668         0.2359
  49   0.0000       0.017276         0.4701
  50   0.0000       0.030909         0.8411
  51   0.0000       0.045629         1.2416
  52   0.0000       0.067979         1.8498

MULLIKEN ATOMIC CHARGES
-----------------------
   0 C :    0.006922
   1 C :    0.067293
   2 H :    0.079730
   3 C :    0.001650
   4 H :    0.077786
   5 C :    0.053333
   6 H :    0.052658
   7 C :    0.045324
   8 H :    0.065364
   9 C :    0.197197
  10 H :    0.066232
  11 O :   -0.314251
  12 O :   -0.400758
  13 O :   -0.434335
  14 O :   -0.401110
  15 O :   -0.412864
  16 O :   -0.436163
  17 H :    0.105846
  18 H :    0.058302
  19 H :    0.304607
  20 H :    0.300926
  21 H :    0.308257
  22 H :    0.310662
  23 H :    0.297394
Sum of atomic charges:   -0.0000000

LOEWDIN ATOMIC CHARGES
----------------------
   0 C :   -0.150450
   1 C :   -0.049038
   2 H :    0.124766
   3 C :   -0.068454
   4 H :    0.110841
   5 C :   -0.081069
   6 H :    0.093570
   7 C :   -0.081830
   8 H :    0.114059
   9 C :   -0.008896
  10 H :    0.098682
  11 O :   -0.139939
  12 O :   -0.313253
  13 O :   -0.319762
  14 O :   -0.306322
  15 O :   -0.304609
  16 O :   -0.347835
  17 H :    0.107023
  18 H :    0.094473
  19 H :    0.287556
  20 H :    0.272364
  21 H :    0.290706
  22 H :    0.293005
  23 H :    0.284414

  Mayer bond orders larger than 0.100000
B(  0-C ,  1-C ) :   1.0659 B(  0-C , 16-O ) :   1.0857 B(  0-C , 17-H ) :   0.8810
B(  0-C , 18-H ) :   0.9103 B(  1-C ,  2-H ) :   0.8923 B(  1-C ,  3-C ) :   1.0113
B(  1-C , 11-O ) :   1.0049 B(  3-C ,  4-H ) :   0.8962 B(  3-C ,  5-C ) :   0.9755
B(  3-C , 15-O ) :   1.0445 B(  5-C ,  6-H ) :   0.9006 B(  5-C ,  7-C ) :   0.9677
B(  5-C , 14-O ) :   1.0756 B(  7-C ,  8-H ) :   0.8892 B(  7-C ,  9-C ) :   0.9866
B(  7-C , 13-O ) :   1.0556 B(  9-C , 10-H ) :   0.9037 B(  9-C , 11-O ) :   1.0644
B(  9-C , 12-O ) :   1.1080 B( 12-O , 19-H ) :   0.8361 B( 13-O , 20-H ) :   0.8127
B( 14-O , 21-H ) :   0.8406 B( 15-O , 22-H ) :   0.8415 B( 16-O , 23-H ) :   0.8540

Dispersion correction           -0.025844036
FINAL SINGLE POINT ENERGY      -685.691944973302

DIPOLE MOMENT
-------------

Method             : SCF
Type of density    : Electron Density
Multiplicity       :   1
Irrep              :   0
Energy             :  -685.8222188894568490 Eh
Relativity type    :
Basis              : AO
                                X                 Y                 Z
Electronic contribution:      1.332355254      -1.296174042       1.877454939
Nuclear contribution   :     -1.598781760       1.908473755      -2.794883509
                        -----------------------------------------
Total Dipole Moment    :     -0.266426507       0.612299713      -0.917428569
                        -----------------------------------------
Magnitude (a.u.)       :      1.134711065
Magnitude (Debye)      :      2.884206316

Rotational constants in cm-1:             0.041624             0.027994             0.024815
Rotational constants in MHz :          1247.850712           839.244030           743.929120

                             ****ORCA TERMINATED NORMALLY****
TOTAL RUN TIME: 0 days 0 hours 0 minutes 12 seconds 318 msec
