                         Program Version 6.0.0  -   RELEASE  -
|  1> ! pbe def2-sv(p) def2/J RI DEFGRID1 loosescf d4 GCP(DFT/SV(P)) printgap
|  2> %output
|  3>     printlevel normal
|  4> end
|  5> * xyz 0 1
|  6> C -2.001156891 -1.215359893 -0.3498615865
|  7> C -1.2851604192 -0.3874588148 0.7298461141
|  8> H -1.9573305617 -0.2990298995 1.5895982368
|  9> C -0.9654024707 1.0390000255 0.2447712744
| 10> H -1.3408772518 1.1584737308 -0.7832142187
| 11> C 0.5545685447 1.2804391283 0.2217868812
| 12> H 0.9194176498 1.384675519 1.2503739363
| 13> C 1.2241587556 0.0676268053 -0.4291444297
| 14> H 0.7343342153 -0.14325688 -1.3905045002
| 15> C 1.0065779784 -1.1457480544 0.4920657246
| 16> H 1.8292121461 -1.1733744217 1.2263419914
| 17> O -0.1513818744 -1.0434320816 1.2833139448
| 18> O 1.0116578735 -2.2943303129 -0.2964447216
| 19> O 2.5920694558 0.3309280417 -0.6095216282
| 20> O 0.8539362987 2.4961591113 -0.4118340781
| 21> O -1.6155157997 1.9541260338 1.0941668925
| 22> O -1.392633918 -1.0392843695 -1.6105474927
| 23> H -3.044460884 -0.8771603209 -0.386690251
| 24> H -1.9718997267 -2.2664171636 -0.0437294934
| 25> H 0.9610387002 -3.082794674 0.2649645228
| 26> H 2.9960892225 -0.3992131462 -1.1001534405
| 27> H 0.8379432787 2.3775681031 -1.3725183062
| 28> H -1.2790257886 2.8430181343 0.9013064511
| 29> H -1.815931336 -1.6302716184 -2.2492653818
| 30> *
| 31>
| 32>                          ****END OF INPUT****

CARTESIAN COORDINATES (ANGSTROEM)
---------------------------------
  C     -2.001157   -1.215360   -0.349862
  C     -1.285160   -0.387459    0.729846
  H     -1.957331   -0.299030    1.589598
  C     -0.965402    1.039000    0.244771
  H     -1.340877    1.158474   -0.783214
  C      0.554569    1.280439    0.221787
  H      0.919418    1.384676    1.250374
  C      1.224159    0.067627   -0.429144
  H      0.734334   -0.143257   -1.390505
  C      1.006578   -1.145748    0.492066
  H      1.829212   -1.173374    1.226342
  O     -0.151382   -1.043432    1.283314
  O      1.011658   -2.294330   -0.296445
  O      2.592069    0.330928   -0.609522
  O      0.853936    2.496159   -0.411834
  O     -1.615516    1.954126    1.094167
  O     -1.392634   -1.039284   -1.610547
  H     -3.044461   -0.877160   -0.386690
  H     -1.971900   -2.266417   -0.043729
  H      0.961039   -3.082795    0.264965
  H      2.996089   -0.399213   -1.100153
  H      0.837943    2.377568   -1.372518
  H     -1.279026    2.843018    0.901306
  H     -1.815931   -1.630272   -2.249265

 Total Charge           Charge          ....    0
 Multiplicity           Mult            ....    1
 Number of Electrons    NEL             ....   96
 Basis Dimension        Dim             ....  192

ORBITAL ENERGIES
----------------

  NO   OCC          E(Eh)            E(eV)
   0   2.0000     -18.760091      -510.4880
   1   2.0000     -18.759092      -510.4609
   2   2.0000     -18.758446      -510.4433
   3   2.0000     -18.747410      -510.1430
   4   2.0000     -18.746421      -510.1161
   5   2.0000     -18.738215      -509.8928
   6   2.0000      -9.977777      -271.5091
   7   2.0000      -9.941177      -270.5132
   8   2.0000      -9.935954      -270.3711
   9   2.0000      -9.933138      -270.2944
  10   2.0000      -9.932208      -270.2691
  11   2.0000      -9.930942      -270.2347
  12   2.0000      -0.973477       -26.4897
  13   2.0000      -0.936622       -25.4868
  14   2.0000      -0.932636       -25.3783
  15   2.0000      -0.921739       -25.0818
  16   2.0000      -0.907889       -24.7049
  17   2.0000      -0.904988       -24.6260
  18   2.0000      -0.698443       -19.0056
  19   2.0000      -0.688136       -18.7251
  20   2.0000      -0.616512       -16.7761
  21   2.0000      -0.575047       -15.6478
  22   2.0000      -0.564374       -15.3574
  23   2.0000      -0.519654       -14.1405
  24   2.0000      -0.506005       -13.7691
  25   2.0000      -0.470187       -12.7944
  26   2.0000      -0.468415       -12.7462
  27   2.0000      -0.451272       -12.2797
  28   2.0000      -0.437430       -11.9031
  29   2.0000      -0.427146       -11.6232
  30   2.0000      -0.410494       -11.1701
  31   2.0000      -0.404322       -11.0022
  32   2.0000      -0.380256       -10.3473
  33   2.0000      -0.370465       -10.0809
  34   2.0000      -0.348014        -9.4699
  35   2.0000      -0.344776        -9.3818
  36   2.0000      -0.327855        -8.9214
  37   2.0000      -0.311200        -8.4682
  38   2.0000      -0.301594        -8.2068
  39   2.0000      -0.289132        -7.8677
  40   2.0000      -0.271257        -7.3813
  41   2.0000      -0.257696        -7.0123
  42   2.0000      -0.243907        -6.6370
  43   2.0000      -0.237586        -6.4650
  44   2.0000      -0.223850        -6.0913
  45   2.0000      -0.221744        -6.0340
  46   2.0000      -0.207094        -5.6353
  47   2.0000      -0.199975        -5.4416
  48   0.0000       0.016535         0.4499
  49   0.0000       0.026224         0.7136
  50   0.0000       0.032790         0.8923
  51   0.0000       0.052709         1.4343
  52   0.0000       0.066724         1.8157

MULLIKEN ATOMIC CHARGES
-----------------------
   0 C :    0.023066
   1 C :    0.045298
   2 H :    0.086022
   3 C :    0.080020
   4 H :    0.054314
   5 C :    0.054571
   6 H :    0.067065
   7 C :   -0.027826
   8 H :    0.076357
   9 C :    0.196351
  10 H :    0.057190
  11 O :   -0.314572
  12 O :   -0.394633
  13 O :   -0.404703
  14 O :   -0.413496
  15 O :   -0.421849
  16 O :   -0.422524
  17 H :    0.081318
  18 H :    0.070552
  19 H :    0.298049
  20 H :    0.302986
  21 H :    0.300004
  22 H :    0.300769
  23 H :    0.305674
Sum of atomic charges:   -0.0000000

LOEWDIN ATOMIC CHARGES
----------------------
   0 C :   -0.135413
   1 C :   -0.054716
   2 H :    0.130833
   3 C :   -0.073259
   4 H :    0.099774
   5 C :   -0.071521
   6 H :    0.119926
   7 C :   -0.099842
   8 H :    0.110100
   9 C :   -0.011232
  10 H :    0.096431
  11 O :   -0.147654
  12 O :   -0.313878
  13 O :   -0.316039
  14 O :   -0.308313
  15 O :   -0.325622
  16 O :   -0.332512
  17 H :    0.103503
  18 H :    0.100214
  19 H :    0.282916
  20 H :    0.288224
  21 H :    0.286085
  22 H :    0.282847
  23 H :    0.289151

  Mayer bond orders larger than 0.100000
B(  0-C ,  1-C ) :   1.0624 B(  0-C , 16-O ) :   1.0638 B(  0-C , 17-H ) :   0.9113
B(  0-C , 18-H ) :   0.9077 B(  1-C ,  2-H ) :   0.8859 B(  1-C ,  3-C ) :   0.9776
B(  1-C , 11-O ) :   1.0385 B(  3-C ,  4-H ) :   0.8738 B(  3-C ,  5-C ) :   1.0226
B(  3-C , 15-O ) :   1.0695 B(  5-C ,  6-H ) :   0.8594 B(  5-C ,  7-C ) :   1.0194
B(  5-C , 14-O ) :   1.0571 B(  7-C ,  8-H ) :   0.8624 B(  7-C ,  9-C ) :   1.0013
B(  7-C , 13-O ) :   1.0798 B(  9-C , 10-H ) :   0.8889 B(  9-C , 11-O ) :   1.0486
B(  9-C , 12-O ) :   1.1324 B( 12-O , 19-H ) :   0.8424 B( 13-O , 20-H ) :   0.8475
B( 14-O , 21-H ) :   0.8470 B( 15-O , 22-H ) :   0.8378 B( 16-O , 23-H ) :   0.8458

Dispersion correction           -0.025138498
FINAL SINGLE POINT ENERGY      -685.688351837398

DIPOLE MOMENT
-------------

Method             : SCF
Type of density    : Electron Density
Multiplicity       :   1
Irrep              :   0
Energy             :  -685.8179494294902270 Eh
Relativity type    :
Basis              : AO
                                X                 Y                 Z
Electronic contribution:      2.512304992       0.819855194       1.022366203
Nuclear contribution   :     -2.918639492      -1.971471165      -1.972211001
                        -----------------------------------------
Total Dipole Moment    :     -0.406334500      -1.151615971      -0.949844798
                        -----------------------------------------
Magnitude (a.u.)       :      1.547104460
Magnitude (Debye)      :      3.932427023

Rotational constants in cm-1:             0.034741             0.033044             0.022260
Rotational constants in MHz :          1041.513219           990.620899           667.335168

                             ****ORCA TERMINATED NORMALLY****
TOTAL RUN TIME: 0 days 0 hours 0 minutes 12 seconds 24 msec
