                         Program Version 6.0.0  -   RELEASE  -
|  1> ! pbe def2-sv(p) def2/J RI DEFGRID1 loosescf d4 GCP(DFT/SV(P)) printgap
|  2> %output
|  3>     printlevel normal
|  4> end
|  5> * xyz 0 1
|  6> C -2.2376048469 -1.1686915149 0.0488814286
|  7> C -0.8616686855 -0.5741462931 0.3902584576
|  8> H -0.7976285011 -0.372082092 1.4707410044
|  9> C -0.628819505 0.7493280901 -0.3500687725
| 10> H -0.7561611916 0.5761785175 -1.4317115778
| 11> C 0.8050712919 1.2698202783 -0.1302954718
| 12> H 0.7327949224 2.118728124 0.5595554984
| 13> C 1.7157076078 0.2035961361 0.5158736105
| 14> H 2.7592876462 0.4602192061 0.2798097374
| 15> C 1.4295705642 -1.1595415995 -0.1381619507
| 16> H 2.0332185369 -1.955956364 0.3194952761
| 17> O 0.0893643513 -1.5698656488 0.0347457735
| 18> O 1.7979792606 -1.1529805802 -1.4805555003
| 19> O 1.5001035456 0.2065291456 1.9021096907
| 20> O 1.31320781 1.6543822151 -1.3878702895
| 21> O -1.5145817174 1.746652829 0.0901135585
| 22> O -3.3023580437 -0.3721657738 0.5070525253
| 23> H -2.2810495575 -2.1835493171 0.4555241937
| 24> H -2.3396772221 -1.2312883115 -1.0372105144
| 25> H 1.5006103187 -0.3307987776 -1.9112539408
| 26> H 2.1442198573 -0.3681191831 2.3410457988
| 27> H 2.0055358531 2.3223403883 -1.2865458734
| 28> H -2.4199914821 1.3855758862 0.0713018836
| 29> H -3.383852913 -0.4583873161 1.467708921
| 30> *
| 31>
| 32>                          ****END OF INPUT****

CARTESIAN COORDINATES (ANGSTROEM)
---------------------------------
  C     -2.237605   -1.168692    0.048881
  C     -0.861669   -0.574146    0.390258
  H     -0.797629   -0.372082    1.470741
  C     -0.628820    0.749328   -0.350069
  H     -0.756161    0.576179   -1.431712
  C      0.805071    1.269820   -0.130295
  H      0.732795    2.118728    0.559555
  C      1.715708    0.203596    0.515874
  H      2.759288    0.460219    0.279810
  C      1.429571   -1.159542   -0.138162
  H      2.033219   -1.955956    0.319495
  O      0.089364   -1.569866    0.034746
  O      1.797979   -1.152981   -1.480556
  O      1.500104    0.206529    1.902110
  O      1.313208    1.654382   -1.387870
  O     -1.514582    1.746653    0.090114
  O     -3.302358   -0.372166    0.507053
  H     -2.281050   -2.183549    0.455524
  H     -2.339677   -1.231288   -1.037211
  H      1.500610   -0.330799   -1.911254
  H      2.144220   -0.368119    2.341046
  H      2.005536    2.322340   -1.286546
  H     -2.419991    1.385576    0.071302
  H     -3.383853   -0.458387    1.467709

 Total Charge           Charge          ....    0
 Multiplicity           Mult            ....    1
 Number of Electrons    NEL             ....   96
 Basis Dimension        Dim             ....  192

ORBITAL ENERGIES
----------------

  NO   OCC          E(Eh)            E(eV)
   0   2.0000     -18.772948      -510.8379
   1   2.0000     -18.772195      -510.8174
   2   2.0000     -18.766123      -510.6522
   3   2.0000     -18.759115      -510.4615
   4   2.0000     -18.741521      -509.9827
   5   2.0000     -18.736205      -509.8380
   6   2.0000      -9.979152      -271.5465
   7   2.0000      -9.948277      -270.7064
   8   2.0000      -9.947962      -270.6978
   9   2.0000      -9.938257      -270.4337
  10   2.0000      -9.937861      -270.4229
  11   2.0000      -9.935493      -270.3585
  12   2.0000      -0.971840       -26.4451
  13   2.0000      -0.947574       -25.7848
  14   2.0000      -0.945396       -25.7255
  15   2.0000      -0.937349       -25.5066
  16   2.0000      -0.914660       -24.8892
  17   2.0000      -0.898715       -24.4553
  18   2.0000      -0.703037       -19.1306
  19   2.0000      -0.688764       -18.7422
  20   2.0000      -0.622159       -16.9298
  21   2.0000      -0.584233       -15.8978
  22   2.0000      -0.567905       -15.4535
  23   2.0000      -0.518095       -14.0981
  24   2.0000      -0.511476       -13.9180
  25   2.0000      -0.488254       -13.2861
  26   2.0000      -0.471101       -12.8193
  27   2.0000      -0.468026       -12.7356
  28   2.0000      -0.449633       -12.2351
  29   2.0000      -0.443379       -12.0650
  30   2.0000      -0.418005       -11.3745
  31   2.0000      -0.393117       -10.6973
  32   2.0000      -0.382110       -10.3977
  33   2.0000      -0.372605       -10.1391
  34   2.0000      -0.364133        -9.9086
  35   2.0000      -0.346635        -9.4324
  36   2.0000      -0.323427        -8.8009
  37   2.0000      -0.317420        -8.6374
  38   2.0000      -0.301327        -8.1995
  39   2.0000      -0.296972        -8.0810
  40   2.0000      -0.289714        -7.8835
  41   2.0000      -0.274256        -7.4629
  42   2.0000      -0.252091        -6.8598
  43   2.0000      -0.248765        -6.7692
  44   2.0000      -0.229421        -6.2429
  45   2.0000      -0.218943        -5.9577
  46   2.0000      -0.214362        -5.8331
  47   2.0000      -0.199655        -5.4329
  48   0.0000       0.009689         0.2636
  49   0.0000       0.013162         0.3582
  50   0.0000       0.015732         0.4281
  51   0.0000       0.056219         1.5298
  52   0.0000       0.070870         1.9285

MULLIKEN ATOMIC CHARGES
-----------------------
   0 C :    0.066362
   1 C :    0.025339
   2 H :    0.056381
   3 C :    0.038423
   4 H :    0.051711
   5 C :    0.061322
   6 H :    0.081199
   7 C :   -0.007948
   8 H :    0.061054
   9 C :    0.198871
  10 H :    0.049288
  11 O :   -0.309777
  12 O :   -0.401174
  13 O :   -0.404802
  14 O :   -0.412488
  15 O :   -0.429920
  16 O :   -0.435973
  17 H :    0.095557
  18 H :    0.088042
  19 H :    0.301341
  20 H :    0.308352
  21 H :    0.311852
  22 H :    0.297923
  23 H :    0.309063
Sum of atomic charges:    0.0000000

LOEWDIN ATOMIC CHARGES
----------------------
   0 C :   -0.128162
   1 C :   -0.085130
   2 H :    0.102218
   3 C :   -0.066139
   4 H :    0.103051
   5 C :   -0.061545
   6 H :    0.121426
   7 C :   -0.101600
   8 H :    0.102680
   9 C :   -0.004309
  10 H :    0.097782
  11 O :   -0.149304
  12 O :   -0.312093
  13 O :   -0.309419
  14 O :   -0.306622
  15 O :   -0.326928
  16 O :   -0.319878
  17 H :    0.108410
  18 H :    0.117103
  19 H :    0.270188
  20 H :    0.291687
  21 H :    0.293996
  22 H :    0.270786
  23 H :    0.291800

  Mayer bond orders larger than 0.100000
B(  0-C ,  1-C ) :   1.0149 B(  0-C , 16-O ) :   1.0321 B(  0-C , 17-H ) :   0.9239
B(  0-C , 18-H ) :   0.9136 B(  1-C ,  2-H ) :   0.8583 B(  1-C ,  3-C ) :   1.0695
B(  1-C , 11-O ) :   0.9851 B(  3-C ,  4-H ) :   0.8646 B(  3-C ,  5-C ) :   1.0156
B(  3-C , 15-O ) :   1.0967 B(  5-C ,  6-H ) :   0.8560 B(  5-C ,  7-C ) :   1.0084
B(  5-C , 14-O ) :   1.0535 B(  7-C ,  8-H ) :   0.8925 B(  7-C ,  9-C ) :   0.9897
B(  7-C , 13-O ) :   1.0350 B(  9-C , 10-H ) :   0.9007 B(  9-C , 11-O ) :   1.0511
B(  9-C , 12-O ) :   1.1484 B( 12-O , 19-H ) :   0.8084 B( 13-O , 20-H ) :   0.8445
B( 14-O , 21-H ) :   0.8412 B( 15-O , 22-H ) :   0.8026 B( 16-O , 22-H ) :   0.1135
B( 16-O , 23-H ) :   0.8430

Dispersion correction           -0.024855901
FINAL SINGLE POINT ENERGY      -685.692627432437

DIPOLE MOMENT
-------------

Method             : SCF
Type of density    : Electron Density
Multiplicity       :   1
Irrep              :   0
Energy             :  -685.8248188565919463 Eh
Relativity type    :
Basis              : AO
                                X                 Y                 Z
Electronic contribution:      1.231246336       0.219384128      -0.299129752
Nuclear contribution   :     -0.754785974      -0.027249725       1.213222725
                        -----------------------------------------
Total Dipole Moment    :      0.476460362       0.192134404       0.914092973
                        -----------------------------------------
Magnitude (a.u.)       :      1.048568581
Magnitude (Debye)      :      2.665249522

Rotational constants in cm-1:             0.043482             0.024974             0.021827
Rotational constants in MHz :          1303.544090           748.710863           654.354402

                             ****ORCA TERMINATED NORMALLY****
TOTAL RUN TIME: 0 days 0 hours 0 minutes 12 seconds 162 msec
