                         Program Version 6.0.0  -   RELEASE  -
|  1> ! r2scan-3c def2/J RI DEFGRID2 scfconv6 printgap
|  2> %output
|  3>     printlevel normal
|  4> end
|  5> * xyz 0 1
|  6> C -1.8974844754 0.0397404364 0.4514521558
|  7> C -0.8732988554 -0.1672235173 -0.6664507478
|  8> C 0.5320762678 -0.072708104 -0.1066500027
|  9> O 1.1934731303 -1.0622225166 0.1958447729
| 10> N 0.9962696205 1.1720807579 0.0585190751
| 11> H -2.9039354824 -0.0712162697 0.0574806396
| 12> H -1.7484085436 -0.6998861625 1.2349240355
| 13> H -1.8011649506 1.0295068997 0.8895518408
| 14> H -1.0121922275 0.5804188586 -1.446947315
| 15> H -0.9982763786 -1.1606810365 -1.097637873
| 16> H 0.441681921 1.9736692062 -0.1864111889
| 17> H 1.9100380982 1.3070770056 0.4599246865
| 18> *
| 19>
| 20>                          ****END OF INPUT****

CARTESIAN COORDINATES (ANGSTROEM)
---------------------------------
  C     -1.897484    0.039740    0.451452
  C     -0.873299   -0.167224   -0.666451
  C      0.532076   -0.072708   -0.106650
  O      1.193473   -1.062223    0.195845
  N      0.996270    1.172081    0.058519
  H     -2.903935   -0.071216    0.057481
  H     -1.748409   -0.699886    1.234924
  H     -1.801165    1.029507    0.889552
  H     -1.012192    0.580419   -1.446947
  H     -0.998276   -1.160681   -1.097638
  H      0.441682    1.973669   -0.186411
  H      1.910038    1.307077    0.459925

 Total Charge           Charge          ....    0
 Multiplicity           Mult            ....    1
 Number of Electrons    NEL             ....   40
 Basis Dimension        Dim             ....  140

ORBITAL ENERGIES
----------------

  NO   OCC          E(Eh)            E(eV)
   0   2.0000     -18.906842      -514.4813
   1   2.0000     -14.184522      -385.9805
   2   2.0000     -10.126486      -275.5557
   3   2.0000     -10.041181      -273.2344
   4   2.0000     -10.032919      -273.0096
   5   2.0000      -0.992295       -27.0017
   6   2.0000      -0.877695       -23.8833
   7   2.0000      -0.748800       -20.3759
   8   2.0000      -0.624655       -16.9977
   9   2.0000      -0.556393       -15.1402
  10   2.0000      -0.512734       -13.9522
  11   2.0000      -0.450576       -12.2608
  12   2.0000      -0.414239       -11.2720
  13   2.0000      -0.398637       -10.8475
  14   2.0000      -0.373474       -10.1627
  15   2.0000      -0.341077        -9.2812
  16   2.0000      -0.331707        -9.0262
  17   2.0000      -0.326712        -8.8903
  18   2.0000      -0.244425        -6.6511
  19   2.0000      -0.212174        -5.7735
  20   0.0000      -0.000705        -0.0192
  21   0.0000       0.064613         1.7582
  22   0.0000       0.114309         3.1105
  23   0.0000       0.123127         3.3504
  24   0.0000       0.124645         3.3918

MULLIKEN ATOMIC CHARGES
-----------------------
   0 C :   -0.464105
   1 C :   -0.314795
   2 C :    0.319024
   3 O :   -0.416205
   4 N :   -0.377170
   5 H :    0.152180
   6 H :    0.164693
   7 H :    0.137628
   8 H :    0.134913
   9 H :    0.166517
  10 H :    0.250689
  11 H :    0.246631
Sum of atomic charges:    0.0000000

LOEWDIN ATOMIC CHARGES
----------------------
   0 C :   -0.397283
   1 C :   -0.254714
   2 C :    0.293675
   3 O :   -0.464476
   4 N :   -0.500884
   5 H :    0.152414
   6 H :    0.162192
   7 H :    0.149106
   8 H :    0.160867
   9 H :    0.177651
  10 H :    0.258816
  11 H :    0.262635

  Mayer bond orders larger than 0.100000
B(  0-C ,  1-C ) :   0.9115 B(  0-C ,  5-H ) :   0.9697 B(  0-C ,  6-H ) :   0.9742
B(  0-C ,  7-H ) :   0.9783 B(  1-C ,  2-C ) :   0.9379 B(  1-C ,  8-H ) :   0.9717
B(  1-C ,  9-H ) :   0.9589 B(  2-C ,  3-O ) :   1.9653 B(  2-C ,  4-N ) :   1.0821
B(  4-N , 10-H ) :   0.9205 B(  4-N , 11-H ) :   0.9164

Dispersion correction           -0.002476506
FINAL SINGLE POINT ENERGY      -248.471057075180

DIPOLE MOMENT
-------------

Method             : SCF
Type of density    : Electron Density
Multiplicity       :   1
Irrep              :   0
Energy             :  -248.4768753381134729 Eh
Relativity type    :
Basis              : AO
                                X                 Y                 Z
Electronic contribution:      5.084090941      -1.336391162      -0.130951916
Nuclear contribution   :     -5.711136328       2.766622979      -0.080373391
                        -----------------------------------------
Total Dipole Moment    :     -0.627045387       1.430231818      -0.211325307
                        -----------------------------------------
Magnitude (a.u.)       :      1.575883040
Magnitude (Debye)      :      4.005576359

Rotational constants in cm-1:             0.275820             0.131956             0.105435
Rotational constants in MHz :          8268.861156          3955.932960          3160.870257

                             ****ORCA TERMINATED NORMALLY****
TOTAL RUN TIME: 0 days 0 hours 0 minutes 11 seconds 499 msec
