                         Program Version 6.0.0  -   RELEASE  -
|  1> ! r2scan-3c def2/J RI DEFGRID2 scfconv6 printgap
|  2> %output
|  3>     printlevel normal
|  4> end
|  5> %cpcm
|  6>     smd true
|  7>     smdsolvent "water"
|  8> end
|  9> * xyz 0 1
| 10> C -1.8974844754 0.0397404364 0.4514521558
| 11> C -0.8732988554 -0.1672235173 -0.6664507478
| 12> C 0.5320762678 -0.072708104 -0.1066500027
| 13> O 1.1934731303 -1.0622225166 0.1958447729
| 14> N 0.9962696205 1.1720807579 0.0585190751
| 15> H -2.9039354824 -0.0712162697 0.0574806396
| 16> H -1.7484085436 -0.6998861625 1.2349240355
| 17> H -1.8011649506 1.0295068997 0.8895518408
| 18> H -1.0121922275 0.5804188586 -1.446947315
| 19> H -0.9982763786 -1.1606810365 -1.097637873
| 20> H 0.441681921 1.9736692062 -0.1864111889
| 21> H 1.9100380982 1.3070770056 0.4599246865
| 22> *
| 23>
| 24>                          ****END OF INPUT****

CARTESIAN COORDINATES (ANGSTROEM)
---------------------------------
  C     -1.897484    0.039740    0.451452
  C     -0.873299   -0.167224   -0.666451
  C      0.532076   -0.072708   -0.106650
  O      1.193473   -1.062223    0.195845
  N      0.996270    1.172081    0.058519
  H     -2.903935   -0.071216    0.057481
  H     -1.748409   -0.699886    1.234924
  H     -1.801165    1.029507    0.889552
  H     -1.012192    0.580419   -1.446947
  H     -0.998276   -1.160681   -1.097638
  H      0.441682    1.973669   -0.186411
  H      1.910038    1.307077    0.459925

 Total Charge           Charge          ....    0
 Multiplicity           Mult            ....    1
 Number of Electrons    NEL             ....   40
 Basis Dimension        Dim             ....  140

ORBITAL ENERGIES
----------------

  NO   OCC          E(Eh)            E(eV)
   0   2.0000     -18.923351      -514.9306
   1   2.0000     -14.176620      -385.7654
   2   2.0000     -10.133846      -275.7560
   3   2.0000     -10.031760      -272.9781
   4   2.0000     -10.019914      -272.6557
   5   2.0000      -1.007579       -27.4176
   6   2.0000      -0.873480       -23.7686
   7   2.0000      -0.738952       -20.1079
   8   2.0000      -0.615323       -16.7438
   9   2.0000      -0.548205       -14.9174
  10   2.0000      -0.499469       -13.5912
  11   2.0000      -0.449802       -12.2397
  12   2.0000      -0.408311       -11.1107
  13   2.0000      -0.399151       -10.8614
  14   2.0000      -0.383109       -10.4249
  15   2.0000      -0.337638        -9.1876
  16   2.0000      -0.326173        -8.8756
  17   2.0000      -0.315076        -8.5736
  18   2.0000      -0.250330        -6.8118
  19   2.0000      -0.231544        -6.3006
  20   0.0000      -0.006061        -0.1649
  21   0.0000       0.082044         2.2325
  22   0.0000       0.128114         3.4862
  23   0.0000       0.136616         3.7175
  24   0.0000       0.145453         3.9580

MULLIKEN ATOMIC CHARGES
-----------------------
   0 C :   -0.503803
   1 C :   -0.296952
   2 C :    0.337018
   3 O :   -0.543137
   4 N :   -0.433164
   5 H :    0.167774
   6 H :    0.162908
   7 H :    0.164593
   8 H :    0.165903
   9 H :    0.165460
  10 H :    0.317144
  11 H :    0.296258
Sum of atomic charges:    0.0000000

LOEWDIN ATOMIC CHARGES
----------------------
   0 C :   -0.400120
   1 C :   -0.250656
   2 C :    0.296153
   3 O :   -0.564240
   4 N :   -0.463784
   5 H :    0.158680
   6 H :    0.159458
   7 H :    0.158010
   8 H :    0.176754
   9 H :    0.176074
  10 H :    0.279001
  11 H :    0.274670

  Mayer bond orders larger than 0.100000
B(  0-C ,  1-C ) :   0.8958 B(  0-C ,  5-H ) :   0.9644 B(  0-C ,  6-H ) :   0.9731
B(  0-C ,  7-H ) :   0.9766 B(  1-C ,  2-C ) :   0.9518 B(  1-C ,  8-H ) :   0.9552
B(  1-C ,  9-H ) :   0.9618 B(  2-C ,  3-O ) :   1.8451 B(  2-C ,  4-N ) :   1.1621
B(  4-N , 10-H ) :   0.8922 B(  4-N , 11-H ) :   0.8933

Dispersion correction           -0.002476506
FINAL SINGLE POINT ENERGY      -248.487256931250

DIPOLE MOMENT
-------------

Method             : SCF
Type of density    : Electron Density
Multiplicity       :   1
Irrep              :   0
Energy             :  -248.4930751941832625 Eh
Relativity type    :
Basis              : AO
                                X                 Y                 Z
Electronic contribution:      4.821515022      -0.678049061      -0.252989271
Nuclear contribution   :     -5.711136328       2.766622979      -0.080373391
                        -----------------------------------------
Total Dipole Moment    :     -0.889621306       2.088573919      -0.333362662
                        -----------------------------------------
Magnitude (a.u.)       :      2.294492917
Magnitude (Debye)      :      5.832137508

Rotational constants in cm-1:             0.275820             0.131956             0.105435
Rotational constants in MHz :          8268.861156          3955.932960          3160.870257

                             ****ORCA TERMINATED NORMALLY****
TOTAL RUN TIME: 0 days 0 hours 0 minutes 12 seconds 518 msec
