                         Program Version 6.0.0  -   RELEASE  -
|  1> ! r2scan-3c def2/J RI DEFGRID2 scfconv6 printgap
|  2> %output
|  3>     printlevel normal
|  4> end
|  5> * xyz 0 1
|  6> C 2.1722668213 0.0615602447 -0.0012562138
|  7> O 0.9893092205 -0.3354914038 -0.6995150234
|  8> S -0.40210718 -0.069715517 0.0377960464
|  9> O -0.2793904191 -0.4703412168 1.422978569
| 10> O -1.380546323 -0.7753869753 -0.749551827
| 11> C -0.6486045989 1.6895755726 -0.0805740473
| 12> H 2.4208642637 1.0903260445 -0.260776956
| 13> H 2.9657976 -0.6104135198 -0.320870431
| 14> H 1.9999352685 -0.0401276274 1.0704291208
| 15> H -1.6552377766 1.8855796296 0.2605255337
| 16> H 0.0784572863 2.1698974726 0.5584286506
| 17> H -0.5289328616 1.9550734864 -1.1209030702
| 18> *
| 19>
| 20>                          ****END OF INPUT****

CARTESIAN COORDINATES (ANGSTROEM)
---------------------------------
  C      2.172267    0.061560   -0.001256
  O      0.989309   -0.335491   -0.699515
  S     -0.402107   -0.069716    0.037796
  O     -0.279390   -0.470341    1.422979
  O     -1.380546   -0.775387   -0.749552
  C     -0.648605    1.689576   -0.080574
  H      2.420864    1.090326   -0.260777
  H      2.965798   -0.610414   -0.320870
  H      1.999935   -0.040128    1.070429
  H     -1.655238    1.885580    0.260526
  H      0.078457    2.169897    0.558429
  H     -0.528933    1.955073   -1.120903

 Total Charge           Charge          ....    0
 Multiplicity           Mult            ....    1
 Number of Electrons    NEL             ....   58
 Basis Dimension        Dim             ....  167

ORBITAL ENERGIES
----------------

  NO   OCC          E(Eh)            E(eV)
   0   2.0000     -88.790772     -2416.1197
   1   2.0000     -19.015568      -517.4399
   2   2.0000     -18.948269      -515.6086
   3   2.0000     -18.946262      -515.5540
   4   2.0000     -10.106269      -275.0056
   5   2.0000     -10.086758      -274.4746
   6   2.0000      -8.057835      -219.2649
   7   2.0000      -6.005315      -163.4129
   8   2.0000      -6.001856      -163.3188
   9   2.0000      -6.001268      -163.3028
  10   2.0000      -1.119544       -30.4643
  11   2.0000      -1.018913       -27.7260
  12   2.0000      -0.976481       -26.5714
  13   2.0000      -0.764398       -20.8003
  14   2.0000      -0.708223       -19.2717
  15   2.0000      -0.583673       -15.8825
  16   2.0000      -0.517134       -14.0719
  17   2.0000      -0.478384       -13.0175
  18   2.0000      -0.473426       -12.8826
  19   2.0000      -0.444622       -12.0988
  20   2.0000      -0.434278       -11.8173
  21   2.0000      -0.427408       -11.6304
  22   2.0000      -0.403710       -10.9855
  23   2.0000      -0.356923        -9.7124
  24   2.0000      -0.326123        -8.8742
  25   2.0000      -0.302268        -8.2251
  26   2.0000      -0.292973        -7.9722
  27   2.0000      -0.288573        -7.8525
  28   2.0000      -0.270653        -7.3648
  29   0.0000       0.018155         0.4940
  30   0.0000       0.049093         1.3359
  31   0.0000       0.054536         1.4840
  32   0.0000       0.064038         1.7426
  33   0.0000       0.083512         2.2725

MULLIKEN ATOMIC CHARGES
-----------------------
   0 C :   -0.287363
   1 O :   -0.235076
   2 S :    0.951798
   3 O :   -0.533115
   4 O :   -0.500338
   5 C :   -0.461780
   6 H :    0.146267
   7 H :    0.163362
   8 H :    0.190119
   9 H :    0.196034
  10 H :    0.178649
  11 H :    0.191445
Sum of atomic charges:    0.0000000

LOEWDIN ATOMIC CHARGES
----------------------
   0 C :   -0.053806
   1 O :   -0.605256
   2 S :    0.807080
   3 O :   -0.465425
   4 O :   -0.427768
   5 C :   -0.346377
   6 H :    0.162929
   7 H :    0.183459
   8 H :    0.188512
   9 H :    0.191077
  10 H :    0.180317
  11 H :    0.185259

  Mayer bond orders larger than 0.100000
B(  0-C ,  1-O ) :   0.8008 B(  0-C ,  6-H ) :   0.9613 B(  0-C ,  7-H ) :   0.9637
B(  0-C ,  8-H ) :   0.9621 B(  1-O ,  2-S ) :   0.9086 B(  2-S ,  3-O ) :   1.6723
B(  2-S ,  4-O ) :   1.7958 B(  2-S ,  5-C ) :   0.9097 B(  5-C ,  9-H ) :   0.9279
B(  5-C , 10-H ) :   0.9273 B(  5-C , 11-H ) :   0.9301

Dispersion correction           -0.003134442
FINAL SINGLE POINT ENERGY      -703.551886379257

DIPOLE MOMENT
-------------

Method             : SCF
Type of density    : Electron Density
Multiplicity       :   1
Irrep              :   0
Energy             :  -703.5685135207147596 Eh
Relativity type    :
Basis              : AO
                                X                 Y                 Z
Electronic contribution:     -3.865045183      -4.402912892      -0.286140802
Nuclear contribution   :      4.955973970       6.030092500       0.173811450
                        -----------------------------------------
Total Dipole Moment    :      1.090928787       1.627179608      -0.112329352
                        -----------------------------------------
Magnitude (a.u.)       :      1.962258133
Magnitude (Debye)      :      4.987663797

Rotational constants in cm-1:             0.145929             0.089439             0.084552
Rotational constants in MHz :          4374.832503          2681.303726          2534.813665

                             ****ORCA TERMINATED NORMALLY****
TOTAL RUN TIME: 0 days 0 hours 0 minutes 15 seconds 357 msec
