                         Program Version 6.0.0  -   RELEASE  -
|  1> ! r2scan-3c def2/J RI DEFGRID2 scfconv6 printgap
|  2> %output
|  3>     printlevel normal
|  4> end
|  5> %cpcm
|  6>     smd true
|  7>     smdsolvent "water"
|  8> end
|  9> * xyz 0 1
| 10> C 2.1722668213 0.0615602447 -0.0012562138
| 11> O 0.9893092205 -0.3354914038 -0.6995150234
| 12> S -0.40210718 -0.069715517 0.0377960464
| 13> O -0.2793904191 -0.4703412168 1.422978569
| 14> O -1.380546323 -0.7753869753 -0.749551827
| 15> C -0.6486045989 1.6895755726 -0.0805740473
| 16> H 2.4208642637 1.0903260445 -0.260776956
| 17> H 2.9657976 -0.6104135198 -0.320870431
| 18> H 1.9999352685 -0.0401276274 1.0704291208
| 19> H -1.6552377766 1.8855796296 0.2605255337
| 20> H 0.0784572863 2.1698974726 0.5584286506
| 21> H -0.5289328616 1.9550734864 -1.1209030702
| 22> *
| 23>
| 24>                          ****END OF INPUT****

CARTESIAN COORDINATES (ANGSTROEM)
---------------------------------
  C      2.172267    0.061560   -0.001256
  O      0.989309   -0.335491   -0.699515
  S     -0.402107   -0.069716    0.037796
  O     -0.279390   -0.470341    1.422979
  O     -1.380546   -0.775387   -0.749552
  C     -0.648605    1.689576   -0.080574
  H      2.420864    1.090326   -0.260777
  H      2.965798   -0.610414   -0.320870
  H      1.999935   -0.040128    1.070429
  H     -1.655238    1.885580    0.260526
  H      0.078457    2.169897    0.558429
  H     -0.528933    1.955073   -1.120903

 Total Charge           Charge          ....    0
 Multiplicity           Mult            ....    1
 Number of Electrons    NEL             ....   58
 Basis Dimension        Dim             ....  167

ORBITAL ENERGIES
----------------

  NO   OCC          E(Eh)            E(eV)
   0   2.0000     -88.799122     -2416.3469
   1   2.0000     -19.014679      -517.4157
   2   2.0000     -18.962576      -515.9979
   3   2.0000     -18.961330      -515.9640
   4   2.0000     -10.084889      -274.4238
   5   2.0000     -10.066117      -273.9130
   6   2.0000      -8.066298      -219.4951
   7   2.0000      -6.013656      -163.6399
   8   2.0000      -6.010980      -163.5671
   9   2.0000      -6.009163      -163.5176
  10   2.0000      -1.127878       -30.6911
  11   2.0000      -1.023076       -27.8393
  12   2.0000      -0.992586       -27.0096
  13   2.0000      -0.752388       -20.4735
  14   2.0000      -0.694397       -18.8955
  15   2.0000      -0.576034       -15.6747
  16   2.0000      -0.513897       -13.9838
  17   2.0000      -0.480986       -13.0883
  18   2.0000      -0.473537       -12.8856
  19   2.0000      -0.431609       -11.7447
  20   2.0000      -0.423343       -11.5198
  21   2.0000      -0.407148       -11.0791
  22   2.0000      -0.402239       -10.9455
  23   2.0000      -0.353668        -9.6238
  24   2.0000      -0.336834        -9.1657
  25   2.0000      -0.308376        -8.3914
  26   2.0000      -0.300600        -8.1797
  27   2.0000      -0.292868        -7.9693
  28   2.0000      -0.287182        -7.8146
  29   0.0000       0.022400         0.6095
  30   0.0000       0.050294         1.3686
  31   0.0000       0.061839         1.6827
  32   0.0000       0.072039         1.9603
  33   0.0000       0.103571         2.8183

MULLIKEN ATOMIC CHARGES
-----------------------
   0 C :   -0.290014
   1 O :   -0.258455
   2 S :    0.942790
   3 O :   -0.584088
   4 O :   -0.568289
   5 C :   -0.456891
   6 H :    0.182263
   7 H :    0.185898
   8 H :    0.187376
   9 H :    0.221964
  10 H :    0.217691
  11 H :    0.219755
Sum of atomic charges:   -0.0000000

LOEWDIN ATOMIC CHARGES
----------------------
   0 C :   -0.042445
   1 O :   -0.617129
   2 S :    0.813713
   3 O :   -0.508376
   4 O :   -0.485477
   5 C :   -0.323642
   6 H :    0.180188
   7 H :    0.192837
   8 H :    0.190111
   9 H :    0.201665
  10 H :    0.199070
  11 H :    0.199486

  Mayer bond orders larger than 0.100000
B(  0-C ,  1-O ) :   0.7920 B(  0-C ,  6-H ) :   0.9513 B(  0-C ,  7-H ) :   0.9531
B(  0-C ,  8-H ) :   0.9558 B(  1-O ,  2-S ) :   0.9362 B(  2-S ,  3-O ) :   1.6320
B(  2-S ,  4-O ) :   1.7218 B(  2-S ,  5-C ) :   0.9622 B(  5-C ,  9-H ) :   0.9080
B(  5-C , 10-H ) :   0.9064 B(  5-C , 11-H ) :   0.9101

Dispersion correction           -0.003134442
FINAL SINGLE POINT ENERGY      -703.569305481182

DIPOLE MOMENT
-------------

Method             : SCF
Type of density    : Electron Density
Multiplicity       :   1
Irrep              :   0
Energy             :  -703.5859326226391204 Eh
Relativity type    :
Basis              : AO
                                X                 Y                 Z
Electronic contribution:     -3.487100973      -3.747767508      -0.324959665
Nuclear contribution   :      4.955973970       6.030092500       0.173811450
                        -----------------------------------------
Total Dipole Moment    :      1.468872997       2.282324993      -0.151148216
                        -----------------------------------------
Magnitude (a.u.)       :      2.718352633
Magnitude (Debye)      :      6.909503285

Rotational constants in cm-1:             0.145929             0.089439             0.084552
Rotational constants in MHz :          4374.832503          2681.303726          2534.813665

                             ****ORCA TERMINATED NORMALLY****
TOTAL RUN TIME: 0 days 0 hours 0 minutes 18 seconds 872 msec
