                         Program Version 6.0.0  -   RELEASE  -
|  1> ! pbe def2-sv(p) def2/J RI DEFGRID1 loosescf d4 GCP(DFT/SV(P)) printgap
|  2> %output
|  3>     printlevel normal
|  4> end
|  5> * xyz 0 1
|  6> C -2.3609008793 -1.0104284772 0.3821549705
|  7> C -1.0845224687 -0.25485957 0.8060900571
|  8> H -1.3004052489 0.2078021646 1.7781433965
|  9> C -0.6746539999 0.8515728549 -0.1831391
| 10> H -0.667897652 0.4601678824 -1.2065714353
| 11> C 0.7539660055 1.295136645 0.1883090194
| 12> H 0.7842060077 1.5163492999 1.263564876
| 13> C 1.7266886859 0.13450344 -0.1058334768
| 14> H 2.0479553655 0.181023442 -1.1517482898
| 15> C 0.9952943494 -1.2193996949 0.0772761292
| 16> H 1.7102632059 -1.9576258697 0.4770140262
| 17> O -0.006739559 -1.1612272883 1.0560627635
| 18> O 0.5225740302 -1.6143761964 -1.1714885908
| 19> O 2.9059375441 0.2079344198 0.647183512
| 20> O 1.1232342175 2.4984724718 -0.4274705205
| 21> O -1.5966284369 1.907797322 -0.1839313717
| 22> O -2.2565338627 -1.6907899342 -0.8446857135
| 23> H -3.1867418448 -0.2925766871 0.368831033
| 24> H -2.5596395906 -1.7782360777 1.1333366501
| 25> H -0.175292293 -2.2863969328 -1.063655232
| 26> H 2.6992009768 0.1948139306 1.593215883
| 27> H 1.121458235 2.3965156622 -1.3897949072
| 28> H -1.4266342251 2.4998165121 0.5627036042
| 29> H -2.3528155586 -1.0632211211 -1.5736718988
| 30> *
| 31>
| 32>                          ****END OF INPUT****

CARTESIAN COORDINATES (ANGSTROEM)
---------------------------------
  C     -2.360901   -1.010428    0.382155
  C     -1.084522   -0.254860    0.806090
  H     -1.300405    0.207802    1.778143
  C     -0.674654    0.851573   -0.183139
  H     -0.667898    0.460168   -1.206571
  C      0.753966    1.295137    0.188309
  H      0.784206    1.516349    1.263565
  C      1.726689    0.134503   -0.105833
  H      2.047955    0.181023   -1.151748
  C      0.995294   -1.219400    0.077276
  H      1.710263   -1.957626    0.477014
  O     -0.006740   -1.161227    1.056063
  O      0.522574   -1.614376   -1.171489
  O      2.905938    0.207934    0.647184
  O      1.123234    2.498472   -0.427471
  O     -1.596628    1.907797   -0.183931
  O     -2.256534   -1.690790   -0.844686
  H     -3.186742   -0.292577    0.368831
  H     -2.559640   -1.778236    1.133337
  H     -0.175292   -2.286397   -1.063655
  H      2.699201    0.194814    1.593216
  H      1.121458    2.396516   -1.389795
  H     -1.426634    2.499817    0.562704
  H     -2.352816   -1.063221   -1.573672

 Total Charge           Charge          ....    0
 Multiplicity           Mult            ....    1
 Number of Electrons    NEL             ....   96
 Basis Dimension        Dim             ....  192

ORBITAL ENERGIES
----------------

  NO   OCC          E(Eh)            E(eV)
   0   2.0000     -18.772651      -510.8298
   1   2.0000     -18.770050      -510.7590
   2   2.0000     -18.761050      -510.5141
   3   2.0000     -18.754755      -510.3428
   4   2.0000     -18.754418      -510.3337
   5   2.0000     -18.750795      -510.2351
   6   2.0000      -9.981758      -271.6174
   7   2.0000      -9.949563      -270.7414
   8   2.0000      -9.949424      -270.7376
   9   2.0000      -9.948443      -270.7109
  10   2.0000      -9.940913      -270.5060
  11   2.0000      -9.940206      -270.4868
  12   2.0000      -0.982712       -26.7409
  13   2.0000      -0.948669       -25.8146
  14   2.0000      -0.941292       -25.6139
  15   2.0000      -0.931879       -25.3577
  16   2.0000      -0.920067       -25.0363
  17   2.0000      -0.907313       -24.6893
  18   2.0000      -0.708142       -19.2695
  19   2.0000      -0.692035       -18.8312
  20   2.0000      -0.627940       -17.0871
  21   2.0000      -0.591792       -16.1035
  22   2.0000      -0.575260       -15.6536
  23   2.0000      -0.534527       -14.5452
  24   2.0000      -0.506870       -13.7926
  25   2.0000      -0.493885       -13.4393
  26   2.0000      -0.471177       -12.8214
  27   2.0000      -0.457146       -12.4396
  28   2.0000      -0.445042       -12.1102
  29   2.0000      -0.431558       -11.7433
  30   2.0000      -0.418007       -11.3745
  31   2.0000      -0.408904       -11.1268
  32   2.0000      -0.395998       -10.7757
  33   2.0000      -0.378097       -10.2885
  34   2.0000      -0.360678        -9.8146
  35   2.0000      -0.356467        -9.6999
  36   2.0000      -0.337224        -9.1763
  37   2.0000      -0.319357        -8.6902
  38   2.0000      -0.303703        -8.2642
  39   2.0000      -0.289968        -7.8904
  40   2.0000      -0.284686        -7.7467
  41   2.0000      -0.284293        -7.7360
  42   2.0000      -0.260986        -7.1018
  43   2.0000      -0.244312        -6.6481
  44   2.0000      -0.242182        -6.5901
  45   2.0000      -0.230688        -6.2773
  46   2.0000      -0.207474        -5.6457
  47   2.0000      -0.205012        -5.5787
  48   0.0000       0.012809         0.3486
  49   0.0000       0.020157         0.5485
  50   0.0000       0.028613         0.7786
  51   0.0000       0.039520         1.0754
  52   0.0000       0.054458         1.4819

MULLIKEN ATOMIC CHARGES
-----------------------
   0 C :    0.070543
   1 C :    0.056342
   2 H :    0.050992
   3 C :   -0.005032
   4 H :    0.053596
   5 C :    0.044678
   6 H :    0.037572
   7 C :    0.099270
   8 H :    0.068896
   9 C :    0.148178
  10 H :    0.063280
  11 O :   -0.318086
  12 O :   -0.414821
  13 O :   -0.412013
  14 O :   -0.403070
  15 O :   -0.403020
  16 O :   -0.437004
  17 H :    0.085431
  18 H :    0.094403
  19 H :    0.303629
  20 H :    0.298107
  21 H :    0.302029
  22 H :    0.302663
  23 H :    0.313438
Sum of atomic charges:   -0.0000000

LOEWDIN ATOMIC CHARGES
----------------------
   0 C :   -0.131283
   1 C :   -0.077612
   2 H :    0.111487
   3 C :   -0.097952
   4 H :    0.106806
   5 C :   -0.079323
   6 H :    0.108517
   7 C :   -0.083164
   8 H :    0.121859
   9 C :   -0.010704
  10 H :    0.096492
  11 O :   -0.151229
  12 O :   -0.321481
  13 O :   -0.307220
  14 O :   -0.307209
  15 O :   -0.309943
  16 O :   -0.319536
  17 H :    0.109950
  18 H :    0.118623
  19 H :    0.274147
  20 H :    0.283519
  21 H :    0.287444
  22 H :    0.287154
  23 H :    0.290661

  Mayer bond orders larger than 0.100000
B(  0-C ,  1-C ) :   1.0289 B(  0-C , 16-O ) :   1.0736 B(  0-C , 17-H ) :   0.9147
B(  0-C , 18-H ) :   0.9189 B(  1-C ,  2-H ) :   0.8717 B(  1-C ,  3-C ) :   0.9495
B(  1-C , 11-O ) :   0.9638 B(  3-C ,  4-H ) :   0.8563 B(  3-C ,  5-C ) :   1.0199
B(  3-C , 15-O ) :   1.0648 B(  5-C ,  6-H ) :   0.8481 B(  5-C ,  7-C ) :   0.9975
B(  5-C , 14-O ) :   1.0800 B(  7-C ,  8-H ) :   0.8689 B(  7-C ,  9-C ) :   0.9688
B(  7-C , 13-O ) :   1.0544 B(  9-C , 10-H ) :   0.8957 B(  9-C , 11-O ) :   1.0699
B(  9-C , 12-O ) :   1.0859 B( 12-O , 19-H ) :   0.7982 B( 13-O , 20-H ) :   0.8490
B( 14-O , 21-H ) :   0.8487 B( 15-O , 22-H ) :   0.8448 B( 16-O , 23-H ) :   0.8391

Dispersion correction           -0.025092056
FINAL SINGLE POINT ENERGY      -685.691107332599

DIPOLE MOMENT
-------------

Method             : SCF
Type of density    : Electron Density
Multiplicity       :   1
Irrep              :   0
Energy             :  -685.8223368765314945 Eh
Relativity type    :
Basis              : AO
                                X                 Y                 Z
Electronic contribution:      2.362598938       0.122212240      -0.420540335
Nuclear contribution   :     -3.091662532       0.075772493       0.728744057
                        -----------------------------------------
Total Dipole Moment    :     -0.729063594       0.197984733       0.308203721
                        -----------------------------------------
Magnitude (a.u.)       :      0.815917406
Magnitude (Debye)      :      2.073897230

Rotational constants in cm-1:             0.042319             0.028045             0.020454
Rotational constants in MHz :          1268.687291           840.766688           613.191499

                             ****ORCA TERMINATED NORMALLY****
TOTAL RUN TIME: 0 days 0 hours 0 minutes 12 seconds 140 msec
