                         Program Version 6.0.0  -   RELEASE  -
|  1> ! pbe def2-sv(p) def2/J RI DEFGRID1 loosescf d4 GCP(DFT/SV(P)) printgap
|  2> %output
|  3>     printlevel normal
|  4> end
|  5> * xyz 0 1
|  6> C 2.3100489783 -0.181883204 -0.4215627647
|  7> C 1.0825929468 0.1034963373 0.4415076733
|  8> C 0.2691893193 1.2617407731 -0.1558121715
|  9> C -1.178791242 1.2054984282 0.3183455797
| 10> C -1.8817249795 -0.0327135692 -0.2527800973
| 11> C -0.8935012813 -1.1859965045 -0.4641496283
| 12> C 0.2028328337 -1.150074293 0.5948216076
| 13> H 2.8939147435 0.7252420312 -0.5616461673
| 14> H 2.9448433053 -0.9297106527 0.0484907068
| 15> H 2.0103117887 -0.5512188296 -1.3999005496
| 16> H 1.4307328329 0.4009273488 1.4370260488
| 17> H 0.722765675 2.2125601803 0.1300744026
| 18> H 0.2882332247 1.2040990606 -1.2457918054
| 19> H -1.1897411071 1.173631091 1.4095784861
| 20> H -1.710697809 2.1077878529 0.0121886518
| 21> H -2.6735374137 -0.3441637056 0.430987703
| 22> H -2.3525759103 0.2145628944 -1.2060373141
| 23> H -1.4234548391 -2.1391100326 -0.4227865474
| 24> H -0.4364170132 -1.1106718084 -1.452059079
| 25> H -0.2646756322 -1.1596541188 1.581256408
| 26> H 0.8251101233 -2.0434284123 0.51919604
| 27> *
| 28>
| 29>                          ****END OF INPUT****

CARTESIAN COORDINATES (ANGSTROEM)
---------------------------------
  C      2.310049   -0.181883   -0.421563
  C      1.082593    0.103496    0.441508
  C      0.269189    1.261741   -0.155812
  C     -1.178791    1.205498    0.318346
  C     -1.881725   -0.032714   -0.252780
  C     -0.893501   -1.185997   -0.464150
  C      0.202833   -1.150074    0.594822
  H      2.893915    0.725242   -0.561646
  H      2.944843   -0.929711    0.048491
  H      2.010312   -0.551219   -1.399901
  H      1.430733    0.400927    1.437026
  H      0.722766    2.212560    0.130074
  H      0.288233    1.204099   -1.245792
  H     -1.189741    1.173631    1.409578
  H     -1.710698    2.107788    0.012189
  H     -2.673537   -0.344164    0.430988
  H     -2.352576    0.214563   -1.206037
  H     -1.423455   -2.139110   -0.422787
  H     -0.436417   -1.110672   -1.452059
  H     -0.264676   -1.159654    1.581256
  H      0.825110   -2.043428    0.519196

 Total Charge           Charge          ....    0
 Multiplicity           Mult            ....    1
 Number of Electrons    NEL             ....   56
 Basis Dimension        Dim             ....  126

ORBITAL ENERGIES
----------------

  NO   OCC          E(Eh)            E(eV)
   0   2.0000      -9.886539      -269.0264
   1   2.0000      -9.876249      -268.7464
   2   2.0000      -9.876165      -268.7441
   3   2.0000      -9.875961      -268.7386
   4   2.0000      -9.874916      -268.7101
   5   2.0000      -9.874553      -268.7002
   6   2.0000      -9.869001      -268.5492
   7   2.0000      -0.753176       -20.4950
   8   2.0000      -0.680588       -18.5197
   9   2.0000      -0.657543       -17.8926
  10   2.0000      -0.598394       -16.2831
  11   2.0000      -0.547533       -14.8991
  12   2.0000      -0.516967       -14.0674
  13   2.0000      -0.457782       -12.4569
  14   2.0000      -0.437414       -11.9026
  15   2.0000      -0.424009       -11.5379
  16   2.0000      -0.389103       -10.5880
  17   2.0000      -0.366582        -9.9752
  18   2.0000      -0.352588        -9.5944
  19   2.0000      -0.342390        -9.3169
  20   2.0000      -0.325245        -8.8504
  21   2.0000      -0.315507        -8.5854
  22   2.0000      -0.308676        -8.3995
  23   2.0000      -0.303364        -8.2549
  24   2.0000      -0.292216        -7.9516
  25   2.0000      -0.254992        -6.9387
  26   2.0000      -0.253545        -6.8993
  27   2.0000      -0.252394        -6.8680
  28   0.0000       0.029264         0.7963
  29   0.0000       0.048185         1.3112
  30   0.0000       0.062557         1.7023
  31   0.0000       0.080172         2.1816
  32   0.0000       0.091887         2.5004

MULLIKEN ATOMIC CHARGES
-----------------------
   0 C :   -0.240941
   1 C :   -0.179141
   2 C :   -0.129174
   3 C :   -0.141990
   4 C :   -0.161997
   5 C :   -0.158273
   6 C :   -0.119316
   7 H :    0.097345
   8 H :    0.097395
   9 H :    0.094634
  10 H :    0.064725
  11 H :    0.081063
  12 H :    0.068818
  13 H :    0.073466
  14 H :    0.082417
  15 H :    0.079886
  16 H :    0.079831
  17 H :    0.083672
  18 H :    0.077202
  19 H :    0.073260
  20 H :    0.077118
Sum of atomic charges:    0.0000000

LOEWDIN ATOMIC CHARGES
----------------------
   0 C :   -0.329273
   1 C :   -0.152198
   2 C :   -0.220448
   3 C :   -0.229373
   4 C :   -0.229259
   5 C :   -0.229701
   6 C :   -0.220182
   7 H :    0.116843
   8 H :    0.115619
   9 H :    0.114675
  10 H :    0.113458
  11 H :    0.116679
  12 H :    0.112891
  13 H :    0.114010
  14 H :    0.116649
  15 H :    0.115014
  16 H :    0.115297
  17 H :    0.117323
  18 H :    0.112694
  19 H :    0.114051
  20 H :    0.115232

  Mayer bond orders larger than 0.100000
B(  0-C ,  1-C ) :   1.1209 B(  0-C ,  7-H ) :   0.9494 B(  0-C ,  8-H ) :   0.9475
B(  0-C ,  9-H ) :   0.9461 B(  1-C ,  2-C ) :   1.1007 B(  1-C ,  6-C ) :   1.0869
B(  1-C , 10-H ) :   0.8977 B(  2-C ,  3-C ) :   1.1865 B(  2-C , 11-H ) :   0.9162
B(  2-C , 12-H ) :   0.9042 B(  3-C ,  4-C ) :   1.1401 B(  3-C , 13-H ) :   0.9071
B(  3-C , 14-H ) :   0.9223 B(  4-C ,  5-C ) :   1.1431 B(  4-C , 15-H ) :   0.9227
B(  4-C , 16-H ) :   0.9220 B(  5-C ,  6-C ) :   1.1830 B(  5-C , 17-H ) :   0.9210
B(  5-C , 18-H ) :   0.9057 B(  6-C , 19-H ) :   0.9064 B(  6-C , 20-H ) :   0.9203

Dispersion correction           -0.018681724
FINAL SINGLE POINT ENERGY      -274.481563146134

DIPOLE MOMENT
-------------

Method             : SCF
Type of density    : Electron Density
Multiplicity       :   1
Irrep              :   0
Energy             :  -274.5526986907755713 Eh
Relativity type    :
Basis              : AO
                                X                 Y                 Z
Electronic contribution:     -1.011298206       0.236992201       0.704271423
Nuclear contribution   :      0.998967233      -0.224358971      -0.674936083
                        -----------------------------------------
Total Dipole Moment    :     -0.012330973       0.012633230       0.029335339
                        -----------------------------------------
Magnitude (a.u.)       :      0.034237604
Magnitude (Debye)      :      0.087025073

Rotational constants in cm-1:             0.136712             0.076202             0.058501
Rotational constants in MHz :          4098.526594          2284.487617          1753.827898

                             ****ORCA TERMINATED NORMALLY****
TOTAL RUN TIME: 0 days 0 hours 0 minutes 9 seconds 168 msec
