                         Program Version 6.0.0  -   RELEASE  -
|  1> ! r2scan-3c def2/J RI DEFGRID2 scfconv6 printgap
|  2> %output
|  3>     printlevel normal
|  4> end
|  5> * xyz 0 1
|  6> C 1.688913129 0.3956349853 0.6279780301
|  7> C 0.8958470476 0.3602796921 -0.6734326871
|  8> C -0.5674291349 -0.0598451038 -0.4840266663
|  9> H -1.0544059885 -0.0233881747 -1.4748323717
| 10> C -1.3293132662 0.8599085671 0.4695676423
| 11> O -0.570264496 -1.4036509781 -0.0262132278
| 12> H 2.7435297234 0.5500789839 0.4153537652
| 13> H 1.5747774007 -0.5499402603 1.1520488259
| 14> H 1.3479692859 1.200873727 1.2726147559
| 15> H 1.3556469129 -0.3626250421 -1.3501507873
| 16> H 0.9162442843 1.3391827906 -1.15421245
| 17> H -0.954586805 0.7411170427 1.4823805762
| 18> H -1.2060304215 1.8941242279 0.162393063
| 19> H -2.3904285015 0.6202013451 0.4606929473
| 20> H -1.4792006546 -1.6701807768 0.1637418329
| 21> *
| 22>
| 23>                          ****END OF INPUT****

CARTESIAN COORDINATES (ANGSTROEM)
---------------------------------
  C      1.688913    0.395635    0.627978
  C      0.895847    0.360280   -0.673433
  C     -0.567429   -0.059845   -0.484027
  H     -1.054406   -0.023388   -1.474832
  C     -1.329313    0.859909    0.469568
  O     -0.570264   -1.403651   -0.026213
  H      2.743530    0.550079    0.415354
  H      1.574777   -0.549940    1.152049
  H      1.347969    1.200874    1.272615
  H      1.355647   -0.362625   -1.350151
  H      0.916244    1.339183   -1.154212
  H     -0.954587    0.741117    1.482381
  H     -1.206030    1.894124    0.162393
  H     -2.390429    0.620201    0.460693
  H     -1.479201   -1.670181    0.163742

 Total Charge           Charge          ....    0
 Multiplicity           Mult            ....    1
 Number of Electrons    NEL             ....   42
 Basis Dimension        Dim             ....  150

ORBITAL ENERGIES
----------------

  NO   OCC          E(Eh)            E(eV)
   0   2.0000     -18.944147      -515.4965
   1   2.0000     -10.079789      -274.2850
   2   2.0000     -10.022503      -272.7262
   3   2.0000     -10.020172      -272.6628
   4   2.0000     -10.010015      -272.3863
   5   2.0000      -0.982310       -26.7300
   6   2.0000      -0.751182       -20.4407
   7   2.0000      -0.686970       -18.6934
   8   2.0000      -0.613358       -16.6903
   9   2.0000      -0.533451       -14.5159
  10   2.0000      -0.474447       -12.9104
  11   2.0000      -0.432043       -11.7565
  12   2.0000      -0.402425       -10.9505
  13   2.0000      -0.389981       -10.6119
  14   2.0000      -0.360348        -9.8056
  15   2.0000      -0.353555        -9.6207
  16   2.0000      -0.328614        -8.9420
  17   2.0000      -0.311332        -8.4718
  18   2.0000      -0.302210        -8.2236
  19   2.0000      -0.280964        -7.6454
  20   2.0000      -0.232968        -6.3394
  21   0.0000       0.061409         1.6710
  22   0.0000       0.108763         2.9596
  23   0.0000       0.121234         3.2989
  24   0.0000       0.131373         3.5748
  25   0.0000       0.148840         4.0501

MULLIKEN ATOMIC CHARGES
-----------------------
   0 C :   -0.517799
   1 C :   -0.222457
   2 C :    0.060349
   3 H :    0.132055
   4 C :   -0.508597
   5 O :   -0.432575
   6 H :    0.144804
   7 H :    0.175509
   8 H :    0.145681
   9 H :    0.146800
  10 H :    0.133157
  11 H :    0.169748
  12 H :    0.148854
  13 H :    0.138614
  14 H :    0.285855
Sum of atomic charges:   -0.0000000

LOEWDIN ATOMIC CHARGES
----------------------
   0 C :   -0.421714
   1 C :   -0.284377
   2 C :    0.043801
   3 H :    0.160063
   4 C :   -0.404192
   5 O :   -0.621046
   6 H :    0.150651
   7 H :    0.164349
   8 H :    0.148902
   9 H :    0.164454
  10 H :    0.156523
  11 H :    0.162372
  12 H :    0.160500
  13 H :    0.151339
  14 H :    0.268376

  Mayer bond orders larger than 0.100000
B(  0-C ,  1-C ) :   0.8842 B(  0-C ,  6-H ) :   0.9700 B(  0-C ,  7-H ) :   0.9791
B(  0-C ,  8-H ) :   0.9784 B(  1-C ,  2-C ) :   0.9514 B(  1-C ,  9-H ) :   0.9701
B(  1-C , 10-H ) :   0.9706 B(  2-C ,  3-H ) :   0.9589 B(  2-C ,  4-C ) :   0.9105
B(  2-C ,  5-O ) :   0.8842 B(  4-C , 11-H ) :   0.9791 B(  4-C , 12-H ) :   0.9706
B(  4-C , 13-H ) :   0.9654 B(  5-O , 14-H ) :   0.9028

Dispersion correction           -0.003242258
FINAL SINGLE POINT ENERGY      -233.603284971825

DIPOLE MOMENT
-------------

Method             : SCF
Type of density    : Electron Density
Multiplicity       :   1
Irrep              :   0
Energy             :  -233.6082583496555571 Eh
Relativity type    :
Basis              : AO
                                X                 Y                 Z
Electronic contribution:     -1.258790358      -3.151819771      -1.111590406
Nuclear contribution   :      0.792255336       3.487346797       1.059772141
                        -----------------------------------------
Total Dipole Moment    :     -0.466535022       0.335527026      -0.051818265
                        -----------------------------------------
Magnitude (a.u.)       :      0.576990853
Magnitude (Debye)      :      1.466594197

Rotational constants in cm-1:             0.214636             0.131185             0.107132
Rotational constants in MHz :          6434.623374          3932.840945          3211.744511

                             ****ORCA TERMINATED NORMALLY****
TOTAL RUN TIME: 0 days 0 hours 0 minutes 15 seconds 438 msec
