                         Program Version 6.0.0  -   RELEASE  -
|  1> ! r2scan-3c def2/J RI DEFGRID2 scfconv6 printgap
|  2> %output
|  3>     printlevel normal
|  4> end
|  5> %cpcm
|  6>     smd true
|  7>     smdsolvent "water"
|  8> end
|  9> * xyz 0 1
| 10> C 1.688913129 0.3956349853 0.6279780301
| 11> C 0.8958470476 0.3602796921 -0.6734326871
| 12> C -0.5674291349 -0.0598451038 -0.4840266663
| 13> H -1.0544059885 -0.0233881747 -1.4748323717
| 14> C -1.3293132662 0.8599085671 0.4695676423
| 15> O -0.570264496 -1.4036509781 -0.0262132278
| 16> H 2.7435297234 0.5500789839 0.4153537652
| 17> H 1.5747774007 -0.5499402603 1.1520488259
| 18> H 1.3479692859 1.200873727 1.2726147559
| 19> H 1.3556469129 -0.3626250421 -1.3501507873
| 20> H 0.9162442843 1.3391827906 -1.15421245
| 21> H -0.954586805 0.7411170427 1.4823805762
| 22> H -1.2060304215 1.8941242279 0.162393063
| 23> H -2.3904285015 0.6202013451 0.4606929473
| 24> H -1.4792006546 -1.6701807768 0.1637418329
| 25> *
| 26>
| 27>                          ****END OF INPUT****

CARTESIAN COORDINATES (ANGSTROEM)
---------------------------------
  C      1.688913    0.395635    0.627978
  C      0.895847    0.360280   -0.673433
  C     -0.567429   -0.059845   -0.484027
  H     -1.054406   -0.023388   -1.474832
  C     -1.329313    0.859909    0.469568
  O     -0.570264   -1.403651   -0.026213
  H      2.743530    0.550079    0.415354
  H      1.574777   -0.549940    1.152049
  H      1.347969    1.200874    1.272615
  H      1.355647   -0.362625   -1.350151
  H      0.916244    1.339183   -1.154212
  H     -0.954587    0.741117    1.482381
  H     -1.206030    1.894124    0.162393
  H     -2.390429    0.620201    0.460693
  H     -1.479201   -1.670181    0.163742

 Total Charge           Charge          ....    0
 Multiplicity           Mult            ....    1
 Number of Electrons    NEL             ....   42
 Basis Dimension        Dim             ....  150

ORBITAL ENERGIES
----------------

  NO   OCC          E(Eh)            E(eV)
   0   2.0000     -18.947321      -515.5828
   1   2.0000     -10.074731      -274.1474
   2   2.0000     -10.017769      -272.5974
   3   2.0000     -10.009123      -272.3621
   4   2.0000     -10.007738      -272.3244
   5   2.0000      -0.984356       -26.7857
   6   2.0000      -0.746702       -20.3188
   7   2.0000      -0.680348       -18.5132
   8   2.0000      -0.608790       -16.5660
   9   2.0000      -0.530155       -14.4263
  10   2.0000      -0.470477       -12.8023
  11   2.0000      -0.426502       -11.6057
  12   2.0000      -0.399006       -10.8575
  13   2.0000      -0.387513       -10.5448
  14   2.0000      -0.353761        -9.6263
  15   2.0000      -0.345454        -9.4003
  16   2.0000      -0.327778        -8.9193
  17   2.0000      -0.309787        -8.4297
  18   2.0000      -0.298818        -8.1313
  19   2.0000      -0.278492        -7.5782
  20   2.0000      -0.236479        -6.4349
  21   0.0000       0.077376         2.1055
  22   0.0000       0.118309         3.2194
  23   0.0000       0.125932         3.4268
  24   0.0000       0.139766         3.8032
  25   0.0000       0.155909         4.2425

MULLIKEN ATOMIC CHARGES
-----------------------
   0 C :   -0.543354
   1 C :   -0.241583
   2 C :    0.071972
   3 H :    0.143377
   4 C :   -0.538483
   5 O :   -0.518673
   6 H :    0.158396
   7 H :    0.163044
   8 H :    0.162691
   9 H :    0.151954
  10 H :    0.153055
  11 H :    0.170303
  12 H :    0.165026
  13 H :    0.161381
  14 H :    0.340894
Sum of atomic charges:   -0.0000000

LOEWDIN ATOMIC CHARGES
----------------------
   0 C :   -0.429443
   1 C :   -0.288458
   2 C :    0.046052
   3 H :    0.166601
   4 C :   -0.406109
   5 O :   -0.656934
   6 H :    0.154324
   7 H :    0.158171
   8 H :    0.154531
   9 H :    0.163067
  10 H :    0.164052
  11 H :    0.162257
  12 H :    0.165982
  13 H :    0.159315
  14 H :    0.286591

  Mayer bond orders larger than 0.100000
B(  0-C ,  1-C ) :   0.8762 B(  0-C ,  6-H ) :   0.9677 B(  0-C ,  7-H ) :   0.9806
B(  0-C ,  8-H ) :   0.9741 B(  1-C ,  2-C ) :   0.9407 B(  1-C ,  9-H ) :   0.9745
B(  1-C , 10-H ) :   0.9659 B(  2-C ,  3-H ) :   0.9566 B(  2-C ,  4-C ) :   0.9225
B(  2-C ,  5-O ) :   0.8721 B(  4-C , 11-H ) :   0.9738 B(  4-C , 12-H ) :   0.9671
B(  4-C , 13-H ) :   0.9614 B(  5-O , 14-H ) :   0.8773

Dispersion correction           -0.003242258
FINAL SINGLE POINT ENERGY      -233.609341548938

DIPOLE MOMENT
-------------

Method             : SCF
Type of density    : Electron Density
Multiplicity       :   1
Irrep              :   0
Energy             :  -233.6143149267692252 Eh
Relativity type    :
Basis              : AO
                                X                 Y                 Z
Electronic contribution:     -1.476422154      -2.955611965      -1.159667437
Nuclear contribution   :      0.792255336       3.487346797       1.059772141
                        -----------------------------------------
Total Dipole Moment    :     -0.684166818       0.531734832      -0.099895296
                        -----------------------------------------
Magnitude (a.u.)       :      0.872241501
Magnitude (Debye)      :      2.217061704

Rotational constants in cm-1:             0.214636             0.131185             0.107132
Rotational constants in MHz :          6434.623374          3932.840945          3211.744511

                             ****ORCA TERMINATED NORMALLY****
TOTAL RUN TIME: 0 days 0 hours 0 minutes 17 seconds 216 msec
