                         Program Version 6.0.0  -   RELEASE  -
|  1> ! pbe def2-sv(p) def2/J RI DEFGRID1 loosescf d4 GCP(DFT/SV(P)) printgap
|  2> %output
|  3>     printlevel normal
|  4> end
|  5> * xyz 0 1
|  6> C -1.7383849581 -1.2635630153 -0.1399517987
|  7> C -1.1169575769 2.5051e-06 0.4146765531
|  8> C -1.7383853721 1.2635618074 -0.1399530458
|  9> Br 0.8485921604 -3.81e-08 -0.018363114
| 10> H -1.6680882397 -1.2808561925 -1.2254672678
| 11> H -1.2443893089 -2.1484328466 0.2547513986
| 12> H -2.7883405416 -1.2955796204 0.1427743762
| 13> H -1.1302768837 3.44841e-05 1.5057287531
| 14> H -1.6680858396 1.2807765542 -1.225460317
| 15> H -1.2444138117 2.1484797019 0.254695103
| 16> H -2.7883469349 1.2955654852 0.1427411403
| 17> *
| 18>
| 19>                          ****END OF INPUT****

CARTESIAN COORDINATES (ANGSTROEM)
---------------------------------
  C     -1.738385   -1.263563   -0.139952
  C     -1.116958    0.000003    0.414677
  C     -1.738385    1.263562   -0.139953
  Br     0.848592   -0.000000   -0.018363
  H     -1.668088   -1.280856   -1.225467
  H     -1.244389   -2.148433    0.254751
  H     -2.788341   -1.295580    0.142774
  H     -1.130277    0.000034    1.505729
  H     -1.668086    1.280777   -1.225460
  H     -1.244414    2.148480    0.254695
  H     -2.788347    1.295565    0.142741

 Total Charge           Charge          ....    0
 Multiplicity           Mult            ....    1
 Number of Electrons    NEL             ....   60
 Basis Dimension        Dim             ....   88

ORBITAL ENERGIES
----------------

  NO   OCC          E(Eh)            E(eV)
   0   2.0000    -480.913489    -13086.3213
   1   2.0000     -61.755758     -1680.4596
   2   2.0000     -55.686287     -1515.3009
   3   2.0000     -55.683362     -1515.2213
   4   2.0000     -55.683228     -1515.2177
   5   2.0000      -9.954343      -270.8714
   6   2.0000      -9.890942      -269.1462
   7   2.0000      -9.890929      -269.1458
   8   2.0000      -8.380807      -228.0533
   9   2.0000      -6.262366      -170.4077
  10   2.0000      -6.248577      -170.0324
  11   2.0000      -6.248536      -170.0313
  12   2.0000      -2.463512       -67.0356
  13   2.0000      -2.460186       -66.9451
  14   2.0000      -2.460155       -66.9442
  15   2.0000      -2.449802       -66.6625
  16   2.0000      -2.449794       -66.6623
  17   2.0000      -0.751582       -20.4516
  18   2.0000      -0.663070       -18.0431
  19   2.0000      -0.630247       -17.1499
  20   2.0000      -0.522696       -14.2233
  21   2.0000      -0.427152       -11.6234
  22   2.0000      -0.407636       -11.0923
  23   2.0000      -0.382271       -10.4021
  24   2.0000      -0.357058        -9.7160
  25   2.0000      -0.324053        -8.8179
  26   2.0000      -0.321513        -8.7488
  27   2.0000      -0.300869        -8.1871
  28   2.0000      -0.230593        -6.2747
  29   2.0000      -0.230383        -6.2690
  30   0.0000      -0.033994        -0.9250
  31   0.0000       0.034879         0.9491
  32   0.0000       0.074441         2.0256
  33   0.0000       0.084754         2.3063
  34   0.0000       0.097292         2.6474

MULLIKEN ATOMIC CHARGES
-----------------------
   0 C :   -0.221944
   1 C :   -0.257278
   2 C :   -0.221942
   3 Br:   -0.127430
   4 H :    0.115098
   5 H :    0.122274
   6 H :    0.110345
   7 H :    0.133164
   8 H :    0.115091
   9 H :    0.122277
  10 H :    0.110343
Sum of atomic charges:   -0.0000000

LOEWDIN ATOMIC CHARGES
----------------------
   0 C :   -0.345861
   1 C :   -0.183004
   2 C :   -0.345863
   3 Br:   -0.014840
   4 H :    0.126349
   5 H :    0.127312
   6 H :    0.127052
   7 H :    0.128145
   8 H :    0.126347
   9 H :    0.127311
  10 H :    0.127052

  Mayer bond orders larger than 0.100000
B(  0-C ,  1-C ) :   1.0973 B(  0-C ,  4-H ) :   0.9477 B(  0-C ,  5-H ) :   0.9472
B(  0-C ,  6-H ) :   0.9333 B(  1-C ,  2-C ) :   1.0973 B(  1-C ,  3-Br) :   1.0131
B(  1-C ,  7-H ) :   0.9125 B(  2-C ,  8-H ) :   0.9477 B(  2-C ,  9-H ) :   0.9472
B(  2-C , 10-H ) :   0.9333

Dispersion correction           -0.007717773
FINAL SINGLE POINT ENERGY     -2691.678904641412

DIPOLE MOMENT
-------------

Method             : SCF
Type of density    : Electron Density
Multiplicity       :   1
Irrep              :   0
Energy             : -2691.7202299147515987 Eh
Relativity type    :
Basis              : AO
                                X                 Y                 Z
Electronic contribution:     18.806352152       0.000004570       0.106250705
Nuclear contribution   :    -19.636463331      -0.000011312       0.029554980
                        -----------------------------------------
Total Dipole Moment    :     -0.830111179      -0.000006742       0.135805685
                        -----------------------------------------
Magnitude (a.u.)       :      0.841146690
Magnitude (Debye)      :      2.138024975

Rotational constants in cm-1:             0.270165             0.094252             0.074870
Rotational constants in MHz :          8099.342527          2825.614323          2244.546465

                             ****ORCA TERMINATED NORMALLY****
TOTAL RUN TIME: 0 days 0 hours 0 minutes 3 seconds 972 msec
