                         Program Version 6.0.0  -   RELEASE  -
|  1> ! pbe def2-sv(p) def2/J RI DEFGRID1 loosescf d4 GCP(DFT/SV(P)) printgap
|  2> %output
|  3>     printlevel normal
|  4> end
|  5> * xyz 0 1
|  6> C -1.7589118747 -1.0412509271 -0.6718104369
|  7> C -1.0922045752 -0.5172617749 0.6225544378
|  8> H -1.7805351125 -0.6704422407 1.4618765187
|  9> C -0.7424802119 0.9770957869 0.5570949306
| 10> H -1.6290411317 1.5266305846 0.214071232
| 11> C 0.4049374083 1.2297177227 -0.4315845974
| 12> H 0.7350748798 2.2719809623 -0.2925221996
| 13> C 1.6068688253 0.336152535 -0.066218727
| 14> H 2.3111994504 0.3028273499 -0.9054075385
| 15> C 1.2134545513 -1.1309706204 0.2188084592
| 16> H 2.0015349706 -1.5534609196 0.8627958026
| 17> O 0.0458110407 -1.2940441531 0.9847490345
| 18> O 1.1595075082 -1.809483302 -1.0005688561
| 19> O 2.3152672791 0.8824616111 1.0154996112
| 20> O -0.0835071627 1.0359203543 -1.7319445111
| 21> O -0.3124102501 1.4631071588 1.8096817219
| 22> O -2.7493186652 -0.1736192668 -1.1685735644
| 23> H -2.2562814641 -1.986987316 -0.4411162806
| 24> H -0.9878522014 -1.2170948134 -1.4241584032
| 25> H 1.0790382245 -2.7626897804 -0.845886821
| 26> H 1.6811162503 1.090532344 1.7241331458
| 27> H 0.6101731747 1.2352377196 -2.3759837449
| 28> H -1.0190454066 1.360470942 2.4629624382
| 29> H -2.3142759424 0.49268977 -1.7208472427
| 30> *
| 31>
| 32>                          ****END OF INPUT****

CARTESIAN COORDINATES (ANGSTROEM)
---------------------------------
  C     -1.758912   -1.041251   -0.671810
  C     -1.092205   -0.517262    0.622554
  H     -1.780535   -0.670442    1.461877
  C     -0.742480    0.977096    0.557095
  H     -1.629041    1.526631    0.214071
  C      0.404937    1.229718   -0.431585
  H      0.735075    2.271981   -0.292522
  C      1.606869    0.336153   -0.066219
  H      2.311199    0.302827   -0.905408
  C      1.213455   -1.130971    0.218808
  H      2.001535   -1.553461    0.862796
  O      0.045811   -1.294044    0.984749
  O      1.159508   -1.809483   -1.000569
  O      2.315267    0.882462    1.015500
  O     -0.083507    1.035920   -1.731945
  O     -0.312410    1.463107    1.809682
  O     -2.749319   -0.173619   -1.168574
  H     -2.256281   -1.986987   -0.441116
  H     -0.987852   -1.217095   -1.424158
  H      1.079038   -2.762690   -0.845887
  H      1.681116    1.090532    1.724133
  H      0.610173    1.235238   -2.375984
  H     -1.019045    1.360471    2.462962
  H     -2.314276    0.492690   -1.720847

 Total Charge           Charge          ....    0
 Multiplicity           Mult            ....    1
 Number of Electrons    NEL             ....   96
 Basis Dimension        Dim             ....  192

ORBITAL ENERGIES
----------------

  NO   OCC          E(Eh)            E(eV)
   0   2.0000     -18.774558      -510.8817
   1   2.0000     -18.774499      -510.8801
   2   2.0000     -18.764161      -510.5988
   3   2.0000     -18.760273      -510.4930
   4   2.0000     -18.739364      -509.9240
   5   2.0000     -18.736559      -509.8477
   6   2.0000      -9.980113      -271.5727
   7   2.0000      -9.951117      -270.7837
   8   2.0000      -9.950211      -270.7590
   9   2.0000      -9.940299      -270.4893
  10   2.0000      -9.939663      -270.4720
  11   2.0000      -9.917023      -269.8559
  12   2.0000      -0.977940       -26.6111
  13   2.0000      -0.953378       -25.9427
  14   2.0000      -0.944498       -25.7011
  15   2.0000      -0.917782       -24.9741
  16   2.0000      -0.913668       -24.8622
  17   2.0000      -0.906717       -24.6730
  18   2.0000      -0.705822       -19.2064
  19   2.0000      -0.682823       -18.5806
  20   2.0000      -0.621716       -16.9178
  21   2.0000      -0.580029       -15.7834
  22   2.0000      -0.571837       -15.5605
  23   2.0000      -0.528234       -14.3740
  24   2.0000      -0.508220       -13.8294
  25   2.0000      -0.480648       -13.0791
  26   2.0000      -0.473455       -12.8834
  27   2.0000      -0.461224       -12.5506
  28   2.0000      -0.446840       -12.1591
  29   2.0000      -0.420324       -11.4376
  30   2.0000      -0.412444       -11.2232
  31   2.0000      -0.394492       -10.7347
  32   2.0000      -0.386034       -10.5045
  33   2.0000      -0.377389       -10.2693
  34   2.0000      -0.363356        -9.8874
  35   2.0000      -0.352768        -9.5993
  36   2.0000      -0.330801        -9.0016
  37   2.0000      -0.319450        -8.6927
  38   2.0000      -0.315303        -8.5798
  39   2.0000      -0.294084        -8.0024
  40   2.0000      -0.280746        -7.6395
  41   2.0000      -0.257811        -7.0154
  42   2.0000      -0.245985        -6.6936
  43   2.0000      -0.240036        -6.5317
  44   2.0000      -0.238330        -6.4853
  45   2.0000      -0.234247        -6.3742
  46   2.0000      -0.208627        -5.6770
  47   2.0000      -0.196667        -5.3516
  48   0.0000       0.003418         0.0930
  49   0.0000       0.016721         0.4550
  50   0.0000       0.031394         0.8543
  51   0.0000       0.056757         1.5444
  52   0.0000       0.063495         1.7278

MULLIKEN ATOMIC CHARGES
-----------------------
   0 C :    0.019406
   1 C :    0.025213
   2 H :    0.055712
   3 C :    0.027933
   4 H :    0.074802
   5 C :    0.038614
   6 H :    0.079923
   7 C :    0.049053
   8 H :    0.065601
   9 C :    0.198932
  10 H :    0.068428
  11 O :   -0.315592
  12 O :   -0.395382
  13 O :   -0.431857
  14 O :   -0.414387
  15 O :   -0.428444
  16 O :   -0.445773
  17 H :    0.077614
  18 H :    0.107027
  19 H :    0.302355
  20 H :    0.305371
  21 H :    0.316321
  22 H :    0.313337
  23 H :    0.305792
Sum of atomic charges:   -0.0000000

LOEWDIN ATOMIC CHARGES
----------------------
   0 C :   -0.152521
   1 C :   -0.070081
   2 H :    0.108720
   3 C :   -0.074220
   4 H :    0.108326
   5 C :   -0.070927
   6 H :    0.107662
   7 C :   -0.079706
   8 H :    0.115276
   9 C :   -0.008457
  10 H :    0.101143
  11 O :   -0.147536
  12 O :   -0.310668
  13 O :   -0.318454
  14 O :   -0.303189
  15 O :   -0.309614
  16 O :   -0.341301
  17 H :    0.108840
  18 H :    0.108792
  19 H :    0.285706
  20 H :    0.275187
  21 H :    0.296304
  22 H :    0.294540
  23 H :    0.276176

  Mayer bond orders larger than 0.100000
B(  0-C ,  1-C ) :   1.0171 B(  0-C , 16-O ) :   1.0890 B(  0-C , 17-H ) :   0.9190
B(  0-C , 18-H ) :   0.8972 B(  1-C ,  2-H ) :   0.8926 B(  1-C ,  3-C ) :   1.0157
B(  1-C , 11-O ) :   0.9899 B(  3-C ,  4-H ) :   0.8849 B(  3-C ,  5-C ) :   1.0021
B(  3-C , 15-O ) :   1.0175 B(  5-C ,  6-H ) :   0.9021 B(  5-C ,  7-C ) :   0.9804
B(  5-C , 14-O ) :   1.0566 B(  7-C ,  8-H ) :   0.8887 B(  7-C ,  9-C ) :   0.9719
B(  7-C , 13-O ) :   1.0605 B(  9-C , 10-H ) :   0.9033 B(  9-C , 11-O ) :   1.0595
B(  9-C , 12-O ) :   1.0986 B( 12-O , 19-H ) :   0.8378 B( 13-O , 20-H ) :   0.8136
B( 14-O , 21-H ) :   0.8386 B( 15-O , 22-H ) :   0.8404 B( 16-O , 23-H ) :   0.8280

Dispersion correction           -0.026204687
FINAL SINGLE POINT ENERGY      -685.696005489395

DIPOLE MOMENT
-------------

Method             : SCF
Type of density    : Electron Density
Multiplicity       :   1
Irrep              :   0
Energy             :  -685.8283945891056419 Eh
Relativity type    :
Basis              : AO
                                X                 Y                 Z
Electronic contribution:      1.446180707      -0.009089505       1.137383831
Nuclear contribution   :     -1.466329143       0.085694575      -1.202286145
                        -----------------------------------------
Total Dipole Moment    :     -0.020148436       0.076605070      -0.064902314
                        -----------------------------------------
Magnitude (a.u.)       :      0.102404134
Magnitude (Debye)      :      0.260290622

Rotational constants in cm-1:             0.040392             0.029756             0.025874
Rotational constants in MHz :          1210.932355           892.071366           775.693133

                             ****ORCA TERMINATED NORMALLY****
TOTAL RUN TIME: 0 days 0 hours 0 minutes 12 seconds 765 msec
