                         Program Version 6.0.0  -   RELEASE  -
|  1> ! pbe def2-sv(p) def2/J RI DEFGRID1 loosescf d4 GCP(DFT/SV(P)) printgap
|  2> %output
|  3>     printlevel normal
|  4> end
|  5> * xyz 0 1
|  6> C -2.4967411079 -0.432909572 -0.282562494
|  7> C -1.0789520599 -0.187283321 0.2444074042
|  8> H -1.0615360865 -0.3909852127 1.3264862305
|  9> C -0.6277100068 1.2713738511 0.0238678491
| 10> H -1.2618775564 1.7392282378 -0.7401322713
| 11> C 0.8319999343 1.3035429714 -0.4972047986
| 12> H 1.2405016495 2.3090081344 -0.3447511732
| 13> C 1.6785889059 0.3070888367 0.3113782466
| 14> H 2.6946306233 0.2676668433 -0.0970301654
| 15> C 1.0849117646 -1.1182157451 0.1608291375
| 16> H 1.021895768 -1.5684960371 1.1726159226
| 17> O -0.2126809178 -1.0982355468 -0.4108670535
| 18> O 1.9034469366 -1.8455889848 -0.6768911995
| 19> O 1.7968761057 0.6909644879 1.655140007
| 20> O 0.8962465508 1.0736891475 -1.8780540582
| 21> O -0.7471873744 1.9333775591 1.2632801241
| 22> O -2.9906902066 -1.6963918689 0.0742519782
| 23> H -2.4966225752 -0.3068141369 -1.3722424654
| 24> H -3.170750261 0.2967380395 0.1690388795
| 25> H 1.5507310262 -2.7402710144 -0.8053475523
| 26> H 0.9483042468 1.0591331663 1.9621204457
| 27> H 0.6864264494 0.1438617388 -2.0561880971
| 28> H -0.7484070869 2.8927106715 1.134103097
| 29> H -2.4137854712 -2.3736187437 -0.3068955509
| 30> *
| 31>
| 32>                          ****END OF INPUT****

CARTESIAN COORDINATES (ANGSTROEM)
---------------------------------
  C     -2.496741   -0.432910   -0.282562
  C     -1.078952   -0.187283    0.244407
  H     -1.061536   -0.390985    1.326486
  C     -0.627710    1.271374    0.023868
  H     -1.261878    1.739228   -0.740132
  C      0.832000    1.303543   -0.497205
  H      1.240502    2.309008   -0.344751
  C      1.678589    0.307089    0.311378
  H      2.694631    0.267667   -0.097030
  C      1.084912   -1.118216    0.160829
  H      1.021896   -1.568496    1.172616
  O     -0.212681   -1.098236   -0.410867
  O      1.903447   -1.845589   -0.676891
  O      1.796876    0.690964    1.655140
  O      0.896247    1.073689   -1.878054
  O     -0.747187    1.933378    1.263280
  O     -2.990690   -1.696392    0.074252
  H     -2.496623   -0.306814   -1.372242
  H     -3.170750    0.296738    0.169039
  H      1.550731   -2.740271   -0.805348
  H      0.948304    1.059133    1.962120
  H      0.686426    0.143862   -2.056188
  H     -0.748407    2.892711    1.134103
  H     -2.413785   -2.373619   -0.306896

 Total Charge           Charge          ....    0
 Multiplicity           Mult            ....    1
 Number of Electrons    NEL             ....   96
 Basis Dimension        Dim             ....  192

ORBITAL ENERGIES
----------------

  NO   OCC          E(Eh)            E(eV)
   0   2.0000     -18.787387      -511.2308
   1   2.0000     -18.784658      -511.1565
   2   2.0000     -18.773424      -510.8508
   3   2.0000     -18.751433      -510.2524
   4   2.0000     -18.749208      -510.1919
   5   2.0000     -18.743190      -510.0281
   6   2.0000      -9.990924      -271.8669
   7   2.0000      -9.954873      -270.8859
   8   2.0000      -9.953716      -270.8544
   9   2.0000      -9.945179      -270.6221
  10   2.0000      -9.942022      -270.5362
  11   2.0000      -9.938070      -270.4286
  12   2.0000      -0.996922       -27.1276
  13   2.0000      -0.960062       -26.1246
  14   2.0000      -0.936794       -25.4915
  15   2.0000      -0.930345       -25.3160
  16   2.0000      -0.920834       -25.0572
  17   2.0000      -0.918434       -24.9918
  18   2.0000      -0.711331       -19.3563
  19   2.0000      -0.685632       -18.6570
  20   2.0000      -0.628248       -17.0955
  21   2.0000      -0.593169       -16.1409
  22   2.0000      -0.573004       -15.5922
  23   2.0000      -0.523844       -14.2545
  24   2.0000      -0.518635       -14.1128
  25   2.0000      -0.499090       -13.5809
  26   2.0000      -0.490990       -13.3605
  27   2.0000      -0.468799       -12.7567
  28   2.0000      -0.457236       -12.4420
  29   2.0000      -0.444537       -12.0965
  30   2.0000      -0.413845       -11.2613
  31   2.0000      -0.390733       -10.6324
  32   2.0000      -0.389504       -10.5989
  33   2.0000      -0.380387       -10.3508
  34   2.0000      -0.364199        -9.9104
  35   2.0000      -0.355634        -9.6773
  36   2.0000      -0.336514        -9.1570
  37   2.0000      -0.322138        -8.7658
  38   2.0000      -0.315476        -8.5845
  39   2.0000      -0.309517        -8.4224
  40   2.0000      -0.289528        -7.8785
  41   2.0000      -0.273836        -7.4514
  42   2.0000      -0.266964        -7.2644
  43   2.0000      -0.256906        -6.9908
  44   2.0000      -0.242183        -6.5901
  45   2.0000      -0.228612        -6.2208
  46   2.0000      -0.212203        -5.7743
  47   2.0000      -0.204334        -5.5602
  48   0.0000       0.001407         0.0383
  49   0.0000       0.016218         0.4413
  50   0.0000       0.036688         0.9983
  51   0.0000       0.049252         1.3402
  52   0.0000       0.054151         1.4735

MULLIKEN ATOMIC CHARGES
-----------------------
   0 C :    0.063844
   1 C :    0.017304
   2 H :    0.069392
   3 C :    0.004265
   4 H :    0.069925
   5 C :    0.035488
   6 H :    0.066839
   7 C :    0.042379
   8 H :    0.091829
   9 C :    0.178917
  10 H :    0.058513
  11 O :   -0.331494
  12 O :   -0.375572
  13 O :   -0.427587
  14 O :   -0.416549
  15 O :   -0.412785
  16 O :   -0.430017
  17 H :    0.077343
  18 H :    0.098392
  19 H :    0.305806
  20 H :    0.300633
  21 H :    0.301618
  22 H :    0.315140
  23 H :    0.296378
Sum of atomic charges:    0.0000000

LOEWDIN ATOMIC CHARGES
----------------------
   0 C :   -0.124989
   1 C :   -0.074529
   2 H :    0.111188
   3 C :   -0.082216
   4 H :    0.108441
   5 C :   -0.081015
   6 H :    0.113558
   7 C :   -0.082974
   8 H :    0.125857
   9 C :   -0.007349
  10 H :    0.088543
  11 O :   -0.170177
  12 O :   -0.287874
  13 O :   -0.319586
  14 O :   -0.312770
  15 O :   -0.306431
  16 O :   -0.332737
  17 H :    0.101826
  18 H :    0.122433
  19 H :    0.289460
  20 H :    0.269833
  21 H :    0.274516
  22 H :    0.295649
  23 H :    0.281346

  Mayer bond orders larger than 0.100000
B(  0-C ,  1-C ) :   1.0535 B(  0-C , 16-O ) :   1.0832 B(  0-C , 17-H ) :   0.9062
B(  0-C , 18-H ) :   0.9200 B(  1-C ,  2-H ) :   0.8623 B(  1-C ,  3-C ) :   0.9797
B(  1-C , 11-O ) :   1.0166 B(  3-C ,  4-H ) :   0.8886 B(  3-C ,  5-C ) :   0.9629
B(  3-C , 15-O ) :   1.0284 B(  5-C ,  6-H ) :   0.8941 B(  5-C ,  7-C ) :   1.0052
B(  5-C , 14-O ) :   1.0610 B(  7-C ,  8-H ) :   0.8896 B(  7-C ,  9-C ) :   0.9372
B(  7-C , 13-O ) :   1.0761 B(  9-C , 10-H ) :   0.8961 B(  9-C , 11-O ) :   0.9789
B(  9-C , 12-O ) :   1.1663 B( 12-O , 19-H ) :   0.8394 B( 13-O , 20-H ) :   0.8085
B( 14-O , 21-H ) :   0.8311 B( 15-O , 20-H ) :   0.1050 B( 15-O , 22-H ) :   0.8392
B( 16-O , 23-H ) :   0.8471

Dispersion correction           -0.024807611
FINAL SINGLE POINT ENERGY      -685.696126802892

DIPOLE MOMENT
-------------

Method             : SCF
Type of density    : Electron Density
Multiplicity       :   1
Irrep              :   0
Energy             :  -685.8280262520936503 Eh
Relativity type    :
Basis              : AO
                                X                 Y                 Z
Electronic contribution:      2.266590682      -1.244573428      -0.230371695
Nuclear contribution   :     -2.814780751       1.232083612       0.039592128
                        -----------------------------------------
Total Dipole Moment    :     -0.548190069      -0.012489816      -0.190779566
                        -----------------------------------------
Magnitude (a.u.)       :      0.580573157
Magnitude (Debye)      :      1.475699689

Rotational constants in cm-1:             0.038179             0.027114             0.021651
Rotational constants in MHz :          1144.571328           812.844471           649.085825

                             ****ORCA TERMINATED NORMALLY****
TOTAL RUN TIME: 0 days 0 hours 0 minutes 12 seconds 301 msec
