                         Program Version 6.0.0  -   RELEASE  -
|  1> ! wb97x-v def2-tzvp def2/J RIJCOSX DEFGRID2 scfconv7 GCP(DFT/TZ) printgap
|  2> %output
|  3>     printlevel normal
|  4> end
|  5> %cpcm
|  6>     smd true
|  7>     smdsolvent "water"
|  8> end
|  9> * xyz 0 1
| 10> C 1.6827671476018577 -1.0981133264843672 0.0025076164147447254
| 11> C 1.0510699998253294 0.28683423406830405 -0.003419547471274143
| 12> C -0.45341190833688944 0.357146643786606 -8.371614318539011e-06
| 13> O -1.070612830492415 1.4081603707510866 -0.001450649921049195
| 14> O -1.1549057711754351 -0.8001177665281225 0.0010338320446549802
| 15> H 2.771648281362984 -1.003650174013867 0.0014005199520850159
| 16> H 1.407660245958336 -1.6672986806477756 0.8972339769261544
| 17> H 1.406756161118383 -1.67561702959522 -0.8866121202726739
| 18> H 1.3757832761674962 0.8697127604893599 0.8664134830365969
| 19> H 1.371845002434779 0.8601208258314006 -0.8811595184611423
| 20> H -0.5557515186682362 -1.5640565458598616 0.0016416176480168105
| 21> *
| 22>
| 23>                          ****END OF INPUT****

CARTESIAN COORDINATES (ANGSTROEM)
---------------------------------
  C      1.682767   -1.098113    0.002508
  C      1.051070    0.286834   -0.003420
  C     -0.453412    0.357147   -0.000008
  O     -1.070613    1.408160   -0.001451
  O     -1.154906   -0.800118    0.001034
  H      2.771648   -1.003650    0.001401
  H      1.407660   -1.667299    0.897234
  H      1.406756   -1.675617   -0.886612
  H      1.375783    0.869713    0.866413
  H      1.371845    0.860121   -0.881160
  H     -0.555752   -1.564057    0.001642

 Total Charge           Charge          ....    0
 Multiplicity           Mult            ....    1
 Number of Electrons    NEL             ....   40
 Basis Dimension        Dim             ....  191

ORBITAL ENERGIES
----------------

  NO   OCC          E(Eh)            E(eV)
   0   2.0000     -21.723719      -591.1324
   1   2.0000     -21.666156      -589.5661
   2   2.0000     -12.192084      -331.7635
   3   2.0000     -12.059480      -328.1551
   4   2.0000     -12.039919      -327.6229
   5   2.0000      -1.765408       -48.0392
   6   2.0000      -1.704322       -46.3770
   7   2.0000      -1.299186       -35.3527
   8   2.0000      -1.211022       -32.9536
   9   2.0000      -1.147156       -31.2157
  10   2.0000      -1.072373       -29.1807
  11   2.0000      -1.040731       -28.3197
  12   2.0000      -0.981384       -26.7048
  13   2.0000      -0.948348       -25.8059
  14   2.0000      -0.910236       -24.7688
  15   2.0000      -0.871243       -23.7077
  16   2.0000      -0.869327       -23.6556
  17   2.0000      -0.838492       -22.8165
  18   2.0000      -0.796040       -21.6614
  19   2.0000      -0.779995       -21.2247
  20   0.0000      -0.306271        -8.3341
  21   0.0000      -0.129988        -3.5372
  22   0.0000      -0.056869        -1.5475
  23   0.0000      -0.041609        -1.1322
  24   0.0000       0.018667         0.5080

MULLIKEN ATOMIC CHARGES
-----------------------
   0 C :   -0.455854
   1 C :   -0.158525
   2 C :    0.333593
   3 O :   -0.466357
   4 O :   -0.390663
   5 H :    0.146466
   6 H :    0.150027
   7 H :    0.149896
   8 H :    0.151101
   9 H :    0.151341
  10 H :    0.388975
Sum of atomic charges:    0.0000000

LOEWDIN ATOMIC CHARGES
----------------------
   0 C :   -0.306892
   1 C :   -0.252146
   2 C :   -0.468620
   3 O :    0.002389
   4 O :    0.094375
   5 H :    0.131082
   6 H :    0.126799
   7 H :    0.126770
   8 H :    0.164813
   9 H :    0.164933
  10 H :    0.216496

  Mayer bond orders larger than 0.100000
B(  0-C ,  1-C ) :   0.9580 B(  0-C ,  5-H ) :   0.9643 B(  0-C ,  6-H ) :   0.9715
B(  0-C ,  7-H ) :   0.9713 B(  1-C ,  2-C ) :   0.9953 B(  1-C ,  8-H ) :   0.9379
B(  1-C ,  9-H ) :   0.9375 B(  2-C ,  3-O ) :   1.9883 B(  2-C ,  4-O ) :   1.2385
B(  4-O , 10-H ) :   0.8309

FINAL SINGLE POINT ENERGY      -268.427034460049

DIPOLE MOMENT
-------------

Method             : SCF
Type of density    : Electron Density
Multiplicity       :   1
Irrep              :   0
Energy             :  -268.4344272184489455 Eh
Relativity type    :
Basis              : AO
                                X                 Y                 Z
Electronic contribution:     -5.348436599       2.234146737      -0.000146472
Nuclear contribution   :      7.292867289      -3.917851150       0.000415759
                        -----------------------------------------
Total Dipole Moment    :      1.944430690      -1.683704413       0.000269287
                        -----------------------------------------
Magnitude (a.u.)       :      2.572094736
Magnitude (Debye)      :      6.537745256

Rotational constants in cm-1:             0.323766             0.130589             0.096401
Rotational constants in MHz :          9706.273240          3914.951265          2890.022531

                             ****ORCA TERMINATED NORMALLY****
TOTAL RUN TIME: 0 days 0 hours 0 minutes 54 seconds 92 msec
