                         Program Version 6.0.0  -   RELEASE  -
|  1> ! pbe def2-sv(p) def2/J RI DEFGRID1 loosescf d4 GCP(DFT/SV(P)) printgap
|  2> %output
|  3>     printlevel normal
|  4> end
|  5> * xyz 0 1
|  6> C -2.526569207 -0.9746958142 0.332586387
|  7> C -1.1006901138 -0.4777193875 0.6179612973
|  8> H -0.9515483804 -0.4147915573 1.7062539087
|  9> C -0.8423052595 0.9167032126 0.0063903134
| 10> H -1.0625917193 0.8672087239 -1.0699592478
| 11> C 0.6341404158 1.2828391481 0.2007322089
| 12> H 0.8184447153 1.4246223136 1.2720763661
| 13> C 1.547282142 0.1581816348 -0.3186259529
| 14> H 1.4168799385 0.0645563639 -1.4111328027
| 15> C 1.1465408643 -1.1790956009 0.3298732415
| 16> H 1.3196585494 -1.1136454108 1.4156571178
| 17> O -0.2169831219 -1.435619695 0.0624002975
| 18> O 1.8818486292 -2.254099614 -0.1088990134
| 19> O 2.8912646313 0.4240747632 -0.0174912089
| 20> O 0.9871294973 2.5055323672 -0.3959054578
| 21> O -1.6176135143 1.9075441955 0.6329484368
| 22> O -2.8354613993 -0.9631143583 -1.0368179331
| 23> H -3.2446808124 -0.3159166897 0.822428673
| 24> H -2.6252997094 -1.9824057647 0.7500715921
| 25> H 1.7614862169 -2.3764985451 -1.0643127206
| 26> H 3.0514883441 1.3716204528 -0.1614311846
| 27> H 0.6232098204 2.5578201763 -1.2920838505
| 28> H -2.5235530296 1.8770218634 0.2953634928
| 29> H -2.2847836789 -1.6227714164 -1.4813540365
| 30> *
| 31>
| 32>                          ****END OF INPUT****

CARTESIAN COORDINATES (ANGSTROEM)
---------------------------------
  C     -2.526569   -0.974696    0.332586
  C     -1.100690   -0.477719    0.617961
  H     -0.951548   -0.414792    1.706254
  C     -0.842305    0.916703    0.006390
  H     -1.062592    0.867209   -1.069959
  C      0.634140    1.282839    0.200732
  H      0.818445    1.424622    1.272076
  C      1.547282    0.158182   -0.318626
  H      1.416880    0.064556   -1.411133
  C      1.146541   -1.179096    0.329873
  H      1.319659   -1.113645    1.415657
  O     -0.216983   -1.435620    0.062400
  O      1.881849   -2.254100   -0.108899
  O      2.891265    0.424075   -0.017491
  O      0.987129    2.505532   -0.395905
  O     -1.617614    1.907544    0.632948
  O     -2.835461   -0.963114   -1.036818
  H     -3.244681   -0.315917    0.822429
  H     -2.625300   -1.982406    0.750072
  H      1.761486   -2.376499   -1.064313
  H      3.051488    1.371620   -0.161431
  H      0.623210    2.557820   -1.292084
  H     -2.523553    1.877022    0.295363
  H     -2.284784   -1.622771   -1.481354

 Total Charge           Charge          ....    0
 Multiplicity           Mult            ....    1
 Number of Electrons    NEL             ....   96
 Basis Dimension        Dim             ....  192

ORBITAL ENERGIES
----------------

  NO   OCC          E(Eh)            E(eV)
   0   2.0000     -18.777396      -510.9589
   1   2.0000     -18.762637      -510.5573
   2   2.0000     -18.761727      -510.5325
   3   2.0000     -18.761526      -510.5271
   4   2.0000     -18.759034      -510.4593
   5   2.0000     -18.747128      -510.1353
   6   2.0000      -9.987992      -271.7871
   7   2.0000      -9.949299      -270.7342
   8   2.0000      -9.948329      -270.7078
   9   2.0000      -9.946688      -270.6631
  10   2.0000      -9.943517      -270.5768
  11   2.0000      -9.941266      -270.5156
  12   2.0000      -0.986528       -26.8448
  13   2.0000      -0.950980       -25.8775
  14   2.0000      -0.942291       -25.6411
  15   2.0000      -0.932359       -25.3708
  16   2.0000      -0.919300       -25.0154
  17   2.0000      -0.913778       -24.8652
  18   2.0000      -0.706553       -19.2263
  19   2.0000      -0.693261       -18.8646
  20   2.0000      -0.626959       -17.0604
  21   2.0000      -0.583324       -15.8731
  22   2.0000      -0.571674       -15.5560
  23   2.0000      -0.546234       -14.8638
  24   2.0000      -0.498567       -13.5667
  25   2.0000      -0.494732       -13.4623
  26   2.0000      -0.475598       -12.9417
  27   2.0000      -0.469776       -12.7833
  28   2.0000      -0.446226       -12.1424
  29   2.0000      -0.433037       -11.7835
  30   2.0000      -0.424935       -11.5631
  31   2.0000      -0.420170       -11.4334
  32   2.0000      -0.386226       -10.5098
  33   2.0000      -0.384672       -10.4674
  34   2.0000      -0.362995        -9.8776
  35   2.0000      -0.356814        -9.7094
  36   2.0000      -0.323958        -8.8153
  37   2.0000      -0.311715        -8.4822
  38   2.0000      -0.310152        -8.4397
  39   2.0000      -0.292562        -7.9610
  40   2.0000      -0.288709        -7.8562
  41   2.0000      -0.279883        -7.6160
  42   2.0000      -0.260271        -7.0823
  43   2.0000      -0.250964        -6.8291
  44   2.0000      -0.235294        -6.4027
  45   2.0000      -0.226699        -6.1688
  46   2.0000      -0.215089        -5.8529
  47   2.0000      -0.212076        -5.7709
  48   0.0000       0.007623         0.2074
  49   0.0000       0.017568         0.4781
  50   0.0000       0.025046         0.6815
  51   0.0000       0.043692         1.1889
  52   0.0000       0.048946         1.3319

MULLIKEN ATOMIC CHARGES
-----------------------
   0 C :    0.068090
   1 C :   -0.015451
   2 H :    0.059828
   3 C :    0.038323
   4 H :    0.036310
   5 C :    0.062827
   6 H :    0.071830
   7 C :    0.046114
   8 H :    0.016610
   9 C :    0.206741
  10 H :    0.055867
  11 O :   -0.317504
  12 O :   -0.362419
  13 O :   -0.406304
  14 O :   -0.410436
  15 O :   -0.403139
  16 O :   -0.438586
  17 H :    0.078893
  18 H :    0.094437
  19 H :    0.300554
  20 H :    0.303506
  21 H :    0.299775
  22 H :    0.310691
  23 H :    0.303443
Sum of atomic charges:    0.0000000

LOEWDIN ATOMIC CHARGES
----------------------
   0 C :   -0.127659
   1 C :   -0.080396
   2 H :    0.109204
   3 C :   -0.081369
   4 H :    0.095930
   5 C :   -0.079410
   6 H :    0.122052
   7 C :   -0.097332
   8 H :    0.086823
   9 C :    0.005373
  10 H :    0.103010
  11 O :   -0.163445
  12 O :   -0.277102
  13 O :   -0.317775
  14 O :   -0.307381
  15 O :   -0.311969
  16 O :   -0.333940
  17 H :    0.111736
  18 H :    0.109552
  19 H :    0.287053
  20 H :    0.283068
  21 H :    0.285807
  22 H :    0.291427
  23 H :    0.286742

  Mayer bond orders larger than 0.100000
B(  0-C ,  1-C ) :   1.0321 B(  0-C , 16-O ) :   1.0662 B(  0-C , 17-H ) :   0.9152
B(  0-C , 18-H ) :   0.9208 B(  1-C ,  2-H ) :   0.8684 B(  1-C ,  3-C ) :   0.9830
B(  1-C , 11-O ) :   0.9836 B(  3-C ,  4-H ) :   0.8607 B(  3-C ,  5-C ) :   1.0120
B(  3-C , 15-O ) :   1.0964 B(  5-C ,  6-H ) :   0.8685 B(  5-C ,  7-C ) :   1.0022
B(  5-C , 14-O ) :   1.0422 B(  7-C ,  8-H ) :   0.8511 B(  7-C ,  9-C ) :   0.9777
B(  7-C , 13-O ) :   1.1004 B(  9-C , 10-H ) :   0.8785 B(  9-C , 11-O ) :   0.9887
B(  9-C , 12-O ) :   1.1697 B( 12-O , 19-H ) :   0.8428 B( 13-O , 20-H ) :   0.8295
B( 14-O , 21-H ) :   0.8467 B( 15-O , 22-H ) :   0.8425 B( 16-O , 23-H ) :   0.8445

Dispersion correction           -0.023927879
FINAL SINGLE POINT ENERGY      -685.697797825931

DIPOLE MOMENT
-------------

Method             : SCF
Type of density    : Electron Density
Multiplicity       :   1
Irrep              :   0
Energy             :  -685.8270228974580505 Eh
Relativity type    :
Basis              : AO
                                X                 Y                 Z
Electronic contribution:      2.695201874      -0.272552202      -0.667071197
Nuclear contribution   :     -3.456288905       0.318725510      -0.217713880
                        -----------------------------------------
Total Dipole Moment    :     -0.761087032       0.046173307      -0.884785078
                        -----------------------------------------
Magnitude (a.u.)       :      1.168002602
Magnitude (Debye)      :      2.968826677

Rotational constants in cm-1:             0.039225             0.026840             0.017639
Rotational constants in MHz :          1175.928214           804.654576           528.791214

                             ****ORCA TERMINATED NORMALLY****
TOTAL RUN TIME: 0 days 0 hours 0 minutes 11 seconds 815 msec
