                         Program Version 6.0.0  -   RELEASE  -
|  1> ! pbe def2-sv(p) def2/J RI DEFGRID1 loosescf d4 GCP(DFT/SV(P)) printgap
|  2> %output
|  3>     printlevel normal
|  4> end
|  5> * xyz 0 1
|  6> C -2.3405654038 -0.9102897766 0.6003121105
|  7> C -0.8922875923 -0.4032893401 0.6513266044
|  8> H -0.5502605601 -0.3751355576 1.6942717778
|  9> C -0.7423248731 1.0010174962 0.0391651521
| 10> H -1.3290720428 1.0249378293 -0.8921707398
| 11> C 0.7366934893 1.2722110039 -0.3167342741
| 12> H 0.9773543515 2.2720946077 0.068457955
| 13> C 1.6828284504 0.2709332409 0.3627285982
| 14> H 2.6856491411 0.4374630448 -0.0532737948
| 15> C 1.2764291353 -1.1684357519 -0.0311390804
| 16> H 1.6788274462 -1.8805027343 0.7083643856
| 17> O -0.1254109646 -1.3361341985 -0.0994241079
| 18> O 1.8244086109 -1.5359855737 -1.2466983738
| 19> O 1.6633262884 0.4863556878 1.7494007051
| 20> O 0.9812759528 1.1733278492 -1.6987837438
| 21> O -1.1593807872 2.0193893721 0.9144677023
| 22> O -2.8634778002 -0.9078163632 -0.7027748709
| 23> H -2.9837885307 -0.2593228375 1.1939644083
| 24> H -2.3647228844 -1.9196928619 1.0271118899
| 25> H 1.5464836037 -0.8925955434 -1.923324763
| 26> H 2.4519803252 0.0997837454 2.1559612161
| 27> H 0.558461599 1.9100863963 -2.1624395111
| 28> H -2.110820961 1.9456686404 1.0719726378
| 29> H -2.3240316925 -1.5022777161 -1.2438104743
| 30> *
| 31>
| 32>                          ****END OF INPUT****

CARTESIAN COORDINATES (ANGSTROEM)
---------------------------------
  C     -2.340565   -0.910290    0.600312
  C     -0.892288   -0.403289    0.651327
  H     -0.550261   -0.375136    1.694272
  C     -0.742325    1.001017    0.039165
  H     -1.329072    1.024938   -0.892171
  C      0.736693    1.272211   -0.316734
  H      0.977354    2.272095    0.068458
  C      1.682828    0.270933    0.362729
  H      2.685649    0.437463   -0.053274
  C      1.276429   -1.168436   -0.031139
  H      1.678827   -1.880503    0.708364
  O     -0.125411   -1.336134   -0.099424
  O      1.824409   -1.535986   -1.246698
  O      1.663326    0.486356    1.749401
  O      0.981276    1.173328   -1.698784
  O     -1.159381    2.019389    0.914468
  O     -2.863478   -0.907816   -0.702775
  H     -2.983789   -0.259323    1.193964
  H     -2.364723   -1.919693    1.027112
  H      1.546484   -0.892596   -1.923325
  H      2.451980    0.099784    2.155961
  H      0.558462    1.910086   -2.162440
  H     -2.110821    1.945669    1.071973
  H     -2.324032   -1.502278   -1.243810

 Total Charge           Charge          ....    0
 Multiplicity           Mult            ....    1
 Number of Electrons    NEL             ....   96
 Basis Dimension        Dim             ....  192

ORBITAL ENERGIES
----------------

  NO   OCC          E(Eh)            E(eV)
   0   2.0000     -18.771909      -510.8096
   1   2.0000     -18.762419      -510.5514
   2   2.0000     -18.761757      -510.5334
   3   2.0000     -18.752617      -510.2846
   4   2.0000     -18.748114      -510.1621
   5   2.0000     -18.743230      -510.0292
   6   2.0000      -9.978961      -271.5413
   7   2.0000      -9.947111      -270.6747
   8   2.0000      -9.944285      -270.5978
   9   2.0000      -9.936277      -270.3798
  10   2.0000      -9.933982      -270.3174
  11   2.0000      -9.933612      -270.3073
  12   2.0000      -0.974914       -26.5287
  13   2.0000      -0.946297       -25.7501
  14   2.0000      -0.935947       -25.4684
  15   2.0000      -0.931094       -25.3364
  16   2.0000      -0.923789       -25.1376
  17   2.0000      -0.900339       -24.4995
  18   2.0000      -0.700345       -19.0573
  19   2.0000      -0.684225       -18.6187
  20   2.0000      -0.620811       -16.8931
  21   2.0000      -0.584496       -15.9049
  22   2.0000      -0.562899       -15.3173
  23   2.0000      -0.522507       -14.2182
  24   2.0000      -0.504106       -13.7174
  25   2.0000      -0.486661       -13.2427
  26   2.0000      -0.472906       -12.8684
  27   2.0000      -0.453654       -12.3445
  28   2.0000      -0.448277       -12.1982
  29   2.0000      -0.437588       -11.9074
  30   2.0000      -0.427374       -11.6294
  31   2.0000      -0.388075       -10.5600
  32   2.0000      -0.380568       -10.3558
  33   2.0000      -0.368178       -10.0186
  34   2.0000      -0.362633        -9.8677
  35   2.0000      -0.355821        -9.6824
  36   2.0000      -0.321979        -8.7615
  37   2.0000      -0.313973        -8.5436
  38   2.0000      -0.308573        -8.3967
  39   2.0000      -0.289768        -7.8850
  40   2.0000      -0.285744        -7.7755
  41   2.0000      -0.265676        -7.2294
  42   2.0000      -0.249980        -6.8023
  43   2.0000      -0.240837        -6.5535
  44   2.0000      -0.237235        -6.4555
  45   2.0000      -0.221712        -6.0331
  46   2.0000      -0.215912        -5.8753
  47   2.0000      -0.194645        -5.2965
  48   0.0000       0.007780         0.2117
  49   0.0000       0.019208         0.5227
  50   0.0000       0.025993         0.7073
  51   0.0000       0.047351         1.2885
  52   0.0000       0.060218         1.6386

MULLIKEN ATOMIC CHARGES
-----------------------
   0 C :    0.086065
   1 C :   -0.037538
   2 H :    0.076596
   3 C :    0.085363
   4 H :    0.034410
   5 C :    0.087296
   6 H :    0.077704
   7 C :   -0.056617
   8 H :    0.083027
   9 C :    0.226684
  10 H :    0.046083
  11 O :   -0.322389
  12 O :   -0.395752
  13 O :   -0.398603
  14 O :   -0.430270
  15 O :   -0.412206
  16 O :   -0.437185
  17 H :    0.068497
  18 H :    0.084864
  19 H :    0.301363
  20 H :    0.310651
  21 H :    0.313981
  22 H :    0.302629
  23 H :    0.305345
Sum of atomic charges:    0.0000000

LOEWDIN ATOMIC CHARGES
----------------------
   0 C :   -0.126499
   1 C :   -0.089217
   2 H :    0.111671
   3 C :   -0.076587
   4 H :    0.096664
   5 C :   -0.057391
   6 H :    0.115326
   7 C :   -0.095785
   8 H :    0.113306
   9 C :    0.002370
  10 H :    0.092119
  11 O :   -0.161669
  12 O :   -0.301959
  13 O :   -0.306884
  14 O :   -0.313506
  15 O :   -0.315162
  16 O :   -0.333476
  17 H :    0.106931
  18 H :    0.106223
  19 H :    0.274727
  20 H :    0.292937
  21 H :    0.294329
  22 H :    0.285352
  23 H :    0.286178

  Mayer bond orders larger than 0.100000
B(  0-C ,  1-C ) :   1.0311 B(  0-C , 16-O ) :   1.0696 B(  0-C , 17-H ) :   0.9194
B(  0-C , 18-H ) :   0.9140 B(  1-C ,  2-H ) :   0.8546 B(  1-C ,  3-C ) :   1.0325
B(  1-C , 11-O ) :   0.9988 B(  3-C ,  4-H ) :   0.8665 B(  3-C ,  5-C ) :   0.9785
B(  3-C , 15-O ) :   1.0772 B(  5-C ,  6-H ) :   0.8757 B(  5-C ,  7-C ) :   1.0416
B(  5-C , 14-O ) :   1.0303 B(  7-C ,  8-H ) :   0.8984 B(  7-C ,  9-C ) :   0.9450
B(  7-C , 13-O ) :   1.0732 B(  9-C , 10-H ) :   0.9048 B(  9-C , 11-O ) :   1.0208
B(  9-C , 12-O ) :   1.1587 B( 12-O , 19-H ) :   0.8175 B( 13-O , 20-H ) :   0.8449
B( 14-O , 21-H ) :   0.8416 B( 15-O , 22-H ) :   0.8445 B( 16-O , 23-H ) :   0.8401

Dispersion correction           -0.024875676
FINAL SINGLE POINT ENERGY      -685.691619487352

DIPOLE MOMENT
-------------

Method             : SCF
Type of density    : Electron Density
Multiplicity       :   1
Irrep              :   0
Energy             :  -685.8220435069382575 Eh
Relativity type    :
Basis              : AO
                                X                 Y                 Z
Electronic contribution:      1.764823729      -0.313783933      -1.397462386
Nuclear contribution   :     -1.650124371       0.805807729       1.527313443
                        -----------------------------------------
Total Dipole Moment    :      0.114699358       0.492023795       0.129851057
                        -----------------------------------------
Magnitude (a.u.)       :      0.521636516
Magnitude (Debye)      :      1.325894653

Rotational constants in cm-1:             0.039299             0.027396             0.023140
Rotational constants in MHz :          1178.163668           821.307458           693.708841

                             ****ORCA TERMINATED NORMALLY****
TOTAL RUN TIME: 0 days 0 hours 0 minutes 12 seconds 69 msec
