                         Program Version 6.0.0  -   RELEASE  -
|  1> ! pbe def2-sv(p) def2/J RI DEFGRID1 loosescf d4 GCP(DFT/SV(P)) printgap
|  2> %output
|  3>     printlevel normal
|  4> end
|  5> * xyz 0 1
|  6> C -2.2376453697 -0.976188207 -0.3962969348
|  7> C -1.1601487417 -0.2261639587 0.3967393167
|  8> H -1.6242969882 0.1818274624 1.303892542
|  9> C -0.5735235151 0.9316851245 -0.4286778649
| 10> H -0.4027821231 0.6073126864 -1.4616057427
| 11> C 0.7744632839 1.310866648 0.1969812531
| 12> H 0.6510812101 1.4298968659 1.2860018536
| 13> C 1.7514662654 0.1522343525 -0.0429710278
| 14> H 2.0793833099 0.1994149959 -1.0905751644
| 15> C 1.0392241921 -1.2086644331 0.1480708458
| 16> H 1.6681083025 -1.848969932 0.7844912797
| 17> O -0.1559511443 -1.1219848309 0.88002762
| 18> O 0.857592477 -1.7668249876 -1.1170204768
| 19> O 2.8310370275 0.3246349964 0.8398575684
| 20> O 1.2381350843 2.5042909392 -0.375606362
| 21> O -1.4761576784 1.9959213191 -0.5189583559
| 22> O -2.9955248249 -1.8401390661 0.4137855628
| 23> H -1.7653682955 -1.5260081893 -1.2202981733
| 24> H -2.9345531582 -0.2451184131 -0.8108396899
| 25> H 0.6119103857 -2.7019787469 -1.0452527569
| 26> H 3.5700933847 -0.2468123377 0.5871505364
| 27> H 2.1035685011 2.7165516849 0.0040523417
| 28> H -1.4763840731 2.5031670036 0.3059513182
| 29> H -2.3889667828 -2.3981571363 0.9224101541
| 30> *
| 31>
| 32>                          ****END OF INPUT****

CARTESIAN COORDINATES (ANGSTROEM)
---------------------------------
  C     -2.237645   -0.976188   -0.396297
  C     -1.160149   -0.226164    0.396739
  H     -1.624297    0.181827    1.303893
  C     -0.573524    0.931685   -0.428678
  H     -0.402782    0.607313   -1.461606
  C      0.774463    1.310867    0.196981
  H      0.651081    1.429897    1.286002
  C      1.751466    0.152234   -0.042971
  H      2.079383    0.199415   -1.090575
  C      1.039224   -1.208664    0.148071
  H      1.668108   -1.848970    0.784491
  O     -0.155951   -1.121985    0.880028
  O      0.857592   -1.766825   -1.117020
  O      2.831037    0.324635    0.839858
  O      1.238135    2.504291   -0.375606
  O     -1.476158    1.995921   -0.518958
  O     -2.995525   -1.840139    0.413786
  H     -1.765368   -1.526008   -1.220298
  H     -2.934553   -0.245118   -0.810840
  H      0.611910   -2.701979   -1.045253
  H      3.570093   -0.246812    0.587151
  H      2.103569    2.716552    0.004052
  H     -1.476384    2.503167    0.305951
  H     -2.388967   -2.398157    0.922410

 Total Charge           Charge          ....    0
 Multiplicity           Mult            ....    1
 Number of Electrons    NEL             ....   96
 Basis Dimension        Dim             ....  192

ORBITAL ENERGIES
----------------

  NO   OCC          E(Eh)            E(eV)
   0   2.0000     -18.774018      -510.8670
   1   2.0000     -18.773512      -510.8532
   2   2.0000     -18.768580      -510.7190
   3   2.0000     -18.750163      -510.2179
   4   2.0000     -18.749802      -510.2081
   5   2.0000     -18.737913      -509.8845
   6   2.0000      -9.993085      -271.9257
   7   2.0000      -9.946951      -270.6703
   8   2.0000      -9.944598      -270.6063
   9   2.0000      -9.942603      -270.5520
  10   2.0000      -9.939773      -270.4750
  11   2.0000      -9.921366      -269.9741
  12   2.0000      -0.986608       -26.8470
  13   2.0000      -0.948623       -25.8133
  14   2.0000      -0.937077       -25.4992
  15   2.0000      -0.923795       -25.1377
  16   2.0000      -0.916625       -24.9426
  17   2.0000      -0.909605       -24.7516
  18   2.0000      -0.707662       -19.2565
  19   2.0000      -0.693995       -18.8846
  20   2.0000      -0.617527       -16.8038
  21   2.0000      -0.589789       -16.0490
  22   2.0000      -0.564381       -15.3576
  23   2.0000      -0.531627       -14.4663
  24   2.0000      -0.513633       -13.9767
  25   2.0000      -0.486360       -13.2345
  26   2.0000      -0.474401       -12.9091
  27   2.0000      -0.463994       -12.6259
  28   2.0000      -0.438324       -11.9274
  29   2.0000      -0.430030       -11.7017
  30   2.0000      -0.412326       -11.2199
  31   2.0000      -0.403304       -10.9745
  32   2.0000      -0.381425       -10.3791
  33   2.0000      -0.375936       -10.2297
  34   2.0000      -0.367540       -10.0013
  35   2.0000      -0.351177        -9.5560
  36   2.0000      -0.330025        -8.9804
  37   2.0000      -0.309602        -8.4247
  38   2.0000      -0.303274        -8.2525
  39   2.0000      -0.295992        -8.0544
  40   2.0000      -0.286560        -7.7977
  41   2.0000      -0.266496        -7.2517
  42   2.0000      -0.258289        -7.0284
  43   2.0000      -0.243627        -6.6294
  44   2.0000      -0.235340        -6.4039
  45   2.0000      -0.223362        -6.0780
  46   2.0000      -0.215922        -5.8755
  47   2.0000      -0.199832        -5.4377
  48   0.0000       0.009753         0.2654
  49   0.0000       0.013723         0.3734
  50   0.0000       0.028156         0.7662
  51   0.0000       0.047095         1.2815
  52   0.0000       0.056314         1.5324

MULLIKEN ATOMIC CHARGES
-----------------------
   0 C :    0.079696
   1 C :    0.035488
   2 H :    0.055685
   3 C :    0.027522
   4 H :    0.078979
   5 C :    0.048351
   6 H :    0.051919
   7 C :    0.032572
   8 H :    0.075582
   9 C :    0.181036
  10 H :    0.047358
  11 O :   -0.329453
  12 O :   -0.394515
  13 O :   -0.415078
  14 O :   -0.402763
  15 O :   -0.399791
  16 O :   -0.436016
  17 H :    0.060721
  18 H :    0.092373
  19 H :    0.306348
  20 H :    0.307441
  21 H :    0.303627
  22 H :    0.300848
  23 H :    0.292069
Sum of atomic charges:    0.0000000

LOEWDIN ATOMIC CHARGES
----------------------
   0 C :   -0.135072
   1 C :   -0.076511
   2 H :    0.110755
   3 C :   -0.068874
   4 H :    0.122096
   5 C :   -0.073885
   6 H :    0.103152
   7 C :   -0.088166
   8 H :    0.113283
   9 C :   -0.010300
  10 H :    0.094656
  11 O :   -0.154737
  12 O :   -0.309711
  13 O :   -0.317605
  14 O :   -0.315420
  15 O :   -0.297592
  16 O :   -0.340364
  17 H :    0.094298
  18 H :    0.120770
  19 H :    0.287133
  20 H :    0.289900
  21 H :    0.287687
  22 H :    0.287216
  23 H :    0.277291

  Mayer bond orders larger than 0.100000
B(  0-C ,  1-C ) :   1.0773 B(  0-C , 16-O ) :   1.0690 B(  0-C , 17-H ) :   0.9005
B(  0-C , 18-H ) :   0.9092 B(  1-C ,  2-H ) :   0.8760 B(  1-C ,  3-C ) :   0.9504
B(  1-C , 11-O ) :   0.9392 B(  3-C ,  4-H ) :   0.8784 B(  3-C ,  5-C ) :   1.0136
B(  3-C , 15-O ) :   1.0550 B(  5-C ,  6-H ) :   0.8602 B(  5-C ,  7-C ) :   1.0415
B(  5-C , 14-O ) :   1.1116 B(  7-C ,  8-H ) :   0.8800 B(  7-C ,  9-C ) :   0.9722
B(  7-C , 13-O ) :   1.0844 B(  9-C , 10-H ) :   0.8938 B(  9-C , 11-O ) :   1.0899
B(  9-C , 12-O ) :   1.1004 B( 12-O , 19-H ) :   0.8345 B( 13-O , 20-H ) :   0.8463
B( 14-O , 21-H ) :   0.8426 B( 15-O , 22-H ) :   0.8460 B( 16-O , 23-H ) :   0.8475

Dispersion correction           -0.024281849
FINAL SINGLE POINT ENERGY      -685.689975791215

DIPOLE MOMENT
-------------

Method             : SCF
Type of density    : Electron Density
Multiplicity       :   1
Irrep              :   0
Energy             :  -685.8192040160002989 Eh
Relativity type    :
Basis              : AO
                                X                 Y                 Z
Electronic contribution:      1.352435396       0.528357274       0.867083611
Nuclear contribution   :      0.090549554      -1.245289245      -0.405940270
                        -----------------------------------------
Total Dipole Moment    :      1.442984950      -0.716931970       0.461143341
                        -----------------------------------------
Magnitude (a.u.)       :      1.675962469
Magnitude (Debye)      :      4.259958051

Rotational constants in cm-1:             0.042686             0.025539             0.018368
Rotational constants in MHz :          1279.704688           765.633573           550.665840

                             ****ORCA TERMINATED NORMALLY****
TOTAL RUN TIME: 0 days 0 hours 0 minutes 11 seconds 810 msec
