                         Program Version 6.0.0  -   RELEASE  -
|  1> ! r2scan-3c def2/J RI DEFGRID2 scfconv6 printgap
|  2> %output
|  3>     printlevel normal
|  4> end
|  5> * xyz 0 1
|  6> C -2.4803273284 0.233996317 0.0131907735
|  7> O -1.0519391803 0.3340923523 0.0038263307
|  8> C -0.3661187382 -0.7883220792 -0.0168434607
|  9> O -0.8617276736 -1.8939571072 -0.0270096561
| 10> C 1.1337336735 -0.5867423025 -0.0288710451
| 11> Cl 1.596092092 1.1319131668 0.0230668004
| 12> H -2.8230655789 -0.253151512 -0.8997745079
| 13> H -2.8425670208 1.2553390253 0.0720340757
| 14> H -2.8058840391 -0.350774202 0.8736562617
| 15> H 1.5461819076 -1.0229946825 -0.9394769069
| 16> H 1.5701725308 -1.0845278759 0.8377716231
| 17> *
| 18>
| 19>                          ****END OF INPUT****

CARTESIAN COORDINATES (ANGSTROEM)
---------------------------------
  C     -2.480327    0.233996    0.013191
  O     -1.051939    0.334092    0.003826
  C     -0.366119   -0.788322   -0.016843
  O     -0.861728   -1.893957   -0.027010
  C      1.133734   -0.586742   -0.028871
  Cl     1.596092    1.131913    0.023067
  H     -2.823066   -0.253152   -0.899775
  H     -2.842567    1.255339    0.072034
  H     -2.805884   -0.350774    0.873656
  H      1.546182   -1.022995   -0.939477
  H      1.570173   -1.084528    0.837772

 Total Charge           Charge          ....    0
 Multiplicity           Mult            ....    1
 Number of Electrons    NEL             ....   56
 Basis Dimension        Dim             ....  157

ORBITAL ENERGIES
----------------

  NO   OCC          E(Eh)            E(eV)
   0   2.0000    -101.211464     -2754.1040
   1   2.0000     -19.016792      -517.4732
   2   2.0000     -18.948316      -515.6099
   3   2.0000     -10.175539      -276.8905
   4   2.0000     -10.114709      -275.2352
   5   2.0000     -10.098817      -274.8028
   6   2.0000      -9.367492      -254.9024
   7   2.0000      -7.114179      -193.5866
   8   2.0000      -7.103330      -193.2914
   9   2.0000      -7.103215      -193.2883
  10   2.0000      -1.094421       -29.7807
  11   2.0000      -0.996708       -27.1218
  12   2.0000      -0.834521       -22.7085
  13   2.0000      -0.725428       -19.7399
  14   2.0000      -0.669909       -18.2291
  15   2.0000      -0.553308       -15.0563
  16   2.0000      -0.489955       -13.3324
  17   2.0000      -0.481034       -13.0896
  18   2.0000      -0.455648       -12.3988
  19   2.0000      -0.436837       -11.8869
  20   2.0000      -0.401910       -10.9365
  21   2.0000      -0.400162       -10.8890
  22   2.0000      -0.365182        -9.9371
  23   2.0000      -0.337702        -9.1893
  24   2.0000      -0.293766        -7.9938
  25   2.0000      -0.291758        -7.9391
  26   2.0000      -0.273976        -7.4553
  27   2.0000      -0.248932        -6.7738
  28   0.0000      -0.033161        -0.9024
  29   0.0000      -0.001567        -0.0426
  30   0.0000       0.050993         1.3876
  31   0.0000       0.090090         2.4515
  32   0.0000       0.109954         2.9920

MULLIKEN ATOMIC CHARGES
-----------------------
   0 C :   -0.280089
   1 O :   -0.173529
   2 C :    0.357975
   3 O :   -0.413892
   4 C :   -0.194785
   5 Cl:   -0.154738
   6 H :    0.162594
   7 H :    0.157704
   8 H :    0.164542
   9 H :    0.187073
  10 H :    0.187144
Sum of atomic charges:   -0.0000000

LOEWDIN ATOMIC CHARGES
----------------------
   0 C :   -0.034217
   1 O :   -0.614063
   2 C :    0.332181
   3 O :   -0.413202
   4 C :   -0.255584
   5 Cl:    0.076923
   6 H :    0.178456
   7 H :    0.180182
   8 H :    0.179535
   9 H :    0.184927
  10 H :    0.184862

  Mayer bond orders larger than 0.100000
B(  0-C ,  1-O ) :   0.8433 B(  0-C ,  6-H ) :   0.9596 B(  0-C ,  7-H ) :   0.9677
B(  0-C ,  8-H ) :   0.9603 B(  1-O ,  2-C ) :   1.1275 B(  2-C ,  3-O ) :   1.7913
B(  2-C ,  4-C ) :   1.0048 B(  4-C ,  5-Cl) :   1.0304 B(  4-C ,  9-H ) :   0.9341
B(  4-C , 10-H ) :   0.9361

Dispersion correction           -0.002608218
FINAL SINGLE POINT ENERGY      -727.903129277134

DIPOLE MOMENT
-------------

Method             : SCF
Type of density    : Electron Density
Multiplicity       :   1
Irrep              :   0
Energy             :  -727.9111469735614719 Eh
Relativity type    :
Basis              : AO
                                X                 Y                 Z
Electronic contribution:      6.812367052       3.074116973       0.074579858
Nuclear contribution   :     -7.194678629      -2.908428736      -0.083643613
                        -----------------------------------------
Total Dipole Moment    :     -0.382311576       0.165688237      -0.009063756
                        -----------------------------------------
Magnitude (a.u.)       :      0.416769583
Magnitude (Debye)      :      1.059344091

Rotational constants in cm-1:             0.180582             0.061570             0.046727
Rotational constants in MHz :          5413.715600          1845.822020          1400.841537

                             ****ORCA TERMINATED NORMALLY****
TOTAL RUN TIME: 0 days 0 hours 0 minutes 14 seconds 984 msec
