                         Program Version 6.0.0  -   RELEASE  -
|  1> ! r2scan-3c def2/J RI DEFGRID2 scfconv6 printgap
|  2> %output
|  3>     printlevel normal
|  4> end
|  5> %cpcm
|  6>     smd true
|  7>     smdsolvent "water"
|  8> end
|  9> * xyz 0 1
| 10> C -2.4803273284 0.233996317 0.0131907735
| 11> O -1.0519391803 0.3340923523 0.0038263307
| 12> C -0.3661187382 -0.7883220792 -0.0168434607
| 13> O -0.8617276736 -1.8939571072 -0.0270096561
| 14> C 1.1337336735 -0.5867423025 -0.0288710451
| 15> Cl 1.596092092 1.1319131668 0.0230668004
| 16> H -2.8230655789 -0.253151512 -0.8997745079
| 17> H -2.8425670208 1.2553390253 0.0720340757
| 18> H -2.8058840391 -0.350774202 0.8736562617
| 19> H 1.5461819076 -1.0229946825 -0.9394769069
| 20> H 1.5701725308 -1.0845278759 0.8377716231
| 21> *
| 22>
| 23>                          ****END OF INPUT****

CARTESIAN COORDINATES (ANGSTROEM)
---------------------------------
  C     -2.480327    0.233996    0.013191
  O     -1.051939    0.334092    0.003826
  C     -0.366119   -0.788322   -0.016843
  O     -0.861728   -1.893957   -0.027010
  C      1.133734   -0.586742   -0.028871
  Cl     1.596092    1.131913    0.023067
  H     -2.823066   -0.253152   -0.899775
  H     -2.842567    1.255339    0.072034
  H     -2.805884   -0.350774    0.873656
  H      1.546182   -1.022995   -0.939477
  H      1.570173   -1.084528    0.837772

 Total Charge           Charge          ....    0
 Multiplicity           Mult            ....    1
 Number of Electrons    NEL             ....   56
 Basis Dimension        Dim             ....  157

ORBITAL ENERGIES
----------------

  NO   OCC          E(Eh)            E(eV)
   0   2.0000    -101.212211     -2754.1243
   1   2.0000     -19.014580      -517.4130
   2   2.0000     -18.954413      -515.7758
   3   2.0000     -10.178073      -276.9595
   4   2.0000     -10.103493      -274.9300
   5   2.0000     -10.080917      -274.3157
   6   2.0000      -9.368352      -254.9258
   7   2.0000      -7.114776      -193.6029
   8   2.0000      -7.104294      -193.3177
   9   2.0000      -7.104225      -193.3158
  10   2.0000      -1.093164       -29.7465
  11   2.0000      -1.001012       -27.2389
  12   2.0000      -0.831378       -22.6229
  13   2.0000      -0.717416       -19.5219
  14   2.0000      -0.660474       -17.9724
  15   2.0000      -0.543245       -14.7824
  16   2.0000      -0.484020       -13.1709
  17   2.0000      -0.473470       -12.8838
  18   2.0000      -0.463296       -12.6069
  19   2.0000      -0.422758       -11.5038
  20   2.0000      -0.400183       -10.8895
  21   2.0000      -0.388508       -10.5718
  22   2.0000      -0.360319        -9.8048
  23   2.0000      -0.332366        -9.0441
  24   2.0000      -0.295899        -8.0518
  25   2.0000      -0.291883        -7.9425
  26   2.0000      -0.274349        -7.4654
  27   2.0000      -0.255019        -6.9394
  28   0.0000      -0.031881        -0.8675
  29   0.0000       0.001340         0.0365
  30   0.0000       0.063407         1.7254
  31   0.0000       0.106040         2.8855
  32   0.0000       0.127929         3.4811

MULLIKEN ATOMIC CHARGES
-----------------------
   0 C :   -0.318544
   1 O :   -0.189132
   2 C :    0.411608
   3 O :   -0.488413
   4 C :   -0.218700
   5 Cl:   -0.193278
   6 H :    0.182666
   7 H :    0.182807
   8 H :    0.181975
   9 H :    0.224874
  10 H :    0.224137
Sum of atomic charges:    0.0000000

LOEWDIN ATOMIC CHARGES
----------------------
   0 C :   -0.032328
   1 O :   -0.618026
   2 C :    0.345909
   3 O :   -0.466034
   4 C :   -0.247808
   5 Cl:    0.055914
   6 H :    0.185250
   7 H :    0.190796
   8 H :    0.185569
   9 H :    0.200572
  10 H :    0.200186

  Mayer bond orders larger than 0.100000
B(  0-C ,  1-O ) :   0.8236 B(  0-C ,  6-H ) :   0.9534 B(  0-C ,  7-H ) :   0.9585
B(  0-C ,  8-H ) :   0.9544 B(  1-O ,  2-C ) :   1.1553 B(  2-C ,  3-O ) :   1.7431
B(  2-C ,  4-C ) :   1.0076 B(  4-C ,  5-Cl) :   0.9919 B(  4-C ,  9-H ) :   0.9206
B(  4-C , 10-H ) :   0.9229

Dispersion correction           -0.002608218
FINAL SINGLE POINT ENERGY      -727.910813738099

DIPOLE MOMENT
-------------

Method             : SCF
Type of density    : Electron Density
Multiplicity       :   1
Irrep              :   0
Energy             :  -727.9188314345265098 Eh
Relativity type    :
Basis              : AO
                                X                 Y                 Z
Electronic contribution:      6.817171383       3.134326092       0.069213943
Nuclear contribution   :     -7.194678629      -2.908428736      -0.083643613
                        -----------------------------------------
Total Dipole Moment    :     -0.377507246       0.225897355      -0.014429671
                        -----------------------------------------
Magnitude (a.u.)       :      0.440169912
Magnitude (Debye)      :      1.118823002

Rotational constants in cm-1:             0.180582             0.061570             0.046727
Rotational constants in MHz :          5413.715600          1845.822020          1400.841537

                             ****ORCA TERMINATED NORMALLY****
TOTAL RUN TIME: 0 days 0 hours 0 minutes 17 seconds 745 msec
