                         Program Version 6.0.0  -   RELEASE  -
|  1> ! r2scan-3c def2/J RI DEFGRID2 scfconv6 printgap
|  2> %output
|  3>     printlevel normal
|  4> end
|  5> * xyz 0 1
|  6> C -3.524534208 8.56089e-05 0.0015289371
|  7> C -2.8281717661 1.1171253663 0.4324790566
|  8> C -1.4454373172 1.1191210046 0.4285739225
|  9> C -0.7356470789 0.0001988975 -0.0014826361
| 10> C -1.446226571 -1.118655501 -0.4302226145
| 11> C -2.8289456082 -1.116778065 -0.4312207073
| 12> C 0.7356492135 -8.04048e-05 -0.0014216786
| 13> C 1.4463129228 1.1187177331 -0.4301894487
| 14> C 2.8290219372 1.1167448451 -0.431146266
| 15> C 3.5245417979 -0.0001890011 0.0014283951
| 16> C 2.8280866638 -1.1172040364 0.4324919657
| 17> C 1.4453477338 -1.1190650844 0.4286687119
| 18> H -4.6041737298 -4.60746e-05 0.0027281818
| 19> H -3.3650331906 1.9894916418 0.7745270322
| 20> H -0.9074919197 1.9871162324 0.7811015293
| 21> H -0.9089801785 -1.986664072 -0.783201197
| 22> H -3.3664325433 -1.9892270513 -0.7721179305
| 23> H 0.9091424314 1.9867545762 -0.7831919552
| 24> H 3.3665952896 1.9891595034 -0.7720448525
| 25> H 4.6041512981 -0.0001528217 0.002772802
| 26> H 3.3648918969 -1.989627912 0.774675603
| 27> H 0.90735782 -1.9870585985 0.7808565356
| 28> *
| 29>
| 30>                          ****END OF INPUT****

CARTESIAN COORDINATES (ANGSTROEM)
---------------------------------
  C     -3.524534    0.000086    0.001529
  C     -2.828172    1.117125    0.432479
  C     -1.445437    1.119121    0.428574
  C     -0.735647    0.000199   -0.001483
  C     -1.446227   -1.118656   -0.430223
  C     -2.828946   -1.116778   -0.431221
  C      0.735649   -0.000080   -0.001422
  C      1.446313    1.118718   -0.430189
  C      2.829022    1.116745   -0.431146
  C      3.524542   -0.000189    0.001428
  C      2.828087   -1.117204    0.432492
  C      1.445348   -1.119065    0.428669
  H     -4.604174   -0.000046    0.002728
  H     -3.365033    1.989492    0.774527
  H     -0.907492    1.987116    0.781102
  H     -0.908980   -1.986664   -0.783201
  H     -3.366433   -1.989227   -0.772118
  H      0.909142    1.986755   -0.783192
  H      3.366595    1.989160   -0.772045
  H      4.604151   -0.000153    0.002773
  H      3.364892   -1.989628    0.774676
  H      0.907358   -1.987059    0.780857

 Total Charge           Charge          ....    0
 Multiplicity           Mult            ....    1
 Number of Electrons    NEL             ....   82
 Basis Dimension        Dim             ....  278

ORBITAL ENERGIES
----------------

  NO   OCC          E(Eh)            E(eV)
   0   2.0000     -10.047868      -273.4164
   1   2.0000     -10.047659      -273.4107
   2   2.0000     -10.036934      -273.1189
   3   2.0000     -10.036930      -273.1187
   4   2.0000     -10.036882      -273.1174
   5   2.0000     -10.036879      -273.1174
   6   2.0000     -10.036275      -273.1009
   7   2.0000     -10.036271      -273.1008
   8   2.0000     -10.036250      -273.1003
   9   2.0000     -10.036248      -273.1002
  10   2.0000     -10.035432      -273.0780
  11   2.0000     -10.035432      -273.0780
  12   2.0000      -0.843078       -22.9413
  13   2.0000      -0.820188       -22.3184
  14   2.0000      -0.750301       -20.4167
  15   2.0000      -0.722742       -19.6668
  16   2.0000      -0.715475       -19.4691
  17   2.0000      -0.692456       -18.8427
  18   2.0000      -0.596554       -16.2331
  19   2.0000      -0.590456       -16.0671
  20   2.0000      -0.563896       -15.3444
  21   2.0000      -0.549375       -14.9492
  22   2.0000      -0.505277       -13.7493
  23   2.0000      -0.471129       -12.8201
  24   2.0000      -0.439820       -11.9681
  25   2.0000      -0.436490       -11.8775
  26   2.0000      -0.411676       -11.2023
  27   2.0000      -0.410960       -11.1828
  28   2.0000      -0.395809       -10.7705
  29   2.0000      -0.390955       -10.6384
  30   2.0000      -0.389254       -10.5921
  31   2.0000      -0.356103        -9.6901
  32   2.0000      -0.339881        -9.2486
  33   2.0000      -0.336093        -9.1456
  34   2.0000      -0.321501        -8.7485
  35   2.0000      -0.306640        -8.3441
  36   2.0000      -0.306630        -8.3438
  37   2.0000      -0.259741        -7.0679
  38   2.0000      -0.240007        -6.5309
  39   2.0000      -0.239909        -6.5283
  40   2.0000      -0.215055        -5.8520
  41   0.0000      -0.055716        -1.5161
  42   0.0000      -0.035132        -0.9560
  43   0.0000      -0.033576        -0.9137
  44   0.0000      -0.004976        -0.1354
  45   0.0000       0.081825         2.2266

MULLIKEN ATOMIC CHARGES
-----------------------
   0 C :   -0.142446
   1 C :   -0.163248
   2 C :   -0.215121
   3 C :    0.157010
   4 C :   -0.215068
   5 C :   -0.163084
   6 C :    0.156975
   7 C :   -0.215053
   8 C :   -0.163066
   9 C :   -0.142467
  10 C :   -0.163218
  11 C :   -0.215142
  12 H :    0.146825
  13 H :    0.145593
  14 H :    0.152002
  15 H :    0.151963
  16 H :    0.145588
  17 H :    0.151968
  18 H :    0.145588
  19 H :    0.146825
  20 H :    0.145599
  21 H :    0.151976
Sum of atomic charges:   -0.0000000

LOEWDIN ATOMIC CHARGES
----------------------
   0 C :   -0.167027
   1 C :   -0.159884
   2 C :   -0.148192
   3 C :   -0.066091
   4 C :   -0.148225
   5 C :   -0.159870
   6 C :   -0.066084
   7 C :   -0.148224
   8 C :   -0.159873
   9 C :   -0.167028
  10 C :   -0.159881
  11 C :   -0.148193
  12 H :    0.166987
  13 H :    0.167609
  14 H :    0.173560
  15 H :    0.173525
  16 H :    0.167608
  17 H :    0.173526
  18 H :    0.167611
  19 H :    0.166983
  20 H :    0.167616
  21 H :    0.173546

  Mayer bond orders larger than 0.100000
B(  0-C ,  1-C ) :   1.4178 B(  0-C ,  5-C ) :   1.4178 B(  0-C , 12-H ) :   0.9474
B(  1-C ,  2-C ) :   1.4372 B(  1-C , 13-H ) :   0.9494 B(  2-C ,  3-C ) :   1.4100
B(  2-C , 14-H ) :   0.9392 B(  3-C ,  4-C ) :   1.4096 B(  3-C ,  6-C ) :   0.8079
B(  4-C ,  5-C ) :   1.4370 B(  4-C , 15-H ) :   0.9394 B(  5-C , 16-H ) :   0.9493
B(  6-C ,  7-C ) :   1.4097 B(  6-C , 11-C ) :   1.4099 B(  7-C ,  8-C ) :   1.4369
B(  7-C , 17-H ) :   0.9394 B(  8-C ,  9-C ) :   1.4178 B(  8-C , 18-H ) :   0.9493
B(  9-C , 10-C ) :   1.4177 B(  9-C , 19-H ) :   0.9474 B( 10-C , 11-C ) :   1.4372
B( 10-C , 20-H ) :   0.9494 B( 11-C , 21-H ) :   0.9393

Dispersion correction           -0.008801462
FINAL SINGLE POINT ENERGY      -463.174446617978

DIPOLE MOMENT
-------------

Method             : SCF
Type of density    : Electron Density
Multiplicity       :   1
Irrep              :   0
Energy             :  -463.1700379911181926 Eh
Relativity type    :
Basis              : AO
                                X                 Y                 Z
Electronic contribution:     -0.000052866       0.000211770      -0.004773633
Nuclear contribution   :      0.000025494      -0.000238836       0.005728232
                        -----------------------------------------
Total Dipole Moment    :     -0.000027372      -0.000027066       0.000954600
                        -----------------------------------------
Magnitude (a.u.)       :      0.000955375
Magnitude (Debye)      :      0.002428371

Rotational constants in cm-1:             0.096518             0.018511             0.016210
Rotational constants in MHz :          2893.542756           554.957568           485.975174

                             ****ORCA TERMINATED NORMALLY****
TOTAL RUN TIME: 0 days 0 hours 0 minutes 30 seconds 826 msec
