                         Program Version 6.0.0  -   RELEASE  -
|  1> ! r2scan-3c def2/J RI DEFGRID2 scfconv6 printgap
|  2> %output
|  3>     printlevel normal
|  4> end
|  5> %cpcm
|  6>     smd true
|  7>     smdsolvent "water"
|  8> end
|  9> * xyz 0 1
| 10> C -3.524534208 8.56089e-05 0.0015289371
| 11> C -2.8281717661 1.1171253663 0.4324790566
| 12> C -1.4454373172 1.1191210046 0.4285739225
| 13> C -0.7356470789 0.0001988975 -0.0014826361
| 14> C -1.446226571 -1.118655501 -0.4302226145
| 15> C -2.8289456082 -1.116778065 -0.4312207073
| 16> C 0.7356492135 -8.04048e-05 -0.0014216786
| 17> C 1.4463129228 1.1187177331 -0.4301894487
| 18> C 2.8290219372 1.1167448451 -0.431146266
| 19> C 3.5245417979 -0.0001890011 0.0014283951
| 20> C 2.8280866638 -1.1172040364 0.4324919657
| 21> C 1.4453477338 -1.1190650844 0.4286687119
| 22> H -4.6041737298 -4.60746e-05 0.0027281818
| 23> H -3.3650331906 1.9894916418 0.7745270322
| 24> H -0.9074919197 1.9871162324 0.7811015293
| 25> H -0.9089801785 -1.986664072 -0.783201197
| 26> H -3.3664325433 -1.9892270513 -0.7721179305
| 27> H 0.9091424314 1.9867545762 -0.7831919552
| 28> H 3.3665952896 1.9891595034 -0.7720448525
| 29> H 4.6041512981 -0.0001528217 0.002772802
| 30> H 3.3648918969 -1.989627912 0.774675603
| 31> H 0.90735782 -1.9870585985 0.7808565356
| 32> *
| 33>
| 34>                          ****END OF INPUT****

CARTESIAN COORDINATES (ANGSTROEM)
---------------------------------
  C     -3.524534    0.000086    0.001529
  C     -2.828172    1.117125    0.432479
  C     -1.445437    1.119121    0.428574
  C     -0.735647    0.000199   -0.001483
  C     -1.446227   -1.118656   -0.430223
  C     -2.828946   -1.116778   -0.431221
  C      0.735649   -0.000080   -0.001422
  C      1.446313    1.118718   -0.430189
  C      2.829022    1.116745   -0.431146
  C      3.524542   -0.000189    0.001428
  C      2.828087   -1.117204    0.432492
  C      1.445348   -1.119065    0.428669
  H     -4.604174   -0.000046    0.002728
  H     -3.365033    1.989492    0.774527
  H     -0.907492    1.987116    0.781102
  H     -0.908980   -1.986664   -0.783201
  H     -3.366433   -1.989227   -0.772118
  H      0.909142    1.986755   -0.783192
  H      3.366595    1.989160   -0.772045
  H      4.604151   -0.000153    0.002773
  H      3.364892   -1.989628    0.774676
  H      0.907358   -1.987059    0.780857

 Total Charge           Charge          ....    0
 Multiplicity           Mult            ....    1
 Number of Electrons    NEL             ....   82
 Basis Dimension        Dim             ....  278

ORBITAL ENERGIES
----------------

  NO   OCC          E(Eh)            E(eV)
   0   2.0000     -10.046882      -273.3895
   1   2.0000     -10.046672      -273.3838
   2   2.0000     -10.034450      -273.0513
   3   2.0000     -10.034448      -273.0512
   4   2.0000     -10.034427      -273.0506
   5   2.0000     -10.034425      -273.0506
   6   2.0000     -10.034000      -273.0390
   7   2.0000     -10.033998      -273.0390
   8   2.0000     -10.033944      -273.0375
   9   2.0000     -10.033942      -273.0375
  10   2.0000     -10.032939      -273.0101
  11   2.0000     -10.032937      -273.0101
  12   2.0000      -0.843010       -22.9395
  13   2.0000      -0.819949       -22.3119
  14   2.0000      -0.749442       -20.3934
  15   2.0000      -0.721092       -19.6219
  16   2.0000      -0.713872       -19.4254
  17   2.0000      -0.691255       -18.8100
  18   2.0000      -0.594325       -16.1724
  19   2.0000      -0.587615       -15.9898
  20   2.0000      -0.560992       -15.2654
  21   2.0000      -0.546437       -14.8693
  22   2.0000      -0.501478       -13.6459
  23   2.0000      -0.466760       -12.7012
  24   2.0000      -0.434703       -11.8289
  25   2.0000      -0.434183       -11.8147
  26   2.0000      -0.409828       -11.1520
  27   2.0000      -0.406232       -11.0541
  28   2.0000      -0.391170       -10.6443
  29   2.0000      -0.387454       -10.5432
  30   2.0000      -0.385034       -10.4773
  31   2.0000      -0.357789        -9.7359
  32   2.0000      -0.342243        -9.3129
  33   2.0000      -0.331613        -9.0236
  34   2.0000      -0.316601        -8.6152
  35   2.0000      -0.303199        -8.2505
  36   2.0000      -0.302301        -8.2260
  37   2.0000      -0.261441        -7.1142
  38   2.0000      -0.241466        -6.5706
  39   2.0000      -0.241419        -6.5693
  40   2.0000      -0.216783        -5.8990
  41   0.0000      -0.056794        -1.5454
  42   0.0000      -0.035564        -0.9677
  43   0.0000      -0.034127        -0.9286
  44   0.0000      -0.005904        -0.1607
  45   0.0000       0.088248         2.4014

MULLIKEN ATOMIC CHARGES
-----------------------
   0 C :   -0.170421
   1 C :   -0.206763
   2 C :   -0.222637
   3 C :    0.128019
   4 C :   -0.222527
   5 C :   -0.206613
   6 C :    0.127988
   7 C :   -0.222515
   8 C :   -0.206600
   9 C :   -0.170437
  10 C :   -0.206751
  11 C :   -0.222644
  12 H :    0.179925
  13 H :    0.178215
  14 H :    0.182318
  15 H :    0.182286
  16 H :    0.178211
  17 H :    0.182288
  18 H :    0.178211
  19 H :    0.179923
  20 H :    0.178225
  21 H :    0.182299
Sum of atomic charges:   -0.0000000

LOEWDIN ATOMIC CHARGES
----------------------
   0 C :   -0.176150
   1 C :   -0.169157
   2 C :   -0.154865
   3 C :   -0.078436
   4 C :   -0.154878
   5 C :   -0.169139
   6 C :   -0.078429
   7 C :   -0.154876
   8 C :   -0.169142
   9 C :   -0.176152
  10 C :   -0.169156
  11 C :   -0.154864
  12 H :    0.177779
  13 H :    0.178683
  14 H :    0.183759
  15 H :    0.183722
  16 H :    0.178683
  17 H :    0.183721
  18 H :    0.178686
  19 H :    0.177774
  20 H :    0.178693
  21 H :    0.183743

  Mayer bond orders larger than 0.100000
B(  0-C ,  1-C ) :   1.3815 B(  0-C ,  5-C ) :   1.3814 B(  0-C , 12-H ) :   0.9534
B(  1-C ,  2-C ) :   1.4170 B(  1-C , 13-H ) :   0.9584 B(  2-C ,  3-C ) :   1.3772
B(  2-C , 14-H ) :   0.9439 B(  3-C ,  4-C ) :   1.3769 B(  3-C ,  6-C ) :   0.8027
B(  4-C ,  5-C ) :   1.4168 B(  4-C , 15-H ) :   0.9440 B(  5-C , 16-H ) :   0.9584
B(  6-C ,  7-C ) :   1.3770 B(  6-C , 11-C ) :   1.3772 B(  7-C ,  8-C ) :   1.4168
B(  7-C , 17-H ) :   0.9440 B(  8-C ,  9-C ) :   1.3815 B(  8-C , 18-H ) :   0.9584
B(  9-C , 10-C ) :   1.3814 B(  9-C , 19-H ) :   0.9534 B( 10-C , 11-C ) :   1.4170
B( 10-C , 20-H ) :   0.9584 B( 11-C , 21-H ) :   0.9439

Dispersion correction           -0.008801462
FINAL SINGLE POINT ENERGY      -463.178480266867

DIPOLE MOMENT
-------------

Method             : SCF
Type of density    : Electron Density
Multiplicity       :   1
Irrep              :   0
Energy             :  -463.1740716400069005 Eh
Relativity type    :
Basis              : AO
                                X                 Y                 Z
Electronic contribution:     -0.000059925       0.000187819      -0.004448954
Nuclear contribution   :      0.000025494      -0.000238836       0.005728232
                        -----------------------------------------
Total Dipole Moment    :     -0.000034431      -0.000051017       0.001279278
                        -----------------------------------------
Magnitude (a.u.)       :      0.001280758
Magnitude (Debye)      :      0.003255428

Rotational constants in cm-1:             0.096518             0.018511             0.016210
Rotational constants in MHz :          2893.542756           554.957568           485.975174

                             ****ORCA TERMINATED NORMALLY****
TOTAL RUN TIME: 0 days 0 hours 0 minutes 34 seconds 402 msec
