                         Program Version 6.0.0  -   RELEASE  -
|  1> ! pbe def2-sv(p) def2/J RI DEFGRID1 loosescf d4 GCP(DFT/SV(P)) printgap
|  2> %output
|  3>     printlevel normal
|  4> end
|  5> * xyz 0 1
|  6> C -3.3224610076 -0.1803456378 -0.8977920302
|  7> C -1.8357249373 -0.3433814562 -0.5970604646
|  8> H -1.3776387838 -0.9041437326 -1.4176296093
|  9> C -1.5963353262 -1.1164863201 0.698220201
| 10> C -0.1140889438 -1.4591712399 0.8214254633
| 11> C 0.7961789148 -0.224742956 0.6386562963
| 12> H 1.4420904386 -0.0989667847 1.514267341
| 13> C -0.026355917 1.0368649874 0.5259722967
| 14> O 0.2197522256 2.0218832493 1.1988936095
| 15> C -1.1578337319 1.0276456888 -0.4657860107
| 16> C 1.7194343887 -0.3509555052 -0.5979553607
| 17> C 2.4572373003 0.9592266654 -0.871741093
| 18> C 2.7436893694 -1.4641001482 -0.383962744
| 19> H -3.4665541152 0.4055167142 -1.8021556471
| 20> H -3.7889365658 -1.1521043721 -1.0386636908
| 21> H -3.8236264744 0.3245534664 -0.0747627277
| 22> H -1.9165209099 -0.506477533 1.5469638261
| 23> H -2.1810430917 -2.0373021429 0.7041984017
| 24> H 0.075664934 -1.9085591238 1.7962255458
| 25> H 0.1247473509 -2.2032055757 0.0608594794
| 26> H -1.8764853372 1.7871254438 -0.1486988367
| 27> H -0.7537737341 1.3529892413 -1.4271741039
| 28> H 1.1012762543 -0.5958872509 -1.4671614523
| 29> H 3.1438323409 0.8353948742 -1.7056251324
| 30> H 3.0288936302 1.2605237269 0.0038343661
| 31> H 1.7690823412 1.7667937958 -1.1116754689
| 32> H 3.3597392961 -1.5754747575 -1.2727415077
| 33> H 2.2656235623 -2.4172671007 -0.1789246139
| 34> H 3.3924440107 -1.2194081752 0.4539597662
| 35> *
| 36>
| 37>                          ****END OF INPUT****

CARTESIAN COORDINATES (ANGSTROEM)
---------------------------------
  C     -3.322461   -0.180346   -0.897792
  C     -1.835725   -0.343381   -0.597060
  H     -1.377639   -0.904144   -1.417630
  C     -1.596335   -1.116486    0.698220
  C     -0.114089   -1.459171    0.821425
  C      0.796179   -0.224743    0.638656
  H      1.442090   -0.098967    1.514267
  C     -0.026356    1.036865    0.525972
  O      0.219752    2.021883    1.198894
  C     -1.157834    1.027646   -0.465786
  C      1.719434   -0.350956   -0.597955
  C      2.457237    0.959227   -0.871741
  C      2.743689   -1.464100   -0.383963
  H     -3.466554    0.405517   -1.802156
  H     -3.788937   -1.152104   -1.038664
  H     -3.823626    0.324553   -0.074763
  H     -1.916521   -0.506478    1.546964
  H     -2.181043   -2.037302    0.704198
  H      0.075665   -1.908559    1.796226
  H      0.124747   -2.203206    0.060859
  H     -1.876485    1.787125   -0.148699
  H     -0.753774    1.352989   -1.427174
  H      1.101276   -0.595887   -1.467161
  H      3.143832    0.835395   -1.705625
  H      3.028894    1.260524    0.003834
  H      1.769082    1.766794   -1.111675
  H      3.359739   -1.575475   -1.272742
  H      2.265624   -2.417267   -0.178925
  H      3.392444   -1.219408    0.453960

 Total Charge           Charge          ....    0
 Multiplicity           Mult            ....    1
 Number of Electrons    NEL             ....   86
 Basis Dimension        Dim             ....  190

ORBITAL ENERGIES
----------------

  NO   OCC          E(Eh)            E(eV)
   0   2.0000     -18.727174      -509.5923
   1   2.0000      -9.965187      -271.1665
   2   2.0000      -9.907928      -269.6084
   3   2.0000      -9.904857      -269.5249
   4   2.0000      -9.895708      -269.2759
   5   2.0000      -9.891617      -269.1646
   6   2.0000      -9.889434      -269.1052
   7   2.0000      -9.888930      -269.0915
   8   2.0000      -9.879040      -268.8223
   9   2.0000      -9.878801      -268.8159
  10   2.0000      -9.874030      -268.6860
  11   2.0000      -0.926080       -25.1999
  12   2.0000      -0.769302       -20.9338
  13   2.0000      -0.732100       -19.9215
  14   2.0000      -0.680423       -18.5152
  15   2.0000      -0.651766       -17.7354
  16   2.0000      -0.615271       -16.7424
  17   2.0000      -0.613327       -16.6895
  18   2.0000      -0.550264       -14.9734
  19   2.0000      -0.524005       -14.2589
  20   2.0000      -0.510081       -13.8800
  21   2.0000      -0.470243       -12.7960
  22   2.0000      -0.443927       -12.0799
  23   2.0000      -0.419800       -11.4233
  24   2.0000      -0.408341       -11.1115
  25   2.0000      -0.397110       -10.8059
  26   2.0000      -0.389163       -10.5897
  27   2.0000      -0.376883       -10.2555
  28   2.0000      -0.370188       -10.0733
  29   2.0000      -0.354898        -9.6573
  30   2.0000      -0.345755        -9.4085
  31   2.0000      -0.342474        -9.3192
  32   2.0000      -0.340275        -9.2593
  33   2.0000      -0.335654        -9.1336
  34   2.0000      -0.320039        -8.7087
  35   2.0000      -0.315249        -8.5784
  36   2.0000      -0.302456        -8.2302
  37   2.0000      -0.299227        -8.1424
  38   2.0000      -0.292208        -7.9514
  39   2.0000      -0.285078        -7.7574
  40   2.0000      -0.275048        -7.4844
  41   2.0000      -0.267507        -7.2792
  42   2.0000      -0.183108        -4.9826
  43   0.0000      -0.046998        -1.2789
  44   0.0000       0.023810         0.6479
  45   0.0000       0.044771         1.2183
  46   0.0000       0.047788         1.3004
  47   0.0000       0.056361         1.5337

MULLIKEN ATOMIC CHARGES
-----------------------
   0 C :   -0.214204
   1 C :   -0.206228
   2 H :    0.069096
   3 C :   -0.134169
   4 C :   -0.079993
   5 C :   -0.069088
   6 H :    0.058198
   7 C :   -0.039181
   8 O :   -0.160603
   9 C :   -0.074050
  10 C :   -0.243712
  11 C :   -0.221062
  12 C :   -0.227731
  13 H :    0.102684
  14 H :    0.098902
  15 H :    0.098122
  16 H :    0.089781
  17 H :    0.084611
  18 H :    0.088897
  19 H :    0.079479
  20 H :    0.088482
  21 H :    0.106800
  22 H :    0.079711
  23 H :    0.099081
  24 H :    0.102346
  25 H :    0.118713
  26 H :    0.103583
  27 H :    0.104641
  28 H :    0.096894
Sum of atomic charges:    0.0000000

LOEWDIN ATOMIC CHARGES
----------------------
   0 C :   -0.327333
   1 C :   -0.151904
   2 H :    0.113975
   3 C :   -0.218812
   4 C :   -0.212444
   5 C :   -0.154653
   6 H :    0.126878
   7 C :    0.047607
   8 O :   -0.133331
   9 C :   -0.238570
  10 C :   -0.143061
  11 C :   -0.330282
  12 C :   -0.327190
  13 H :    0.119574
  14 H :    0.118700
  15 H :    0.119432
  16 H :    0.120632
  17 H :    0.118223
  18 H :    0.123531
  19 H :    0.116997
  20 H :    0.134780
  21 H :    0.142643
  22 H :    0.113064
  23 H :    0.118822
  24 H :    0.124350
  25 H :    0.120288
  26 H :    0.120531
  27 H :    0.117465
  28 H :    0.120088

  Mayer bond orders larger than 0.100000
B(  0-C ,  1-C ) :   1.1226 B(  0-C , 13-H ) :   0.9498 B(  0-C , 14-H ) :   0.9482
B(  0-C , 15-H ) :   0.9432 B(  1-C ,  2-H ) :   0.8790 B(  1-C ,  3-C ) :   1.1401
B(  1-C ,  9-C ) :   1.0529 B(  3-C ,  4-C ) :   1.1837 B(  3-C , 16-H ) :   0.8852
B(  3-C , 17-H ) :   0.9193 B(  4-C ,  5-C ) :   1.0314 B(  4-C , 18-H ) :   0.9088
B(  4-C , 19-H ) :   0.8967 B(  5-C ,  6-H ) :   0.8547 B(  5-C ,  7-C ) :   1.0125
B(  5-C , 10-C ) :   1.0131 B(  7-C ,  8-O ) :   2.1772 B(  7-C ,  9-C ) :   1.0243
B(  9-C , 20-H ) :   0.8858 B(  9-C , 21-H ) :   0.8701 B( 10-C , 11-C ) :   1.1213
B( 10-C , 12-C ) :   1.1157 B( 10-C , 22-H ) :   0.8900 B( 11-C , 23-H ) :   0.9474
B( 11-C , 24-H ) :   0.9438 B( 11-C , 25-H ) :   0.9268 B( 12-C , 26-H ) :   0.9495
B( 12-C , 27-H ) :   0.9420 B( 12-C , 28-H ) :   0.9459

Dispersion correction           -0.030429027
FINAL SINGLE POINT ENERGY      -466.028012208190

DIPOLE MOMENT
-------------

Method             : SCF
Type of density    : Electron Density
Multiplicity       :   1
Irrep              :   0
Energy             :  -466.1240947388648692 Eh
Relativity type    :
Basis              : AO
                                X                 Y                 Z
Electronic contribution:     -0.663579440       5.528352693       4.568583904
Nuclear contribution   :      0.489994063      -6.430122014      -5.203017435
                        -----------------------------------------
Total Dipole Moment    :     -0.173585376      -0.901769321      -0.634433531
                        -----------------------------------------
Magnitude (a.u.)       :      1.116165622
Magnitude (Debye)      :      2.837067547

Rotational constants in cm-1:             0.054282             0.026442             0.022598
Rotational constants in MHz :          1627.333569           792.702491           677.458124

                             ****ORCA TERMINATED NORMALLY****
TOTAL RUN TIME: 0 days 0 hours 0 minutes 13 seconds 803 msec
