                         Program Version 6.0.0  -   RELEASE  -
|  1> ! wb97x-v def2-tzvp def2/J RIJCOSX DEFGRID2 scfconv7 GCP(DFT/TZ) printgap
|  2> %output
|  3>     printlevel normal
|  4> end
|  5> * xyz 0 1
|  6> C -2.7974321655754304 0.7397360196125552 -0.36613670381788915
|  7> C -1.9484875080225752 -0.33142041930883315 0.30606044786315634
|  8> C -0.4567279757378107 -0.1908895860468857 0.131676573089857
|  9> C 0.3684422131019789 -1.3024660176751561 0.3431259461011565
| 10> C 1.7423498730519182 -1.168184304266171 0.22193455921159058
| 11> C 2.2660400501300333 0.07764498894530124 -0.11547799873889182
| 12> C 1.3790020545211674 1.1242611736634278 -0.3148383464671359
| 13> N 0.04615277774633611 1.0090944137668194 -0.19635613954791603
| 14> H -2.601620957276412 1.7317721826378336 0.047395470886126966
| 15> H -3.8583068679710184 0.5169507076582145 -0.21851137084011543
| 16> H -2.606948074122141 0.7791160339546709 -1.4432744708381107
| 17> H -2.2383401224557313 -1.3241156203109656 -0.05656529548670595
| 18> H -2.1574147677735285 -0.3408239313482853 1.3851943515677114
| 19> H -0.076101751725996 -2.259045941883195 0.6005950798525425
| 20> H 2.3958940295792504 -2.019708530125608 0.3836172539869602
| 21> H 3.333643994639342 0.23350090474268947 -0.2251272742929933
| 22> H 1.7512049875736617 2.1109187552370225 -0.584549270958085
| 23> *
| 24>
| 25>                          ****END OF INPUT****

CARTESIAN COORDINATES (ANGSTROEM)
---------------------------------
  C     -2.797432    0.739736   -0.366137
  C     -1.948488   -0.331420    0.306060
  C     -0.456728   -0.190890    0.131677
  C      0.368442   -1.302466    0.343126
  C      1.742350   -1.168184    0.221935
  C      2.266040    0.077645   -0.115478
  C      1.379002    1.124261   -0.314838
  N      0.046153    1.009094   -0.196356
  H     -2.601621    1.731772    0.047395
  H     -3.858307    0.516951   -0.218511
  H     -2.606948    0.779116   -1.443274
  H     -2.238340   -1.324116   -0.056565
  H     -2.157415   -0.340824    1.385194
  H     -0.076102   -2.259046    0.600595
  H      2.395894   -2.019709    0.383617
  H      3.333644    0.233501   -0.225127
  H      1.751205    2.110919   -0.584549

 Total Charge           Charge          ....    0
 Multiplicity           Mult            ....    1
 Number of Electrons    NEL             ....   58
 Basis Dimension        Dim             ....  302

ORBITAL ENERGIES
----------------

  NO   OCC          E(Eh)            E(eV)
   0   2.0000     -16.520713      -449.5515
   1   2.0000     -12.090761      -329.0063
   2   2.0000     -12.082627      -328.7850
   3   2.0000     -12.069946      -328.4399
   4   2.0000     -12.055440      -328.0452
   5   2.0000     -12.054987      -328.0329
   6   2.0000     -12.048108      -327.8457
   7   2.0000     -12.028852      -327.3217
   8   2.0000      -1.515745       -41.2455
   9   2.0000      -1.342636       -36.5350
  10   2.0000      -1.318056       -35.8661
  11   2.0000      -1.250889       -34.0384
  12   2.0000      -1.154193       -31.4072
  13   2.0000      -1.148995       -31.2657
  14   2.0000      -1.087341       -29.5880
  15   2.0000      -0.994317       -27.0567
  16   2.0000      -0.967531       -26.3279
  17   2.0000      -0.922453       -25.1012
  18   2.0000      -0.885174       -24.0868
  19   2.0000      -0.877116       -23.8675
  20   2.0000      -0.873205       -23.7611
  21   2.0000      -0.839493       -22.8438
  22   2.0000      -0.828175       -22.5358
  23   2.0000      -0.817734       -22.2517
  24   2.0000      -0.784438       -21.3457
  25   2.0000      -0.768963       -20.9245
  26   2.0000      -0.759474       -20.6663
  27   2.0000      -0.697115       -18.9695
  28   2.0000      -0.643927       -17.5221
  29   0.0000      -0.288130        -7.8404
  30   0.0000      -0.244731        -6.6595
  31   0.0000      -0.094429        -2.5695
  32   0.0000      -0.050717        -1.3801
  33   0.0000      -0.040580        -1.1042

MULLIKEN ATOMIC CHARGES
-----------------------
   0 C :   -0.314784
   1 C :   -0.177772
   2 C :    0.184655
   3 C :   -0.202102
   4 C :   -0.101554
   5 C :   -0.104506
   6 C :   -0.070547
   7 N :   -0.244366
   8 H :    0.119482
   9 H :    0.107983
  10 H :    0.105603
  11 H :    0.105924
  12 H :    0.102733
  13 H :    0.120054
  14 H :    0.128057
  15 H :    0.122787
  16 H :    0.118353
Sum of atomic charges:    0.0000000

LOEWDIN ATOMIC CHARGES
----------------------
   0 C :   -0.300296
   1 C :   -0.246509
   2 C :   -0.206601
   3 C :   -0.125800
   4 C :   -0.119024
   5 C :   -0.159829
   6 C :   -0.197945
   7 N :    0.147800
   8 H :    0.120938
   9 H :    0.115127
  10 H :    0.119367
  11 H :    0.140834
  12 H :    0.145308
  13 H :    0.145459
  14 H :    0.144167
  15 H :    0.142409
  16 H :    0.134595

  Mayer bond orders larger than 0.100000
B(  0-C ,  1-C ) :   1.0088 B(  0-C ,  8-H ) :   0.9762 B(  0-C ,  9-H ) :   0.9782
B(  0-C , 10-H ) :   0.9786 B(  1-C ,  2-C ) :   0.9527 B(  1-C , 11-H ) :   0.9894
B(  1-C , 12-H ) :   0.9502 B(  2-C ,  3-C ) :   1.3782 B(  2-C ,  7-N ) :   1.4287
B(  3-C ,  4-C ) :   1.4908 B(  3-C , 13-H ) :   0.9685 B(  4-C ,  5-C ) :   1.4220
B(  4-C , 14-H ) :   0.9659 B(  5-C ,  6-C ) :   1.4291 B(  5-C , 15-H ) :   0.9642
B(  6-C ,  7-N ) :   1.5135 B(  6-C , 16-H ) :   0.9864

FINAL SINGLE POINT ENERGY      -326.927640384582

DIPOLE MOMENT
-------------

Method             : SCF
Type of density    : Electron Density
Multiplicity       :   1
Irrep              :   0
Energy             :  -326.9372998870823608 Eh
Relativity type    :
Basis              : AO
                                X                 Y                 Z
Electronic contribution:      6.104498543      -0.033334041       0.231922810
Nuclear contribution   :     -5.776591616      -0.603958220      -0.075146893
                        -----------------------------------------
Total Dipole Moment    :      0.327906927      -0.637292261       0.156775917
                        -----------------------------------------
Magnitude (a.u.)       :      0.733650507
Magnitude (Debye)      :      1.864791392

Rotational constants in cm-1:             0.165172             0.050816             0.039691
Rotational constants in MHz :          4951.730959          1523.434152          1189.895057

                             ****ORCA TERMINATED NORMALLY****
TOTAL RUN TIME: 0 days 0 hours 2 minutes 43 seconds 235 msec
