                         Program Version 6.0.0  -   RELEASE  -
|  1> ! wb97x-v def2-tzvp def2/J RIJCOSX DEFGRID2 scfconv7 GCP(DFT/TZ) printgap
|  2> %output
|  3>     printlevel normal
|  4> end
|  5> %cpcm
|  6>     smd true
|  7>     smdsolvent "water"
|  8> end
|  9> * xyz 0 1
| 10> C -2.7974321655754304 0.7397360196125552 -0.36613670381788915
| 11> C -1.9484875080225752 -0.33142041930883315 0.30606044786315634
| 12> C -0.4567279757378107 -0.1908895860468857 0.131676573089857
| 13> C 0.3684422131019789 -1.3024660176751561 0.3431259461011565
| 14> C 1.7423498730519182 -1.168184304266171 0.22193455921159058
| 15> C 2.2660400501300333 0.07764498894530124 -0.11547799873889182
| 16> C 1.3790020545211674 1.1242611736634278 -0.3148383464671359
| 17> N 0.04615277774633611 1.0090944137668194 -0.19635613954791603
| 18> H -2.601620957276412 1.7317721826378336 0.047395470886126966
| 19> H -3.8583068679710184 0.5169507076582145 -0.21851137084011543
| 20> H -2.606948074122141 0.7791160339546709 -1.4432744708381107
| 21> H -2.2383401224557313 -1.3241156203109656 -0.05656529548670595
| 22> H -2.1574147677735285 -0.3408239313482853 1.3851943515677114
| 23> H -0.076101751725996 -2.259045941883195 0.6005950798525425
| 24> H 2.3958940295792504 -2.019708530125608 0.3836172539869602
| 25> H 3.333643994639342 0.23350090474268947 -0.2251272742929933
| 26> H 1.7512049875736617 2.1109187552370225 -0.584549270958085
| 27> *
| 28>
| 29>                          ****END OF INPUT****

CARTESIAN COORDINATES (ANGSTROEM)
---------------------------------
  C     -2.797432    0.739736   -0.366137
  C     -1.948488   -0.331420    0.306060
  C     -0.456728   -0.190890    0.131677
  C      0.368442   -1.302466    0.343126
  C      1.742350   -1.168184    0.221935
  C      2.266040    0.077645   -0.115478
  C      1.379002    1.124261   -0.314838
  N      0.046153    1.009094   -0.196356
  H     -2.601621    1.731772    0.047395
  H     -3.858307    0.516951   -0.218511
  H     -2.606948    0.779116   -1.443274
  H     -2.238340   -1.324116   -0.056565
  H     -2.157415   -0.340824    1.385194
  H     -0.076102   -2.259046    0.600595
  H      2.395894   -2.019709    0.383617
  H      3.333644    0.233501   -0.225127
  H      1.751205    2.110919   -0.584549

 Total Charge           Charge          ....    0
 Multiplicity           Mult            ....    1
 Number of Electrons    NEL             ....   58
 Basis Dimension        Dim             ....  302

ORBITAL ENERGIES
----------------

  NO   OCC          E(Eh)            E(eV)
   0   2.0000     -16.523511      -449.6276
   1   2.0000     -12.089332      -328.9675
   2   2.0000     -12.080185      -328.7185
   3   2.0000     -12.063587      -328.2669
   4   2.0000     -12.049688      -327.8887
   5   2.0000     -12.049082      -327.8722
   6   2.0000     -12.041136      -327.6560
   7   2.0000     -12.027001      -327.2713
   8   2.0000      -1.517905       -41.3043
   9   2.0000      -1.338708       -36.4281
  10   2.0000      -1.315304       -35.7912
  11   2.0000      -1.247217       -33.9385
  12   2.0000      -1.151388       -31.3309
  13   2.0000      -1.146102       -31.1870
  14   2.0000      -1.083854       -29.4932
  15   2.0000      -0.990713       -26.9587
  16   2.0000      -0.962166       -26.1819
  17   2.0000      -0.915594       -24.9146
  18   2.0000      -0.880381       -23.9564
  19   2.0000      -0.872247       -23.7350
  20   2.0000      -0.869089       -23.6491
  21   2.0000      -0.833752       -22.6875
  22   2.0000      -0.827232       -22.5101
  23   2.0000      -0.816479       -22.2175
  24   2.0000      -0.781999       -21.2793
  25   2.0000      -0.766858       -20.8673
  26   2.0000      -0.760190       -20.6858
  27   2.0000      -0.695404       -18.9229
  28   2.0000      -0.641312       -17.4510
  29   0.0000      -0.286853        -7.8057
  30   0.0000      -0.242142        -6.5890
  31   0.0000      -0.090844        -2.4720
  32   0.0000      -0.046026        -1.2524
  33   0.0000      -0.033327        -0.9069

MULLIKEN ATOMIC CHARGES
-----------------------
   0 C :   -0.369013
   1 C :   -0.184072
   2 C :    0.196169
   3 C :   -0.241959
   4 C :   -0.124383
   5 C :   -0.157495
   6 C :   -0.082810
   7 N :   -0.318512
   8 H :    0.115476
   9 H :    0.131619
  10 H :    0.120433
  11 H :    0.131213
  12 H :    0.122923
  13 H :    0.164076
  14 H :    0.172240
  15 H :    0.167455
  16 H :    0.156637
Sum of atomic charges:    0.0000000

LOEWDIN ATOMIC CHARGES
----------------------
   0 C :   -0.310303
   1 C :   -0.244606
   2 C :   -0.211108
   3 C :   -0.123813
   4 C :   -0.114977
   5 C :   -0.161270
   6 C :   -0.209903
   7 N :    0.110860
   8 H :    0.116374
   9 H :    0.120822
  10 H :    0.119193
  11 H :    0.148864
  12 H :    0.151325
  13 H :    0.157032
  14 H :    0.156045
  15 H :    0.153392
  16 H :    0.142073

  Mayer bond orders larger than 0.100000
B(  0-C ,  1-C ) :   0.9932 B(  0-C ,  8-H ) :   0.9738 B(  0-C ,  9-H ) :   0.9774
B(  0-C , 10-H ) :   0.9792 B(  1-C ,  2-C ) :   0.9562 B(  1-C , 11-H ) :   0.9822
B(  1-C , 12-H ) :   0.9447 B(  2-C ,  3-C ) :   1.3777 B(  2-C ,  7-N ) :   1.4054
B(  3-C ,  4-C ) :   1.4710 B(  3-C , 13-H ) :   0.9713 B(  4-C ,  5-C ) :   1.4068
B(  4-C , 14-H ) :   0.9636 B(  5-C ,  6-C ) :   1.4461 B(  5-C , 15-H ) :   0.9612
B(  6-C ,  7-N ) :   1.4984 B(  6-C , 16-H ) :   0.9689

FINAL SINGLE POINT ENERGY      -326.933135394103

DIPOLE MOMENT
-------------

Method             : SCF
Type of density    : Electron Density
Multiplicity       :   1
Irrep              :   0
Energy             :  -326.9427948966025497 Eh
Relativity type    :
Basis              : AO
                                X                 Y                 Z
Electronic contribution:      6.240156109      -0.416303020       0.326574106
Nuclear contribution   :     -5.776591616      -0.603958220      -0.075146893
                        -----------------------------------------
Total Dipole Moment    :      0.463564493      -1.020261240       0.251427213
                        -----------------------------------------
Magnitude (a.u.)       :      1.148494963
Magnitude (Debye)      :      2.919242200

Rotational constants in cm-1:             0.165172             0.050816             0.039691
Rotational constants in MHz :          4951.730959          1523.434152          1189.895057

                             ****ORCA TERMINATED NORMALLY****
TOTAL RUN TIME: 0 days 0 hours 2 minutes 48 seconds 403 msec
