                         Program Version 6.0.0  -   RELEASE  -
|  1> ! pbe def2-sv(p) def2/J RI DEFGRID1 loosescf d4 GCP(DFT/SV(P)) printgap
|  2> %output
|  3>     printlevel normal
|  4> end
|  5> * xyz 0 1
|  6> C -1.8686269829 -0.5957854214 -1.0875572336
|  7> C -1.2371372438 -0.5407757729 0.3209444085
|  8> H -1.9995944496 -0.8522830829 1.0479631639
|  9> C -0.7815433237 0.8732141467 0.6992530369
| 10> H -1.5940702128 1.5629560941 0.4351163411
| 11> C 0.4631974155 1.3197994454 -0.0983296585
| 12> H 1.0487295901 2.0010195468 0.5369706835
| 13> C 1.3780262576 0.1295424934 -0.4271028186
| 14> H 1.1419307986 -0.241553693 -1.4382576402
| 15> C 1.1095080812 -1.0147210908 0.5683487857
| 16> H 1.2758883606 -0.6507399251 1.5955570944
| 17> O -0.193430972 -1.5087619909 0.4068756847
| 18> O 1.9957826576 -2.0630524494 0.3632419175
| 19> O 2.7171413241 0.5510699469 -0.3639098516
| 20> O 0.0140141214 1.9865699913 -1.2524793905
| 21> O -0.5515874563 0.8928279997 2.0881642665
| 22> O -3.1927719747 -0.1267760318 -1.1033742797
| 23> H -1.9161060604 -1.645861315 -1.3841040654
| 24> H -1.249364939 -0.0449200264 -1.8016983656
| 25> H 1.5900831599 -2.7008372447 -0.2448643413
| 26> H 3.2835288659 -0.2316091216 -0.2726500702
| 27> H 0.7710316252 2.3733364665 -1.7156329469
| 28> H -0.5179502345 1.8060820515 2.4084868697
| 29> H -3.1999938206 0.8395407758 -1.0744368848
| 30> *
| 31>
| 32>                          ****END OF INPUT****

CARTESIAN COORDINATES (ANGSTROEM)
---------------------------------
  C     -1.868627   -0.595785   -1.087557
  C     -1.237137   -0.540776    0.320944
  H     -1.999594   -0.852283    1.047963
  C     -0.781543    0.873214    0.699253
  H     -1.594070    1.562956    0.435116
  C      0.463197    1.319799   -0.098330
  H      1.048730    2.001020    0.536971
  C      1.378026    0.129542   -0.427103
  H      1.141931   -0.241554   -1.438258
  C      1.109508   -1.014721    0.568349
  H      1.275888   -0.650740    1.595557
  O     -0.193431   -1.508762    0.406876
  O      1.995783   -2.063052    0.363242
  O      2.717141    0.551070   -0.363910
  O      0.014014    1.986570   -1.252479
  O     -0.551587    0.892828    2.088164
  O     -3.192772   -0.126776   -1.103374
  H     -1.916106   -1.645861   -1.384104
  H     -1.249365   -0.044920   -1.801698
  H      1.590083   -2.700837   -0.244864
  H      3.283529   -0.231609   -0.272650
  H      0.771032    2.373336   -1.715633
  H     -0.517950    1.806082    2.408487
  H     -3.199994    0.839541   -1.074437

 Total Charge           Charge          ....    0
 Multiplicity           Mult            ....    1
 Number of Electrons    NEL             ....   96
 Basis Dimension        Dim             ....  192

ORBITAL ENERGIES
----------------

  NO   OCC          E(Eh)            E(eV)
   0   2.0000     -18.768959      -510.7293
   1   2.0000     -18.765145      -510.6256
   2   2.0000     -18.765015      -510.6220
   3   2.0000     -18.763211      -510.5729
   4   2.0000     -18.750877      -510.2373
   5   2.0000     -18.748566      -510.1744
   6   2.0000      -9.981305      -271.6051
   7   2.0000      -9.955571      -270.9049
   8   2.0000      -9.949148      -270.7301
   9   2.0000      -9.942970      -270.5620
  10   2.0000      -9.936744      -270.3926
  11   2.0000      -9.927176      -270.1322
  12   2.0000      -0.984313       -26.7845
  13   2.0000      -0.948935       -25.8218
  14   2.0000      -0.939410       -25.5626
  15   2.0000      -0.926355       -25.2074
  16   2.0000      -0.922606       -25.1054
  17   2.0000      -0.909869       -24.7588
  18   2.0000      -0.708806       -19.2876
  19   2.0000      -0.686763       -18.6878
  20   2.0000      -0.616567       -16.7777
  21   2.0000      -0.592831       -16.1318
  22   2.0000      -0.569320       -15.4920
  23   2.0000      -0.525860       -14.3094
  24   2.0000      -0.512021       -13.9328
  25   2.0000      -0.485708       -13.2168
  26   2.0000      -0.470473       -12.8022
  27   2.0000      -0.463695       -12.6178
  28   2.0000      -0.454228       -12.3602
  29   2.0000      -0.436225       -11.8703
  30   2.0000      -0.418330       -11.3834
  31   2.0000      -0.394292       -10.7292
  32   2.0000      -0.385289       -10.4842
  33   2.0000      -0.371453       -10.1078
  34   2.0000      -0.364659        -9.9229
  35   2.0000      -0.358606        -9.7582
  36   2.0000      -0.329703        -8.9717
  37   2.0000      -0.318864        -8.6767
  38   2.0000      -0.315549        -8.5865
  39   2.0000      -0.294230        -8.0064
  40   2.0000      -0.280449        -7.6314
  41   2.0000      -0.266777        -7.2594
  42   2.0000      -0.258279        -7.0281
  43   2.0000      -0.243789        -6.6338
  44   2.0000      -0.239538        -6.5182
  45   2.0000      -0.225649        -6.1402
  46   2.0000      -0.215539        -5.8651
  47   2.0000      -0.196316        -5.3420
  48   0.0000       0.012360         0.3363
  49   0.0000       0.018364         0.4997
  50   0.0000       0.030147         0.8203
  51   0.0000       0.034024         0.9258
  52   0.0000       0.062888         1.7113

MULLIKEN ATOMIC CHARGES
-----------------------
   0 C :    0.019767
   1 C :    0.064189
   2 H :    0.080576
   3 C :   -0.024457
   4 H :    0.056026
   5 C :    0.123355
   6 H :    0.051901
   7 C :    0.010737
   8 H :    0.033927
   9 C :    0.205910
  10 H :    0.064818
  11 O :   -0.322233
  12 O :   -0.396318
  13 O :   -0.425244
  14 O :   -0.417137
  15 O :   -0.403449
  16 O :   -0.432842
  17 H :    0.088924
  18 H :    0.095059
  19 H :    0.302919
  20 H :    0.303399
  21 H :    0.312373
  22 H :    0.305545
  23 H :    0.302256
Sum of atomic charges:   -0.0000000

LOEWDIN ATOMIC CHARGES
----------------------
   0 C :   -0.139562
   1 C :   -0.057062
   2 H :    0.119188
   3 C :   -0.071353
   4 H :    0.103236
   5 C :   -0.067659
   6 H :    0.107228
   7 C :   -0.102801
   8 H :    0.097278
   9 C :   -0.004422
  10 H :    0.101178
  11 O :   -0.149461
  12 O :   -0.303182
  13 O :   -0.327691
  14 O :   -0.319772
  15 O :   -0.309161
  16 O :   -0.331483
  17 H :    0.115839
  18 H :    0.103175
  19 H :    0.287471
  20 H :    0.282809
  21 H :    0.293909
  22 H :    0.289815
  23 H :    0.282484

  Mayer bond orders larger than 0.100000
B(  0-C ,  1-C ) :   1.0216 B(  0-C , 16-O ) :   1.0707 B(  0-C , 17-H ) :   0.9179
B(  0-C , 18-H ) :   0.9059 B(  1-C ,  2-H ) :   0.8830 B(  1-C ,  3-C ) :   1.0370
B(  1-C , 11-O ) :   0.9675 B(  3-C ,  4-H ) :   0.8835 B(  3-C ,  5-C ) :   0.9935
B(  3-C , 15-O ) :   1.0420 B(  5-C ,  6-H ) :   0.8611 B(  5-C ,  7-C ) :   1.0073
B(  5-C , 14-O ) :   1.0554 B(  7-C ,  8-H ) :   0.8343 B(  7-C ,  9-C ) :   1.0458
B(  7-C , 13-O ) :   1.0811 B(  9-C , 10-H ) :   0.8672 B(  9-C , 11-O ) :   1.0369
B(  9-C , 12-O ) :   1.1033 B( 12-O , 19-H ) :   0.8384 B( 13-O , 20-H ) :   0.8276
B( 14-O , 21-H ) :   0.8438 B( 15-O , 22-H ) :   0.8458 B( 16-O , 23-H ) :   0.8481

Dispersion correction           -0.024702763
FINAL SINGLE POINT ENERGY      -685.686516313590

DIPOLE MOMENT
-------------

Method             : SCF
Type of density    : Electron Density
Multiplicity       :   1
Irrep              :   0
Energy             :  -685.8164893921383509 Eh
Relativity type    :
Basis              : AO
                                X                 Y                 Z
Electronic contribution:      1.624938359      -1.173139477       1.463995443
Nuclear contribution   :     -1.269743843       2.074197168      -1.787554481
                        -----------------------------------------
Total Dipole Moment    :      0.355194516       0.901057691      -0.323559038
                        -----------------------------------------
Magnitude (a.u.)       :      1.021155501
Magnitude (Debye)      :      2.595571010

Rotational constants in cm-1:             0.039977             0.025170             0.021791
Rotational constants in MHz :          1198.467126           754.579465           653.267520

                             ****ORCA TERMINATED NORMALLY****
TOTAL RUN TIME: 0 days 0 hours 0 minutes 11 seconds 866 msec
