                         Program Version 6.0.0  -   RELEASE  -
|  1> ! pbe def2-sv(p) def2/J RI DEFGRID1 loosescf d4 GCP(DFT/SV(P)) printgap
|  2> %output
|  3>     printlevel normal
|  4> end
|  5> * xyz 0 1
|  6> C -2.5528163843 -0.6673072434 -0.3662560892
|  7> C -1.1822586411 -0.3033139675 0.2135492008
|  8> H -1.2500099606 -0.2916338585 1.3137628519
|  9> C -0.7181863743 1.0828763777 -0.2818964115
| 10> H -0.726058464 1.0956249759 -1.3770043223
| 11> C 0.7185797481 1.335504916 0.199955974
| 12> H 0.7141558438 1.4075345837 1.3036340385
| 13> C 1.622379175 0.1593402292 -0.2138121509
| 14> H 1.6568035963 0.1147538659 -1.30831616
| 15> C 1.0253487001 -1.1550422523 0.3251335497
| 16> H 0.9935864463 -1.1161300416 1.4289736404
| 17> O -0.2786082013 -1.3197742078 -0.1866708321
| 18> O 1.7713489362 -2.2675929668 0.0086867463
| 19> O 2.9468943791 0.3710158125 0.2005736279
| 20> O 1.1870219069 2.5426583128 -0.3446184867
| 21> O -1.6096999018 2.0899640994 0.1055901719
| 22> O -3.1144439104 -1.7905576066 0.2589744066
| 23> H -2.4404262279 -0.832267492 -1.4442643138
| 24> H -3.2399084865 0.1634924641 -0.1990639555
| 25> H 1.737221279 -2.4310556628 -0.946917581
| 26> H 3.0484979527 0.1542001277 1.1386830584
| 27> H 2.1565313904 2.5459274419 -0.293695995
| 28> H -1.504405045 2.2875576348 1.0478907523
| 29> H -2.5194063424 -2.5436921274 0.1307649412
| 30> *
| 31>
| 32>                          ****END OF INPUT****

CARTESIAN COORDINATES (ANGSTROEM)
---------------------------------
  C     -2.552816   -0.667307   -0.366256
  C     -1.182259   -0.303314    0.213549
  H     -1.250010   -0.291634    1.313763
  C     -0.718186    1.082876   -0.281896
  H     -0.726058    1.095625   -1.377004
  C      0.718580    1.335505    0.199956
  H      0.714156    1.407535    1.303634
  C      1.622379    0.159340   -0.213812
  H      1.656804    0.114754   -1.308316
  C      1.025349   -1.155042    0.325134
  H      0.993586   -1.116130    1.428974
  O     -0.278608   -1.319774   -0.186671
  O      1.771349   -2.267593    0.008687
  O      2.946894    0.371016    0.200574
  O      1.187022    2.542658   -0.344618
  O     -1.609700    2.089964    0.105590
  O     -3.114444   -1.790558    0.258974
  H     -2.440426   -0.832267   -1.444264
  H     -3.239908    0.163492   -0.199064
  H      1.737221   -2.431056   -0.946918
  H      3.048498    0.154200    1.138683
  H      2.156531    2.545927   -0.293696
  H     -1.504405    2.287558    1.047891
  H     -2.519406   -2.543692    0.130765

 Total Charge           Charge          ....    0
 Multiplicity           Mult            ....    1
 Number of Electrons    NEL             ....   96
 Basis Dimension        Dim             ....  192

ORBITAL ENERGIES
----------------

  NO   OCC          E(Eh)            E(eV)
   0   2.0000     -18.784826      -511.1611
   1   2.0000     -18.773471      -510.8521
   2   2.0000     -18.771602      -510.8013
   3   2.0000     -18.758013      -510.4315
   4   2.0000     -18.751459      -510.2531
   5   2.0000     -18.744930      -510.0755
   6   2.0000     -10.000955      -272.1398
   7   2.0000      -9.952908      -270.8324
   8   2.0000      -9.950861      -270.7767
   9   2.0000      -9.948570      -270.7144
  10   2.0000      -9.947546      -270.6865
  11   2.0000      -9.930346      -270.2184
  12   2.0000      -0.995975       -27.1019
  13   2.0000      -0.954689       -25.9784
  14   2.0000      -0.944653       -25.7053
  15   2.0000      -0.930350       -25.3161
  16   2.0000      -0.920333       -25.0435
  17   2.0000      -0.916551       -24.9406
  18   2.0000      -0.709622       -19.3098
  19   2.0000      -0.697213       -18.9721
  20   2.0000      -0.621041       -16.8994
  21   2.0000      -0.596162       -16.2224
  22   2.0000      -0.565670       -15.3927
  23   2.0000      -0.558415       -15.1952
  24   2.0000      -0.514325       -13.9955
  25   2.0000      -0.491363       -13.3707
  26   2.0000      -0.474088       -12.9006
  27   2.0000      -0.465413       -12.6645
  28   2.0000      -0.457296       -12.4437
  29   2.0000      -0.440335       -11.9821
  30   2.0000      -0.436119       -11.8674
  31   2.0000      -0.404711       -11.0127
  32   2.0000      -0.387815       -10.5530
  33   2.0000      -0.369398       -10.0518
  34   2.0000      -0.363718        -9.8973
  35   2.0000      -0.355752        -9.6805
  36   2.0000      -0.331857        -9.0303
  37   2.0000      -0.325939        -8.8693
  38   2.0000      -0.310230        -8.4418
  39   2.0000      -0.303528        -8.2594
  40   2.0000      -0.288141        -7.8407
  41   2.0000      -0.279845        -7.6150
  42   2.0000      -0.265038        -7.2120
  43   2.0000      -0.255505        -6.9526
  44   2.0000      -0.238679        -6.4948
  45   2.0000      -0.227085        -6.1793
  46   2.0000      -0.217532        -5.9193
  47   2.0000      -0.205761        -5.5990
  48   0.0000       0.007499         0.2041
  49   0.0000       0.013789         0.3752
  50   0.0000       0.025270         0.6876
  51   0.0000       0.036345         0.9890
  52   0.0000       0.048496         1.3196

MULLIKEN ATOMIC CHARGES
-----------------------
   0 C :    0.102714
   1 C :   -0.030019
   2 H :    0.042673
   3 C :    0.080531
   4 H :    0.066181
   5 C :    0.068690
   6 H :    0.018290
   7 C :    0.013929
   8 H :    0.061911
   9 C :    0.177877
  10 H :    0.041336
  11 O :   -0.313571
  12 O :   -0.365127
  13 O :   -0.407273
  14 O :   -0.400734
  15 O :   -0.401335
  16 O :   -0.433062
  17 H :    0.068457
  18 H :    0.094040
  19 H :    0.307345
  20 H :    0.304022
  21 H :    0.302743
  22 H :    0.301669
  23 H :    0.298715
Sum of atomic charges:    0.0000000

LOEWDIN ATOMIC CHARGES
----------------------
   0 C :   -0.125195
   1 C :   -0.082521
   2 H :    0.098600
   3 C :   -0.068398
   4 H :    0.121725
   5 C :   -0.084684
   6 H :    0.086115
   7 C :   -0.104077
   8 H :    0.117872
   9 C :   -0.007443
  10 H :    0.091814
  11 O :   -0.158676
  12 O :   -0.283673
  13 O :   -0.306351
  14 O :   -0.318863
  15 O :   -0.298386
  16 O :   -0.334832
  17 H :    0.101511
  18 H :    0.121680
  19 H :    0.292360
  20 H :    0.288876
  21 H :    0.282586
  22 H :    0.287316
  23 H :    0.282646

  Mayer bond orders larger than 0.100000
B(  0-C ,  1-C ) :   1.0531 B(  0-C , 16-O ) :   1.0813 B(  0-C , 17-H ) :   0.9072
B(  0-C , 18-H ) :   0.9096 B(  1-C ,  2-H ) :   0.8658 B(  1-C ,  3-C ) :   0.9662
B(  1-C , 11-O ) :   0.9663 B(  3-C ,  4-H ) :   0.8663 B(  3-C ,  5-C ) :   1.0063
B(  3-C , 15-O ) :   1.0448 B(  5-C ,  6-H ) :   0.8604 B(  5-C ,  7-C ) :   0.9935
B(  5-C , 14-O ) :   1.1223 B(  7-C ,  8-H ) :   0.8583 B(  7-C ,  9-C ) :   0.9745
B(  7-C , 13-O ) :   1.0426 B(  9-C , 10-H ) :   0.8758 B(  9-C , 11-O ) :   1.0076
B(  9-C , 12-O ) :   1.1685 B( 12-O , 19-H ) :   0.8414 B( 13-O , 20-H ) :   0.8437
B( 14-O , 21-H ) :   0.8304 B( 15-O , 22-H ) :   0.8461 B( 16-O , 23-H ) :   0.8482

Dispersion correction           -0.023631281
FINAL SINGLE POINT ENERGY      -685.696353325745

DIPOLE MOMENT
-------------

Method             : SCF
Type of density    : Electron Density
Multiplicity       :   1
Irrep              :   0
Energy             :  -685.8256910761452900 Eh
Relativity type    :
Basis              : AO
                                X                 Y                 Z
Electronic contribution:      2.119461270      -0.755060390      -0.308364972
Nuclear contribution   :     -1.275129470       0.514494007       0.745956538
                        -----------------------------------------
Total Dipole Moment    :      0.844331800      -0.240566383       0.437591565
                        -----------------------------------------
Magnitude (a.u.)       :      0.980945845
Magnitude (Debye)      :      2.493366188

Rotational constants in cm-1:             0.039291             0.025765             0.016282
Rotational constants in MHz :          1177.927644           772.424981           488.132371

                             ****ORCA TERMINATED NORMALLY****
TOTAL RUN TIME: 0 days 0 hours 0 minutes 11 seconds 991 msec
