                         Program Version 6.0.0  -   RELEASE  -
|  1> ! pbe def2-sv(p) def2/J RI DEFGRID1 loosescf d4 GCP(DFT/SV(P)) printgap
|  2> %output
|  3>     printlevel normal
|  4> end
|  5> * xyz 0 1
|  6> C -2.2837085583 -0.7444440474 -1.0162889364
|  7> C -1.7559669501 0.0302957049 0.1544200604
|  8> O -2.4999934732 0.6463642779 0.8973760715
|  9> C -0.259462481 0.0613593058 0.3674304804
| 10> C 0.3651497518 1.0233365665 -0.6563217595
| 11> C 1.8112292032 1.3379084234 -0.256252748
| 12> C 2.4867536033 0.1308526113 0.4080410293
| 13> C 1.9010737541 -1.1685937006 -0.1332850056
| 14> C 0.4286787237 -1.3098914443 0.2750956293
| 15> H -1.6004096306 -0.708110381 -1.857845307
| 16> H -2.4096363795 -1.7820453923 -0.7111122536
| 17> H -3.2593121049 -0.3570396349 -1.2982168215
| 18> H -0.0999461466 0.4918270626 1.3618731719
| 19> H 0.3404955033 0.5594240975 -1.6424083397
| 20> H -0.2167877329 1.9456468896 -0.7056936534
| 21> H 2.3650571017 1.6299474448 -1.1497253997
| 22> H 1.8275094304 2.1845463953 0.4317056323
| 23> H 3.5616527668 0.1638013909 0.2270502632
| 24> H 2.3355841176 0.1627557843 1.4884652965
| 25> H 1.9932589861 -1.1704216627 -1.2202363026
| 26> H 2.4655751763 -2.0212506527 0.245575091
| 27> H -0.078916741 -1.945086147 -0.4486784923
| 28> H 0.359762744 -1.7974029946 1.2489713508
| 29> *
| 30>
| 31>                          ****END OF INPUT****

CARTESIAN COORDINATES (ANGSTROEM)
---------------------------------
  C     -2.283709   -0.744444   -1.016289
  C     -1.755967    0.030296    0.154420
  O     -2.499993    0.646364    0.897376
  C     -0.259462    0.061359    0.367430
  C      0.365150    1.023337   -0.656322
  C      1.811229    1.337908   -0.256253
  C      2.486754    0.130853    0.408041
  C      1.901074   -1.168594   -0.133285
  C      0.428679   -1.309891    0.275096
  H     -1.600410   -0.708110   -1.857845
  H     -2.409636   -1.782045   -0.711112
  H     -3.259312   -0.357040   -1.298217
  H     -0.099946    0.491827    1.361873
  H      0.340496    0.559424   -1.642408
  H     -0.216788    1.945647   -0.705694
  H      2.365057    1.629947   -1.149725
  H      1.827509    2.184546    0.431706
  H      3.561653    0.163801    0.227050
  H      2.335584    0.162756    1.488465
  H      1.993259   -1.170422   -1.220236
  H      2.465575   -2.021251    0.245575
  H     -0.078917   -1.945086   -0.448678
  H      0.359763   -1.797403    1.248971

 Total Charge           Charge          ....    0
 Multiplicity           Mult            ....    1
 Number of Electrons    NEL             ....   70
 Basis Dimension        Dim             ....  154

ORBITAL ENERGIES
----------------

  NO   OCC          E(Eh)            E(eV)
   0   2.0000     -18.729418      -509.6534
   1   2.0000      -9.968106      -271.2460
   2   2.0000      -9.897381      -269.3214
   3   2.0000      -9.894958      -269.2555
   4   2.0000      -9.892894      -269.1993
   5   2.0000      -9.889012      -269.0937
   6   2.0000      -9.888909      -269.0909
   7   2.0000      -9.886867      -269.0353
   8   2.0000      -9.885490      -268.9979
   9   2.0000      -0.927001       -25.2250
  10   2.0000      -0.766464       -20.8565
  11   2.0000      -0.692749       -18.8507
  12   2.0000      -0.672300       -18.2942
  13   2.0000      -0.652697       -17.7608
  14   2.0000      -0.569273       -15.4907
  15   2.0000      -0.554270       -15.0825
  16   2.0000      -0.490012       -13.3339
  17   2.0000      -0.468841       -12.7578
  18   2.0000      -0.447223       -12.1696
  19   2.0000      -0.427298       -11.6274
  20   2.0000      -0.408150       -11.1063
  21   2.0000      -0.394514       -10.7353
  22   2.0000      -0.383828       -10.4445
  23   2.0000      -0.370285       -10.0760
  24   2.0000      -0.353516        -9.6197
  25   2.0000      -0.341354        -9.2887
  26   2.0000      -0.337899        -9.1947
  27   2.0000      -0.330040        -8.9808
  28   2.0000      -0.326283        -8.8786
  29   2.0000      -0.316096        -8.6014
  30   2.0000      -0.302629        -8.2349
  31   2.0000      -0.279930        -7.6173
  32   2.0000      -0.268414        -7.3039
  33   2.0000      -0.266206        -7.2438
  34   2.0000      -0.187044        -5.0897
  35   0.0000      -0.045240        -1.2310
  36   0.0000       0.022785         0.6200
  37   0.0000       0.038562         1.0493
  38   0.0000       0.054545         1.4842
  39   0.0000       0.072357         1.9689

MULLIKEN ATOMIC CHARGES
-----------------------
   0 C :   -0.272157
   1 C :    0.028608
   2 O :   -0.168587
   3 C :   -0.174633
   4 C :   -0.148807
   5 C :   -0.138958
   6 C :   -0.156319
   7 C :   -0.153687
   8 C :   -0.124756
   9 H :    0.121799
  10 H :    0.135775
  11 H :    0.119905
  12 H :    0.068898
  13 H :    0.080504
  14 H :    0.101513
  15 H :    0.083384
  16 H :    0.089288
  17 H :    0.088729
  18 H :    0.082322
  19 H :    0.075602
  20 H :    0.088616
  21 H :    0.082499
  22 H :    0.090463
Sum of atomic charges:    0.0000000

LOEWDIN ATOMIC CHARGES
----------------------
   0 C :   -0.363973
   1 C :    0.048826
   2 O :   -0.137746
   3 C :   -0.166279
   4 C :   -0.212046
   5 C :   -0.225853
   6 C :   -0.230456
   7 C :   -0.227644
   8 C :   -0.218707
   9 H :    0.130077
  10 H :    0.148879
  11 H :    0.138317
  12 H :    0.126750
  13 H :    0.114850
  14 H :    0.124662
  15 H :    0.118650
  16 H :    0.120374
  17 H :    0.119606
  18 H :    0.116605
  19 H :    0.114933
  20 H :    0.120059
  21 H :    0.117681
  22 H :    0.122438

  Mayer bond orders larger than 0.100000
B(  0-C ,  1-C ) :   1.0713 B(  0-C ,  9-H ) :   0.9267 B(  0-C , 10-H ) :   0.9106
B(  0-C , 11-H ) :   0.9275 B(  1-C ,  2-O ) :   2.1960 B(  1-C ,  3-C ) :   0.9560
B(  3-C ,  4-C ) :   1.1169 B(  3-C ,  8-C ) :   1.0655 B(  3-C , 12-H ) :   0.8632
B(  4-C ,  5-C ) :   1.1502 B(  4-C , 13-H ) :   0.8916 B(  4-C , 14-H ) :   0.9186
B(  5-C ,  6-C ) :   1.1376 B(  5-C , 15-H ) :   0.9171 B(  5-C , 16-H ) :   0.9200
B(  6-C ,  7-C ) :   1.1905 B(  6-C , 17-H ) :   0.9223 B(  6-C , 18-H ) :   0.9115
B(  7-C ,  8-C ) :   1.1492 B(  7-C , 19-H ) :   0.9037 B(  7-C , 20-H ) :   0.9199
B(  8-C , 21-H ) :   0.9032 B(  8-C , 22-H ) :   0.9159

Dispersion correction           -0.022093976
FINAL SINGLE POINT ENERGY      -387.598334378389

DIPOLE MOMENT
-------------

Method             : SCF
Type of density    : Electron Density
Multiplicity       :   1
Irrep              :   0
Energy             :  -387.6757966336019763 Eh
Relativity type    :
Basis              : AO
                                X                 Y                 Z
Electronic contribution:     -6.301022562       1.972937522       3.153841615
Nuclear contribution   :      7.077867650      -2.470369101      -3.767758717
                        -----------------------------------------
Total Dipole Moment    :      0.776845088      -0.497431579      -0.613917102
                        -----------------------------------------
Magnitude (a.u.)       :      1.108070699
Magnitude (Debye)      :      2.816491888

Rotational constants in cm-1:             0.100868             0.035707             0.031706
Rotational constants in MHz :          3023.942680          1070.467560           950.507967

                             ****ORCA TERMINATED NORMALLY****
TOTAL RUN TIME: 0 days 0 hours 0 minutes 9 seconds 725 msec
