                         Program Version 6.0.0  -   RELEASE  -
|  1> ! r2scan-3c def2/J RI DEFGRID2 scfconv6 printgap
|  2> %output
|  3>     printlevel normal
|  4> end
|  5> * xyz 0 1
|  6> C -1.9096993678 -2.1867353724 0.0011286913
|  7> C -0.9098507208 -1.0695790082 -0.0012066462
|  8> C 0.4517007715 -1.3229120468 -0.0014596828
|  9> C 1.3790081231 -0.2853648555 -0.0011782478
| 10> C 0.9255608768 1.0219050981 -0.000558952
| 11> C -0.4396237895 1.2927177286 0.000125523
| 12> C -1.3515246015 0.248837163 -0.000234028
| 13> O -0.8297447295 2.6002493989 0.0004063718
| 14> C 2.8461138928 -0.5917591062 0.0013314726
| 15> H -2.5172956923 -2.1464642656 0.9038354667
| 16> H -2.5768862858 -2.0995217183 -0.8545770131
| 17> H -1.4122920141 -3.151541323 -0.0404076315
| 18> H 0.8048361459 -2.3439570487 -0.0019888978
| 19> H 1.6144851998 1.852747916 -0.001021512
| 20> H -2.4127058241 0.4556935121 -1.13489e-05
| 21> H -1.7965494268 2.6623108286 0.0024050803
| 22> H 3.103486049 -1.2122954943 -0.8551301792
| 23> H 3.4332152424 0.3214104146 -0.0380746708
| 24> H 3.1133002884 -1.1405691948 0.9029718028
| 25> *
| 26>
| 27>                          ****END OF INPUT****

CARTESIAN COORDINATES (ANGSTROEM)
---------------------------------
  C     -1.909699   -2.186735    0.001129
  C     -0.909851   -1.069579   -0.001207
  C      0.451701   -1.322912   -0.001460
  C      1.379008   -0.285365   -0.001178
  C      0.925561    1.021905   -0.000559
  C     -0.439624    1.292718    0.000126
  C     -1.351525    0.248837   -0.000234
  O     -0.829745    2.600249    0.000406
  C      2.846114   -0.591759    0.001331
  H     -2.517296   -2.146464    0.903835
  H     -2.576886   -2.099522   -0.854577
  H     -1.412292   -3.151541   -0.040408
  H      0.804836   -2.343957   -0.001989
  H      1.614485    1.852748   -0.001022
  H     -2.412706    0.455694   -0.000011
  H     -1.796549    2.662311    0.002405
  H      3.103486   -1.212295   -0.855130
  H      3.433215    0.321410   -0.038075
  H      3.113300   -1.140569    0.902972

 Total Charge           Charge          ....    0
 Multiplicity           Mult            ....    1
 Number of Electrons    NEL             ....   66
 Basis Dimension        Dim             ....  226

ORBITAL ENERGIES
----------------

  NO   OCC          E(Eh)            E(eV)
   0   2.0000     -18.981790      -516.5208
   1   2.0000     -10.091816      -274.6123
   2   2.0000     -10.041823      -273.2519
   3   2.0000     -10.040287      -273.2101
   4   2.0000     -10.026953      -272.8473
   5   2.0000     -10.024650      -272.7846
   6   2.0000     -10.024437      -272.7788
   7   2.0000     -10.020373      -272.6682
   8   2.0000     -10.016869      -272.5729
   9   2.0000      -1.024300       -27.8726
  10   2.0000      -0.824513       -22.4361
  11   2.0000      -0.751384       -20.4462
  12   2.0000      -0.719932       -19.5903
  13   2.0000      -0.657686       -17.8965
  14   2.0000      -0.653210       -17.7747
  15   2.0000      -0.578453       -15.7405
  16   2.0000      -0.544342       -14.8123
  17   2.0000      -0.494719       -13.4620
  18   2.0000      -0.464686       -12.6447
  19   2.0000      -0.443805       -12.0765
  20   2.0000      -0.399945       -10.8831
  21   2.0000      -0.387056       -10.5323
  22   2.0000      -0.385124       -10.4798
  23   2.0000      -0.373663       -10.1679
  24   2.0000      -0.370529       -10.0826
  25   2.0000      -0.366854        -9.9826
  26   2.0000      -0.363548        -9.8926
  27   2.0000      -0.331404        -9.0180
  28   2.0000      -0.318444        -8.6653
  29   2.0000      -0.301019        -8.1911
  30   2.0000      -0.291088        -7.9209
  31   2.0000      -0.219133        -5.9629
  32   2.0000      -0.199565        -5.4304
  33   0.0000      -0.024764        -0.6739
  34   0.0000      -0.011171        -0.3040
  35   0.0000       0.058239         1.5848
  36   0.0000       0.075689         2.0596
  37   0.0000       0.107123         2.9150

MULLIKEN ATOMIC CHARGES
-----------------------
   0 C :   -0.552738
   1 C :    0.245988
   2 C :   -0.322495
   3 C :    0.257623
   4 C :   -0.386267
   5 C :    0.445462
   6 C :   -0.418126
   7 O :   -0.414048
   8 C :   -0.547310
   9 H :    0.161689
  10 H :    0.158947
  11 H :    0.152380
  12 H :    0.144140
  13 H :    0.155477
  14 H :    0.134982
  15 H :    0.310187
  16 H :    0.159716
  17 H :    0.152368
  18 H :    0.162024
Sum of atomic charges:    0.0000000

LOEWDIN ATOMIC CHARGES
----------------------
   0 C :   -0.389116
   1 C :   -0.081584
   2 C :   -0.192362
   3 C :   -0.081798
   4 C :   -0.153980
   5 C :    0.191090
   6 C :   -0.182817
   7 O :   -0.498867
   8 C :   -0.387984
   9 H :    0.164371
  10 H :    0.163732
  11 H :    0.159263
  12 H :    0.168752
  13 H :    0.179860
  14 H :    0.169227
  15 H :    0.283283
  16 H :    0.164618
  17 H :    0.159135
  18 H :    0.165177

  Mayer bond orders larger than 0.100000
B(  0-C ,  1-C ) :   0.7573 B(  0-C ,  9-H ) :   0.9768 B(  0-C , 10-H ) :   0.9793
B(  0-C , 11-H ) :   0.9956 B(  1-C ,  2-C ) :   1.4624 B(  1-C ,  6-C ) :   1.3926
B(  2-C ,  3-C ) :   1.4057 B(  2-C , 12-H ) :   0.9392 B(  3-C ,  4-C ) :   1.4141
B(  3-C ,  8-C ) :   0.7733 B(  4-C ,  5-C ) :   1.4720 B(  4-C ,  7-O ) :   0.1041
B(  4-C , 13-H ) :   0.9270 B(  5-C ,  6-C ) :   1.3762 B(  5-C ,  7-O ) :   0.9094
B(  6-C , 14-H ) :   0.9266 B(  7-O , 15-H ) :   0.8837 B(  8-C , 16-H ) :   0.9784
B(  8-C , 17-H ) :   0.9964 B(  8-C , 18-H ) :   0.9760

Dispersion correction           -0.006076667
FINAL SINGLE POINT ENERGY      -386.005542428969

DIPOLE MOMENT
-------------

Method             : SCF
Type of density    : Electron Density
Multiplicity       :   1
Irrep              :   0
Energy             :  -386.0066406532283736 Eh
Relativity type    :
Basis              : AO
                                X                 Y                 Z
Electronic contribution:     -1.692035580       6.053426830      -0.010642463
Nuclear contribution   :      1.257602389      -6.343062653       0.016894088
                        -----------------------------------------
Total Dipole Moment    :     -0.434433191      -0.289635823       0.006251625
                        -----------------------------------------
Magnitude (a.u.)       :      0.522168738
Magnitude (Debye)      :      1.327247453

Rotational constants in cm-1:             0.060124             0.059385             0.030210
Rotational constants in MHz :          1802.468984          1780.309869           905.682035

                             ****ORCA TERMINATED NORMALLY****
TOTAL RUN TIME: 0 days 0 hours 0 minutes 58 seconds 500 msec
