                         Program Version 6.0.0  -   RELEASE  -
|  1> ! wb97x-v def2-tzvp def2/J RIJCOSX DEFGRID2 scfconv7 GCP(DFT/TZ) printgap
|  2> %output
|  3>     printlevel normal
|  4> end
|  5> * xyz 0 1
|  6> C -2.558375024230262 -0.8938922491586927 0.35981724827345846
|  7> C -1.1364895179278283 -0.4219641590668663 0.5971810428538018
|  8> H -0.9762042068974922 -0.35060569413874876 1.685967075873461
|  9> C -0.8169087518339337 0.9271480516125877 -0.0459175940943652
| 10> H -0.9999926508817119 0.8613032559618877 -1.1297616255015488
| 11> C 0.6509193910013499 1.2606738022900001 0.1942381106905173
| 12> H 0.8130578768930758 1.3960675155963622 1.2713078871954893
| 13> C 1.5507768869891243 0.13271161717757426 -0.3043862223474227
| 14> H 1.4419839771223564 0.030293907987444794 -1.3968300723842253
| 15> C 1.118459726580701 -1.1772727607403275 0.3391988530863303
| 16> H 1.2459141973976284 -1.1330961294515187 1.4336683023276646
| 17> O -0.26136493192536553 -1.4174181154329049 0.0365996006579068
| 18> O 1.86622254980302 -2.2243097374921557 -0.2175738122165817
| 19> O 2.914561459492566 0.3699715564629751 0.04671916227847072
| 20> O 1.0155039439672264 2.5109083021380862 -0.40479830844887216
| 21> O -1.671962126291972 1.907810309250194 0.5470032284677001
| 22> O -2.9050415104294864 -0.9628068592148981 -1.027887881994606
| 23> H -3.2517871550589854 -0.18793608669645587 0.8238547025707739
| 24> H -2.688518806055581 -1.872349544390442 0.841885408870294
| 25> H 1.7858446133171442 -2.992659259202498 0.3642839363406433
| 26> H 3.1298901751648738 1.262753285690378 -0.25779142193040055
| 27> H 0.887055798387325 2.427597446675543 -1.3615267229524355
| 28> H -1.3851757155973 2.7699315754394713 0.21491562793897742
| 29> H -2.3310342228752736 -1.6241853640805395 -1.436667393130411
| 30> *
| 31>
| 32>                          ****END OF INPUT****

CARTESIAN COORDINATES (ANGSTROEM)
---------------------------------
  C     -2.558375   -0.893892    0.359817
  C     -1.136490   -0.421964    0.597181
  H     -0.976204   -0.350606    1.685967
  C     -0.816909    0.927148   -0.045918
  H     -0.999993    0.861303   -1.129762
  C      0.650919    1.260674    0.194238
  H      0.813058    1.396068    1.271308
  C      1.550777    0.132712   -0.304386
  H      1.441984    0.030294   -1.396830
  C      1.118460   -1.177273    0.339199
  H      1.245914   -1.133096    1.433668
  O     -0.261365   -1.417418    0.036600
  O      1.866223   -2.224310   -0.217574
  O      2.914561    0.369972    0.046719
  O      1.015504    2.510908   -0.404798
  O     -1.671962    1.907810    0.547003
  O     -2.905042   -0.962807   -1.027888
  H     -3.251787   -0.187936    0.823855
  H     -2.688519   -1.872350    0.841885
  H      1.785845   -2.992659    0.364284
  H      3.129890    1.262753   -0.257791
  H      0.887056    2.427597   -1.361527
  H     -1.385176    2.769932    0.214916
  H     -2.331034   -1.624185   -1.436667

 Total Charge           Charge          ....    0
 Multiplicity           Mult            ....    1
 Number of Electrons    NEL             ....   96
 Basis Dimension        Dim             ....  444

ORBITAL ENERGIES
----------------

  NO   OCC          E(Eh)            E(eV)
   0   2.0000     -21.704026      -590.5966
   1   2.0000     -21.695292      -590.3589
   2   2.0000     -21.692672      -590.2876
   3   2.0000     -21.684324      -590.0605
   4   2.0000     -21.681695      -589.9889
   5   2.0000     -21.673837      -589.7751
   6   2.0000     -12.163667      -330.9902
   7   2.0000     -12.115860      -329.6893
   8   2.0000     -12.114624      -329.6557
   9   2.0000     -12.113167      -329.6160
  10   2.0000     -12.111316      -329.5657
  11   2.0000     -12.097270      -329.1835
  12   2.0000      -1.726150       -46.9709
  13   2.0000      -1.706747       -46.4429
  14   2.0000      -1.688192       -45.9380
  15   2.0000      -1.683531       -45.8112
  16   2.0000      -1.682827       -45.7920
  17   2.0000      -1.673002       -45.5247
  18   2.0000      -1.342516       -36.5317
  19   2.0000      -1.328177       -36.1415
  20   2.0000      -1.240970       -33.7685
  21   2.0000      -1.201943       -32.7065
  22   2.0000      -1.175470       -31.9862
  23   2.0000      -1.126707       -30.6593
  24   2.0000      -1.094655       -29.7871
  25   2.0000      -1.083675       -29.4883
  26   2.0000      -1.056104       -28.7381
  27   2.0000      -1.041078       -28.3292
  28   2.0000      -1.029160       -28.0049
  29   2.0000      -1.011062       -27.5124
  30   2.0000      -1.007457       -27.4143
  31   2.0000      -0.992257       -27.0007
  32   2.0000      -0.987343       -26.8670
  33   2.0000      -0.969860       -26.3912
  34   2.0000      -0.963755       -26.2251
  35   2.0000      -0.945310       -25.7232
  36   2.0000      -0.945191       -25.7200
  37   2.0000      -0.941188       -25.6110
  38   2.0000      -0.929572       -25.2949
  39   2.0000      -0.909830       -24.7577
  40   2.0000      -0.903114       -24.5750
  41   2.0000      -0.889923       -24.2160
  42   2.0000      -0.846984       -23.0476
  43   2.0000      -0.839335       -22.8395
  44   2.0000      -0.827044       -22.5050
  45   2.0000      -0.805977       -21.9317
  46   2.0000      -0.802161       -21.8279
  47   2.0000      -0.781980       -21.2788
  48   0.0000      -0.244539        -6.6543
  49   0.0000      -0.199791        -5.4366
  50   0.0000      -0.177836        -4.8392
  51   0.0000      -0.156222        -4.2510
  52   0.0000      -0.138305        -3.7635

MULLIKEN ATOMIC CHARGES
-----------------------
   0 C :    0.003974
   1 C :   -0.017544
   2 H :    0.076132
   3 C :    0.096861
   4 H :    0.068887
   5 C :   -0.012043
   6 H :    0.103082
   7 C :    0.102735
   8 H :    0.068818
   9 C :    0.090769
  10 H :    0.069517
  11 O :   -0.273135
  12 O :   -0.385754
  13 O :   -0.415810
  14 O :   -0.448324
  15 O :   -0.437965
  16 O :   -0.460066
  17 H :    0.116445
  18 H :    0.102847
  19 H :    0.310818
  20 H :    0.309089
  21 H :    0.307549
  22 H :    0.311547
  23 H :    0.311571
Sum of atomic charges:   -0.0000000

LOEWDIN ATOMIC CHARGES
----------------------
   0 C :   -0.307575
   1 C :   -0.301857
   2 H :    0.146484
   3 C :   -0.312809
   4 H :    0.139993
   5 C :   -0.320583
   6 H :    0.153989
   7 C :   -0.316379
   8 H :    0.141017
   9 C :   -0.402559
  10 H :    0.125085
  11 O :    0.179300
  12 O :    0.025261
  13 O :   -0.005393
  14 O :   -0.021619
  15 O :   -0.007671
  16 O :   -0.044543
  17 H :    0.137121
  18 H :    0.121176
  19 H :    0.178338
  20 H :    0.173796
  21 H :    0.173386
  22 H :    0.174909
  23 H :    0.171131

  Mayer bond orders larger than 0.100000
B(  0-C ,  1-C ) :   0.9787 B(  0-C , 16-O ) :   0.9902 B(  0-C , 17-H ) :   0.9639
B(  0-C , 18-H ) :   0.9786 B(  1-C ,  2-H ) :   0.9559 B(  1-C ,  3-C ) :   0.9456
B(  1-C , 11-O ) :   0.9964 B(  1-C , 16-O ) :   0.1200 B(  3-C ,  4-H ) :   0.9391
B(  3-C ,  5-C ) :   0.9823 B(  3-C , 15-O ) :   1.0646 B(  5-C ,  6-H ) :   0.9491
B(  5-C ,  7-C ) :   0.9987 B(  5-C , 14-O ) :   0.9833 B(  7-C ,  8-H ) :   0.9490
B(  7-C ,  9-C ) :   0.9212 B(  7-C , 13-O ) :   1.1145 B(  9-C , 10-H ) :   0.9827
B(  9-C , 11-O ) :   1.0194 B(  9-C , 12-O ) :   1.2549 B( 12-O , 19-H ) :   0.8937
B( 13-O , 20-H ) :   0.8858 B( 14-O , 21-H ) :   0.8901 B( 15-O , 22-H ) :   0.8856
B( 16-O , 23-H ) :   0.8914

FINAL SINGLE POINT ENERGY      -687.246204324456

DIPOLE MOMENT
-------------

Method             : SCF
Type of density    : Electron Density
Multiplicity       :   1
Irrep              :   0
Energy             :  -687.2650804313560684 Eh
Relativity type    :
Basis              : AO
                                X                 Y                 Z
Electronic contribution:      2.295639099      -0.431484429      -0.968611235
Nuclear contribution   :     -2.086771434       0.461265800       1.071491262
                        -----------------------------------------
Total Dipole Moment    :      0.208867665       0.029781371       0.102880027
                        -----------------------------------------
Magnitude (a.u.)       :      0.234727356
Magnitude (Debye)      :      0.596629524

Rotational constants in cm-1:             0.039394             0.026496             0.017452
Rotational constants in MHz :          1180.991815           794.324666           523.196081

                             ****ORCA TERMINATED NORMALLY****
TOTAL RUN TIME: 0 days 0 hours 4 minutes 51 seconds 438 msec
