                         Program Version 6.0.0  -   RELEASE  -
|  1> ! wb97x-v def2-tzvp def2/J RIJCOSX DEFGRID2 scfconv7 GCP(DFT/TZ) printgap
|  2> %output
|  3>     printlevel normal
|  4> end
|  5> %cpcm
|  6>     smd true
|  7>     smdsolvent "water"
|  8> end
|  9> * xyz 0 1
| 10> C -2.558375024230262 -0.8938922491586927 0.35981724827345846
| 11> C -1.1364895179278283 -0.4219641590668663 0.5971810428538018
| 12> H -0.9762042068974922 -0.35060569413874876 1.685967075873461
| 13> C -0.8169087518339337 0.9271480516125877 -0.0459175940943652
| 14> H -0.9999926508817119 0.8613032559618877 -1.1297616255015488
| 15> C 0.6509193910013499 1.2606738022900001 0.1942381106905173
| 16> H 0.8130578768930758 1.3960675155963622 1.2713078871954893
| 17> C 1.5507768869891243 0.13271161717757426 -0.3043862223474227
| 18> H 1.4419839771223564 0.030293907987444794 -1.3968300723842253
| 19> C 1.118459726580701 -1.1772727607403275 0.3391988530863303
| 20> H 1.2459141973976284 -1.1330961294515187 1.4336683023276646
| 21> O -0.26136493192536553 -1.4174181154329049 0.0365996006579068
| 22> O 1.86622254980302 -2.2243097374921557 -0.2175738122165817
| 23> O 2.914561459492566 0.3699715564629751 0.04671916227847072
| 24> O 1.0155039439672264 2.5109083021380862 -0.40479830844887216
| 25> O -1.671962126291972 1.907810309250194 0.5470032284677001
| 26> O -2.9050415104294864 -0.9628068592148981 -1.027887881994606
| 27> H -3.2517871550589854 -0.18793608669645587 0.8238547025707739
| 28> H -2.688518806055581 -1.872349544390442 0.841885408870294
| 29> H 1.7858446133171442 -2.992659259202498 0.3642839363406433
| 30> H 3.1298901751648738 1.262753285690378 -0.25779142193040055
| 31> H 0.887055798387325 2.427597446675543 -1.3615267229524355
| 32> H -1.3851757155973 2.7699315754394713 0.21491562793897742
| 33> H -2.3310342228752736 -1.6241853640805395 -1.436667393130411
| 34> *
| 35>
| 36>                          ****END OF INPUT****

CARTESIAN COORDINATES (ANGSTROEM)
---------------------------------
  C     -2.558375   -0.893892    0.359817
  C     -1.136490   -0.421964    0.597181
  H     -0.976204   -0.350606    1.685967
  C     -0.816909    0.927148   -0.045918
  H     -0.999993    0.861303   -1.129762
  C      0.650919    1.260674    0.194238
  H      0.813058    1.396068    1.271308
  C      1.550777    0.132712   -0.304386
  H      1.441984    0.030294   -1.396830
  C      1.118460   -1.177273    0.339199
  H      1.245914   -1.133096    1.433668
  O     -0.261365   -1.417418    0.036600
  O      1.866223   -2.224310   -0.217574
  O      2.914561    0.369972    0.046719
  O      1.015504    2.510908   -0.404798
  O     -1.671962    1.907810    0.547003
  O     -2.905042   -0.962807   -1.027888
  H     -3.251787   -0.187936    0.823855
  H     -2.688519   -1.872350    0.841885
  H      1.785845   -2.992659    0.364284
  H      3.129890    1.262753   -0.257791
  H      0.887056    2.427597   -1.361527
  H     -1.385176    2.769932    0.214916
  H     -2.331034   -1.624185   -1.436667

 Total Charge           Charge          ....    0
 Multiplicity           Mult            ....    1
 Number of Electrons    NEL             ....   96
 Basis Dimension        Dim             ....  444

ORBITAL ENERGIES
----------------

  NO   OCC          E(Eh)            E(eV)
   0   2.0000     -21.691435      -590.2539
   1   2.0000     -21.691198      -590.2475
   2   2.0000     -21.685469      -590.0916
   3   2.0000     -21.682129      -590.0007
   4   2.0000     -21.681241      -589.9766
   5   2.0000     -21.677475      -589.8741
   6   2.0000     -12.153717      -330.7194
   7   2.0000     -12.103952      -329.3653
   8   2.0000     -12.103021      -329.3399
   9   2.0000     -12.101846      -329.3080
  10   2.0000     -12.099979      -329.2572
  11   2.0000     -12.091378      -329.0231
  12   2.0000      -1.723151       -46.8893
  13   2.0000      -1.691881       -46.0384
  14   2.0000      -1.686173       -45.8831
  15   2.0000      -1.681370       -45.7524
  16   2.0000      -1.679080       -45.6901
  17   2.0000      -1.675972       -45.6055
  18   2.0000      -1.331562       -36.2336
  19   2.0000      -1.320833       -35.9417
  20   2.0000      -1.234126       -33.5823
  21   2.0000      -1.194151       -32.4945
  22   2.0000      -1.169606       -31.8266
  23   2.0000      -1.120824       -30.4992
  24   2.0000      -1.089088       -29.6356
  25   2.0000      -1.076117       -29.2826
  26   2.0000      -1.052416       -28.6377
  27   2.0000      -1.039542       -28.2874
  28   2.0000      -1.023037       -27.8382
  29   2.0000      -1.005995       -27.3745
  30   2.0000      -1.003566       -27.3084
  31   2.0000      -0.986842       -26.8533
  32   2.0000      -0.980972       -26.6936
  33   2.0000      -0.966621       -26.3031
  34   2.0000      -0.965140       -26.2628
  35   2.0000      -0.945132       -25.7184
  36   2.0000      -0.941701       -25.6250
  37   2.0000      -0.938782       -25.5456
  38   2.0000      -0.925046       -25.1718
  39   2.0000      -0.907392       -24.6914
  40   2.0000      -0.898512       -24.4498
  41   2.0000      -0.886789       -24.1308
  42   2.0000      -0.838685       -22.8218
  43   2.0000      -0.834850       -22.7174
  44   2.0000      -0.817697       -22.2507
  45   2.0000      -0.798405       -21.7257
  46   2.0000      -0.794085       -21.6082
  47   2.0000      -0.770471       -20.9656
  48   0.0000      -0.235355        -6.4043
  49   0.0000      -0.190640        -5.1876
  50   0.0000      -0.169333        -4.6078
  51   0.0000      -0.149189        -4.0596
  52   0.0000      -0.127717        -3.4754

MULLIKEN ATOMIC CHARGES
-----------------------
   0 C :   -0.014228
   1 C :    0.039844
   2 H :    0.113376
   3 C :    0.048358
   4 H :    0.099102
   5 C :    0.060372
   6 H :    0.117424
   7 C :    0.086992
   8 H :    0.103775
   9 C :    0.109149
  10 H :    0.107201
  11 O :   -0.331010
  12 O :   -0.487138
  13 O :   -0.521305
  14 O :   -0.528524
  15 O :   -0.529336
  16 O :   -0.555233
  17 H :    0.129882
  18 H :    0.131740
  19 H :    0.375580
  20 H :    0.360229
  21 H :    0.365011
  22 H :    0.358965
  23 H :    0.359772
Sum of atomic charges:   -0.0000000

LOEWDIN ATOMIC CHARGES
----------------------
   0 C :   -0.308078
   1 C :   -0.295731
   2 H :    0.159174
   3 C :   -0.305892
   4 H :    0.147608
   5 C :   -0.311837
   6 H :    0.158914
   7 C :   -0.311757
   8 H :    0.151355
   9 C :   -0.399474
  10 H :    0.139123
  11 O :    0.161603
  12 O :   -0.012354
  13 O :   -0.044294
  14 O :   -0.044382
  15 O :   -0.039857
  16 O :   -0.082016
  17 H :    0.137672
  18 H :    0.129936
  19 H :    0.201361
  20 H :    0.191428
  21 H :    0.198372
  22 H :    0.190943
  23 H :    0.188182

  Mayer bond orders larger than 0.100000
B(  0-C ,  1-C ) :   0.9649 B(  0-C , 16-O ) :   0.9621 B(  0-C , 17-H ) :   0.9667
B(  0-C , 18-H ) :   0.9807 B(  1-C ,  2-H ) :   0.9474 B(  1-C ,  3-C ) :   0.9650
B(  1-C , 11-O ) :   0.9650 B(  3-C ,  4-H ) :   0.9503 B(  3-C ,  5-C ) :   1.0013
B(  3-C , 15-O ) :   1.0199 B(  5-C ,  6-H ) :   0.9395 B(  5-C ,  7-C ) :   1.0080
B(  5-C , 14-O ) :   0.9915 B(  7-C ,  8-H ) :   0.9513 B(  7-C ,  9-C ) :   0.9408
B(  7-C , 13-O ) :   1.0539 B(  9-C , 10-H ) :   0.9825 B(  9-C , 11-O ) :   1.0167
B(  9-C , 12-O ) :   1.2019 B( 12-O , 19-H ) :   0.8536 B( 13-O , 20-H ) :   0.8561
B( 14-O , 21-H ) :   0.8583 B( 15-O , 22-H ) :   0.8572 B( 16-O , 23-H ) :   0.8621

FINAL SINGLE POINT ENERGY      -687.287610086714

DIPOLE MOMENT
-------------

Method             : SCF
Type of density    : Electron Density
Multiplicity       :   1
Irrep              :   0
Energy             :  -687.3064861936137504 Eh
Relativity type    :
Basis              : AO
                                X                 Y                 Z
Electronic contribution:      2.348824520      -0.372629191      -0.904162067
Nuclear contribution   :     -2.086771434       0.461265800       1.071491262
                        -----------------------------------------
Total Dipole Moment    :      0.262053086       0.088636609       0.167329195
                        -----------------------------------------
Magnitude (a.u.)       :      0.323306863
Magnitude (Debye)      :      0.821780739

Rotational constants in cm-1:             0.039394             0.026496             0.017452
Rotational constants in MHz :          1180.991815           794.324666           523.196081

                             ****ORCA TERMINATED NORMALLY****
TOTAL RUN TIME: 0 days 0 hours 5 minutes 27 seconds 640 msec
