                         Program Version 6.0.0  -   RELEASE  -
|  1> ! wb97x-v def2-tzvp def2/J RIJCOSX DEFGRID2 scfconv7 GCP(DFT/TZ) printgap
|  2> %output
|  3>     printlevel normal
|  4> end
|  5> * xyz 0 1
|  6> C -0.4831447760766194 0.4531018353128061 0.0008385614096148895
|  7> C 0.48311438012346186 -0.4530807184921344 0.000400030280042223
|  8> Cl 2.1564880035545992 0.04785491131335271 -0.0005947301721024341
|  9> Cl -2.156502150325499 -0.04784324800126051 -0.0006973686298752551
| 10> H -0.3358024821074536 1.526864807838442 -0.0001603038473242298
| 11> H 0.33577835797111144 -1.526848894419304 -0.0006470173653252411
| 12> *
| 13>
| 14>                          ****END OF INPUT****

CARTESIAN COORDINATES (ANGSTROEM)
---------------------------------
  C     -0.483145    0.453102    0.000839
  C      0.483114   -0.453081    0.000400
  Cl     2.156488    0.047855   -0.000595
  Cl    -2.156502   -0.047843   -0.000697
  H     -0.335802    1.526865   -0.000160
  H      0.335778   -1.526849   -0.000647

 Total Charge           Charge          ....    0
 Multiplicity           Mult            ....    1
 Number of Electrons    NEL             ....   48
 Basis Dimension        Dim             ....  148

ORBITAL ENERGIES
----------------

  NO   OCC          E(Eh)            E(eV)
   0   2.0000    -107.159487     -2915.9579
   1   2.0000    -107.159481     -2915.9577
   2   2.0000     -12.131805      -330.1232
   3   2.0000     -12.129044      -330.0481
   4   2.0000     -11.312569      -307.8306
   5   2.0000     -11.312449      -307.8274
   6   2.0000      -9.104679      -247.7509
   7   2.0000      -9.103367      -247.7152
   8   2.0000      -9.101558      -247.6660
   9   2.0000      -9.101254      -247.6577
  10   2.0000      -9.101189      -247.6559
  11   2.0000      -9.100875      -247.6474
  12   2.0000      -1.449540       -39.4440
  13   2.0000      -1.422246       -38.7013
  14   2.0000      -1.290442       -35.1147
  15   2.0000      -1.078683       -29.3524
  16   2.0000      -0.966826       -26.3087
  17   2.0000      -0.964382       -26.2422
  18   2.0000      -0.877090       -23.8668
  19   2.0000      -0.840829       -22.8801
  20   2.0000      -0.816878       -22.2284
  21   2.0000      -0.804678       -21.8964
  22   2.0000      -0.795250       -21.6399
  23   2.0000      -0.695598       -18.9282
  24   0.0000      -0.313062        -8.5189
  25   0.0000      -0.258126        -7.0240
  26   0.0000      -0.210790        -5.7359
  27   0.0000      -0.017011        -0.4629
  28   0.0000       0.043582         1.1859

MULLIKEN ATOMIC CHARGES
-----------------------
   0 C :   -0.086851
   1 C :   -0.086847
   2 Cl:   -0.077033
   3 Cl:   -0.077027
   4 H :    0.163879
   5 H :    0.163879
Sum of atomic charges:   -0.0000000

LOEWDIN ATOMIC CHARGES
----------------------
   0 C :   -0.480844
   1 C :   -0.480836
   2 Cl:    0.351888
   3 Cl:    0.351901
   4 H :    0.128946
   5 H :    0.128946

  Mayer bond orders larger than 0.100000
B(  0-C ,  1-C ) :   1.9209 B(  0-C ,  3-Cl) :   1.0954 B(  0-C ,  4-H ) :   0.9389
B(  1-C ,  2-Cl) :   1.0954 B(  1-C ,  5-H ) :   0.9389

FINAL SINGLE POINT ENERGY      -997.678427636751

DIPOLE MOMENT
-------------

Method             : SCF
Type of density    : Electron Density
Multiplicity       :   1
Irrep              :   0
Energy             :  -997.6812355950505662 Eh
Relativity type    :
Basis              : AO
                                X                 Y                 Z
Electronic contribution:     -0.000007540      -0.000002768      -0.001147826
Nuclear contribution   :     -0.000011071       0.000004970       0.000712242
                        -----------------------------------------
Total Dipole Moment    :     -0.000018611       0.000002202      -0.000435584
                        -----------------------------------------
Magnitude (a.u.)       :      0.000435987
Magnitude (Debye)      :      0.001108190

Rotational constants in cm-1:             1.721828             0.050234             0.048810
Rotational constants in MHz :         51619.099119          1505.970404          1463.279942

                             ****ORCA TERMINATED NORMALLY****
TOTAL RUN TIME: 0 days 0 hours 0 minutes 31 seconds 902 msec
