                         Program Version 6.0.0  -   RELEASE  -
|  1> ! wb97x-v def2-tzvp def2/J RIJCOSX DEFGRID2 scfconv7 GCP(DFT/TZ) printgap
|  2> %output
|  3>     printlevel normal
|  4> end
|  5> %cpcm
|  6>     smd true
|  7>     smdsolvent "water"
|  8> end
|  9> * xyz 0 1
| 10> C -0.4831447760766194 0.4531018353128061 0.0008385614096148895
| 11> C 0.48311438012346186 -0.4530807184921344 0.000400030280042223
| 12> Cl 2.1564880035545992 0.04785491131335271 -0.0005947301721024341
| 13> Cl -2.156502150325499 -0.04784324800126051 -0.0006973686298752551
| 14> H -0.3358024821074536 1.526864807838442 -0.0001603038473242298
| 15> H 0.33577835797111144 -1.526848894419304 -0.0006470173653252411
| 16> *
| 17>
| 18>                          ****END OF INPUT****

CARTESIAN COORDINATES (ANGSTROEM)
---------------------------------
  C     -0.483145    0.453102    0.000839
  C      0.483114   -0.453081    0.000400
  Cl     2.156488    0.047855   -0.000595
  Cl    -2.156502   -0.047843   -0.000697
  H     -0.335802    1.526865   -0.000160
  H      0.335778   -1.526849   -0.000647

 Total Charge           Charge          ....    0
 Multiplicity           Mult            ....    1
 Number of Electrons    NEL             ....   48
 Basis Dimension        Dim             ....  148

ORBITAL ENERGIES
----------------

  NO   OCC          E(Eh)            E(eV)
   0   2.0000    -107.155237     -2915.8423
   1   2.0000    -107.155231     -2915.8421
   2   2.0000     -12.120740      -329.8221
   3   2.0000     -12.117986      -329.7472
   4   2.0000     -11.308394      -307.7170
   5   2.0000     -11.308267      -307.7136
   6   2.0000      -9.100485      -247.6368
   7   2.0000      -9.099167      -247.6009
   8   2.0000      -9.097424      -247.5535
   9   2.0000      -9.097115      -247.5451
  10   2.0000      -9.097055      -247.5434
  11   2.0000      -9.096767      -247.5356
  12   2.0000      -1.443551       -39.2810
  13   2.0000      -1.417679       -38.5770
  14   2.0000      -1.282167       -34.8895
  15   2.0000      -1.067520       -29.0487
  16   2.0000      -0.957323       -26.0501
  17   2.0000      -0.955655       -26.0047
  18   2.0000      -0.867495       -23.6057
  19   2.0000      -0.835886       -22.7456
  20   2.0000      -0.813392       -22.1335
  21   2.0000      -0.800311       -21.7776
  22   2.0000      -0.790027       -21.4977
  23   2.0000      -0.687483       -18.7074
  24   0.0000      -0.306801        -8.3485
  25   0.0000      -0.247834        -6.7439
  26   0.0000      -0.201915        -5.4944
  27   0.0000       0.006506         0.1770
  28   0.0000       0.060896         1.6571

MULLIKEN ATOMIC CHARGES
-----------------------
   0 C :   -0.110644
   1 C :   -0.110635
   2 Cl:   -0.098518
   3 Cl:   -0.098510
   4 H :    0.209154
   5 H :    0.209154
Sum of atomic charges:    0.0000000

LOEWDIN ATOMIC CHARGES
----------------------
   0 C :   -0.478111
   1 C :   -0.478099
   2 Cl:    0.336662
   3 Cl:    0.336677
   4 H :    0.141435
   5 H :    0.141436

  Mayer bond orders larger than 0.100000
B(  0-C ,  1-C ) :   1.9222 B(  0-C ,  3-Cl) :   1.0773 B(  0-C ,  4-H ) :   0.9242
B(  1-C ,  2-Cl) :   1.0773 B(  1-C ,  5-H ) :   0.9242

FINAL SINGLE POINT ENERGY      -997.679194089660

DIPOLE MOMENT
-------------

Method             : SCF
Type of density    : Electron Density
Multiplicity       :   1
Irrep              :   0
Energy             :  -997.6820020479599407 Eh
Relativity type    :
Basis              : AO
                                X                 Y                 Z
Electronic contribution:     -0.000011894      -0.000006658      -0.001274425
Nuclear contribution   :     -0.000011071       0.000004970       0.000712242
                        -----------------------------------------
Total Dipole Moment    :     -0.000022965      -0.000001688      -0.000562183
                        -----------------------------------------
Magnitude (a.u.)       :      0.000562654
Magnitude (Debye)      :      0.001430153

Rotational constants in cm-1:             1.721828             0.050234             0.048810
Rotational constants in MHz :         51619.099119          1505.970404          1463.279942

                             ****ORCA TERMINATED NORMALLY****
TOTAL RUN TIME: 0 days 0 hours 0 minutes 29 seconds 587 msec
