                         Program Version 6.0.0  -   RELEASE  -
|  1> ! pbe def2-sv(p) def2/J RI DEFGRID1 loosescf d4 GCP(DFT/SV(P)) printgap
|  2> %output
|  3>     printlevel normal
|  4> end
|  5> * xyz 0 1
|  6> C -2.2938958578 -1.0665035301 -0.1446275032
|  7> C -0.8947554739 -0.549846583 0.2135795895
|  8> H -0.7447532311 -0.6038625363 1.3032724937
|  9> C -0.7137545829 0.9155700377 -0.2241619244
| 10> H -1.1127382558 1.0336212619 -1.243108207
| 11> C 0.7818655374 1.277374048 -0.3037380555
| 12> H 0.8922591568 2.2726875889 0.1576754363
| 13> C 1.6444181201 0.2711802046 0.4805333345
| 14> H 2.7073967546 0.4653979131 0.2700940058
| 15> C 1.3779818707 -1.166368446 -0.0050262794
| 16> H 1.5799408962 -1.8421588337 0.8541217278
| 17> O 0.0521239692 -1.3780523763 -0.4347965938
| 18> O 2.2344317872 -1.4395600357 -1.0561691726
| 19> O 1.3975841954 0.3107250685 1.8619576473
| 20> O 1.1332005467 1.322001208 -1.6619522868
| 21> O -1.3459230262 1.7989465477 0.6659412263
| 22> O -3.2987201676 -0.3539156112 0.5349812899
| 23> H -2.3410213329 -2.1395459831 0.0643003438
| 24> H -2.4673799555 -0.9143218411 -1.2123422033
| 25> H 1.895186424 -2.2010252999 -1.5516463153
| 26> H 1.5700083649 1.2016070329 2.2014226868
| 27> H 2.0841373003 1.4770337886 -1.7562486594
| 28> H -2.2912291217 1.5720727154 0.6903849299
| 29> H -3.3436782935 -0.6544008984 1.4540016555
| 30> *
| 31>
| 32>                          ****END OF INPUT****

CARTESIAN COORDINATES (ANGSTROEM)
---------------------------------
  C     -2.293896   -1.066504   -0.144628
  C     -0.894755   -0.549847    0.213580
  H     -0.744753   -0.603863    1.303272
  C     -0.713755    0.915570   -0.224162
  H     -1.112738    1.033621   -1.243108
  C      0.781866    1.277374   -0.303738
  H      0.892259    2.272688    0.157675
  C      1.644418    0.271180    0.480533
  H      2.707397    0.465398    0.270094
  C      1.377982   -1.166368   -0.005026
  H      1.579941   -1.842159    0.854122
  O      0.052124   -1.378052   -0.434797
  O      2.234432   -1.439560   -1.056169
  O      1.397584    0.310725    1.861958
  O      1.133201    1.322001   -1.661952
  O     -1.345923    1.798947    0.665941
  O     -3.298720   -0.353916    0.534981
  H     -2.341021   -2.139546    0.064300
  H     -2.467380   -0.914322   -1.212342
  H      1.895186   -2.201025   -1.551646
  H      1.570008    1.201607    2.201423
  H      2.084137    1.477034   -1.756249
  H     -2.291229    1.572073    0.690385
  H     -3.343678   -0.654401    1.454002

 Total Charge           Charge          ....    0
 Multiplicity           Mult            ....    1
 Number of Electrons    NEL             ....   96
 Basis Dimension        Dim             ....  192

ORBITAL ENERGIES
----------------

  NO   OCC          E(Eh)            E(eV)
   0   2.0000     -18.770149      -510.7617
   1   2.0000     -18.764381      -510.6048
   2   2.0000     -18.759867      -510.4819
   3   2.0000     -18.754673      -510.3406
   4   2.0000     -18.746729      -510.1244
   5   2.0000     -18.737184      -509.8647
   6   2.0000      -9.982910      -271.6488
   7   2.0000      -9.942112      -270.5386
   8   2.0000      -9.938126      -270.4302
   9   2.0000      -9.937695      -270.4184
  10   2.0000      -9.934364      -270.3278
  11   2.0000      -9.930527      -270.2234
  12   2.0000      -0.978974       -26.6392
  13   2.0000      -0.944837       -25.7103
  14   2.0000      -0.937516       -25.5111
  15   2.0000      -0.924783       -25.1646
  16   2.0000      -0.914395       -24.8819
  17   2.0000      -0.907752       -24.7012
  18   2.0000      -0.692677       -18.8487
  19   2.0000      -0.685424       -18.6513
  20   2.0000      -0.627651       -17.0793
  21   2.0000      -0.571325       -15.5466
  22   2.0000      -0.565053       -15.3759
  23   2.0000      -0.513139       -13.9632
  24   2.0000      -0.494514       -13.4564
  25   2.0000      -0.491203       -13.3663
  26   2.0000      -0.487629       -13.2691
  27   2.0000      -0.453578       -12.3425
  28   2.0000      -0.445991       -12.1360
  29   2.0000      -0.429411       -11.6849
  30   2.0000      -0.423185       -11.5155
  31   2.0000      -0.389794       -10.6068
  32   2.0000      -0.374348       -10.1865
  33   2.0000      -0.367852       -10.0098
  34   2.0000      -0.353472        -9.6185
  35   2.0000      -0.351009        -9.5515
  36   2.0000      -0.328667        -8.9435
  37   2.0000      -0.319577        -8.6961
  38   2.0000      -0.308475        -8.3940
  39   2.0000      -0.291242        -7.9251
  40   2.0000      -0.279509        -7.6058
  41   2.0000      -0.270189        -7.3522
  42   2.0000      -0.249000        -6.7756
  43   2.0000      -0.237647        -6.4667
  44   2.0000      -0.230808        -6.2806
  45   2.0000      -0.218722        -5.9517
  46   2.0000      -0.207933        -5.6581
  47   2.0000      -0.192410        -5.2357
  48   0.0000       0.011544         0.3141
  49   0.0000       0.021118         0.5746
  50   0.0000       0.028980         0.7886
  51   0.0000       0.051477         1.4007
  52   0.0000       0.062106         1.6900

MULLIKEN ATOMIC CHARGES
-----------------------
   0 C :    0.076179
   1 C :   -0.034740
   2 H :    0.063848
   3 C :    0.087137
   4 H :    0.061151
   5 C :    0.072659
   6 H :    0.055341
   7 C :   -0.034285
   8 H :    0.067349
   9 C :    0.233492
  10 H :    0.058193
  11 O :   -0.325135
  12 O :   -0.394274
  13 O :   -0.405086
  14 O :   -0.405241
  15 O :   -0.428633
  16 O :   -0.437158
  17 H :    0.087270
  18 H :    0.089822
  19 H :    0.304982
  20 H :    0.308118
  21 H :    0.297838
  22 H :    0.294151
  23 H :    0.307019
Sum of atomic charges:    0.0000000

LOEWDIN ATOMIC CHARGES
----------------------
   0 C :   -0.124282
   1 C :   -0.086147
   2 H :    0.102773
   3 C :   -0.060115
   4 H :    0.108472
   5 C :   -0.065580
   6 H :    0.098077
   7 C :   -0.094899
   8 H :    0.103490
   9 C :    0.016126
  10 H :    0.084199
  11 O :   -0.156882
  12 O :   -0.303267
  13 O :   -0.306987
  14 O :   -0.309410
  15 O :   -0.327588
  16 O :   -0.322763
  17 H :    0.103708
  18 H :    0.116901
  19 H :    0.289378
  20 H :    0.290289
  21 H :    0.282923
  22 H :    0.271139
  23 H :    0.290444

  Mayer bond orders larger than 0.100000
B(  0-C ,  1-C ) :   1.0248 B(  0-C , 16-O ) :   1.0433 B(  0-C , 17-H ) :   0.9243
B(  0-C , 18-H ) :   0.9128 B(  1-C ,  2-H ) :   0.8605 B(  1-C ,  3-C ) :   1.0252
B(  1-C , 11-O ) :   1.0074 B(  3-C ,  4-H ) :   0.8786 B(  3-C ,  5-C ) :   0.9851
B(  3-C , 15-O ) :   1.0947 B(  5-C ,  6-H ) :   0.8865 B(  5-C ,  7-C ) :   1.0261
B(  5-C , 14-O ) :   1.0796 B(  7-C ,  8-H ) :   0.8963 B(  7-C ,  9-C ) :   0.9278
B(  7-C , 13-O ) :   1.0556 B(  9-C , 10-H ) :   0.9136 B(  9-C , 11-O ) :   1.0294
B(  9-C , 12-O ) :   1.1620 B( 12-O , 19-H ) :   0.8400 B( 13-O , 20-H ) :   0.8420
B( 14-O , 21-H ) :   0.8421 B( 15-O , 22-H ) :   0.8158 B( 16-O , 23-H ) :   0.8446

Dispersion correction           -0.024710423
FINAL SINGLE POINT ENERGY      -685.688343803231

DIPOLE MOMENT
-------------

Method             : SCF
Type of density    : Electron Density
Multiplicity       :   1
Irrep              :   0
Energy             :  -685.8186267633744819 Eh
Relativity type    :
Basis              : AO
                                X                 Y                 Z
Electronic contribution:      1.614173654       0.005395786      -0.632828619
Nuclear contribution   :     -1.472124254      -0.308458315       1.154424073
                        -----------------------------------------
Total Dipole Moment    :      0.142049399      -0.303062529       0.521595454
                        -----------------------------------------
Magnitude (a.u.)       :      0.619747324
Magnitude (Debye)      :      1.575272509

Rotational constants in cm-1:             0.043980             0.024768             0.021616
Rotational constants in MHz :          1318.492926           742.514354           648.031565

                             ****ORCA TERMINATED NORMALLY****
TOTAL RUN TIME: 0 days 0 hours 0 minutes 12 seconds 54 msec
