                         Program Version 6.0.0  -   RELEASE  -
|  1> ! wb97x-v def2-tzvp def2/J RIJCOSX DEFGRID2 scfconv7 GCP(DFT/TZ) printgap
|  2> %output
|  3>     printlevel normal
|  4> end
|  5> * xyz 0 1
|  6> C -4.365030881283602 -1.2561230219115436 0.4058231125905733
|  7> N -3.3090181117417785 -0.7795936062592457 -0.47845481865362366
|  8> C -2.224088843308736 -0.1727027231165584 0.013329348585683255
|  9> O -1.979775237696263 0.019687920482575918 1.1989346309197075
| 10> O -1.38371292628397 0.23696408047701684 -1.009947947823549
| 11> C -0.16912968022717453 0.8127931374202071 -0.6153300151640569
| 12> C -0.04369322601249745 2.175751504449937 -0.6592355149082639
| 13> C 1.1951910478558092 2.7686965232614766 -0.3372886897692859
| 14> C 2.268457492183348 1.9897341116984735 0.02236525010646215
| 15> C 2.1523912482569476 0.5789554900792081 0.07418436737113761
| 16> C 0.9025260963902841 -0.038373416110771906 -0.25457921284094354
| 17> C 0.7887407433884803 -1.4483528134789285 -0.20792461402628715
| 18> C 1.8687742445142004 -2.2182612006602422 0.15429958729560736
| 19> C 3.102924289023397 -1.6160101158729046 0.48187428225657003
| 20> C 3.241182378616497 -0.2492337772461413 0.4414794063329353
| 21> H -3.9942222515855423 -2.0355000984577702 1.078386851879848
| 22> H -5.161406600832199 -1.6741753176772773 -0.21039899985097227
| 23> H -4.775177349648325 -0.4373902004396909 1.0044795595438258
| 24> H -3.4060627312461316 -0.8707139344300183 -1.4779278168098422
| 25> H -0.8967281021568152 2.783375321287688 -0.9419000350292833
| 26> H 1.2899943114282575 3.848809095340536 -0.3749022190569013
| 27> H 3.222860136463681 2.4436707387514147 0.2714604862618427
| 28> H -0.15566464624349327 -1.9183681097403238 -0.4620843497679457
| 29> H 1.7752707719898728 -3.2989797435738706 0.1877883949271195
| 30> H 3.944632443708739 -2.239806862246043 0.7651286466009738
| 31> H 4.18889507753976 0.21937500135261875 0.6906623087921248
| 32> *
| 33>
| 34>                          ****END OF INPUT****

CARTESIAN COORDINATES (ANGSTROEM)
---------------------------------
  C     -4.365031   -1.256123    0.405823
  N     -3.309018   -0.779594   -0.478455
  C     -2.224089   -0.172703    0.013329
  O     -1.979775    0.019688    1.198935
  O     -1.383713    0.236964   -1.009948
  C     -0.169130    0.812793   -0.615330
  C     -0.043693    2.175752   -0.659236
  C      1.195191    2.768697   -0.337289
  C      2.268457    1.989734    0.022365
  C      2.152391    0.578955    0.074184
  C      0.902526   -0.038373   -0.254579
  C      0.788741   -1.448353   -0.207925
  C      1.868774   -2.218261    0.154300
  C      3.102924   -1.616010    0.481874
  C      3.241182   -0.249234    0.441479
  H     -3.994222   -2.035500    1.078387
  H     -5.161407   -1.674175   -0.210399
  H     -4.775177   -0.437390    1.004480
  H     -3.406063   -0.870714   -1.477928
  H     -0.896728    2.783375   -0.941900
  H      1.289994    3.848809   -0.374902
  H      3.222860    2.443671    0.271460
  H     -0.155665   -1.918368   -0.462084
  H      1.775271   -3.298980    0.187788
  H      3.944632   -2.239807    0.765129
  H      4.188895    0.219375    0.690662

 Total Charge           Charge          ....    0
 Multiplicity           Mult            ....    1
 Number of Electrons    NEL             ....  106
 Basis Dimension        Dim             ....  531

ORBITAL ENERGIES
----------------

  NO   OCC          E(Eh)            E(eV)
   0   2.0000     -21.719655      -591.0219
   1   2.0000     -21.641237      -588.8880
   2   2.0000     -16.564068      -450.7312
   3   2.0000     -12.197408      -331.9083
   4   2.0000     -12.112779      -329.6055
   5   2.0000     -12.089688      -328.9771
   6   2.0000     -12.064548      -328.2930
   7   2.0000     -12.062646      -328.2413
   8   2.0000     -12.056215      -328.0663
   9   2.0000     -12.054816      -328.0282
  10   2.0000     -12.054456      -328.0184
  11   2.0000     -12.053223      -327.9849
  12   2.0000     -12.052878      -327.9755
  13   2.0000     -12.052012      -327.9519
  14   2.0000     -12.051455      -327.9368
  15   2.0000      -1.757446       -47.8225
  16   2.0000      -1.687445       -45.9177
  17   2.0000      -1.534328       -41.7512
  18   2.0000      -1.406427       -38.2708
  19   2.0000      -1.354734       -36.8642
  20   2.0000      -1.314796       -35.7774
  21   2.0000      -1.275564       -34.7099
  22   2.0000      -1.272124       -34.6163
  23   2.0000      -1.240624       -33.7591
  24   2.0000      -1.177168       -32.0324
  25   2.0000      -1.135564       -30.9003
  26   2.0000      -1.130620       -30.7657
  27   2.0000      -1.117476       -30.4081
  28   2.0000      -1.079724       -29.3808
  29   2.0000      -1.052253       -28.6333
  30   2.0000      -1.022479       -27.8231
  31   2.0000      -1.003002       -27.2931
  32   2.0000      -0.992121       -26.9970
  33   2.0000      -0.972183       -26.4545
  34   2.0000      -0.961905       -26.1748
  35   2.0000      -0.957955       -26.0673
  36   2.0000      -0.919651       -25.0250
  37   2.0000      -0.912814       -24.8389
  38   2.0000      -0.901410       -24.5286
  39   2.0000      -0.889099       -24.1936
  40   2.0000      -0.872989       -23.7552
  41   2.0000      -0.872659       -23.7463
  42   2.0000      -0.862782       -23.4775
  43   2.0000      -0.845000       -22.9936
  44   2.0000      -0.843569       -22.9547
  45   2.0000      -0.821868       -22.3642
  46   2.0000      -0.806886       -21.9565
  47   2.0000      -0.800301       -21.7773
  48   2.0000      -0.766123       -20.8473
  49   2.0000      -0.729967       -19.8634
  50   2.0000      -0.684854       -18.6358
  51   2.0000      -0.631326       -17.1793
  52   2.0000      -0.603225       -16.4146
  53   0.0000      -0.289588        -7.8801
  54   0.0000      -0.278001        -7.5648
  55   0.0000      -0.258346        -7.0299
  56   0.0000      -0.209530        -5.7016
  57   0.0000      -0.196084        -5.3357

MULLIKEN ATOMIC CHARGES
-----------------------
   0 C :   -0.221371
   1 N :   -0.308844
   2 C :    0.380479
   3 O :   -0.380320
   4 O :   -0.298955
   5 C :    0.276823
   6 C :   -0.198425
   7 C :   -0.096170
   8 C :   -0.230786
   9 C :    0.113741
  10 C :    0.121249
  11 C :   -0.195391
  12 C :   -0.108994
  13 C :   -0.112556
  14 C :   -0.182522
  15 H :    0.134533
  16 H :    0.118271
  17 H :    0.135968
  18 H :    0.239470
  19 H :    0.120062
  20 H :    0.117942
  21 H :    0.113333
  22 H :    0.114624
  23 H :    0.116602
  24 H :    0.117483
  25 H :    0.113754
Sum of atomic charges:   -0.0000000

LOEWDIN ATOMIC CHARGES
----------------------
   0 C :   -0.290294
   1 N :    0.092516
   2 C :   -0.558682
   3 O :    0.059031
   4 O :    0.273371
   5 C :   -0.175225
   6 C :   -0.106503
   7 C :   -0.134010
   8 C :   -0.102962
   9 C :   -0.085869
  10 C :   -0.064100
  11 C :   -0.089177
  12 C :   -0.136146
  13 C :   -0.137964
  14 C :   -0.098407
  15 H :    0.117962
  16 H :    0.114821
  17 H :    0.118642
  18 H :    0.186272
  19 H :    0.148838
  20 H :    0.143440
  21 H :    0.145600
  22 H :    0.148738
  23 H :    0.142245
  24 H :    0.142219
  25 H :    0.145643

  Mayer bond orders larger than 0.100000
B(  0-C ,  1-N ) :   0.9287 B(  0-C , 15-H ) :   0.9770 B(  0-C , 16-H ) :   0.9689
B(  0-C , 17-H ) :   0.9779 B(  1-N ,  2-C ) :   1.2668 B(  1-N , 18-H ) :   0.9146
B(  2-C ,  3-O ) :   2.0264 B(  2-C ,  4-O ) :   1.0591 B(  4-O ,  5-C ) :   0.9244
B(  5-C ,  6-C ) :   1.5937 B(  5-C , 10-C ) :   1.1879 B(  6-C ,  7-C ) :   1.2486
B(  6-C , 19-H ) :   0.9732 B(  7-C ,  8-C ) :   1.5658 B(  7-C , 20-H ) :   0.9772
B(  8-C ,  9-C ) :   1.2184 B(  8-C , 21-H ) :   0.9820 B(  9-C , 10-C ) :   1.2872
B(  9-C , 14-C ) :   1.2264 B( 10-C , 11-C ) :   1.2124 B( 11-C , 12-C ) :   1.5795
B( 11-C , 22-H ) :   0.9671 B( 12-C , 13-C ) :   1.2663 B( 12-C , 23-H ) :   0.9771
B( 13-C , 14-C ) :   1.5676 B( 13-C , 24-H ) :   0.9759 B( 14-C , 25-H ) :   0.9796

FINAL SINGLE POINT ENERGY      -669.169831049460

DIPOLE MOMENT
-------------

Method             : SCF
Type of density    : Electron Density
Multiplicity       :   1
Irrep              :   0
Energy             :  -669.1844318322598610 Eh
Relativity type    :
Basis              : AO
                                X                 Y                 Z
Electronic contribution:      3.239638128       2.894101475      -1.736931286
Nuclear contribution   :     -3.818771939      -3.288178367       0.957092348
                        -----------------------------------------
Total Dipole Moment    :     -0.579133811      -0.394076892      -0.779838938
                        -----------------------------------------
Magnitude (a.u.)       :      1.048256332
Magnitude (Debye)      :      2.664455848

Rotational constants in cm-1:             0.036133             0.014414             0.011107
Rotational constants in MHz :          1083.227474           432.118225           332.968258

                             ****ORCA TERMINATED NORMALLY****
TOTAL RUN TIME: 0 days 0 hours 8 minutes 13 seconds 994 msec
