                         Program Version 6.0.0  -   RELEASE  -
|  1> ! wb97x-v def2-tzvp def2/J RIJCOSX DEFGRID2 scfconv7 GCP(DFT/TZ) printgap
|  2> %output
|  3>     printlevel normal
|  4> end
|  5> %cpcm
|  6>     smd true
|  7>     smdsolvent "water"
|  8> end
|  9> * xyz 0 1
| 10> C -4.365030881283602 -1.2561230219115436 0.4058231125905733
| 11> N -3.3090181117417785 -0.7795936062592457 -0.47845481865362366
| 12> C -2.224088843308736 -0.1727027231165584 0.013329348585683255
| 13> O -1.979775237696263 0.019687920482575918 1.1989346309197075
| 14> O -1.38371292628397 0.23696408047701684 -1.009947947823549
| 15> C -0.16912968022717453 0.8127931374202071 -0.6153300151640569
| 16> C -0.04369322601249745 2.175751504449937 -0.6592355149082639
| 17> C 1.1951910478558092 2.7686965232614766 -0.3372886897692859
| 18> C 2.268457492183348 1.9897341116984735 0.02236525010646215
| 19> C 2.1523912482569476 0.5789554900792081 0.07418436737113761
| 20> C 0.9025260963902841 -0.038373416110771906 -0.25457921284094354
| 21> C 0.7887407433884803 -1.4483528134789285 -0.20792461402628715
| 22> C 1.8687742445142004 -2.2182612006602422 0.15429958729560736
| 23> C 3.102924289023397 -1.6160101158729046 0.48187428225657003
| 24> C 3.241182378616497 -0.2492337772461413 0.4414794063329353
| 25> H -3.9942222515855423 -2.0355000984577702 1.078386851879848
| 26> H -5.161406600832199 -1.6741753176772773 -0.21039899985097227
| 27> H -4.775177349648325 -0.4373902004396909 1.0044795595438258
| 28> H -3.4060627312461316 -0.8707139344300183 -1.4779278168098422
| 29> H -0.8967281021568152 2.783375321287688 -0.9419000350292833
| 30> H 1.2899943114282575 3.848809095340536 -0.3749022190569013
| 31> H 3.222860136463681 2.4436707387514147 0.2714604862618427
| 32> H -0.15566464624349327 -1.9183681097403238 -0.4620843497679457
| 33> H 1.7752707719898728 -3.2989797435738706 0.1877883949271195
| 34> H 3.944632443708739 -2.239806862246043 0.7651286466009738
| 35> H 4.18889507753976 0.21937500135261875 0.6906623087921248
| 36> *
| 37>
| 38>                          ****END OF INPUT****

CARTESIAN COORDINATES (ANGSTROEM)
---------------------------------
  C     -4.365031   -1.256123    0.405823
  N     -3.309018   -0.779594   -0.478455
  C     -2.224089   -0.172703    0.013329
  O     -1.979775    0.019688    1.198935
  O     -1.383713    0.236964   -1.009948
  C     -0.169130    0.812793   -0.615330
  C     -0.043693    2.175752   -0.659236
  C      1.195191    2.768697   -0.337289
  C      2.268457    1.989734    0.022365
  C      2.152391    0.578955    0.074184
  C      0.902526   -0.038373   -0.254579
  C      0.788741   -1.448353   -0.207925
  C      1.868774   -2.218261    0.154300
  C      3.102924   -1.616010    0.481874
  C      3.241182   -0.249234    0.441479
  H     -3.994222   -2.035500    1.078387
  H     -5.161407   -1.674175   -0.210399
  H     -4.775177   -0.437390    1.004480
  H     -3.406063   -0.870714   -1.477928
  H     -0.896728    2.783375   -0.941900
  H      1.289994    3.848809   -0.374902
  H      3.222860    2.443671    0.271460
  H     -0.155665   -1.918368   -0.462084
  H      1.775271   -3.298980    0.187788
  H      3.944632   -2.239807    0.765129
  H      4.188895    0.219375    0.690662

 Total Charge           Charge          ....    0
 Multiplicity           Mult            ....    1
 Number of Electrons    NEL             ....  106
 Basis Dimension        Dim             ....  531

ORBITAL ENERGIES
----------------

  NO   OCC          E(Eh)            E(eV)
   0   2.0000     -21.728696      -591.2679
   1   2.0000     -21.660212      -589.4043
   2   2.0000     -16.558961      -450.5922
   3   2.0000     -12.209608      -332.2403
   4   2.0000     -12.118390      -329.7581
   5   2.0000     -12.073538      -328.5377
   6   2.0000     -12.069775      -328.4353
   7   2.0000     -12.067700      -328.3788
   8   2.0000     -12.057615      -328.1044
   9   2.0000     -12.056536      -328.0750
  10   2.0000     -12.055952      -328.0591
  11   2.0000     -12.055229      -328.0395
  12   2.0000     -12.054163      -328.0105
  13   2.0000     -12.053601      -327.9952
  14   2.0000     -12.052225      -327.9577
  15   2.0000      -1.768660       -48.1277
  16   2.0000      -1.705945       -46.4211
  17   2.0000      -1.530165       -41.6379
  18   2.0000      -1.411677       -38.4137
  19   2.0000      -1.358524       -36.9673
  20   2.0000      -1.318780       -35.8858
  21   2.0000      -1.279320       -34.8121
  22   2.0000      -1.273404       -34.6511
  23   2.0000      -1.238455       -33.7001
  24   2.0000      -1.176887       -32.0247
  25   2.0000      -1.139187       -30.9989
  26   2.0000      -1.133627       -30.8476
  27   2.0000      -1.120981       -30.5035
  28   2.0000      -1.086865       -29.5751
  29   2.0000      -1.061726       -28.8910
  30   2.0000      -1.028215       -27.9792
  31   2.0000      -1.013676       -27.5835
  32   2.0000      -0.995522       -27.0895
  33   2.0000      -0.968266       -26.3479
  34   2.0000      -0.965561       -26.2743
  35   2.0000      -0.956373       -26.0242
  36   2.0000      -0.925889       -25.1947
  37   2.0000      -0.913998       -24.8711
  38   2.0000      -0.905686       -24.6450
  39   2.0000      -0.895437       -24.3661
  40   2.0000      -0.888852       -24.1869
  41   2.0000      -0.873379       -23.7658
  42   2.0000      -0.862464       -23.4689
  43   2.0000      -0.844131       -22.9700
  44   2.0000      -0.828032       -22.5319
  45   2.0000      -0.822366       -22.3777
  46   2.0000      -0.807194       -21.9649
  47   2.0000      -0.807152       -21.9637
  48   2.0000      -0.759600       -20.6698
  49   2.0000      -0.734734       -19.9931
  50   2.0000      -0.690886       -18.8000
  51   2.0000      -0.636598       -17.3227
  52   2.0000      -0.608078       -16.5466
  53   0.0000      -0.294293        -8.0081
  54   0.0000      -0.285304        -7.7635
  55   0.0000      -0.263606        -7.1731
  56   0.0000      -0.214394        -5.8340
  57   0.0000      -0.201911        -5.4943

MULLIKEN ATOMIC CHARGES
-----------------------
   0 C :   -0.282151
   1 N :   -0.292420
   2 C :    0.454988
   3 O :   -0.522337
   4 O :   -0.303625
   5 C :    0.252819
   6 C :   -0.232625
   7 C :   -0.132954
   8 C :   -0.270727
   9 C :    0.100404
  10 C :    0.103503
  11 C :   -0.260360
  12 C :   -0.145559
  13 C :   -0.150394
  14 C :   -0.219467
  15 H :    0.148131
  16 H :    0.159803
  17 H :    0.147781
  18 H :    0.292797
  19 H :    0.167421
  20 H :    0.165532
  21 H :    0.162870
  22 H :    0.165879
  23 H :    0.164196
  24 H :    0.163680
  25 H :    0.162814
Sum of atomic charges:   -0.0000000

LOEWDIN ATOMIC CHARGES
----------------------
   0 C :   -0.288337
   1 N :    0.115446
   2 C :   -0.545820
   3 O :   -0.018261
   4 O :    0.272994
   5 C :   -0.193636
   6 C :   -0.110349
   7 C :   -0.137529
   8 C :   -0.104319
   9 C :   -0.097341
  10 C :   -0.081490
  11 C :   -0.102986
  12 C :   -0.138919
  13 C :   -0.141557
  14 C :   -0.100939
  15 H :    0.120119
  16 H :    0.128289
  17 H :    0.120295
  18 H :    0.206849
  19 H :    0.160632
  20 H :    0.155016
  21 H :    0.158061
  22 H :    0.159057
  23 H :    0.153617
  24 H :    0.153208
  25 H :    0.157900

  Mayer bond orders larger than 0.100000
B(  0-C ,  1-N ) :   0.9147 B(  0-C , 15-H ) :   0.9720 B(  0-C , 16-H ) :   0.9641
B(  0-C , 17-H ) :   0.9731 B(  1-N ,  2-C ) :   1.3419 B(  1-N , 18-H ) :   0.8897
B(  2-C ,  3-O ) :   1.8632 B(  2-C ,  4-O ) :   1.0754 B(  4-O ,  5-C ) :   0.9307
B(  5-C ,  6-C ) :   1.5788 B(  5-C , 10-C ) :   1.1705 B(  6-C ,  7-C ) :   1.2317
B(  6-C , 19-H ) :   0.9803 B(  7-C ,  8-C ) :   1.5407 B(  7-C , 20-H ) :   0.9802
B(  8-C ,  9-C ) :   1.2036 B(  8-C , 21-H ) :   0.9888 B(  9-C , 10-C ) :   1.2590
B(  9-C , 14-C ) :   1.2155 B( 10-C , 11-C ) :   1.1876 B( 11-C , 12-C ) :   1.5646
B( 11-C , 22-H ) :   0.9716 B( 12-C , 13-C ) :   1.2501 B( 12-C , 23-H ) :   0.9786
B( 13-C , 14-C ) :   1.5429 B( 13-C , 24-H ) :   0.9787 B( 14-C , 25-H ) :   0.9851

FINAL SINGLE POINT ENERGY      -669.186848001263

DIPOLE MOMENT
-------------

Method             : SCF
Type of density    : Electron Density
Multiplicity       :   1
Irrep              :   0
Energy             :  -669.2014487840632455 Eh
Relativity type    :
Basis              : AO
                                X                 Y                 Z
Electronic contribution:      3.164355512       2.748176356      -2.194409206
Nuclear contribution   :     -3.818771939      -3.288178367       0.957092348
                        -----------------------------------------
Total Dipole Moment    :     -0.654416427      -0.540002011      -1.237316858
                        -----------------------------------------
Magnitude (a.u.)       :      1.500271988
Magnitude (Debye)      :      3.813388340

Rotational constants in cm-1:             0.036133             0.014414             0.011107
Rotational constants in MHz :          1083.227474           432.118225           332.968258

                             ****ORCA TERMINATED NORMALLY****
TOTAL RUN TIME: 0 days 0 hours 8 minutes 22 seconds 703 msec
