                         Program Version 6.0.0  -   RELEASE  -
|  1> ! r2scan-3c def2/J RI DEFGRID2 scfconv6 printgap
|  2> %output
|  3>     printlevel normal
|  4> end
|  5> * xyz 0 1
|  6> C -0.1546399634 -2.3477536622 0.1891339437
|  7> C 0.4983623921 -1.0062902607 0.1199757157
|  8> C 1.891585768 -0.9547034465 0.1102787864
|  9> C 2.584775504 0.2330736109 -0.0184345519
| 10> C 1.8958686496 1.4310845988 -0.1609266534
| 11> C 0.5199363833 1.4164572078 -0.1686894077
| 12> C -0.1803982036 0.2140298991 -0.0188710587
| 13> N -1.5991366091 0.3289200285 -0.0207801496
| 14> O -2.281407277 -0.4828191507 0.5858410562
| 15> O -2.091677735 1.2745650507 -0.6223865293
| 16> H 0.4045800763 -2.9945870485 0.8595343377
| 17> H -1.1834081124 -2.2961985996 0.5263602848
| 18> H -0.136914657 -2.8019253983 -0.8016825724
| 19> H 2.4361318514 -1.8811335953 0.2052418971
| 20> H 3.6631287345 0.2286001875 -0.0106974715
| 21> H 2.427038352 2.3629392219 -0.2628959246
| 22> H -0.0484307092 2.3280699313 -0.2721969516
| 23> *
| 24>
| 25>                          ****END OF INPUT****

CARTESIAN COORDINATES (ANGSTROEM)
---------------------------------
  C     -0.154640   -2.347754    0.189134
  C      0.498362   -1.006290    0.119976
  C      1.891586   -0.954703    0.110279
  C      2.584776    0.233074   -0.018435
  C      1.895869    1.431085   -0.160927
  C      0.519936    1.416457   -0.168689
  C     -0.180398    0.214030   -0.018871
  N     -1.599137    0.328920   -0.020780
  O     -2.281407   -0.482819    0.585841
  O     -2.091678    1.274565   -0.622387
  H      0.404580   -2.994587    0.859534
  H     -1.183408   -2.296199    0.526360
  H     -0.136915   -2.801925   -0.801683
  H      2.436132   -1.881134    0.205242
  H      3.663129    0.228600   -0.010697
  H      2.427038    2.362939   -0.262896
  H     -0.048431    2.328070   -0.272197

 Total Charge           Charge          ....    0
 Multiplicity           Mult            ....    1
 Number of Electrons    NEL             ....   72
 Basis Dimension        Dim             ....  240

ORBITAL ENERGIES
----------------

  NO   OCC          E(Eh)            E(eV)
   0   2.0000     -18.979864      -516.4684
   1   2.0000     -18.978634      -516.4349
   2   2.0000     -14.393234      -391.6598
   3   2.0000     -10.103482      -274.9297
   4   2.0000     -10.082751      -274.3656
   5   2.0000     -10.065436      -273.8944
   6   2.0000     -10.063975      -273.8547
   7   2.0000     -10.058930      -273.7174
   8   2.0000     -10.058764      -273.7129
   9   2.0000     -10.037896      -273.1450
  10   2.0000      -1.200636       -32.6710
  11   2.0000      -1.019034       -27.7293
  12   2.0000      -0.868301       -23.6277
  13   2.0000      -0.788031       -21.4434
  14   2.0000      -0.768114       -20.9014
  15   2.0000      -0.696812       -18.9612
  16   2.0000      -0.658405       -17.9161
  17   2.0000      -0.596425       -16.2295
  18   2.0000      -0.566924       -15.4268
  19   2.0000      -0.523390       -14.2422
  20   2.0000      -0.510212       -13.8836
  21   2.0000      -0.485384       -13.2080
  22   2.0000      -0.477109       -12.9828
  23   2.0000      -0.450652       -12.2629
  24   2.0000      -0.429963       -11.6999
  25   2.0000      -0.411558       -11.1991
  26   2.0000      -0.405000       -11.0206
  27   2.0000      -0.375209       -10.2099
  28   2.0000      -0.357781        -9.7357
  29   2.0000      -0.350914        -9.5489
  30   2.0000      -0.338989        -9.2244
  31   2.0000      -0.287352        -7.8192
  32   2.0000      -0.279056        -7.5935
  33   2.0000      -0.271740        -7.3944
  34   2.0000      -0.254482        -6.9248
  35   2.0000      -0.246496        -6.7075
  36   0.0000      -0.119976        -3.2647
  37   0.0000      -0.056959        -1.5499
  38   0.0000      -0.034935        -0.9506
  39   0.0000       0.069863         1.9011
  40   0.0000       0.077546         2.1101

MULLIKEN ATOMIC CHARGES
-----------------------
   0 C :   -0.573324
   1 C :    0.040555
   2 C :   -0.173441
   3 C :   -0.118703
   4 C :   -0.140508
   5 C :   -0.209263
   6 C :    0.100313
   7 N :    0.351450
   8 O :   -0.236475
   9 O :   -0.213739
  10 H :    0.154769
  11 H :    0.204047
  12 H :    0.178134
  13 H :    0.152815
  14 H :    0.151085
  15 H :    0.153938
  16 H :    0.178348
Sum of atomic charges:    0.0000000

LOEWDIN ATOMIC CHARGES
----------------------
   0 C :   -0.373476
   1 C :   -0.020376
   2 C :   -0.152144
   3 C :   -0.129641
   4 C :   -0.160318
   5 C :   -0.064849
   6 C :    0.195747
   7 N :   -0.492841
   8 O :   -0.034695
   9 O :   -0.024032
  10 H :    0.166491
  11 H :    0.196382
  12 H :    0.174274
  13 H :    0.174662
  14 H :    0.171597
  15 H :    0.173201
  16 H :    0.200018

  Mayer bond orders larger than 0.100000
B(  0-C ,  1-C ) :   0.8200 B(  0-C , 10-H ) :   0.9831 B(  0-C , 11-H ) :   0.9624
B(  0-C , 12-H ) :   0.9671 B(  1-C ,  2-C ) :   1.3149 B(  1-C ,  6-C ) :   1.4420
B(  2-C ,  3-C ) :   1.4392 B(  2-C , 13-H ) :   0.9421 B(  3-C ,  4-C ) :   1.3675
B(  3-C , 14-H ) :   0.9469 B(  4-C ,  5-C ) :   1.3620 B(  4-C , 15-H ) :   0.9537
B(  5-C ,  6-C ) :   1.3451 B(  5-C , 16-H ) :   0.9430 B(  6-C ,  7-N ) :   0.9600
B(  7-N ,  8-O ) :   1.8060 B(  7-N ,  9-O ) :   1.8287 B(  8-O ,  9-O ) :   0.2480

Dispersion correction           -0.006015628
FINAL SINGLE POINT ENERGY      -475.967932222095

DIPOLE MOMENT
-------------

Method             : SCF
Type of density    : Electron Density
Multiplicity       :   1
Irrep              :   0
Energy             :  -475.9730655563289474 Eh
Relativity type    :
Basis              : AO
                                X                 Y                 Z
Electronic contribution:     -5.307293415       4.380175851      -0.229890961
Nuclear contribution   :      7.021029562      -4.728208918       0.227942955
                        -----------------------------------------
Total Dipole Moment    :      1.713736147      -0.348033067      -0.001948006
                        -----------------------------------------
Magnitude (a.u.)       :      1.748720216
Magnitude (Debye)      :      4.444893548

Rotational constants in cm-1:             0.075832             0.042300             0.027964
Rotational constants in MHz :          2273.392410          1268.122827           838.353876

                             ****ORCA TERMINATED NORMALLY****
TOTAL RUN TIME: 0 days 0 hours 0 minutes 37 seconds 66 msec
