                         Program Version 6.0.0  -   RELEASE  -
|  1> ! r2scan-3c def2/J RI DEFGRID2 scfconv6 printgap
|  2> %output
|  3>     printlevel normal
|  4> end
|  5> %cpcm
|  6>     smd true
|  7>     smdsolvent "water"
|  8> end
|  9> * xyz 0 1
| 10> C -0.1546399634 -2.3477536622 0.1891339437
| 11> C 0.4983623921 -1.0062902607 0.1199757157
| 12> C 1.891585768 -0.9547034465 0.1102787864
| 13> C 2.584775504 0.2330736109 -0.0184345519
| 14> C 1.8958686496 1.4310845988 -0.1609266534
| 15> C 0.5199363833 1.4164572078 -0.1686894077
| 16> C -0.1803982036 0.2140298991 -0.0188710587
| 17> N -1.5991366091 0.3289200285 -0.0207801496
| 18> O -2.281407277 -0.4828191507 0.5858410562
| 19> O -2.091677735 1.2745650507 -0.6223865293
| 20> H 0.4045800763 -2.9945870485 0.8595343377
| 21> H -1.1834081124 -2.2961985996 0.5263602848
| 22> H -0.136914657 -2.8019253983 -0.8016825724
| 23> H 2.4361318514 -1.8811335953 0.2052418971
| 24> H 3.6631287345 0.2286001875 -0.0106974715
| 25> H 2.427038352 2.3629392219 -0.2628959246
| 26> H -0.0484307092 2.3280699313 -0.2721969516
| 27> *
| 28>
| 29>                          ****END OF INPUT****

CARTESIAN COORDINATES (ANGSTROEM)
---------------------------------
  C     -0.154640   -2.347754    0.189134
  C      0.498362   -1.006290    0.119976
  C      1.891586   -0.954703    0.110279
  C      2.584776    0.233074   -0.018435
  C      1.895869    1.431085   -0.160927
  C      0.519936    1.416457   -0.168689
  C     -0.180398    0.214030   -0.018871
  N     -1.599137    0.328920   -0.020780
  O     -2.281407   -0.482819    0.585841
  O     -2.091678    1.274565   -0.622387
  H      0.404580   -2.994587    0.859534
  H     -1.183408   -2.296199    0.526360
  H     -0.136915   -2.801925   -0.801683
  H      2.436132   -1.881134    0.205242
  H      3.663129    0.228600   -0.010697
  H      2.427038    2.362939   -0.262896
  H     -0.048431    2.328070   -0.272197

 Total Charge           Charge          ....    0
 Multiplicity           Mult            ....    1
 Number of Electrons    NEL             ....   72
 Basis Dimension        Dim             ....  240

ORBITAL ENERGIES
----------------

  NO   OCC          E(Eh)            E(eV)
   0   2.0000     -18.992366      -516.8085
   1   2.0000     -18.992111      -516.8016
   2   2.0000     -14.403516      -391.9396
   3   2.0000     -10.097822      -274.7757
   4   2.0000     -10.073881      -274.1242
   5   2.0000     -10.056078      -273.6398
   6   2.0000     -10.050598      -273.4907
   7   2.0000     -10.045454      -273.3507
   8   2.0000     -10.044597      -273.3274
   9   2.0000     -10.023375      -272.7499
  10   2.0000      -1.212525       -32.9945
  11   2.0000      -1.031889       -28.0791
  12   2.0000      -0.861244       -23.4356
  13   2.0000      -0.783457       -21.3190
  14   2.0000      -0.756673       -20.5901
  15   2.0000      -0.687858       -18.7176
  16   2.0000      -0.649004       -17.6603
  17   2.0000      -0.586143       -15.9498
  18   2.0000      -0.565993       -15.4014
  19   2.0000      -0.525011       -14.2863
  20   2.0000      -0.517419       -14.0797
  21   2.0000      -0.497412       -13.5353
  22   2.0000      -0.465668       -12.6715
  23   2.0000      -0.444205       -12.0874
  24   2.0000      -0.415736       -11.3127
  25   2.0000      -0.398717       -10.8496
  26   2.0000      -0.391004       -10.6398
  27   2.0000      -0.362018        -9.8510
  28   2.0000      -0.347311        -9.4508
  29   2.0000      -0.339931        -9.2500
  30   2.0000      -0.325258        -8.8507
  31   2.0000      -0.301839        -8.2135
  32   2.0000      -0.291129        -7.9220
  33   2.0000      -0.273680        -7.4472
  34   2.0000      -0.252949        -6.8831
  35   2.0000      -0.244168        -6.6441
  36   0.0000      -0.126347        -3.4381
  37   0.0000      -0.046258        -1.2587
  38   0.0000      -0.029622        -0.8061
  39   0.0000       0.086499         2.3538
  40   0.0000       0.087074         2.3694

MULLIKEN ATOMIC CHARGES
-----------------------
   0 C :   -0.591815
   1 C :    0.040082
   2 C :   -0.193329
   3 C :   -0.134458
   4 C :   -0.179186
   5 C :   -0.233489
   6 C :    0.111967
   7 N :    0.408329
   8 O :   -0.290644
   9 O :   -0.279912
  10 H :    0.180559
  11 H :    0.194211
  12 H :    0.199365
  13 H :    0.188855
  14 H :    0.188635
  15 H :    0.190100
  16 H :    0.200729
Sum of atomic charges:    0.0000000

LOEWDIN ATOMIC CHARGES
----------------------
   0 C :   -0.374814
   1 C :   -0.015157
   2 C :   -0.148978
   3 C :   -0.120557
   4 C :   -0.160258
   5 C :   -0.067959
   6 C :    0.191211
   7 N :   -0.490905
   8 O :   -0.065546
   9 O :   -0.063116
  10 H :    0.176445
  11 H :    0.191062
  12 H :    0.183515
  13 H :    0.188240
  14 H :    0.185031
  15 H :    0.185801
  16 H :    0.205986

  Mayer bond orders larger than 0.100000
B(  0-C ,  1-C ) :   0.8328 B(  0-C , 10-H ) :   0.9722 B(  0-C , 11-H ) :   0.9674
B(  0-C , 12-H ) :   0.9573 B(  1-C ,  2-C ) :   1.3128 B(  1-C ,  6-C ) :   1.3814
B(  2-C ,  3-C ) :   1.4117 B(  2-C , 13-H ) :   0.9464 B(  3-C ,  4-C ) :   1.3383
B(  3-C , 14-H ) :   0.9507 B(  4-C ,  5-C ) :   1.3568 B(  4-C , 15-H ) :   0.9570
B(  5-C ,  6-C ) :   1.2682 B(  5-C , 16-H ) :   0.9536 B(  6-C ,  7-N ) :   0.9862
B(  7-N ,  8-O ) :   1.7575 B(  7-N ,  9-O ) :   1.7742 B(  8-O ,  9-O ) :   0.2325

Dispersion correction           -0.006015628
FINAL SINGLE POINT ENERGY      -475.972036219212

DIPOLE MOMENT
-------------

Method             : SCF
Type of density    : Electron Density
Multiplicity       :   1
Irrep              :   0
Energy             :  -475.9771695534458900 Eh
Relativity type    :
Basis              : AO
                                X                 Y                 Z
Electronic contribution:     -4.547739729       4.215042415      -0.231543876
Nuclear contribution   :      7.021029562      -4.728208918       0.227942955
                        -----------------------------------------
Total Dipole Moment    :      2.473289834      -0.513166503      -0.003600921
                        -----------------------------------------
Magnitude (a.u.)       :      2.525968216
Magnitude (Debye)      :      6.420500959

Rotational constants in cm-1:             0.075832             0.042300             0.027964
Rotational constants in MHz :          2273.392410          1268.122827           838.353876

                             ****ORCA TERMINATED NORMALLY****
TOTAL RUN TIME: 0 days 0 hours 0 minutes 44 seconds 467 msec
