                         Program Version 6.0.0  -   RELEASE  -
|  1> ! pbe def2-sv(p) def2/J RI DEFGRID1 loosescf d4 GCP(DFT/SV(P)) printgap
|  2> %output
|  3>     printlevel normal
|  4> end
|  5> * xyz 0 1
|  6> C -1.4681037959 -0.0006769287 0.2355391911
|  7> C -0.7292198221 1.2504020278 -0.2371441171
|  8> C 0.728765398 1.1993804699 0.2350853572
|  9> N 1.4284104476 0.0006882962 -0.1987110073
| 10> C 0.7299525326 -1.1987077586 0.2350022776
| 11> C -0.7280354321 -1.2510959098 -0.2370616542
| 12> H -2.4917661655 -0.0011697295 -0.1448542282
| 13> H -1.513595136 -0.0006272169 1.3272249132
| 14> H -0.7533028322 1.2977670166 -1.329285667
| 15> H -1.2123927722 2.1477554667 0.1516146824
| 16> H 1.2803365652 2.0671001175 -0.1337517985
| 17> H 0.758104497 1.2145274425 1.3291427109
| 18> H 1.4806037607 0.0007412027 -1.2140258904
| 19> H 1.2823517124 -2.0658476029 -0.1340497721
| 20> H 0.7594217946 -1.2140437264 1.3290414131
| 21> H -0.7521876428 -1.2985580342 -1.3292222233
| 22> H -1.2103192206 -2.1488909785 0.1518241376
| 23> *
| 24>
| 25>                          ****END OF INPUT****

CARTESIAN COORDINATES (ANGSTROEM)
---------------------------------
  C     -1.468104   -0.000677    0.235539
  C     -0.729220    1.250402   -0.237144
  C      0.728765    1.199380    0.235085
  N      1.428410    0.000688   -0.198711
  C      0.729953   -1.198708    0.235002
  C     -0.728035   -1.251096   -0.237062
  H     -2.491766   -0.001170   -0.144854
  H     -1.513595   -0.000627    1.327225
  H     -0.753303    1.297767   -1.329286
  H     -1.212393    2.147755    0.151615
  H      1.280337    2.067100   -0.133752
  H      0.758104    1.214527    1.329143
  H      1.480604    0.000741   -1.214026
  H      1.282352   -2.065848   -0.134050
  H      0.759422   -1.214044    1.329041
  H     -0.752188   -1.298558   -1.329222
  H     -1.210319   -2.148891    0.151824

 Total Charge           Charge          ....    0
 Multiplicity           Mult            ....    1
 Number of Electrons    NEL             ....   48
 Basis Dimension        Dim             ....  106

ORBITAL ENERGIES
----------------

  NO   OCC          E(Eh)            E(eV)
   0   2.0000     -13.962027      -379.9261
   1   2.0000      -9.902016      -269.4476
   2   2.0000      -9.902013      -269.4475
   3   2.0000      -9.882652      -268.9206
   4   2.0000      -9.879999      -268.8484
   5   2.0000      -9.879973      -268.8477
   6   2.0000      -0.822907       -22.3924
   7   2.0000      -0.703336       -19.1387
   8   2.0000      -0.670142       -18.2355
   9   2.0000      -0.561088       -15.2680
  10   2.0000      -0.550873       -14.9900
  11   2.0000      -0.509853       -13.8738
  12   2.0000      -0.439329       -11.9547
  13   2.0000      -0.406638       -11.0652
  14   2.0000      -0.401286       -10.9196
  15   2.0000      -0.387398       -10.5416
  16   2.0000      -0.354594        -9.6490
  17   2.0000      -0.334254        -9.0955
  18   2.0000      -0.327240        -8.9047
  19   2.0000      -0.304485        -8.2854
  20   2.0000      -0.300913        -8.1883
  21   2.0000      -0.283917        -7.7258
  22   2.0000      -0.271036        -7.3753
  23   2.0000      -0.166371        -4.5272
  24   0.0000       0.032773         0.8918
  25   0.0000       0.049538         1.3480
  26   0.0000       0.072060         1.9608
  27   0.0000       0.075703         2.0600
  28   0.0000       0.106889         2.9086

MULLIKEN ATOMIC CHARGES
-----------------------
   0 C :   -0.155823
   1 C :   -0.169906
   2 C :   -0.082256
   3 N :   -0.326594
   4 C :   -0.082259
   5 C :   -0.169929
   6 H :    0.089053
   7 H :    0.076014
   8 H :    0.071480
   9 H :    0.082098
  10 H :    0.086710
  11 H :    0.074922
  12 H :    0.191271
  13 H :    0.086712
  14 H :    0.074924
  15 H :    0.071483
  16 H :    0.082102
Sum of atomic charges:   -0.0000000

LOEWDIN ATOMIC CHARGES
----------------------
   0 C :   -0.229493
   1 C :   -0.247799
   2 C :   -0.172498
   3 N :   -0.257973
   4 C :   -0.172503
   5 C :   -0.247795
   6 H :    0.115068
   7 H :    0.113675
   8 H :    0.110189
   9 H :    0.116406
  10 H :    0.110743
  11 H :    0.110869
  12 H :    0.202905
  13 H :    0.110743
  14 H :    0.110868
  15 H :    0.110188
  16 H :    0.116406

  Mayer bond orders larger than 0.100000
B(  0-C ,  1-C ) :   1.1175 B(  0-C ,  5-C ) :   1.1176 B(  0-C ,  6-H ) :   0.9263
B(  0-C ,  7-H ) :   0.9211 B(  1-C ,  2-C ) :   1.1013 B(  1-C ,  8-H ) :   0.9152
B(  1-C ,  9-H ) :   0.9129 B(  2-C ,  3-N ) :   1.1132 B(  2-C , 10-H ) :   0.9342
B(  2-C , 11-H ) :   0.9188 B(  3-N ,  4-C ) :   1.1132 B(  3-N , 12-H ) :   0.8801
B(  4-C ,  5-C ) :   1.1013 B(  4-C , 13-H ) :   0.9342 B(  4-C , 14-H ) :   0.9188
B(  5-C , 15-H ) :   0.9152 B(  5-C , 16-H ) :   0.9129

Dispersion correction           -0.013918833
FINAL SINGLE POINT ENERGY      -251.283064000484

DIPOLE MOMENT
-------------

Method             : SCF
Type of density    : Electron Density
Multiplicity       :   1
Irrep              :   0
Energy             :  -251.3466200464750386 Eh
Relativity type    :
Basis              : AO
                                X                 Y                 Z
Electronic contribution:      1.862803875       0.001023137      -0.231327985
Nuclear contribution   :     -2.218211243      -0.001165227       0.002345062
                        -----------------------------------------
Total Dipole Moment    :     -0.355407368      -0.000142091      -0.228982923
                        -----------------------------------------
Magnitude (a.u.)       :      0.422785521
Magnitude (Debye)      :      1.074635392

Rotational constants in cm-1:             0.152166             0.148221             0.086119
Rotational constants in MHz :          4561.817824          4443.555996          2581.797347

                             ****ORCA TERMINATED NORMALLY****
TOTAL RUN TIME: 0 days 0 hours 0 minutes 6 seconds 83 msec
