                         Program Version 6.0.0  -   RELEASE  -
|  1> ! wb97x-v def2-tzvp def2/J RIJCOSX DEFGRID2 scfconv7 GCP(DFT/TZ) printgap
|  2> %output
|  3>     printlevel normal
|  4> end
|  5> * xyz 0 1
|  6> C 1.324767635893484 1.2325549364023434 0.21739843295264752
|  7> C 0.48865508283817055 0.10534390275272856 -0.4134604557459278
|  8> C 0.9087046918652455 -1.2761768016697819 0.06359614442681946
|  9> C -0.9572025933509045 0.39900469577648684 -0.16085690504570083
| 10> O -1.7418695291265305 -0.3559684763341713 0.39026260527103457
| 11> H 1.237532178139032 1.2076409939256345 1.308531932654192
| 12> H 1.0023132596915507 2.2173886770420013 -0.13427092643968022
| 13> H 2.3773453163636735 1.1024191793961526 -0.04782708469391214
| 14> H 0.6045472325157706 0.1851198294377959 -1.5065458289841713
| 15> H 1.963082418727669 -1.448982867226723 -0.1696572928525535
| 16> H 0.3175235336093365 -2.0616339118427365 -0.4159952620091896
| 17> H 0.7798013337709637 -1.3669968270098558 1.147000459315966
| 18> H -1.301898888873362 1.3945131033877105 -0.5113183851499508
| 19> *
| 20>
| 21>                          ****END OF INPUT****

CARTESIAN COORDINATES (ANGSTROEM)
---------------------------------
  C      1.324768    1.232555    0.217398
  C      0.488655    0.105344   -0.413460
  C      0.908705   -1.276177    0.063596
  C     -0.957203    0.399005   -0.160857
  O     -1.741870   -0.355968    0.390263
  H      1.237532    1.207641    1.308532
  H      1.002313    2.217389   -0.134271
  H      2.377345    1.102419   -0.047827
  H      0.604547    0.185120   -1.506546
  H      1.963082   -1.448983   -0.169657
  H      0.317524   -2.061634   -0.415995
  H      0.779801   -1.366997    1.147000
  H     -1.301899    1.394513   -0.511318

 Total Charge           Charge          ....    0
 Multiplicity           Mult            ....    1
 Number of Electrons    NEL             ....   40
 Basis Dimension        Dim             ....  203

ORBITAL ENERGIES
----------------

  NO   OCC          E(Eh)            E(eV)
   0   2.0000     -21.672312      -589.7336
   1   2.0000     -12.137332      -330.2736
   2   2.0000     -12.069247      -328.4209
   3   2.0000     -12.055505      -328.0470
   4   2.0000     -12.041293      -327.6602
   5   2.0000      -1.714197       -46.6457
   6   2.0000      -1.330076       -36.1932
   7   2.0000      -1.192384       -32.4464
   8   2.0000      -1.165958       -31.7273
   9   2.0000      -1.074123       -29.2284
  10   2.0000      -0.997333       -27.1388
  11   2.0000      -0.963329       -26.2135
  12   2.0000      -0.914611       -24.8878
  13   2.0000      -0.880968       -23.9723
  14   2.0000      -0.853796       -23.2330
  15   2.0000      -0.841932       -22.9101
  16   2.0000      -0.822235       -22.3742
  17   2.0000      -0.798772       -21.7357
  18   2.0000      -0.783374       -21.3167
  19   2.0000      -0.768291       -20.9063
  20   0.0000      -0.315361        -8.5814
  21   0.0000      -0.044589        -1.2133
  22   0.0000      -0.034386        -0.9357
  23   0.0000      -0.023315        -0.6344
  24   0.0000      -0.017223        -0.4687

MULLIKEN ATOMIC CHARGES
-----------------------
   0 C :   -0.364624
   1 C :    0.041578
   2 C :   -0.344059
   3 C :    0.081938
   4 O :   -0.290253
   5 H :    0.121364
   6 H :    0.118261
   7 H :    0.122226
   8 H :    0.084429
   9 H :    0.111151
  10 H :    0.125215
  11 H :    0.116329
  12 H :    0.076445
Sum of atomic charges:   -0.0000000

LOEWDIN ATOMIC CHARGES
----------------------
   0 C :   -0.269958
   1 C :   -0.311947
   2 C :   -0.273031
   3 C :   -0.258300
   4 O :    0.099467
   5 H :    0.123958
   6 H :    0.120401
   7 H :    0.122894
   8 H :    0.161973
   9 H :    0.119777
  10 H :    0.125666
  11 H :    0.125716
  12 H :    0.113383

  Mayer bond orders larger than 0.100000
B(  0-C ,  1-C ) :   0.9585 B(  0-C ,  5-H ) :   0.9717 B(  0-C ,  6-H ) :   0.9762
B(  0-C ,  7-H ) :   0.9766 B(  1-C ,  2-C ) :   0.9864 B(  1-C ,  3-C ) :   0.9214
B(  1-C ,  8-H ) :   0.9427 B(  2-C ,  9-H ) :   0.9785 B(  2-C , 10-H ) :   0.9741
B(  2-C , 11-H ) :   0.9683 B(  3-C ,  4-O ) :   2.1505 B(  3-C , 12-H ) :   0.9876

FINAL SINGLE POINT ENERGY      -232.468827122847

DIPOLE MOMENT
-------------

Method             : SCF
Type of density    : Electron Density
Multiplicity       :   1
Irrep              :   0
Energy             :  -232.4772325102473758 Eh
Relativity type    :
Basis              : AO
                                X                 Y                 Z
Electronic contribution:     -5.575706129      -0.497229580       0.088395100
Nuclear contribution   :      6.484725732       1.035771384      -0.552952466
                        -----------------------------------------
Total Dipole Moment    :      0.909019603       0.538541803      -0.464557366
                        -----------------------------------------
Magnitude (a.u.)       :      1.154191258
Magnitude (Debye)      :      2.933721031

Rotational constants in cm-1:             0.248139             0.137977             0.100052
Rotational constants in MHz :          7439.027878          4136.450092          2999.470565

                             ****ORCA TERMINATED NORMALLY****
TOTAL RUN TIME: 0 days 0 hours 0 minutes 59 seconds 669 msec
