                         Program Version 6.0.0  -   RELEASE  -
|  1> ! wb97x-v def2-tzvp def2/J RIJCOSX DEFGRID2 scfconv7 GCP(DFT/TZ) printgap
|  2> %output
|  3>     printlevel normal
|  4> end
|  5> %cpcm
|  6>     smd true
|  7>     smdsolvent "water"
|  8> end
|  9> * xyz 0 1
| 10> C 1.324767635893484 1.2325549364023434 0.21739843295264752
| 11> C 0.48865508283817055 0.10534390275272856 -0.4134604557459278
| 12> C 0.9087046918652455 -1.2761768016697819 0.06359614442681946
| 13> C -0.9572025933509045 0.39900469577648684 -0.16085690504570083
| 14> O -1.7418695291265305 -0.3559684763341713 0.39026260527103457
| 15> H 1.237532178139032 1.2076409939256345 1.308531932654192
| 16> H 1.0023132596915507 2.2173886770420013 -0.13427092643968022
| 17> H 2.3773453163636735 1.1024191793961526 -0.04782708469391214
| 18> H 0.6045472325157706 0.1851198294377959 -1.5065458289841713
| 19> H 1.963082418727669 -1.448982867226723 -0.1696572928525535
| 20> H 0.3175235336093365 -2.0616339118427365 -0.4159952620091896
| 21> H 0.7798013337709637 -1.3669968270098558 1.147000459315966
| 22> H -1.301898888873362 1.3945131033877105 -0.5113183851499508
| 23> *
| 24>
| 25>                          ****END OF INPUT****

CARTESIAN COORDINATES (ANGSTROEM)
---------------------------------
  C      1.324768    1.232555    0.217398
  C      0.488655    0.105344   -0.413460
  C      0.908705   -1.276177    0.063596
  C     -0.957203    0.399005   -0.160857
  O     -1.741870   -0.355968    0.390263
  H      1.237532    1.207641    1.308532
  H      1.002313    2.217389   -0.134271
  H      2.377345    1.102419   -0.047827
  H      0.604547    0.185120   -1.506546
  H      1.963082   -1.448983   -0.169657
  H      0.317524   -2.061634   -0.415995
  H      0.779801   -1.366997    1.147000
  H     -1.301899    1.394513   -0.511318

 Total Charge           Charge          ....    0
 Multiplicity           Mult            ....    1
 Number of Electrons    NEL             ....   40
 Basis Dimension        Dim             ....  203

ORBITAL ENERGIES
----------------

  NO   OCC          E(Eh)            E(eV)
   0   2.0000     -21.678248      -589.8951
   1   2.0000     -12.139154      -330.3232
   2   2.0000     -12.055391      -328.0439
   3   2.0000     -12.036118      -327.5194
   4   2.0000     -12.029696      -327.3447
   5   2.0000      -1.723704       -46.9044
   6   2.0000      -1.317140       -35.8412
   7   2.0000      -1.178193       -32.0603
   8   2.0000      -1.161485       -31.6056
   9   2.0000      -1.074807       -29.2470
  10   2.0000      -0.999714       -27.2036
  11   2.0000      -0.956176       -26.0189
  12   2.0000      -0.920471       -25.0473
  13   2.0000      -0.873029       -23.7563
  14   2.0000      -0.843107       -22.9421
  15   2.0000      -0.829479       -22.5713
  16   2.0000      -0.807354       -21.9692
  17   2.0000      -0.783823       -21.3289
  18   2.0000      -0.772279       -21.0148
  19   2.0000      -0.759635       -20.6707
  20   0.0000      -0.309266        -8.4156
  21   0.0000      -0.036183        -0.9846
  22   0.0000      -0.016418        -0.4468
  23   0.0000      -0.008757        -0.2383
  24   0.0000       0.000580         0.0158

MULLIKEN ATOMIC CHARGES
-----------------------
   0 C :   -0.411793
   1 C :    0.055210
   2 C :   -0.415904
   3 C :    0.144521
   4 O :   -0.421988
   5 H :    0.131636
   6 H :    0.140139
   7 H :    0.140488
   8 H :    0.114799
   9 H :    0.136024
  10 H :    0.134376
  11 H :    0.127050
  12 H :    0.125441
Sum of atomic charges:   -0.0000000

LOEWDIN ATOMIC CHARGES
----------------------
   0 C :   -0.268907
   1 C :   -0.302521
   2 C :   -0.282344
   3 C :   -0.227482
   4 O :    0.021708
   5 H :    0.125812
   6 H :    0.126244
   7 H :    0.127172
   8 H :    0.174626
   9 H :    0.126376
  10 H :    0.123889
  11 H :    0.124591
  12 H :    0.130835

  Mayer bond orders larger than 0.100000
B(  0-C ,  1-C ) :   0.9505 B(  0-C ,  5-H ) :   0.9694 B(  0-C ,  6-H ) :   0.9729
B(  0-C ,  7-H ) :   0.9728 B(  1-C ,  2-C ) :   0.9693 B(  1-C ,  3-C ) :   0.9483
B(  1-C ,  8-H ) :   0.9316 B(  2-C ,  9-H ) :   0.9763 B(  2-C , 10-H ) :   0.9746
B(  2-C , 11-H ) :   0.9689 B(  3-C ,  4-O ) :   2.0169 B(  3-C , 12-H ) :   0.9781

FINAL SINGLE POINT ENERGY      -232.474492703854

DIPOLE MOMENT
-------------

Method             : SCF
Type of density    : Electron Density
Multiplicity       :   1
Irrep              :   0
Energy             :  -232.4828980912543273 Eh
Relativity type    :
Basis              : AO
                                X                 Y                 Z
Electronic contribution:     -5.253094054      -0.186721284      -0.158663661
Nuclear contribution   :      6.484725732       1.035771384      -0.552952466
                        -----------------------------------------
Total Dipole Moment    :      1.231631677       0.849050100      -0.711616127
                        -----------------------------------------
Magnitude (a.u.)       :      1.656562759
Magnitude (Debye)      :      4.210647908

Rotational constants in cm-1:             0.248139             0.137977             0.100052
Rotational constants in MHz :          7439.027878          4136.450092          2999.470565

                             ****ORCA TERMINATED NORMALLY****
TOTAL RUN TIME: 0 days 0 hours 1 minutes 1 seconds 617 msec
