                         Program Version 6.0.0  -   RELEASE  -
|  1> ! wb97x-v def2-tzvp def2/J RIJCOSX DEFGRID2 scfconv7 GCP(DFT/TZ) printgap
|  2> %output
|  3>     printlevel normal
|  4> end
|  5> * xyz 0 1
|  6> C -2.243689958325276 -0.7542453671138801 -1.1044532766905364
|  7> C -1.7795678227781941 -0.003428180944130453 0.10637025129591766
|  8> O -2.5790659121514348 0.5916507647565732 0.8281493830167586
|  9> C -0.3009128618786035 0.041294260061142105 0.40832345384288316
| 10> C 0.33192053191941107 1.194319701845169 -0.4065683702147164
| 11> C 1.81910411916619 1.3293881924706359 -0.07530234362550524
| 12> C 2.56616423730065 0.01620107480859042 -0.31157136568101046
| 13> C 1.9277656498404574 -1.1283447972967626 0.4768676501997857
| 14> C 0.4440930660810659 -1.272234607784488 0.13332090131051236
| 15> H -3.2893410738045423 -0.5278555098363382 -1.3181070349736543
| 16> H -1.616468217932837 -0.5258406446167301 -1.971984826085415
| 17> H -2.1384024549565717 -1.8299162072349415 -0.9166494586306373
| 18> H -0.20701402594156504 0.29533235883107056 1.472255551973125
| 19> H 0.21125102019367667 0.9844674442363192 -1.4774753205387157
| 20> H -0.19506380756207958 2.1304814033481945 -0.19070289325174614
| 21> H 2.256032499159403 2.131799763725779 -0.6809061826424461
| 22> H 1.927161038308163 1.6246804679380698 0.9770996281987668
| 23> H 2.540217644579437 -0.2261630859711516 -1.3830064572323573
| 24> H 3.620325926358722 0.12696309611035975 -0.03281756212196897
| 25> H 2.4480746690621706 -2.070396536769165 0.26982981614062956
| 26> H 2.0337430002778127 -0.9324143734272047 1.5526583150627444
| 27> H 0.34645558816974226 -1.5349246482892374 -0.927578074290447
| 28> H -0.00661510487194615 -2.0852804643648506 0.714177139819983
| 29> *
| 30>
| 31>                          ****END OF INPUT****

CARTESIAN COORDINATES (ANGSTROEM)
---------------------------------
  C     -2.243690   -0.754245   -1.104453
  C     -1.779568   -0.003428    0.106370
  O     -2.579066    0.591651    0.828149
  C     -0.300913    0.041294    0.408323
  C      0.331921    1.194320   -0.406568
  C      1.819104    1.329388   -0.075302
  C      2.566164    0.016201   -0.311571
  C      1.927766   -1.128345    0.476868
  C      0.444093   -1.272235    0.133321
  H     -3.289341   -0.527856   -1.318107
  H     -1.616468   -0.525841   -1.971985
  H     -2.138402   -1.829916   -0.916649
  H     -0.207014    0.295332    1.472256
  H      0.211251    0.984467   -1.477475
  H     -0.195064    2.130481   -0.190703
  H      2.256032    2.131800   -0.680906
  H      1.927161    1.624680    0.977100
  H      2.540218   -0.226163   -1.383006
  H      3.620326    0.126963   -0.032818
  H      2.448075   -2.070397    0.269830
  H      2.033743   -0.932414    1.552658
  H      0.346456   -1.534925   -0.927578
  H     -0.006615   -2.085280    0.714177

 Total Charge           Charge          ....    0
 Multiplicity           Mult            ....    1
 Number of Electrons    NEL             ....   70
 Basis Dimension        Dim             ....  363

ORBITAL ENERGIES
----------------

  NO   OCC          E(Eh)            E(eV)
   0   2.0000     -21.653738      -589.2282
   1   2.0000     -12.132903      -330.1531
   2   2.0000     -12.056277      -328.0680
   3   2.0000     -12.052626      -327.9686
   4   2.0000     -12.051857      -327.9477
   5   2.0000     -12.050521      -327.9114
   6   2.0000     -12.047536      -327.8301
   7   2.0000     -12.046808      -327.8103
   8   2.0000     -12.045276      -327.7686
   9   2.0000      -1.695248       -46.1300
  10   2.0000      -1.355895       -36.8958
  11   2.0000      -1.288220       -35.0542
  12   2.0000      -1.258421       -34.2434
  13   2.0000      -1.239655       -33.7327
  14   2.0000      -1.138156       -30.9708
  15   2.0000      -1.106092       -30.0983
  16   2.0000      -1.070394       -29.1269
  17   2.0000      -1.024139       -27.8682
  18   2.0000      -0.972078       -26.4516
  19   2.0000      -0.957042       -26.0424
  20   2.0000      -0.909957       -24.7612
  21   2.0000      -0.903787       -24.5933
  22   2.0000      -0.881061       -23.9749
  23   2.0000      -0.879544       -23.9336
  24   2.0000      -0.858404       -23.3583
  25   2.0000      -0.847488       -23.0613
  26   2.0000      -0.833964       -22.6933
  27   2.0000      -0.830528       -22.5998
  28   2.0000      -0.827152       -22.5080
  29   2.0000      -0.811848       -22.0915
  30   2.0000      -0.785841       -21.3838
  31   2.0000      -0.782429       -21.2910
  32   2.0000      -0.762597       -20.7513
  33   2.0000      -0.757159       -20.6033
  34   2.0000      -0.744884       -20.2693
  35   0.0000      -0.309853        -8.4315
  36   0.0000      -0.066980        -1.8226
  37   0.0000      -0.045477        -1.2375
  38   0.0000      -0.039513        -1.0752
  39   0.0000      -0.028443        -0.7740

MULLIKEN ATOMIC CHARGES
-----------------------
   0 C :   -0.381235
   1 C :    0.186346
   2 O :   -0.313108
   3 C :    0.007553
   4 C :   -0.241305
   5 C :   -0.176101
   6 C :   -0.186704
   7 C :   -0.174878
   8 C :   -0.236870
   9 H :    0.140766
  10 H :    0.129222
  11 H :    0.137239
  12 H :    0.086944
  13 H :    0.089699
  14 H :    0.124588
  15 H :    0.103961
  16 H :    0.097245
  17 H :    0.087025
  18 H :    0.106312
  19 H :    0.103915
  20 H :    0.096626
  21 H :    0.098910
  22 H :    0.113849
Sum of atomic charges:    0.0000000

LOEWDIN ATOMIC CHARGES
----------------------
   0 C :   -0.259038
   1 C :   -0.315287
   2 O :    0.101451
   3 C :   -0.220355
   4 C :   -0.219227
   5 C :   -0.256322
   6 C :   -0.259477
   7 C :   -0.255650
   8 C :   -0.231387
   9 H :    0.131151
  10 H :    0.129769
  11 H :    0.138550
  12 H :    0.163309
  13 H :    0.134572
  14 H :    0.141026
  15 H :    0.133013
  16 H :    0.136294
  17 H :    0.133375
  18 H :    0.132385
  19 H :    0.132409
  20 H :    0.135878
  21 H :    0.137379
  22 H :    0.136184

  Mayer bond orders larger than 0.100000
B(  0-C ,  1-C ) :   0.9620 B(  0-C ,  9-H ) :   0.9773 B(  0-C , 10-H ) :   0.9659
B(  0-C , 11-H ) :   0.9439 B(  1-C ,  2-O ) :   2.1683 B(  1-C ,  3-C ) :   0.9206
B(  3-C ,  4-C ) :   0.9757 B(  3-C ,  8-C ) :   0.9497 B(  3-C , 12-H ) :   0.9459
B(  4-C ,  5-C ) :   0.9883 B(  4-C , 13-H ) :   0.9623 B(  4-C , 14-H ) :   0.9738
B(  5-C ,  6-C ) :   0.9860 B(  5-C , 15-H ) :   0.9766 B(  5-C , 16-H ) :   0.9743
B(  6-C ,  7-C ) :   0.9858 B(  6-C , 17-H ) :   0.9748 B(  6-C , 18-H ) :   0.9759
B(  7-C ,  8-C ) :   0.9906 B(  7-C , 19-H ) :   0.9767 B(  7-C , 20-H ) :   0.9761
B(  8-C , 21-H ) :   0.9591 B(  8-C , 22-H ) :   0.9773

FINAL SINGLE POINT ENERGY      -388.541937965133

DIPOLE MOMENT
-------------

Method             : SCF
Type of density    : Electron Density
Multiplicity       :   1
Irrep              :   0
Energy             :  -388.5577628388334119 Eh
Relativity type    :
Basis              : AO
                                X                 Y                 Z
Electronic contribution:     -6.440032118       1.746568567       2.966527108
Nuclear contribution   :      7.408155518      -2.287474704      -3.661155493
                        -----------------------------------------
Total Dipole Moment    :      0.968123400      -0.540906137      -0.694628385
                        -----------------------------------------
Magnitude (a.u.)       :      1.308568286
Magnitude (Debye)      :      3.326116253

Rotational constants in cm-1:             0.101276             0.034945             0.030938
Rotational constants in MHz :          3036.189020          1047.622796           927.488659

                             ****ORCA TERMINATED NORMALLY****
TOTAL RUN TIME: 0 days 0 hours 3 minutes 42 seconds 645 msec
