                         Program Version 6.0.0  -   RELEASE  -
|  1> ! wb97x-v def2-tzvp def2/J RIJCOSX DEFGRID2 scfconv7 GCP(DFT/TZ) printgap
|  2> %output
|  3>     printlevel normal
|  4> end
|  5> %cpcm
|  6>     smd true
|  7>     smdsolvent "water"
|  8> end
|  9> * xyz 0 1
| 10> C -2.243689958325276 -0.7542453671138801 -1.1044532766905364
| 11> C -1.7795678227781941 -0.003428180944130453 0.10637025129591766
| 12> O -2.5790659121514348 0.5916507647565732 0.8281493830167586
| 13> C -0.3009128618786035 0.041294260061142105 0.40832345384288316
| 14> C 0.33192053191941107 1.194319701845169 -0.4065683702147164
| 15> C 1.81910411916619 1.3293881924706359 -0.07530234362550524
| 16> C 2.56616423730065 0.01620107480859042 -0.31157136568101046
| 17> C 1.9277656498404574 -1.1283447972967626 0.4768676501997857
| 18> C 0.4440930660810659 -1.272234607784488 0.13332090131051236
| 19> H -3.2893410738045423 -0.5278555098363382 -1.3181070349736543
| 20> H -1.616468217932837 -0.5258406446167301 -1.971984826085415
| 21> H -2.1384024549565717 -1.8299162072349415 -0.9166494586306373
| 22> H -0.20701402594156504 0.29533235883107056 1.472255551973125
| 23> H 0.21125102019367667 0.9844674442363192 -1.4774753205387157
| 24> H -0.19506380756207958 2.1304814033481945 -0.19070289325174614
| 25> H 2.256032499159403 2.131799763725779 -0.6809061826424461
| 26> H 1.927161038308163 1.6246804679380698 0.9770996281987668
| 27> H 2.540217644579437 -0.2261630859711516 -1.3830064572323573
| 28> H 3.620325926358722 0.12696309611035975 -0.03281756212196897
| 29> H 2.4480746690621706 -2.070396536769165 0.26982981614062956
| 30> H 2.0337430002778127 -0.9324143734272047 1.5526583150627444
| 31> H 0.34645558816974226 -1.5349246482892374 -0.927578074290447
| 32> H -0.00661510487194615 -2.0852804643648506 0.714177139819983
| 33> *
| 34>
| 35>                          ****END OF INPUT****

CARTESIAN COORDINATES (ANGSTROEM)
---------------------------------
  C     -2.243690   -0.754245   -1.104453
  C     -1.779568   -0.003428    0.106370
  O     -2.579066    0.591651    0.828149
  C     -0.300913    0.041294    0.408323
  C      0.331921    1.194320   -0.406568
  C      1.819104    1.329388   -0.075302
  C      2.566164    0.016201   -0.311571
  C      1.927766   -1.128345    0.476868
  C      0.444093   -1.272235    0.133321
  H     -3.289341   -0.527856   -1.318107
  H     -1.616468   -0.525841   -1.971985
  H     -2.138402   -1.829916   -0.916649
  H     -0.207014    0.295332    1.472256
  H      0.211251    0.984467   -1.477475
  H     -0.195064    2.130481   -0.190703
  H      2.256032    2.131800   -0.680906
  H      1.927161    1.624680    0.977100
  H      2.540218   -0.226163   -1.383006
  H      3.620326    0.126963   -0.032818
  H      2.448075   -2.070397    0.269830
  H      2.033743   -0.932414    1.552658
  H      0.346456   -1.534925   -0.927578
  H     -0.006615   -2.085280    0.714177

 Total Charge           Charge          ....    0
 Multiplicity           Mult            ....    1
 Number of Electrons    NEL             ....   70
 Basis Dimension        Dim             ....  363

ORBITAL ENERGIES
----------------

  NO   OCC          E(Eh)            E(eV)
   0   2.0000     -21.666155      -589.5660
   1   2.0000     -12.141514      -330.3874
   2   2.0000     -12.047743      -327.8358
   3   2.0000     -12.039309      -327.6063
   4   2.0000     -12.038657      -327.5885
   5   2.0000     -12.035343      -327.4983
   6   2.0000     -12.031796      -327.4018
   7   2.0000     -12.031054      -327.3816
   8   2.0000     -12.029086      -327.3281
   9   2.0000      -1.711282       -46.5663
  10   2.0000      -1.343303       -36.5531
  11   2.0000      -1.278757       -34.7967
  12   2.0000      -1.243218       -33.8297
  13   2.0000      -1.229668       -33.4610
  14   2.0000      -1.131920       -30.8011
  15   2.0000      -1.091168       -29.6922
  16   2.0000      -1.076945       -29.3052
  17   2.0000      -1.013385       -27.5756
  18   2.0000      -0.965878       -26.2829
  19   2.0000      -0.961101       -26.1529
  20   2.0000      -0.918679       -24.9985
  21   2.0000      -0.894807       -24.3489
  22   2.0000      -0.865948       -23.5636
  23   2.0000      -0.865273       -23.5453
  24   2.0000      -0.846549       -23.0358
  25   2.0000      -0.836624       -22.7657
  26   2.0000      -0.824298       -22.4303
  27   2.0000      -0.819863       -22.3096
  28   2.0000      -0.813245       -22.1295
  29   2.0000      -0.806214       -21.9382
  30   2.0000      -0.770102       -20.9555
  31   2.0000      -0.769495       -20.9390
  32   2.0000      -0.751738       -20.4558
  33   2.0000      -0.742894       -20.2152
  34   2.0000      -0.729240       -19.8436
  35   0.0000      -0.308999        -8.4083
  36   0.0000      -0.059830        -1.6281
  37   0.0000      -0.033040        -0.8991
  38   0.0000      -0.022390        -0.6093
  39   0.0000      -0.012336        -0.3357

MULLIKEN ATOMIC CHARGES
-----------------------
   0 C :   -0.421305
   1 C :    0.280529
   2 O :   -0.459148
   3 C :   -0.003104
   4 C :   -0.250685
   5 C :   -0.196122
   6 C :   -0.206013
   7 C :   -0.194331
   8 C :   -0.255660
   9 H :    0.143672
  10 H :    0.167299
  11 H :    0.170607
  12 H :    0.090171
  13 H :    0.117125
  14 H :    0.121283
  15 H :    0.114609
  16 H :    0.104054
  17 H :    0.098209
  18 H :    0.115404
  19 H :    0.114651
  20 H :    0.104025
  21 H :    0.119354
  22 H :    0.125377
Sum of atomic charges:    0.0000000

LOEWDIN ATOMIC CHARGES
----------------------
   0 C :   -0.252922
   1 C :   -0.294413
   2 O :    0.018309
   3 C :   -0.217710
   4 C :   -0.217435
   5 C :   -0.257589
   6 C :   -0.261717
   7 C :   -0.257416
   8 C :   -0.226943
   9 H :    0.130857
  10 H :    0.143637
  11 H :    0.150655
  12 H :    0.163897
  13 H :    0.142600
  14 H :    0.139405
  15 H :    0.134880
  16 H :    0.137586
  17 H :    0.136154
  18 H :    0.133208
  19 H :    0.134254
  20 H :    0.137230
  21 H :    0.143855
  22 H :    0.139620

  Mayer bond orders larger than 0.100000
B(  0-C ,  1-C ) :   0.9945 B(  0-C ,  9-H ) :   0.9671 B(  0-C , 10-H ) :   0.9529
B(  0-C , 11-H ) :   0.9333 B(  1-C ,  2-O ) :   1.9995 B(  1-C ,  3-C ) :   0.9229
B(  3-C ,  4-C ) :   0.9643 B(  3-C ,  8-C ) :   0.9599 B(  3-C , 12-H ) :   0.9528
B(  4-C ,  5-C ) :   0.9893 B(  4-C , 13-H ) :   0.9618 B(  4-C , 14-H ) :   0.9696
B(  5-C ,  6-C ) :   0.9901 B(  5-C , 15-H ) :   0.9732 B(  5-C , 16-H ) :   0.9728
B(  6-C ,  7-C ) :   0.9878 B(  6-C , 17-H ) :   0.9723 B(  6-C , 18-H ) :   0.9734
B(  7-C ,  8-C ) :   0.9871 B(  7-C , 19-H ) :   0.9740 B(  7-C , 20-H ) :   0.9748
B(  8-C , 21-H ) :   0.9592 B(  8-C , 22-H ) :   0.9740

FINAL SINGLE POINT ENERGY      -388.550018735908

DIPOLE MOMENT
-------------

Method             : SCF
Type of density    : Electron Density
Multiplicity       :   1
Irrep              :   0
Energy             :  -388.5658436096075548 Eh
Relativity type    :
Basis              : AO
                                X                 Y                 Z
Electronic contribution:     -6.092151518       1.449848258       2.590427073
Nuclear contribution   :      7.408155518      -2.287474704      -3.661155493
                        -----------------------------------------
Total Dipole Moment    :      1.316004000      -0.837626446      -1.070728420
                        -----------------------------------------
Magnitude (a.u.)       :      1.892073978
Magnitude (Debye)      :      4.809269854

Rotational constants in cm-1:             0.101276             0.034945             0.030938
Rotational constants in MHz :          3036.189020          1047.622796           927.488659

                             ****ORCA TERMINATED NORMALLY****
TOTAL RUN TIME: 0 days 0 hours 3 minutes 47 seconds 706 msec
