                         Program Version 6.0.0  -   RELEASE  -
|  1> ! pbe def2-sv(p) def2/J RI DEFGRID1 loosescf d4 GCP(DFT/SV(P)) printgap
|  2> %output
|  3>     printlevel normal
|  4> end
|  5> * xyz 0 1
|  6> C -2.0851313817 -1.3622573221 -0.1131280899
|  7> C -1.0117899235 -0.5014942247 0.5742401206
|  8> H -1.4348641024 -0.1206760184 1.5125132126
|  9> C -0.6220613185 0.6974983865 -0.2999498233
| 10> H -0.4991873037 0.3672867375 -1.3458697887
| 11> C 0.7216676393 1.24531171 0.1964075245
| 12> H 0.6616005733 1.4244224372 1.2758119395
| 13> C 1.8056219714 0.1937203503 -0.0775372136
| 14> H 2.126278366 0.2724024272 -1.1290025353
| 15> C 1.2305715695 -1.2288696373 0.0974319804
| 16> H 1.9903679453 -1.827723693 0.6178032565
| 17> O 0.1214787528 -1.2780250676 0.9551004894
| 18> O 0.9445715931 -1.734544086 -1.1697501915
| 19> O 2.9081999965 0.3189101447 0.7813223319
| 20> O 1.0084058485 2.4944682118 -0.3804274219
| 21> O -1.6431065839 1.6619239657 -0.2325387677
| 22> O -3.34383857 -0.7377196795 -0.100242525
| 23> H -2.1981837316 -2.2988946087 0.4376270482
| 24> H -1.7740476612 -1.5861253282 -1.1432834077
| 25> H 0.8003091445 -2.6917136812 -1.1236242083
| 26> H 3.2543602164 1.2234011595 0.7309080477
| 27> H 1.1552213863 2.3925733731 -1.3335344815
| 28> H -1.2396026203 2.5440848713 -0.2922098696
| 29> H -3.2374794258 0.1856979392 -0.3792164626
| 30> *
| 31>
| 32>                          ****END OF INPUT****

CARTESIAN COORDINATES (ANGSTROEM)
---------------------------------
  C     -2.085131   -1.362257   -0.113128
  C     -1.011790   -0.501494    0.574240
  H     -1.434864   -0.120676    1.512513
  C     -0.622061    0.697498   -0.299950
  H     -0.499187    0.367287   -1.345870
  C      0.721668    1.245312    0.196408
  H      0.661601    1.424422    1.275812
  C      1.805622    0.193720   -0.077537
  H      2.126278    0.272402   -1.129003
  C      1.230572   -1.228870    0.097432
  H      1.990368   -1.827724    0.617803
  O      0.121479   -1.278025    0.955100
  O      0.944572   -1.734544   -1.169750
  O      2.908200    0.318910    0.781322
  O      1.008406    2.494468   -0.380427
  O     -1.643107    1.661924   -0.232539
  O     -3.343839   -0.737720   -0.100243
  H     -2.198184   -2.298895    0.437627
  H     -1.774048   -1.586125   -1.143283
  H      0.800309   -2.691714   -1.123624
  H      3.254360    1.223401    0.730908
  H      1.155221    2.392573   -1.333534
  H     -1.239603    2.544085   -0.292210
  H     -3.237479    0.185698   -0.379216

 Total Charge           Charge          ....    0
 Multiplicity           Mult            ....    1
 Number of Electrons    NEL             ....   96
 Basis Dimension        Dim             ....  192

ORBITAL ENERGIES
----------------

  NO   OCC          E(Eh)            E(eV)
   0   2.0000     -18.781709      -511.0763
   1   2.0000     -18.773342      -510.8486
   2   2.0000     -18.769661      -510.7484
   3   2.0000     -18.764044      -510.5956
   4   2.0000     -18.761634      -510.5300
   5   2.0000     -18.731406      -509.7075
   6   2.0000      -9.992148      -271.9002
   7   2.0000      -9.953988      -270.8618
   8   2.0000      -9.952668      -270.8259
   9   2.0000      -9.948480      -270.7119
  10   2.0000      -9.940805      -270.5030
  11   2.0000      -9.920228      -269.9431
  12   2.0000      -0.986815       -26.8526
  13   2.0000      -0.965487       -26.2722
  14   2.0000      -0.940331       -25.5877
  15   2.0000      -0.931683       -25.3524
  16   2.0000      -0.918384       -24.9905
  17   2.0000      -0.906544       -24.6683
  18   2.0000      -0.712316       -19.3831
  19   2.0000      -0.695562       -18.9272
  20   2.0000      -0.620454       -16.8834
  21   2.0000      -0.592558       -16.1243
  22   2.0000      -0.569938       -15.5088
  23   2.0000      -0.529484       -14.4080
  24   2.0000      -0.525339       -14.2952
  25   2.0000      -0.489473       -13.3192
  26   2.0000      -0.476494       -12.9661
  27   2.0000      -0.464669       -12.6443
  28   2.0000      -0.452356       -12.3092
  29   2.0000      -0.424762       -11.5584
  30   2.0000      -0.415179       -11.2976
  31   2.0000      -0.405216       -11.0265
  32   2.0000      -0.393010       -10.6944
  33   2.0000      -0.372884       -10.1467
  34   2.0000      -0.369892       -10.0653
  35   2.0000      -0.352743        -9.5986
  36   2.0000      -0.338931        -9.2228
  37   2.0000      -0.323328        -8.7982
  38   2.0000      -0.310052        -8.4369
  39   2.0000      -0.308006        -8.3813
  40   2.0000      -0.281927        -7.6716
  41   2.0000      -0.271683        -7.3929
  42   2.0000      -0.261555        -7.1173
  43   2.0000      -0.249020        -6.7762
  44   2.0000      -0.238034        -6.4772
  45   2.0000      -0.229992        -6.2584
  46   2.0000      -0.219016        -5.9597
  47   2.0000      -0.198468        -5.4006
  48   0.0000       0.000962         0.0262
  49   0.0000       0.017776         0.4837
  50   0.0000       0.032522         0.8850
  51   0.0000       0.042756         1.1634
  52   0.0000       0.052850         1.4381

MULLIKEN ATOMIC CHARGES
-----------------------
   0 C :    0.084403
   1 C :    0.045054
   2 H :    0.078458
   3 C :   -0.009204
   4 H :    0.061260
   5 C :    0.025553
   6 H :    0.075314
   7 C :    0.087628
   8 H :    0.054828
   9 C :    0.152998
  10 H :    0.080344
  11 O :   -0.310111
  12 O :   -0.396897
  13 O :   -0.409833
  14 O :   -0.420818
  15 O :   -0.422712
  16 O :   -0.447945
  17 H :    0.081629
  18 H :    0.059032
  19 H :    0.311145
  20 H :    0.307176
  21 H :    0.303158
  22 H :    0.305132
  23 H :    0.304406
Sum of atomic charges:    0.0000000

LOEWDIN ATOMIC CHARGES
----------------------
   0 C :   -0.129848
   1 C :   -0.067585
   2 H :    0.120384
   3 C :   -0.088640
   4 H :    0.101551
   5 C :   -0.087064
   6 H :    0.125177
   7 C :   -0.080215
   8 H :    0.102851
   9 C :   -0.000398
  10 H :    0.109105
  11 O :   -0.140003
  12 O :   -0.308519
  13 O :   -0.313751
  14 O :   -0.309201
  15 O :   -0.319891
  16 O :   -0.341246
  17 H :    0.110398
  18 H :    0.091205
  19 H :    0.291135
  20 H :    0.289344
  21 H :    0.286507
  22 H :    0.282511
  23 H :    0.276193

  Mayer bond orders larger than 0.100000
B(  0-C ,  1-C ) :   1.0600 B(  0-C , 16-O ) :   1.0823 B(  0-C , 17-H ) :   0.9192
B(  0-C , 18-H ) :   0.9036 B(  1-C ,  2-H ) :   0.8812 B(  1-C ,  3-C ) :   0.9776
B(  1-C , 11-O ) :   0.9611 B(  3-C ,  4-H ) :   0.8735 B(  3-C ,  5-C ) :   1.0393
B(  3-C , 15-O ) :   1.0611 B(  5-C ,  6-H ) :   0.8441 B(  5-C ,  7-C ) :   1.0359
B(  5-C , 14-O ) :   1.0160 B(  7-C ,  8-H ) :   0.8757 B(  7-C ,  9-C ) :   0.9846
B(  7-C , 13-O ) :   1.0942 B(  9-C , 10-H ) :   0.8954 B(  9-C , 11-O ) :   1.0906
B(  9-C , 12-O ) :   1.1013 B( 12-O , 19-H ) :   0.8356 B( 13-O , 20-H ) :   0.8427
B( 14-O , 21-H ) :   0.8439 B( 15-O , 22-H ) :   0.8159 B( 16-O , 23-H ) :   0.8267

Dispersion correction           -0.024617916
FINAL SINGLE POINT ENERGY      -685.694021976462

DIPOLE MOMENT
-------------

Method             : SCF
Type of density    : Electron Density
Multiplicity       :   1
Irrep              :   0
Energy             :  -685.8254415850092300 Eh
Relativity type    :
Basis              : AO
                                X                 Y                 Z
Electronic contribution:      1.471515345       0.616582354       1.216923099
Nuclear contribution   :     -0.370853900      -0.097396895      -2.039948827
                        -----------------------------------------
Total Dipole Moment    :      1.100661445       0.519185459      -0.823025728
                        -----------------------------------------
Magnitude (a.u.)       :      1.469142780
Magnitude (Debye)      :      3.734264179

Rotational constants in cm-1:             0.043940             0.026033             0.018770
Rotational constants in MHz :          1317.277592           780.439103           562.708995

                             ****ORCA TERMINATED NORMALLY****
TOTAL RUN TIME: 0 days 0 hours 0 minutes 12 seconds 205 msec
