                         Program Version 6.0.0  -   RELEASE  -
|  1> ! wb97x-v def2-tzvp def2/J RIJCOSX DEFGRID2 scfconv7 GCP(DFT/TZ) printgap
|  2> %output
|  3>     printlevel normal
|  4> end
|  5> * xyz 0 1
|  6> C -2.492011085445817 -0.029102531601575887 -0.3220689532841209
|  7> C -1.2358034340884367 -0.710110899189305 0.19660875226939403
|  8> C 0.02544137999550714 0.01450597578118827 -0.17665024675023983
|  9> O 0.08482045410692346 1.082888652468798 -0.761483190809378
| 10> O 1.1210719488578862 -0.6632756864572763 0.22562063842747293
| 11> C 2.396057181876886 -0.038771598996928336 -0.0717325615943521
| 12> H -2.596697188300119 0.9776034127119693 0.09166449613372595
| 13> H -2.4755092786676176 0.0502117882338276 -1.4127416672534532
| 14> H -3.3737360905331553 -0.6082598652652016 -0.03591658455452447
| 15> H -1.1512045243315594 -1.737076648105406 -0.17674473405487331
| 16> H -1.2488997907119628 -0.7905509676297953 1.2907005067985875
| 17> H 2.471050043940422 0.9266504648167116 0.43431713747547274
| 18> H 2.510991584220331 0.09187562140909532 -1.1503063437761636
| 19> H 3.1499666881658874 -0.7265190860279179 0.3093167254713199
| 20> *
| 21>
| 22>                          ****END OF INPUT****

CARTESIAN COORDINATES (ANGSTROEM)
---------------------------------
  C     -2.492011   -0.029103   -0.322069
  C     -1.235803   -0.710111    0.196609
  C      0.025441    0.014506   -0.176650
  O      0.084820    1.082889   -0.761483
  O      1.121072   -0.663276    0.225621
  C      2.396057   -0.038772   -0.071733
  H     -2.596697    0.977603    0.091664
  H     -2.475509    0.050212   -1.412742
  H     -3.373736   -0.608260   -0.035917
  H     -1.151205   -1.737077   -0.176745
  H     -1.248900   -0.790551    1.290701
  H      2.471050    0.926650    0.434317
  H      2.510992    0.091876   -1.150306
  H      3.149967   -0.726519    0.309317

 Total Charge           Charge          ....    0
 Multiplicity           Mult            ....    1
 Number of Electrons    NEL             ....   48
 Basis Dimension        Dim             ....  234

ORBITAL ENERGIES
----------------

  NO   OCC          E(Eh)            E(eV)
   0   2.0000     -21.718014      -590.9772
   1   2.0000     -21.656065      -589.2915
   2   2.0000     -12.175640      -331.3160
   3   2.0000     -12.102891      -329.3364
   4   2.0000     -12.062979      -328.2504
   5   2.0000     -12.040476      -327.6380
   6   2.0000      -1.756499       -47.7968
   7   2.0000      -1.690986       -46.0141
   8   2.0000      -1.316877       -35.8341
   9   2.0000      -1.257705       -34.2239
  10   2.0000      -1.148802       -31.2605
  11   2.0000      -1.106898       -30.1202
  12   2.0000      -1.061786       -28.8927
  13   2.0000      -1.002936       -27.2913
  14   2.0000      -0.995746       -27.0956
  15   2.0000      -0.943164       -25.6648
  16   2.0000      -0.907025       -24.6814
  17   2.0000      -0.867665       -23.6104
  18   2.0000      -0.860246       -23.4085
  19   2.0000      -0.845093       -22.9962
  20   2.0000      -0.837906       -22.8006
  21   2.0000      -0.824620       -22.4391
  22   2.0000      -0.797999       -21.7147
  23   2.0000      -0.781419       -21.2635
  24   0.0000      -0.301584        -8.2065
  25   0.0000      -0.182733        -4.9724
  26   0.0000      -0.103681        -2.8213
  27   0.0000      -0.034024        -0.9258
  28   0.0000      -0.002869        -0.0781

MULLIKEN ATOMIC CHARGES
-----------------------
   0 C :   -0.318393
   1 C :   -0.174346
   2 C :    0.307041
   3 O :   -0.355922
   4 O :   -0.247120
   5 C :   -0.186564
   6 H :    0.118164
   7 H :    0.116602
   8 H :    0.113978
   9 H :    0.120220
  10 H :    0.118812
  11 H :    0.129256
  12 H :    0.130183
  13 H :    0.128090
Sum of atomic charges:    0.0000000

LOEWDIN ATOMIC CHARGES
----------------------
   0 C :   -0.293491
   1 C :   -0.254201
   2 C :   -0.464465
   3 O :    0.086900
   4 O :    0.218441
   5 C :   -0.289397
   6 H :    0.123489
   7 H :    0.123257
   8 H :    0.117594
   9 H :    0.149716
  10 H :    0.151230
  11 H :    0.110641
  12 H :    0.110907
  13 H :    0.109379

  Mayer bond orders larger than 0.100000
B(  0-C ,  1-C ) :   1.0005 B(  0-C ,  6-H ) :   0.9736 B(  0-C ,  7-H ) :   0.9749
B(  0-C ,  8-H ) :   0.9784 B(  1-C ,  2-C ) :   0.9950 B(  1-C ,  9-H ) :   0.9577
B(  1-C , 10-H ) :   0.9501 B(  2-C ,  3-O ) :   2.0339 B(  2-C ,  4-O ) :   1.2015
B(  4-O ,  5-C ) :   0.9076 B(  5-C , 11-H ) :   0.9787 B(  5-C , 12-H ) :   0.9783
B(  5-C , 13-H ) :   0.9720

FINAL SINGLE POINT ENERGY      -307.721371150236

DIPOLE MOMENT
-------------

Method             : SCF
Type of density    : Electron Density
Multiplicity       :   1
Irrep              :   0
Energy             :  -307.7308206543358438 Eh
Relativity type    :
Basis              : AO
                                X                 Y                 Z
Electronic contribution:      2.786051457       0.719553109      -0.205158748
Nuclear contribution   :     -2.602573872      -1.330921397       0.555755292
                        -----------------------------------------
Total Dipole Moment    :      0.183477586      -0.611368288       0.350596545
                        -----------------------------------------
Magnitude (a.u.)       :      0.728253490
Magnitude (Debye)      :      1.851073264

Rotational constants in cm-1:             0.317059             0.071083             0.060049
Rotational constants in MHz :          9505.182481          2131.001663          1800.218152

                             ****ORCA TERMINATED NORMALLY****
TOTAL RUN TIME: 0 days 0 hours 1 minutes 25 seconds 448 msec
