                         Program Version 6.0.0  -   RELEASE  -
|  1> ! wb97x-v def2-tzvp def2/J RIJCOSX DEFGRID2 scfconv7 GCP(DFT/TZ) printgap
|  2> %output
|  3>     printlevel normal
|  4> end
|  5> %cpcm
|  6>     smd true
|  7>     smdsolvent "water"
|  8> end
|  9> * xyz 0 1
| 10> C -2.492011085445817 -0.029102531601575887 -0.3220689532841209
| 11> C -1.2358034340884367 -0.710110899189305 0.19660875226939403
| 12> C 0.02544137999550714 0.01450597578118827 -0.17665024675023983
| 13> O 0.08482045410692346 1.082888652468798 -0.761483190809378
| 14> O 1.1210719488578862 -0.6632756864572763 0.22562063842747293
| 15> C 2.396057181876886 -0.038771598996928336 -0.0717325615943521
| 16> H -2.596697188300119 0.9776034127119693 0.09166449613372595
| 17> H -2.4755092786676176 0.0502117882338276 -1.4127416672534532
| 18> H -3.3737360905331553 -0.6082598652652016 -0.03591658455452447
| 19> H -1.1512045243315594 -1.737076648105406 -0.17674473405487331
| 20> H -1.2488997907119628 -0.7905509676297953 1.2907005067985875
| 21> H 2.471050043940422 0.9266504648167116 0.43431713747547274
| 22> H 2.510991584220331 0.09187562140909532 -1.1503063437761636
| 23> H 3.1499666881658874 -0.7265190860279179 0.3093167254713199
| 24> *
| 25>
| 26>                          ****END OF INPUT****

CARTESIAN COORDINATES (ANGSTROEM)
---------------------------------
  C     -2.492011   -0.029103   -0.322069
  C     -1.235803   -0.710111    0.196609
  C      0.025441    0.014506   -0.176650
  O      0.084820    1.082889   -0.761483
  O      1.121072   -0.663276    0.225621
  C      2.396057   -0.038772   -0.071733
  H     -2.596697    0.977603    0.091664
  H     -2.475509    0.050212   -1.412742
  H     -3.373736   -0.608260   -0.035917
  H     -1.151205   -1.737077   -0.176745
  H     -1.248900   -0.790551    1.290701
  H      2.471050    0.926650    0.434317
  H      2.510992    0.091876   -1.150306
  H      3.149967   -0.726519    0.309317

 Total Charge           Charge          ....    0
 Multiplicity           Mult            ....    1
 Number of Electrons    NEL             ....   48
 Basis Dimension        Dim             ....  234

ORBITAL ENERGIES
----------------

  NO   OCC          E(Eh)            E(eV)
   0   2.0000     -21.722048      -591.0870
   1   2.0000     -21.669228      -589.6497
   2   2.0000     -12.184884      -331.5676
   3   2.0000     -12.092053      -329.0415
   4   2.0000     -12.053988      -328.0057
   5   2.0000     -12.032896      -327.4318
   6   2.0000      -1.763468       -47.9864
   7   2.0000      -1.702278       -46.3213
   8   2.0000      -1.313572       -35.7441
   9   2.0000      -1.252691       -34.0874
  10   2.0000      -1.146516       -31.1983
  11   2.0000      -1.110053       -30.2061
  12   2.0000      -1.072391       -29.1813
  13   2.0000      -1.001247       -27.2453
  14   2.0000      -0.998477       -27.1700
  15   2.0000      -0.947714       -25.7886
  16   2.0000      -0.917556       -24.9680
  17   2.0000      -0.866933       -23.5904
  18   2.0000      -0.864225       -23.5168
  19   2.0000      -0.837332       -22.7850
  20   2.0000      -0.829033       -22.5591
  21   2.0000      -0.816630       -22.2216
  22   2.0000      -0.792011       -21.5517
  23   2.0000      -0.773275       -21.0419
  24   0.0000      -0.305159        -8.3038
  25   0.0000      -0.176708        -4.8085
  26   0.0000      -0.105866        -2.8808
  27   0.0000      -0.029997        -0.8163
  28   0.0000       0.007651         0.2082

MULLIKEN ATOMIC CHARGES
-----------------------
   0 C :   -0.387883
   1 C :   -0.179559
   2 C :    0.396278
   3 O :   -0.474676
   4 O :   -0.275304
   5 C :   -0.227239
   6 H :    0.128398
   7 H :    0.129279
   8 H :    0.138218
   9 H :    0.147564
  10 H :    0.148953
  11 H :    0.149979
  12 H :    0.149504
  13 H :    0.156488
Sum of atomic charges:    0.0000000

LOEWDIN ATOMIC CHARGES
----------------------
   0 C :   -0.300465
   1 C :   -0.247489
   2 C :   -0.443863
   3 O :    0.024338
   4 O :    0.213389
   5 C :   -0.286637
   6 H :    0.122598
   7 H :    0.122986
   8 H :    0.124716
   9 H :    0.159210
  10 H :    0.161452
  11 H :    0.115448
  12 H :    0.115342
  13 H :    0.118975

  Mayer bond orders larger than 0.100000
B(  0-C ,  1-C ) :   0.9860 B(  0-C ,  6-H ) :   0.9730 B(  0-C ,  7-H ) :   0.9744
B(  0-C ,  8-H ) :   0.9748 B(  1-C ,  2-C ) :   1.0086 B(  1-C ,  9-H ) :   0.9478
B(  1-C , 10-H ) :   0.9393 B(  2-C ,  3-O ) :   1.9053 B(  2-C ,  4-O ) :   1.2144
B(  4-O ,  5-C ) :   0.8816 B(  5-C , 11-H ) :   0.9734 B(  5-C , 12-H ) :   0.9732
B(  5-C , 13-H ) :   0.9671

FINAL SINGLE POINT ENERGY      -307.727188175222

DIPOLE MOMENT
-------------

Method             : SCF
Type of density    : Electron Density
Multiplicity       :   1
Irrep              :   0
Energy             :  -307.7366376793224845 Eh
Relativity type    :
Basis              : AO
                                X                 Y                 Z
Electronic contribution:      2.834638260       0.412802169      -0.027812702
Nuclear contribution   :     -2.602573872      -1.330921397       0.555755292
                        -----------------------------------------
Total Dipole Moment    :      0.232064388      -0.918119228       0.527942591
                        -----------------------------------------
Magnitude (a.u.)       :      1.084214082
Magnitude (Debye)      :      2.755853186

Rotational constants in cm-1:             0.317059             0.071083             0.060049
Rotational constants in MHz :          9505.182481          2131.001663          1800.218152

                             ****ORCA TERMINATED NORMALLY****
TOTAL RUN TIME: 0 days 0 hours 1 minutes 28 seconds 177 msec
