                         Program Version 6.0.0  -   RELEASE  -
|  1> ! pbe def2-sv(p) def2/J RI DEFGRID1 loosescf d4 GCP(DFT/SV(P)) printgap
|  2> %output
|  3>     printlevel normal
|  4> end
|  5> * xyz 0 1
|  6> C -1.7835333037 -1.0491963767 -0.7065055556
|  7> C -1.0438927201 -0.4978302621 0.5224654658
|  8> H -1.7233908255 -0.6217971169 1.3755458644
|  9> C -0.7234258623 1.0000065377 0.3734275951
| 10> H -1.5752831773 1.4654983595 -0.1432933242
| 11> C 0.5599663295 1.2425553198 -0.4493102468
| 12> H 0.8519999542 2.2900405331 -0.294926017
| 13> C 1.708723792 0.3680690392 0.0861522951
| 14> H 2.5574018372 0.4349152802 -0.6041138493
| 15> C 1.2652250909 -1.1083274663 0.1346922588
| 16> H 2.0047981528 -1.6936120797 0.6956202527
| 17> O 0.086010923 -1.2767922203 0.889160702
| 18> O 1.1850344227 -1.667008225 -1.1383934162
| 19> O 2.1751379222 0.8174258833 1.3275932026
| 20> O 0.3837959931 0.9536332266 -1.8162710569
| 21> O -0.5073605417 1.6181505908 1.6232225989
| 22> O -3.0823572046 -0.4953299325 -0.692337919
| 23> H -1.8097106559 -2.141536489 -0.6171844077
| 24> H -1.2604175277 -0.7786231073 -1.6284096704
| 25> H 0.8959157644 -0.9887428958 -1.7739949716
| 26> H 1.4126592328 0.9697787557 1.912934817
| 27> H -0.0550472586 1.6930383075 -2.2604504545
| 28> H -1.3132116911 1.5732973122 2.157190819
| 29> H -3.5977920778 -0.8768561869 -1.416500054
| 30> *
| 31>
| 32>                          ****END OF INPUT****

CARTESIAN COORDINATES (ANGSTROEM)
---------------------------------
  C     -1.783533   -1.049196   -0.706506
  C     -1.043893   -0.497830    0.522465
  H     -1.723391   -0.621797    1.375546
  C     -0.723426    1.000007    0.373428
  H     -1.575283    1.465498   -0.143293
  C      0.559966    1.242555   -0.449310
  H      0.852000    2.290041   -0.294926
  C      1.708724    0.368069    0.086152
  H      2.557402    0.434915   -0.604114
  C      1.265225   -1.108327    0.134692
  H      2.004798   -1.693612    0.695620
  O      0.086011   -1.276792    0.889161
  O      1.185034   -1.667008   -1.138393
  O      2.175138    0.817426    1.327593
  O      0.383796    0.953633   -1.816271
  O     -0.507361    1.618151    1.623223
  O     -3.082357   -0.495330   -0.692338
  H     -1.809711   -2.141536   -0.617184
  H     -1.260418   -0.778623   -1.628410
  H      0.895916   -0.988743   -1.773995
  H      1.412659    0.969779    1.912935
  H     -0.055047    1.693038   -2.260450
  H     -1.313212    1.573297    2.157191
  H     -3.597792   -0.876856   -1.416500

 Total Charge           Charge          ....    0
 Multiplicity           Mult            ....    1
 Number of Electrons    NEL             ....   96
 Basis Dimension        Dim             ....  192

ORBITAL ENERGIES
----------------

  NO   OCC          E(Eh)            E(eV)
   0   2.0000     -18.787264      -511.2275
   1   2.0000     -18.775010      -510.8940
   2   2.0000     -18.756862      -510.4002
   3   2.0000     -18.755675      -510.3679
   4   2.0000     -18.742761      -510.0165
   5   2.0000     -18.735922      -509.8303
   6   2.0000      -9.968304      -271.2513
   7   2.0000      -9.955706      -270.9085
   8   2.0000      -9.952501      -270.8213
   9   2.0000      -9.944903      -270.6146
  10   2.0000      -9.936119      -270.3756
  11   2.0000      -9.931145      -270.2402
  12   2.0000      -0.974548       -26.5188
  13   2.0000      -0.954194       -25.9650
  14   2.0000      -0.947160       -25.7735
  15   2.0000      -0.930408       -25.3177
  16   2.0000      -0.913559       -24.8592
  17   2.0000      -0.898307       -24.4442
  18   2.0000      -0.709015       -19.2933
  19   2.0000      -0.685994       -18.6669
  20   2.0000      -0.618209       -16.8223
  21   2.0000      -0.591537       -16.0965
  22   2.0000      -0.567522       -15.4430
  23   2.0000      -0.524251       -14.2656
  24   2.0000      -0.506260       -13.7760
  25   2.0000      -0.489925       -13.3315
  26   2.0000      -0.475535       -12.9400
  27   2.0000      -0.466833       -12.7032
  28   2.0000      -0.432775       -11.7764
  29   2.0000      -0.429833       -11.6963
  30   2.0000      -0.417575       -11.3628
  31   2.0000      -0.405614       -11.0373
  32   2.0000      -0.394575       -10.7369
  33   2.0000      -0.381542       -10.3823
  34   2.0000      -0.364134        -9.9086
  35   2.0000      -0.343602        -9.3499
  36   2.0000      -0.334961        -9.1147
  37   2.0000      -0.322186        -8.7671
  38   2.0000      -0.300422        -8.1749
  39   2.0000      -0.291181        -7.9234
  40   2.0000      -0.277313        -7.5461
  41   2.0000      -0.271901        -7.3988
  42   2.0000      -0.260062        -7.0766
  43   2.0000      -0.242510        -6.5990
  44   2.0000      -0.237598        -6.4654
  45   2.0000      -0.220501        -6.0001
  46   2.0000      -0.213385        -5.8065
  47   2.0000      -0.197942        -5.3863
  48   0.0000      -0.004129        -0.1124
  49   0.0000       0.012783         0.3478
  50   0.0000       0.019413         0.5283
  51   0.0000       0.064786         1.7629
  52   0.0000       0.070143         1.9087

MULLIKEN ATOMIC CHARGES
-----------------------
   0 C :    0.010340
   1 C :    0.054217
   2 H :    0.062519
   3 C :    0.051098
   4 H :    0.068535
   5 C :    0.000524
   6 H :    0.086431
   7 C :    0.028957
   8 H :    0.083896
   9 C :    0.201655
  10 H :    0.071639
  11 O :   -0.304851
  12 O :   -0.411175
  13 O :   -0.424758
  14 O :   -0.415386
  15 O :   -0.425594
  16 O :   -0.443575
  17 H :    0.089568
  18 H :    0.062003
  19 H :    0.314935
  20 H :    0.302494
  21 H :    0.318448
  22 H :    0.313257
  23 H :    0.304822
Sum of atomic charges:   -0.0000000

LOEWDIN ATOMIC CHARGES
----------------------
   0 C :   -0.146086
   1 C :   -0.064994
   2 H :    0.114469
   3 C :   -0.079126
   4 H :    0.105086
   5 C :   -0.073351
   6 H :    0.112907
   7 C :   -0.083972
   8 H :    0.119926
   9 C :   -0.007802
  10 H :    0.110430
  11 O :   -0.141726
  12 O :   -0.312101
  13 O :   -0.315308
  14 O :   -0.307111
  15 O :   -0.309527
  16 O :   -0.347704
  17 H :    0.107140
  18 H :    0.092950
  19 H :    0.271798
  20 H :    0.272721
  21 H :    0.298382
  22 H :    0.293692
  23 H :    0.289306

  Mayer bond orders larger than 0.100000
B(  0-C ,  1-C ) :   1.0542 B(  0-C , 16-O ) :   1.0546 B(  0-C , 17-H ) :   0.9080
B(  0-C , 18-H ) :   0.8981 B(  1-C ,  2-H ) :   0.8908 B(  1-C ,  3-C ) :   0.9922
B(  1-C , 11-O ) :   1.0423 B(  3-C ,  4-H ) :   0.8875 B(  3-C ,  5-C ) :   0.9733
B(  3-C , 15-O ) :   1.0107 B(  5-C ,  6-H ) :   0.9032 B(  5-C ,  7-C ) :   0.9908
B(  5-C , 14-O ) :   1.0411 B(  7-C ,  8-H ) :   0.8944 B(  7-C ,  9-C ) :   0.9951
B(  7-C , 13-O ) :   1.0731 B(  9-C , 10-H ) :   0.9058 B(  9-C , 11-O ) :   1.0288
B(  9-C , 12-O ) :   1.1231 B( 12-O , 19-H ) :   0.8052 B( 13-O , 20-H ) :   0.8119
B( 14-O , 21-H ) :   0.8362 B( 15-O , 22-H ) :   0.8399 B( 16-O , 23-H ) :   0.8496

Dispersion correction           -0.025933566
FINAL SINGLE POINT ENERGY      -685.695760070059

DIPOLE MOMENT
-------------

Method             : SCF
Type of density    : Electron Density
Multiplicity       :   1
Irrep              :   0
Energy             :  -685.8282697580137892 Eh
Relativity type    :
Basis              : AO
                                X                 Y                 Z
Electronic contribution:      1.870890641      -0.300281320       1.634116971
Nuclear contribution   :     -3.385184547       1.242711756      -2.434114056
                        -----------------------------------------
Total Dipole Moment    :     -1.514293906       0.942430436      -0.799997085
                        -----------------------------------------
Magnitude (a.u.)       :      1.954803442
Magnitude (Debye)      :      4.968715479

Rotational constants in cm-1:             0.041053             0.028541             0.024599
Rotational constants in MHz :          1230.737592           855.625881           737.468035

                             ****ORCA TERMINATED NORMALLY****
TOTAL RUN TIME: 0 days 0 hours 0 minutes 12 seconds 345 msec
