                         Program Version 6.0.0  -   RELEASE  -
|  1> ! pbe def2-sv(p) def2/J RI DEFGRID1 loosescf d4 GCP(DFT/SV(P)) printgap
|  2> %output
|  3>     printlevel normal
|  4> end
|  5> * xyz 0 1
|  6> C 1.63346661 1.29861e-05 -1.40593e-05
|  7> Br -0.3197609989 1.2154e-06 -7.0329e-06
|  8> H 1.9620701077 0.7965599866 -0.6582055697
|  9> H 1.9605754904 0.1718564032 1.0193428725
| 10> H 1.9615254718 -0.9686674864 -0.3604122438
| 11> *
| 12>
| 13>                          ****END OF INPUT****

CARTESIAN COORDINATES (ANGSTROEM)
---------------------------------
  C      1.633467    0.000013   -0.000014
  Br    -0.319761    0.000001   -0.000007
  H      1.962070    0.796560   -0.658206
  H      1.960575    0.171856    1.019343
  H      1.961525   -0.968667   -0.360412

 Total Charge           Charge          ....    0
 Multiplicity           Mult            ....    1
 Number of Electrons    NEL             ....   44
 Basis Dimension        Dim             ....   52

ORBITAL ENERGIES
----------------

  NO   OCC          E(Eh)            E(eV)
   0   2.0000    -480.922757    -13086.5735
   1   2.0000     -61.765199     -1680.7165
   2   2.0000     -55.695918     -1515.5630
   3   2.0000     -55.692594     -1515.4725
   4   2.0000     -55.692593     -1515.4725
   5   2.0000      -9.933544      -270.3055
   6   2.0000      -8.390648      -228.3211
   7   2.0000      -6.273191      -170.7022
   8   2.0000      -6.257881      -170.2856
   9   2.0000      -6.257880      -170.2856
  10   2.0000      -2.474110       -67.3240
  11   2.0000      -2.470351       -67.2217
  12   2.0000      -2.470351       -67.2217
  13   2.0000      -2.458865       -66.9091
  14   2.0000      -2.458844       -66.9085
  15   2.0000      -0.729806       -19.8590
  16   2.0000      -0.602050       -16.3826
  17   2.0000      -0.397253       -10.8098
  18   2.0000      -0.397228       -10.8091
  19   2.0000      -0.349567        -9.5122
  20   2.0000      -0.235169        -6.3993
  21   2.0000      -0.235157        -6.3990
  22   0.0000      -0.027885        -0.7588
  23   0.0000       0.053510         1.4561
  24   0.0000       0.096615         2.6290
  25   0.0000       0.096630         2.6294
  26   0.0000       0.311630         8.4799

MULLIKEN ATOMIC CHARGES
-----------------------
   0 C :   -0.347534
   1 Br:   -0.136696
   2 H :    0.161413
   3 H :    0.161407
   4 H :    0.161409
Sum of atomic charges:   -0.0000000

LOEWDIN ATOMIC CHARGES
----------------------
   0 C :   -0.402653
   1 Br:    0.001830
   2 H :    0.133608
   3 H :    0.133608
   4 H :    0.133607

  Mayer bond orders larger than 0.100000
B(  0-C ,  1-Br) :   1.0551 B(  0-C ,  2-H ) :   0.9505 B(  0-C ,  3-H ) :   0.9505
B(  0-C ,  4-H ) :   0.9505

Dispersion correction           -0.002018736
FINAL SINGLE POINT ENERGY     -2613.244911498416

DIPOLE MOMENT
-------------

Method             : SCF
Type of density    : Electron Density
Multiplicity       :   1
Irrep              :   0
Energy             : -2613.2667217242851621 Eh
Relativity type    :
Basis              : AO
                                X                 Y                 Z
Electronic contribution:     -7.802145398       0.000202555      -0.000532150
Nuclear contribution   :      8.489502856      -0.000246859       0.000745538
                        -----------------------------------------
Total Dipole Moment    :      0.687357458      -0.000044305       0.000213388
                        -----------------------------------------
Magnitude (a.u.)       :      0.687357493
Magnitude (Debye)      :      1.747123901

Rotational constants in cm-1:             5.218783             0.315297             0.315296
Rotational constants in MHz :        156455.177407          9452.361872          9452.331990

                             ****ORCA TERMINATED NORMALLY****
TOTAL RUN TIME: 0 days 0 hours 0 minutes 3 seconds 487 msec
