                         Program Version 6.0.0  -   RELEASE  -
|  1> ! pbe def2-sv(p) def2/J RI DEFGRID1 loosescf d4 GCP(DFT/SV(P)) printgap
|  2> %output
|  3>     printlevel normal
|  4> end
|  5> * xyz 0 1
|  6> C -2.2883480026 -0.8914672704 0.8108136457
|  7> C -0.833803311 -0.4063878403 0.7472954802
|  8> H -0.5367638661 -0.0658821016 1.7502125818
|  9> C -0.6292151052 0.7465856508 -0.2476417218
| 10> H -0.6840961139 0.347570023 -1.2700007919
| 11> C 0.7805284145 1.3062974335 -0.017189719
| 12> H 0.7344243476 1.9526809189 0.8735711523
| 13> C 1.7766555913 0.1767598777 0.2990472096
| 14> H 2.687723956 0.3879074358 -0.2755687611
| 15> C 1.247466948 -1.1915331211 -0.1682506108
| 16> H 1.9183365418 -1.9829380042 0.2039773626
| 17> O -0.0139806051 -1.5122001324 0.3712755025
| 18> O 1.2261210305 -1.1870312623 -1.5609227807
| 19> O 2.0170490074 0.1817464353 1.6829305506
| 20> O 1.2580570621 2.0251863539 -1.1237590957
| 21> O -1.5454986203 1.797880067 -0.0716000642
| 22> O -2.887908066 -1.026221321 -0.4538206499
| 23> H -2.8793018861 -0.1525757179 1.3542881965
| 24> H -2.3055121268 -1.8373538221 1.362140616
| 25> H 1.0663967136 -2.0822734723 -1.8979684768
| 26> H 2.7897115597 -0.3633510291 1.8916999325
| 27> H 0.6234093703 2.7275851267 -1.3300997812
| 28> H -2.418859605 1.5036663071 -0.3695421734
| 29> H -2.4851059418 -1.7742500668 -0.9145028522
| 30> *
| 31>
| 32>                          ****END OF INPUT****

CARTESIAN COORDINATES (ANGSTROEM)
---------------------------------
  C     -2.288348   -0.891467    0.810814
  C     -0.833803   -0.406388    0.747295
  H     -0.536764   -0.065882    1.750213
  C     -0.629215    0.746586   -0.247642
  H     -0.684096    0.347570   -1.270001
  C      0.780528    1.306297   -0.017190
  H      0.734424    1.952681    0.873571
  C      1.776656    0.176760    0.299047
  H      2.687724    0.387907   -0.275569
  C      1.247467   -1.191533   -0.168251
  H      1.918337   -1.982938    0.203977
  O     -0.013981   -1.512200    0.371276
  O      1.226121   -1.187031   -1.560923
  O      2.017049    0.181746    1.682931
  O      1.258057    2.025186   -1.123759
  O     -1.545499    1.797880   -0.071600
  O     -2.887908   -1.026221   -0.453821
  H     -2.879302   -0.152576    1.354288
  H     -2.305512   -1.837354    1.362141
  H      1.066397   -2.082273   -1.897968
  H      2.789712   -0.363351    1.891700
  H      0.623409    2.727585   -1.330100
  H     -2.418860    1.503666   -0.369542
  H     -2.485106   -1.774250   -0.914503

 Total Charge           Charge          ....    0
 Multiplicity           Mult            ....    1
 Number of Electrons    NEL             ....   96
 Basis Dimension        Dim             ....  192

ORBITAL ENERGIES
----------------

  NO   OCC          E(Eh)            E(eV)
   0   2.0000     -18.764576      -510.6101
   1   2.0000     -18.761397      -510.5236
   2   2.0000     -18.758398      -510.4419
   3   2.0000     -18.756037      -510.3777
   4   2.0000     -18.749317      -510.1948
   5   2.0000     -18.737968      -509.8860
   6   2.0000      -9.984994      -271.7055
   7   2.0000      -9.941740      -270.5285
   8   2.0000      -9.933627      -270.3077
   9   2.0000      -9.932594      -270.2796
  10   2.0000      -9.932282      -270.2711
  11   2.0000      -9.928424      -270.1661
  12   2.0000      -0.977243       -26.5921
  13   2.0000      -0.936628       -25.4869
  14   2.0000      -0.934710       -25.4347
  15   2.0000      -0.926545       -25.2126
  16   2.0000      -0.911330       -24.7986
  17   2.0000      -0.907505       -24.6945
  18   2.0000      -0.698828       -19.0161
  19   2.0000      -0.686325       -18.6758
  20   2.0000      -0.621124       -16.9016
  21   2.0000      -0.581779       -15.8310
  22   2.0000      -0.556669       -15.1477
  23   2.0000      -0.516036       -14.0421
  24   2.0000      -0.495760       -13.4903
  25   2.0000      -0.483632       -13.1603
  26   2.0000      -0.476178       -12.9575
  27   2.0000      -0.455699       -12.4002
  28   2.0000      -0.447959       -12.1896
  29   2.0000      -0.431659       -11.7460
  30   2.0000      -0.413820       -11.2606
  31   2.0000      -0.390254       -10.6193
  32   2.0000      -0.376352       -10.2411
  33   2.0000      -0.362140        -9.8543
  34   2.0000      -0.358207        -9.7473
  35   2.0000      -0.351214        -9.5570
  36   2.0000      -0.331945        -9.0327
  37   2.0000      -0.310305        -8.4438
  38   2.0000      -0.299211        -8.1419
  39   2.0000      -0.288810        -7.8589
  40   2.0000      -0.277316        -7.5462
  41   2.0000      -0.263862        -7.1800
  42   2.0000      -0.250073        -6.8048
  43   2.0000      -0.241756        -6.5785
  44   2.0000      -0.226875        -6.1736
  45   2.0000      -0.218153        -5.9362
  46   2.0000      -0.212973        -5.7953
  47   2.0000      -0.199178        -5.4199
  48   0.0000       0.015230         0.4144
  49   0.0000       0.018777         0.5110
  50   0.0000       0.027481         0.7478
  51   0.0000       0.048010         1.3064
  52   0.0000       0.068105         1.8532

MULLIKEN ATOMIC CHARGES
-----------------------
   0 C :    0.043971
   1 C :   -0.002110
   2 H :    0.067601
   3 C :    0.058851
   4 H :    0.050614
   5 C :    0.079898
   6 H :    0.072148
   7 C :    0.036393
   8 H :    0.083272
   9 C :    0.157567
  10 H :    0.041742
  11 O :   -0.325836
  12 O :   -0.375424
  13 O :   -0.413434
  14 O :   -0.413298
  15 O :   -0.420644
  16 O :   -0.441328
  17 H :    0.089519
  18 H :    0.090272
  19 H :    0.300023
  20 H :    0.303068
  21 H :    0.303333
  22 H :    0.313223
  23 H :    0.300578
Sum of atomic charges:   -0.0000000

LOEWDIN ATOMIC CHARGES
----------------------
   0 C :   -0.133606
   1 C :   -0.077334
   2 H :    0.111706
   3 C :   -0.090553
   4 H :    0.104304
   5 C :   -0.055760
   6 H :    0.112238
   7 C :   -0.073274
   8 H :    0.118611
   9 C :   -0.011733
  10 H :    0.087593
  11 O :   -0.161211
  12 O :   -0.305492
  13 O :   -0.309087
  14 O :   -0.316673
  15 O :   -0.321914
  16 O :   -0.337760
  17 H :    0.115723
  18 H :    0.108179
  19 H :    0.284615
  20 H :    0.288187
  21 H :    0.287155
  22 H :    0.289280
  23 H :    0.286806

  Mayer bond orders larger than 0.100000
B(  0-C ,  1-C ) :   1.0328 B(  0-C , 16-O ) :   1.0569 B(  0-C , 17-H ) :   0.9151
B(  0-C , 18-H ) :   0.9236 B(  1-C ,  2-H ) :   0.8695 B(  1-C ,  3-C ) :   1.0316
B(  1-C , 11-O ) :   0.9769 B(  3-C ,  4-H ) :   0.8184 B(  3-C ,  5-C ) :   1.0876
B(  3-C , 15-O ) :   1.0871 B(  5-C ,  6-H ) :   0.8761 B(  5-C ,  7-C ) :   0.9887
B(  5-C , 14-O ) :   1.0949 B(  7-C ,  8-H ) :   0.8721 B(  7-C ,  9-C ) :   1.0415
B(  7-C , 13-O ) :   1.0373 B(  9-C , 10-H ) :   0.8945 B(  9-C , 11-O ) :   1.0611
B(  9-C , 12-O ) :   1.1524 B( 12-O , 19-H ) :   0.8422 B( 13-O , 20-H ) :   0.8468
B( 14-O , 21-H ) :   0.8442 B( 15-O , 22-H ) :   0.8357 B( 16-O , 23-H ) :   0.8472

Dispersion correction           -0.024810213
FINAL SINGLE POINT ENERGY      -685.692488672336

DIPOLE MOMENT
-------------

Method             : SCF
Type of density    : Electron Density
Multiplicity       :   1
Irrep              :   0
Energy             :  -685.8222942985692043 Eh
Relativity type    :
Basis              : AO
                                X                 Y                 Z
Electronic contribution:      1.544891016       0.202251033      -1.341237468
Nuclear contribution   :     -1.396735358      -1.252272356       1.275868609
                        -----------------------------------------
Total Dipole Moment    :      0.148155657      -1.050021323      -0.065368858
                        -----------------------------------------
Magnitude (a.u.)       :      1.062434923
Magnitude (Debye)      :      2.700494962

Rotational constants in cm-1:             0.040833             0.026786             0.022323
Rotational constants in MHz :          1224.129168           803.033825           669.239491

                             ****ORCA TERMINATED NORMALLY****
TOTAL RUN TIME: 0 days 0 hours 0 minutes 11 seconds 878 msec
