                         Program Version 6.0.0  -   RELEASE  -
|  1> ! wb97x-v def2-tzvp def2/J RIJCOSX DEFGRID2 scfconv7 GCP(DFT/TZ) printgap
|  2> %output
|  3>     printlevel normal
|  4> end
|  5> * xyz 0 1
|  6> C 1.4481916002315665 0.029360028058625774 1.1757620275675995
|  7> C 0.6819738494887577 0.4435801255069681 -0.09356373632950325
|  8> C 1.3910699421777686 -0.027035438853316596 -1.3557920552660825
|  9> C -0.7462865437375001 -0.05231532426493207 -0.01235324101997814
| 10> O -1.219396243374614 -0.8068344286889713 -0.8579064434084629
| 11> C -1.5680537485121189 0.3902745423228201 1.1651266646139118
| 12> H 2.4800657418469494 0.38584277196747246 1.1094681669622652
| 13> H 1.0028770083736205 0.4484151301114985 2.08160224498836
| 14> H 1.468884354616161 -1.0616616911297616 1.2711934864984213
| 15> H 0.6118263687107298 1.541520663533621 -0.09406141407417228
| 16> H 1.4777220818179073 -1.1183922989044344 -1.37096461218576
| 17> H 2.3996385522797583 0.39464730983388363 -1.3942670162300241
| 18> H 0.8550806707608913 0.2832449486964427 -2.257196726086698
| 19> H -2.6297622435634054 0.36922254304639485 0.9113718441275654
| 20> H -1.2745347114552286 1.3803032826220458 1.522128996461832
| 21> H -1.401004635480864 -0.31911204184909675 1.985659890424227
| 22> *
| 23>
| 24>                          ****END OF INPUT****

CARTESIAN COORDINATES (ANGSTROEM)
---------------------------------
  C      1.448192    0.029360    1.175762
  C      0.681974    0.443580   -0.093564
  C      1.391070   -0.027035   -1.355792
  C     -0.746287   -0.052315   -0.012353
  O     -1.219396   -0.806834   -0.857906
  C     -1.568054    0.390275    1.165127
  H      2.480066    0.385843    1.109468
  H      1.002877    0.448415    2.081602
  H      1.468884   -1.061662    1.271193
  H      0.611826    1.541521   -0.094061
  H      1.477722   -1.118392   -1.370965
  H      2.399639    0.394647   -1.394267
  H      0.855081    0.283245   -2.257197
  H     -2.629762    0.369223    0.911372
  H     -1.274535    1.380303    1.522129
  H     -1.401005   -0.319112    1.985660

 Total Charge           Charge          ....    0
 Multiplicity           Mult            ....    1
 Number of Electrons    NEL             ....   48
 Basis Dimension        Dim             ....  246

ORBITAL ENERGIES
----------------

  NO   OCC          E(Eh)            E(eV)
   0   2.0000     -21.657256      -589.3239
   1   2.0000     -12.135497      -330.2237
   2   2.0000     -12.064141      -328.2820
   3   2.0000     -12.052087      -327.9540
   4   2.0000     -12.051517      -327.9385
   5   2.0000     -12.035195      -327.4943
   6   2.0000      -1.700328       -46.2683
   7   2.0000      -1.327540       -36.1242
   8   2.0000      -1.251465       -34.0541
   9   2.0000      -1.186037       -32.2737
  10   2.0000      -1.126473       -30.6529
  11   2.0000      -1.062069       -28.9004
  12   2.0000      -0.964571       -26.2473
  13   2.0000      -0.955332       -25.9959
  14   2.0000      -0.915135       -24.9021
  15   2.0000      -0.879656       -23.9367
  16   2.0000      -0.850512       -23.1436
  17   2.0000      -0.842268       -22.9193
  18   2.0000      -0.833981       -22.6938
  19   2.0000      -0.830187       -22.5905
  20   2.0000      -0.816047       -22.2058
  21   2.0000      -0.793803       -21.6005
  22   2.0000      -0.780225       -21.2310
  23   2.0000      -0.767437       -20.8830
  24   0.0000      -0.307329        -8.3628
  25   0.0000      -0.053190        -1.4474
  26   0.0000      -0.041765        -1.1365
  27   0.0000      -0.025638        -0.6977
  28   0.0000      -0.019733        -0.5370

MULLIKEN ATOMIC CHARGES
-----------------------
   0 C :   -0.372936
   1 C :   -0.009252
   2 C :   -0.331770
   3 C :    0.193315
   4 O :   -0.317660
   5 C :   -0.371394
   6 H :    0.120268
   7 H :    0.122142
   8 H :    0.124056
   9 H :    0.088595
  10 H :    0.114471
  11 H :    0.108075
  12 H :    0.123264
  13 H :    0.143929
  14 H :    0.125633
  15 H :    0.139265
Sum of atomic charges:   -0.0000000

LOEWDIN ATOMIC CHARGES
----------------------
   0 C :   -0.267987
   1 C :   -0.281895
   2 C :   -0.273243
   3 C :   -0.317818
   4 O :    0.109499
   5 C :   -0.262183
   6 H :    0.122841
   7 H :    0.118877
   8 H :    0.124432
   9 H :    0.159500
  10 H :    0.125395
  11 H :    0.118087
  12 H :    0.124738
  13 H :    0.133181
  14 H :    0.126605
  15 H :    0.139972

  Mayer bond orders larger than 0.100000
B(  0-C ,  1-C ) :   0.9407 B(  0-C ,  6-H ) :   0.9772 B(  0-C ,  7-H ) :   0.9755
B(  0-C ,  8-H ) :   0.9747 B(  1-C ,  2-C ) :   1.0036 B(  1-C ,  3-C ) :   0.9532
B(  1-C ,  9-H ) :   0.9462 B(  2-C , 10-H ) :   0.9692 B(  2-C , 11-H ) :   0.9799
B(  2-C , 12-H ) :   0.9764 B(  3-C ,  4-O ) :   2.1255 B(  3-C ,  5-C ) :   0.9627
B(  5-C , 13-H ) :   0.9748 B(  5-C , 14-H ) :   0.9719 B(  5-C , 15-H ) :   0.9498

FINAL SINGLE POINT ENERGY      -271.794016738799

DIPOLE MOMENT
-------------

Method             : SCF
Type of density    : Electron Density
Multiplicity       :   1
Irrep              :   0
Energy             :  -271.8048085197993942 Eh
Relativity type    :
Basis              : AO
                                X                 Y                 Z
Electronic contribution:     -4.165728478      -1.577693565      -2.619808506
Nuclear contribution   :      4.662288676       2.277411698       3.450840474
                        -----------------------------------------
Total Dipole Moment    :      0.496560198       0.699718133       0.831031968
                        -----------------------------------------
Magnitude (a.u.)       :      1.194483833
Magnitude (Debye)      :      3.036136618

Rotational constants in cm-1:             0.156376             0.103158             0.070268
Rotational constants in MHz :          4688.039959          3092.596092          2106.587818

                             ****ORCA TERMINATED NORMALLY****
TOTAL RUN TIME: 0 days 0 hours 1 minutes 35 seconds 339 msec
