                         Program Version 6.0.0  -   RELEASE  -
|  1> ! wb97x-v def2-tzvp def2/J RIJCOSX DEFGRID2 scfconv7 GCP(DFT/TZ) printgap
|  2> %output
|  3>     printlevel normal
|  4> end
|  5> %cpcm
|  6>     smd true
|  7>     smdsolvent "water"
|  8> end
|  9> * xyz 0 1
| 10> C 1.4481916002315665 0.029360028058625774 1.1757620275675995
| 11> C 0.6819738494887577 0.4435801255069681 -0.09356373632950325
| 12> C 1.3910699421777686 -0.027035438853316596 -1.3557920552660825
| 13> C -0.7462865437375001 -0.05231532426493207 -0.01235324101997814
| 14> O -1.219396243374614 -0.8068344286889713 -0.8579064434084629
| 15> C -1.5680537485121189 0.3902745423228201 1.1651266646139118
| 16> H 2.4800657418469494 0.38584277196747246 1.1094681669622652
| 17> H 1.0028770083736205 0.4484151301114985 2.08160224498836
| 18> H 1.468884354616161 -1.0616616911297616 1.2711934864984213
| 19> H 0.6118263687107298 1.541520663533621 -0.09406141407417228
| 20> H 1.4777220818179073 -1.1183922989044344 -1.37096461218576
| 21> H 2.3996385522797583 0.39464730983388363 -1.3942670162300241
| 22> H 0.8550806707608913 0.2832449486964427 -2.257196726086698
| 23> H -2.6297622435634054 0.36922254304639485 0.9113718441275654
| 24> H -1.2745347114552286 1.3803032826220458 1.522128996461832
| 25> H -1.401004635480864 -0.31911204184909675 1.985659890424227
| 26> *
| 27>
| 28>                          ****END OF INPUT****

CARTESIAN COORDINATES (ANGSTROEM)
---------------------------------
  C      1.448192    0.029360    1.175762
  C      0.681974    0.443580   -0.093564
  C      1.391070   -0.027035   -1.355792
  C     -0.746287   -0.052315   -0.012353
  O     -1.219396   -0.806834   -0.857906
  C     -1.568054    0.390275    1.165127
  H      2.480066    0.385843    1.109468
  H      1.002877    0.448415    2.081602
  H      1.468884   -1.061662    1.271193
  H      0.611826    1.541521   -0.094061
  H      1.477722   -1.118392   -1.370965
  H      2.399639    0.394647   -1.394267
  H      0.855081    0.283245   -2.257197
  H     -2.629762    0.369223    0.911372
  H     -1.274535    1.380303    1.522129
  H     -1.401005   -0.319112    1.985660

 Total Charge           Charge          ....    0
 Multiplicity           Mult            ....    1
 Number of Electrons    NEL             ....   48
 Basis Dimension        Dim             ....  246

ORBITAL ENERGIES
----------------

  NO   OCC          E(Eh)            E(eV)
   0   2.0000     -21.666937      -589.5873
   1   2.0000     -12.141668      -330.3916
   2   2.0000     -12.053509      -327.9927
   3   2.0000     -12.038539      -327.5853
   4   2.0000     -12.034424      -327.4733
   5   2.0000     -12.027700      -327.2904
   6   2.0000      -1.713453       -46.6254
   7   2.0000      -1.318314       -35.8731
   8   2.0000      -1.242639       -33.8139
   9   2.0000      -1.174013       -31.9465
  10   2.0000      -1.123193       -30.5636
  11   2.0000      -1.068789       -29.0832
  12   2.0000      -0.967768       -26.3343
  13   2.0000      -0.948911       -25.8212
  14   2.0000      -0.921913       -25.0865
  15   2.0000      -0.872187       -23.7334
  16   2.0000      -0.840975       -22.8841
  17   2.0000      -0.834819       -22.7166
  18   2.0000      -0.822341       -22.3770
  19   2.0000      -0.820187       -22.3184
  20   2.0000      -0.804771       -21.8989
  21   2.0000      -0.781904       -21.2767
  22   2.0000      -0.772919       -21.0322
  23   2.0000      -0.758917       -20.6512
  24   0.0000      -0.304075        -8.2743
  25   0.0000      -0.046184        -1.2567
  26   0.0000      -0.032530        -0.8852
  27   0.0000      -0.010089        -0.2745
  28   0.0000      -0.004445        -0.1210

MULLIKEN ATOMIC CHARGES
-----------------------
   0 C :   -0.416438
   1 C :    0.010849
   2 C :   -0.406596
   3 C :    0.276153
   4 O :   -0.459877
   5 C :   -0.412251
   6 H :    0.138504
   7 H :    0.145035
   8 H :    0.133743
   9 H :    0.119675
  10 H :    0.124400
  11 H :    0.134492
  12 H :    0.132413
  13 H :    0.150691
  14 H :    0.158670
  15 H :    0.170539
Sum of atomic charges:   -0.0000000

LOEWDIN ATOMIC CHARGES
----------------------
   0 C :   -0.266610
   1 C :   -0.273670
   2 C :   -0.283523
   3 C :   -0.294658
   4 O :    0.028913
   5 C :   -0.256075
   6 H :    0.126868
   7 H :    0.125235
   8 H :    0.126514
   9 H :    0.172119
  10 H :    0.123511
  11 H :    0.125182
  12 H :    0.122441
  13 H :    0.134076
  14 H :    0.138843
  15 H :    0.150832

  Mayer bond orders larger than 0.100000
B(  0-C ,  1-C ) :   0.9378 B(  0-C ,  6-H ) :   0.9737 B(  0-C ,  7-H ) :   0.9718
B(  0-C ,  8-H ) :   0.9712 B(  1-C ,  2-C ) :   0.9777 B(  1-C ,  3-C ) :   0.9687
B(  1-C ,  9-H ) :   0.9367 B(  2-C , 10-H ) :   0.9698 B(  2-C , 11-H ) :   0.9778
B(  2-C , 12-H ) :   0.9778 B(  3-C ,  4-O ) :   1.9631 B(  3-C ,  5-C ) :   0.9903
B(  5-C , 13-H ) :   0.9664 B(  5-C , 14-H ) :   0.9635 B(  5-C , 15-H ) :   0.9376

FINAL SINGLE POINT ENERGY      -271.801133410404

DIPOLE MOMENT
-------------

Method             : SCF
Type of density    : Electron Density
Multiplicity       :   1
Irrep              :   0
Energy             :  -271.8119251914037022 Eh
Relativity type    :
Basis              : AO
                                X                 Y                 Z
Electronic contribution:     -3.941411141      -1.211028052      -2.191995148
Nuclear contribution   :      4.662288676       2.277411698       3.450840474
                        -----------------------------------------
Total Dipole Moment    :      0.720877534       1.066383646       1.258845326
                        -----------------------------------------
Magnitude (a.u.)       :      1.800424965
Magnitude (Debye)      :      4.576316576

Rotational constants in cm-1:             0.156376             0.103158             0.070268
Rotational constants in MHz :          4688.039959          3092.596092          2106.587818

                             ****ORCA TERMINATED NORMALLY****
TOTAL RUN TIME: 0 days 0 hours 1 minutes 39 seconds 40 msec
