                         Program Version 6.0.0  -   RELEASE  -
|  1> ! pbe def2-sv(p) def2/J RI DEFGRID1 loosescf d4 GCP(DFT/SV(P)) printgap
|  2> %output
|  3>     printlevel normal
|  4> end
|  5> * xyz 0 1
|  6> C -2.7523203895 -0.8430577239 0.1432340891
|  7> C -1.9623634222 0.4315394356 -0.119836246
|  8> C -0.4787541649 0.2306312736 -0.0577072573
|  9> C 0.4031209206 1.2862165951 -0.3174179834
| 10> N 1.7151009551 1.1418211819 -0.2658352428
| 11> C 2.1769502805 -0.0650653381 0.0467696768
| 12> C 1.3141786982 -1.1180032596 0.303776085
| 13> N -0.00276679 -0.9705604589 0.2521410804
| 14> H -2.5189447539 -1.2344926696 1.1288304828
| 15> H -2.4984730039 -1.602560465 -0.5903759874
| 16> H -3.8178826032 -0.6389096109 0.0865419205
| 17> H -2.2315539732 1.1961852987 0.6138518781
| 18> H -2.2114739187 0.8315611657 -1.1061107914
| 19> H 0.0414025024 2.2727491252 -0.5730424192
| 20> H 3.250652379 -0.1725808353 0.0869497861
| 21> H 1.6723406671 -2.1055050199 0.5577345878
| 22> *
| 23>
| 24>                          ****END OF INPUT****

CARTESIAN COORDINATES (ANGSTROEM)
---------------------------------
  C     -2.752320   -0.843058    0.143234
  C     -1.962363    0.431539   -0.119836
  C     -0.478754    0.230631   -0.057707
  C      0.403121    1.286217   -0.317418
  N      1.715101    1.141821   -0.265835
  C      2.176950   -0.065065    0.046770
  C      1.314179   -1.118003    0.303776
  N     -0.002767   -0.970560    0.252141
  H     -2.518945   -1.234493    1.128830
  H     -2.498473   -1.602560   -0.590376
  H     -3.817883   -0.638910    0.086542
  H     -2.231554    1.196185    0.613852
  H     -2.211474    0.831561   -1.106111
  H      0.041403    2.272749   -0.573042
  H      3.250652   -0.172581    0.086950
  H      1.672341   -2.105505    0.557735

 Total Charge           Charge          ....    0
 Multiplicity           Mult            ....    1
 Number of Electrons    NEL             ....   58
 Basis Dimension        Dim             ....  128

ORBITAL ENERGIES
----------------

  NO   OCC          E(Eh)            E(eV)
   0   2.0000     -14.000262      -380.9665
   1   2.0000     -13.999353      -380.9417
   2   2.0000      -9.943241      -270.5693
   3   2.0000      -9.932102      -270.2662
   4   2.0000      -9.930277      -270.2166
   5   2.0000      -9.929428      -270.1935
   6   2.0000      -9.899586      -269.3814
   7   2.0000      -9.876044      -268.7408
   8   2.0000      -0.898323       -24.4446
   9   2.0000      -0.824240       -22.4287
  10   2.0000      -0.729023       -19.8377
  11   2.0000      -0.673309       -18.3217
  12   2.0000      -0.601469       -16.3668
  13   2.0000      -0.592014       -16.1095
  14   2.0000      -0.536409       -14.5964
  15   2.0000      -0.474758       -12.9188
  16   2.0000      -0.464430       -12.6378
  17   2.0000      -0.426677       -11.6105
  18   2.0000      -0.421451       -11.4683
  19   2.0000      -0.391348       -10.6491
  20   2.0000      -0.377827       -10.2812
  21   2.0000      -0.353007        -9.6058
  22   2.0000      -0.332649        -9.0519
  23   2.0000      -0.315193        -8.5768
  24   2.0000      -0.313619        -8.5340
  25   2.0000      -0.299912        -8.1610
  26   2.0000      -0.250748        -6.8232
  27   2.0000      -0.243614        -6.6291
  28   2.0000      -0.198614        -5.4046
  29   0.0000      -0.075836        -2.0636
  30   0.0000      -0.057279        -1.5586
  31   0.0000       0.044269         1.2046
  32   0.0000       0.068233         1.8567
  33   0.0000       0.070630         1.9220

MULLIKEN ATOMIC CHARGES
-----------------------
   0 C :   -0.233162
   1 C :   -0.158875
   2 C :   -0.071085
   3 C :   -0.065116
   4 N :   -0.038443
   5 C :   -0.060706
   6 C :   -0.047959
   7 N :   -0.056757
   8 H :    0.105931
   9 H :    0.104424
  10 H :    0.097070
  11 H :    0.107132
  12 H :    0.105753
  13 H :    0.060913
  14 H :    0.076430
  15 H :    0.074450
Sum of atomic charges:    0.0000000

LOEWDIN ATOMIC CHARGES
----------------------
   0 C :   -0.336031
   1 C :   -0.233721
   2 C :   -0.025006
   3 C :   -0.093355
   4 N :   -0.050110
   5 C :   -0.104861
   6 C :   -0.095626
   7 N :   -0.052834
   8 H :    0.124229
   9 H :    0.123733
  10 H :    0.118342
  11 H :    0.134869
  12 H :    0.133780
  13 H :    0.117595
  14 H :    0.119655
  15 H :    0.119340

  Mayer bond orders larger than 0.100000
B(  0-C ,  1-C ) :   1.1955 B(  0-C ,  8-H ) :   0.9481 B(  0-C ,  9-H ) :   0.9503
B(  0-C , 10-H ) :   0.9455 B(  1-C ,  2-C ) :   1.0350 B(  1-C , 11-H ) :   0.9033
B(  1-C , 12-H ) :   0.9059 B(  2-C ,  3-C ) :   1.3259 B(  2-C ,  5-C ) :   0.1016
B(  2-C ,  7-N ) :   1.5771 B(  3-C ,  4-N ) :   1.5848 B(  3-C ,  6-C ) :   0.1009
B(  3-C , 13-H ) :   0.9536 B(  4-N ,  5-C ) :   1.5230 B(  5-C ,  6-C ) :   1.3727
B(  5-C , 14-H ) :   0.9480 B(  6-C ,  7-N ) :   1.5136 B(  6-C , 15-H ) :   0.9464

Dispersion correction           -0.015118281
FINAL SINGLE POINT ENERGY      -342.198992676614

DIPOLE MOMENT
-------------

Method             : SCF
Type of density    : Electron Density
Multiplicity       :   1
Irrep              :   0
Energy             :  -342.2474126250692166 Eh
Relativity type    :
Basis              : AO
                                X                 Y                 Z
Electronic contribution:      7.551388483       1.350360847      -0.186449193
Nuclear contribution   :     -7.790483596      -1.362742201       0.191668040
                        -----------------------------------------
Total Dipole Moment    :     -0.239095114      -0.012381354       0.005218847
                        -----------------------------------------
Magnitude (a.u.)       :      0.239472352
Magnitude (Debye)      :      0.608690347

Rotational constants in cm-1:             0.171830             0.052776             0.040990
Rotational constants in MHz :          5151.334631          1582.187958          1228.863404

                             ****ORCA TERMINATED NORMALLY****
TOTAL RUN TIME: 0 days 0 hours 0 minutes 7 seconds 666 msec
