                         Program Version 6.0.0  -   RELEASE  -
|  1> ! pbe def2-sv(p) def2/J RI DEFGRID1 loosescf d4 GCP(DFT/SV(P)) printgap
|  2> %output
|  3>     printlevel normal
|  4> end
|  5> * xyz 0 1
|  6> C -2.0593389493 -1.3719601958 -0.1149250617
|  7> C -0.9927938461 -0.5140301721 0.5921568939
|  8> H -1.3973025332 -0.1496278104 1.546009472
|  9> C -0.6391728147 0.7186549422 -0.2615790168
| 10> H -0.554217952 0.4387825319 -1.3211599366
| 11> C 0.7195487556 1.2666379101 0.184388944
| 12> H 0.6542547817 1.4980697019 1.2595626473
| 13> C 1.8058329129 0.196772312 -0.0493919438
| 14> H 2.1840845871 0.3115221624 -1.0706298387
| 15> C 1.2325504992 -1.2337730606 0.0652327157
| 16> H 1.993348801 -1.8701210532 0.5398013832
| 17> O 0.1391716661 -1.3017843239 0.9479745096
| 18> O 0.9141423354 -1.6880135145 -1.2113774852
| 19> O 2.9125422483 0.383734408 0.7944017004
| 20> O 0.9966405176 2.4343466131 -0.5447079324
| 21> O -1.6146956492 1.7145822897 -0.0897911916
| 22> O -3.2771035814 -0.6799796145 -0.2509568069
| 23> H -2.185919854 -2.3075927847 0.4403534569
| 24> H -1.7240436286 -1.6031043232 -1.1288028609
| 25> H 0.8040202363 -2.6514031267 -1.2105563619
| 26> H 2.6439295351 0.2784792011 1.7194190762
| 27> H 1.8447970382 2.7974783898 -0.2499960781
| 28> H -2.4504098241 1.3823239316 -0.4576404113
| 29> H -3.7287727127 -0.6478370275 0.6042789399
| 30> *
| 31>
| 32>                          ****END OF INPUT****

CARTESIAN COORDINATES (ANGSTROEM)
---------------------------------
  C     -2.059339   -1.371960   -0.114925
  C     -0.992794   -0.514030    0.592157
  H     -1.397303   -0.149628    1.546009
  C     -0.639173    0.718655   -0.261579
  H     -0.554218    0.438783   -1.321160
  C      0.719549    1.266638    0.184389
  H      0.654255    1.498070    1.259563
  C      1.805833    0.196772   -0.049392
  H      2.184085    0.311522   -1.070630
  C      1.232550   -1.233773    0.065233
  H      1.993349   -1.870121    0.539801
  O      0.139172   -1.301784    0.947975
  O      0.914142   -1.688014   -1.211377
  O      2.912542    0.383734    0.794402
  O      0.996641    2.434347   -0.544708
  O     -1.614696    1.714582   -0.089791
  O     -3.277104   -0.679980   -0.250957
  H     -2.185920   -2.307593    0.440353
  H     -1.724044   -1.603104   -1.128803
  H      0.804020   -2.651403   -1.210556
  H      2.643930    0.278479    1.719419
  H      1.844797    2.797478   -0.249996
  H     -2.450410    1.382324   -0.457640
  H     -3.728773   -0.647837    0.604279

 Total Charge           Charge          ....    0
 Multiplicity           Mult            ....    1
 Number of Electrons    NEL             ....   96
 Basis Dimension        Dim             ....  192

ORBITAL ENERGIES
----------------

  NO   OCC          E(Eh)            E(eV)
   0   2.0000     -18.772178      -510.8169
   1   2.0000     -18.770999      -510.7848
   2   2.0000     -18.770113      -510.7608
   3   2.0000     -18.756630      -510.3939
   4   2.0000     -18.740167      -509.9459
   5   2.0000     -18.734223      -509.7841
   6   2.0000      -9.987585      -271.7760
   7   2.0000      -9.941415      -270.5197
   8   2.0000      -9.937527      -270.4139
   9   2.0000      -9.937415      -270.4108
  10   2.0000      -9.937339      -270.4087
  11   2.0000      -9.934828      -270.3404
  12   2.0000      -0.984849       -26.7991
  13   2.0000      -0.944717       -25.7070
  14   2.0000      -0.938144       -25.5282
  15   2.0000      -0.923084       -25.1184
  16   2.0000      -0.917157       -24.9571
  17   2.0000      -0.904859       -24.6225
  18   2.0000      -0.699662       -19.0388
  19   2.0000      -0.690770       -18.7968
  20   2.0000      -0.623886       -16.9768
  21   2.0000      -0.581027       -15.8105
  22   2.0000      -0.566774       -15.4227
  23   2.0000      -0.517332       -14.0773
  24   2.0000      -0.503724       -13.7070
  25   2.0000      -0.495533       -13.4841
  26   2.0000      -0.472740       -12.8639
  27   2.0000      -0.462419       -12.5830
  28   2.0000      -0.455313       -12.3897
  29   2.0000      -0.423915       -11.5353
  30   2.0000      -0.409646       -11.1470
  31   2.0000      -0.398985       -10.8569
  32   2.0000      -0.386982       -10.5303
  33   2.0000      -0.368966       -10.0401
  34   2.0000      -0.364503        -9.9186
  35   2.0000      -0.349785        -9.5181
  36   2.0000      -0.322344        -8.7714
  37   2.0000      -0.310475        -8.4484
  38   2.0000      -0.301346        -8.2001
  39   2.0000      -0.294852        -8.0233
  40   2.0000      -0.284510        -7.7419
  41   2.0000      -0.269915        -7.3448
  42   2.0000      -0.259849        -7.0709
  43   2.0000      -0.246003        -6.6941
  44   2.0000      -0.236675        -6.4403
  45   2.0000      -0.222230        -6.0472
  46   2.0000      -0.206582        -5.6214
  47   2.0000      -0.195781        -5.3275
  48   0.0000       0.011151         0.3034
  49   0.0000       0.015390         0.4188
  50   0.0000       0.025334         0.6894
  51   0.0000       0.046128         1.2552
  52   0.0000       0.059935         1.6309

MULLIKEN ATOMIC CHARGES
-----------------------
   0 C :    0.047721
   1 C :    0.029733
   2 H :    0.058326
   3 C :    0.025418
   4 H :    0.071738
   5 C :    0.080135
   6 H :    0.034111
   7 C :    0.078720
   8 H :    0.081605
   9 C :    0.132578
  10 H :    0.062823
  11 O :   -0.318937
  12 O :   -0.389053
  13 O :   -0.423955
  14 O :   -0.400874
  15 O :   -0.411155
  16 O :   -0.434816
  17 H :    0.082282
  18 H :    0.085860
  19 H :    0.308202
  20 H :    0.297933
  21 H :    0.300749
  22 H :    0.295341
  23 H :    0.305516
Sum of atomic charges:    0.0000000

LOEWDIN ATOMIC CHARGES
----------------------
   0 C :   -0.138084
   1 C :   -0.080186
   2 H :    0.108366
   3 C :   -0.069144
   4 H :    0.111092
   5 C :   -0.063856
   6 H :    0.098729
   7 C :   -0.086785
   8 H :    0.126866
   9 C :   -0.015564
  10 H :    0.098140
  11 O :   -0.153149
  12 O :   -0.303916
  13 O :   -0.313585
  14 O :   -0.311795
  15 O :   -0.317752
  16 O :   -0.324447
  17 H :    0.099368
  18 H :    0.114023
  19 H :    0.289257
  20 H :    0.282620
  21 H :    0.286912
  22 H :    0.273500
  23 H :    0.289392

  Mayer bond orders larger than 0.100000
B(  0-C ,  1-C ) :   1.0431 B(  0-C , 16-O ) :   1.0445 B(  0-C , 17-H ) :   0.9241
B(  0-C , 18-H ) :   0.9103 B(  1-C ,  2-H ) :   0.8855 B(  1-C ,  3-C ) :   0.9597
B(  1-C , 11-O ) :   0.9662 B(  3-C ,  4-H ) :   0.8833 B(  3-C ,  5-C ) :   1.0350
B(  3-C , 15-O ) :   1.1019 B(  5-C ,  6-H ) :   0.8591 B(  5-C ,  7-C ) :   1.0191
B(  5-C , 14-O ) :   1.1088 B(  7-C ,  8-H ) :   0.8606 B(  7-C ,  9-C ) :   0.9908
B(  7-C , 13-O ) :   1.0314 B(  9-C , 10-H ) :   0.8997 B(  9-C , 11-O ) :   1.0709
B(  9-C , 12-O ) :   1.1096 B( 12-O , 19-H ) :   0.8354 B( 13-O , 20-H ) :   0.8485
B( 14-O , 21-H ) :   0.8455 B( 15-O , 22-H ) :   0.8204 B( 16-O , 23-H ) :   0.8454

Dispersion correction           -0.024571639
FINAL SINGLE POINT ENERGY      -685.689873918226

DIPOLE MOMENT
-------------

Method             : SCF
Type of density    : Electron Density
Multiplicity       :   1
Irrep              :   0
Energy             :  -685.8198187583602703 Eh
Relativity type    :
Basis              : AO
                                X                 Y                 Z
Electronic contribution:      1.599654754       1.205545207       0.189652702
Nuclear contribution   :     -1.796703808      -2.354248332       0.623922824
                        -----------------------------------------
Total Dipole Moment    :     -0.197049054      -1.148703125       0.813575527
                        -----------------------------------------
Magnitude (a.u.)       :      1.421355810
Magnitude (Debye)      :      3.612799354

Rotational constants in cm-1:             0.044022             0.026003             0.018978
Rotational constants in MHz :          1319.756340           779.562087           568.947551

                             ****ORCA TERMINATED NORMALLY****
TOTAL RUN TIME: 0 days 0 hours 0 minutes 11 seconds 914 msec
