                         Program Version 6.0.0  -   RELEASE  -
|  1> ! pbe def2-sv(p) def2/J RI DEFGRID1 loosescf d4 GCP(DFT/SV(P)) printgap
|  2> %output
|  3>     printlevel normal
|  4> end
|  5> * xyz 0 1
|  6> C -2.971213985 0.6555477188 -0.7131077773
|  7> C -1.9430187534 0.4829058564 0.4077246344
|  8> H -2.4833200909 0.5496418143 1.3607591984
|  9> C -0.8453232915 1.5494160524 0.3799505748
| 10> C 0.2105027673 1.2316826309 -0.6763580047
| 11> C 0.8489321733 -0.1633316189 -0.4837677892
| 12> H 0.7365840314 -0.7284628155 -1.414371818
| 13> C 0.1251813665 -0.9625694185 0.6186143855
| 14> C -1.3535849057 -0.9107071464 0.3780424373
| 15> O -2.0269874826 -1.9037647573 0.1751660686
| 16> C 2.3270972617 -0.057146544 -0.1896186151
| 17> C 3.2267130381 -0.4651550275 -1.0713461449
| 18> C 2.7259123593 0.540136648 1.1260684836
| 19> H -2.4823142645 0.6574116544 -1.6839899506
| 20> H -3.6788036373 -0.1700047041 -0.6914432476
| 21> H -3.5127639512 1.5892454146 -0.5905250741
| 22> H -1.2950324384 2.5187736466 0.1609536869
| 23> H -0.37625725 1.6213875353 1.3618978572
| 24> H -0.2528766965 1.2773297462 -1.662336635
| 25> H 0.9870370661 1.9974449323 -0.6546173378
| 26> H 0.4678449028 -1.9980949825 0.6161303151
| 27> H 0.3295736814 -0.5199226177 1.5927139106
| 28> H 4.2840634436 -0.3753464198 -0.8880615604
| 29> H 2.945759106 -0.9066754637 -2.0126639753
| 30> H 3.7719876924 0.8327081908 1.1080020639
| 31> H 2.1209464293 1.4126732276 1.3593314948
| 32> H 2.5950717124 -0.1890691034 1.9246022282
| 33> *
| 34>
| 35>                          ****END OF INPUT****

CARTESIAN COORDINATES (ANGSTROEM)
---------------------------------
  C     -2.971214    0.655548   -0.713108
  C     -1.943019    0.482906    0.407725
  H     -2.483320    0.549642    1.360759
  C     -0.845323    1.549416    0.379951
  C      0.210503    1.231683   -0.676358
  C      0.848932   -0.163332   -0.483768
  H      0.736584   -0.728463   -1.414372
  C      0.125181   -0.962569    0.618614
  C     -1.353585   -0.910707    0.378042
  O     -2.026987   -1.903765    0.175166
  C      2.327097   -0.057147   -0.189619
  C      3.226713   -0.465155   -1.071346
  C      2.725912    0.540137    1.126068
  H     -2.482314    0.657412   -1.683990
  H     -3.678804   -0.170005   -0.691443
  H     -3.512764    1.589245   -0.590525
  H     -1.295032    2.518774    0.160954
  H     -0.376257    1.621388    1.361898
  H     -0.252877    1.277330   -1.662337
  H      0.987037    1.997445   -0.654617
  H      0.467845   -1.998095    0.616130
  H      0.329574   -0.519923    1.592714
  H      4.284063   -0.375346   -0.888062
  H      2.945759   -0.906675   -2.012664
  H      3.771988    0.832708    1.108002
  H      2.120946    1.412673    1.359331
  H      2.595072   -0.189069    1.924602

 Total Charge           Charge          ....    0
 Multiplicity           Mult            ....    1
 Number of Electrons    NEL             ....   84
 Basis Dimension        Dim             ....  186

ORBITAL ENERGIES
----------------

  NO   OCC          E(Eh)            E(eV)
   0   2.0000     -18.738125      -509.8903
   1   2.0000      -9.969141      -271.2741
   2   2.0000      -9.909464      -269.6502
   3   2.0000      -9.904694      -269.5204
   4   2.0000      -9.903390      -269.4850
   5   2.0000      -9.895435      -269.2685
   6   2.0000      -9.894313      -269.2379
   7   2.0000      -9.893839      -269.2250
   8   2.0000      -9.889061      -269.0950
   9   2.0000      -9.880416      -268.8598
  10   2.0000      -9.876859      -268.7630
  11   2.0000      -0.933159       -25.3925
  12   2.0000      -0.774521       -21.0758
  13   2.0000      -0.731063       -19.8932
  14   2.0000      -0.684004       -18.6127
  15   2.0000      -0.660196       -17.9648
  16   2.0000      -0.624882       -17.0039
  17   2.0000      -0.608654       -16.5623
  18   2.0000      -0.551719       -15.0130
  19   2.0000      -0.536874       -14.6091
  20   2.0000      -0.475585       -12.9413
  21   2.0000      -0.456468       -12.4211
  22   2.0000      -0.447398       -12.1743
  23   2.0000      -0.428911       -11.6713
  24   2.0000      -0.415994       -11.3198
  25   2.0000      -0.402738       -10.9591
  26   2.0000      -0.394211       -10.7270
  27   2.0000      -0.379209       -10.3188
  28   2.0000      -0.365525        -9.9464
  29   2.0000      -0.357539        -9.7291
  30   2.0000      -0.354485        -9.6460
  31   2.0000      -0.347173        -9.4471
  32   2.0000      -0.339315        -9.2332
  33   2.0000      -0.331995        -9.0341
  34   2.0000      -0.323961        -8.8154
  35   2.0000      -0.315188        -8.5767
  36   2.0000      -0.304583        -8.2881
  37   2.0000      -0.292683        -7.9643
  38   2.0000      -0.278136        -7.5685
  39   2.0000      -0.277180        -7.5425
  40   2.0000      -0.223247        -6.0749
  41   2.0000      -0.191448        -5.2096
  42   0.0000      -0.052982        -1.4417
  43   0.0000      -0.014772        -0.4020
  44   0.0000       0.024600         0.6694
  45   0.0000       0.037035         1.0078
  46   0.0000       0.055293         1.5046

MULLIKEN ATOMIC CHARGES
-----------------------
   0 C :   -0.247831
   1 C :   -0.181123
   2 H :    0.101121
   3 C :   -0.101817
   4 C :   -0.121226
   5 C :   -0.176060
   6 H :    0.067924
   7 C :   -0.045747
   8 C :    0.005246
   9 O :   -0.163685
  10 C :   -0.040014
  11 C :   -0.225984
  12 C :   -0.233778
  13 H :    0.101560
  14 H :    0.122168
  15 H :    0.099608
  16 H :    0.087375
  17 H :    0.075997
  18 H :    0.090321
  19 H :    0.097396
  20 H :    0.090242
  21 H :    0.091466
  22 H :    0.080972
  23 H :    0.086992
  24 H :    0.103688
  25 H :    0.110265
  26 H :    0.124924
Sum of atomic charges:   -0.0000000

LOEWDIN ATOMIC CHARGES
----------------------
   0 C :   -0.324130
   1 C :   -0.175621
   2 H :    0.143606
   3 C :   -0.220239
   4 C :   -0.216642
   5 C :   -0.121539
   6 H :    0.125268
   7 C :   -0.232923
   8 C :    0.052808
   9 O :   -0.130852
  10 C :   -0.050475
  11 C :   -0.263655
  12 C :   -0.326197
  13 H :    0.118187
  14 H :    0.128881
  15 H :    0.119504
  16 H :    0.122302
  17 H :    0.114571
  18 H :    0.123059
  19 H :    0.124670
  20 H :    0.133040
  21 H :    0.135028
  22 H :    0.116823
  23 H :    0.118238
  24 H :    0.129013
  25 H :    0.124096
  26 H :    0.133180

  Mayer bond orders larger than 0.100000
B(  0-C ,  1-C ) :   1.1154 B(  0-C , 13-H ) :   0.9507 B(  0-C , 14-H ) :   0.9367
B(  0-C , 15-H ) :   0.9472 B(  1-C ,  2-H ) :   0.8586 B(  1-C ,  3-C ) :   1.0849
B(  1-C ,  8-C ) :   0.9189 B(  3-C ,  4-C ) :   1.1682 B(  3-C , 16-H ) :   0.9107
B(  3-C , 17-H ) :   0.8856 B(  4-C ,  5-C ) :   1.0404 B(  4-C , 18-H ) :   0.9045
B(  4-C , 19-H ) :   0.9117 B(  5-C ,  6-H ) :   0.8810 B(  5-C ,  7-C ) :   1.0993
B(  5-C , 10-C ) :   1.0152 B(  7-C ,  8-C ) :   1.0950 B(  7-C , 20-H ) :   0.8938
B(  7-C , 21-H ) :   0.8462 B(  8-C ,  9-O ) :   2.1866 B( 10-C , 11-C ) :   2.0377
B( 10-C , 12-C ) :   1.1089 B( 11-C , 22-H ) :   0.9063 B( 11-C , 23-H ) :   0.9093
B( 12-C , 24-H ) :   0.9339 B( 12-C , 25-H ) :   0.9264 B( 12-C , 26-H ) :   0.9233

Dispersion correction           -0.028850605
FINAL SINGLE POINT ENERGY      -464.823682127744

DIPOLE MOMENT
-------------

Method             : SCF
Type of density    : Electron Density
Multiplicity       :   1
Irrep              :   0
Energy             :  -464.9094030799824395 Eh
Relativity type    :
Basis              : AO
                                X                 Y                 Z
Electronic contribution:     -3.387000571      -6.114651157       0.366564908
Nuclear contribution   :      3.870369424       7.072789665      -0.103995900
                        -----------------------------------------
Total Dipole Moment    :      0.483368853       0.958138508       0.262569008
                        -----------------------------------------
Magnitude (a.u.)       :      1.104815520
Magnitude (Debye)      :      2.808217879

Rotational constants in cm-1:             0.067887             0.023635             0.021088
Rotational constants in MHz :          2035.202508           708.568126           632.211072

                             ****ORCA TERMINATED NORMALLY****
TOTAL RUN TIME: 0 days 0 hours 0 minutes 17 seconds 431 msec
