                         Program Version 6.0.0  -   RELEASE  -
|  1> ! pbe def2-sv(p) def2/J RI DEFGRID1 loosescf d4 GCP(DFT/SV(P)) printgap
|  2> %output
|  3>     printlevel normal
|  4> end
|  5> * xyz 0 1
|  6> C 1.204666295 1.26115332 0.0528100434
|  7> C 0.4330157754 -0.0001416561 -0.3458051135
|  8> C 1.2103575463 -1.2580162581 0.0521357776
|  9> C -0.8823773019 -0.0024502564 0.368098535
| 10> O -1.9705852217 -0.0007958955 -0.1544952094
| 11> H 2.1673866166 1.272610523 -0.4499391106
| 12> H 1.3711251927 1.2799484598 1.1269426815
| 13> H 0.6526420095 2.1537198689 -0.2310664593
| 14> H 0.2489863942 -8.9807e-05 -1.4238876541
| 15> H 2.1731219824 -1.2649816381 -0.4506273292
| 16> H 0.6623991867 -2.152969418 -0.232079491
| 17> H 1.3769563269 -1.2765583018 1.126248338
| 18> H -0.7958662482 -0.0055422148 1.4705696815
| 19> *
| 20>
| 21>                          ****END OF INPUT****

CARTESIAN COORDINATES (ANGSTROEM)
---------------------------------
  C      1.204666    1.261153    0.052810
  C      0.433016   -0.000142   -0.345805
  C      1.210358   -1.258016    0.052136
  C     -0.882377   -0.002450    0.368099
  O     -1.970585   -0.000796   -0.154495
  H      2.167387    1.272611   -0.449939
  H      1.371125    1.279948    1.126943
  H      0.652642    2.153720   -0.231066
  H      0.248986   -0.000090   -1.423888
  H      2.173122   -1.264982   -0.450627
  H      0.662399   -2.152969   -0.232079
  H      1.376956   -1.276558    1.126248
  H     -0.795866   -0.005542    1.470570

 Total Charge           Charge          ....    0
 Multiplicity           Mult            ....    1
 Number of Electrons    NEL             ....   40
 Basis Dimension        Dim             ....   86

ORBITAL ENERGIES
----------------

  NO   OCC          E(Eh)            E(eV)
   0   2.0000     -18.747640      -510.1492
   1   2.0000      -9.968658      -271.2610
   2   2.0000      -9.908280      -269.6180
   3   2.0000      -9.892591      -269.1911
   4   2.0000      -9.892556      -269.1901
   5   2.0000      -0.942275       -25.6406
   6   2.0000      -0.739129       -20.1127
   7   2.0000      -0.628870       -17.1124
   8   2.0000      -0.575501       -15.6602
   9   2.0000      -0.509782       -13.8719
  10   2.0000      -0.420895       -11.4531
  11   2.0000      -0.414229       -11.2717
  12   2.0000      -0.392672       -10.6852
  13   2.0000      -0.377839       -10.2815
  14   2.0000      -0.359065        -9.7707
  15   2.0000      -0.335350        -9.1253
  16   2.0000      -0.334779        -9.1098
  17   2.0000      -0.310550        -8.4505
  18   2.0000      -0.308083        -8.3834
  19   2.0000      -0.200088        -5.4447
  20   0.0000      -0.058185        -1.5833
  21   0.0000       0.035201         0.9579
  22   0.0000       0.058502         1.5919
  23   0.0000       0.085926         2.3382
  24   0.0000       0.087809         2.3894

MULLIKEN ATOMIC CHARGES
-----------------------
   0 C :   -0.268736
   1 C :   -0.155061
   2 C :   -0.268737
   3 C :    0.046646
   4 O :   -0.158921
   5 H :    0.114388
   6 H :    0.104099
   7 H :    0.120622
   8 H :    0.085707
   9 H :    0.114339
  10 H :    0.120551
  11 H :    0.104111
  12 H :    0.040992
Sum of atomic charges:   -0.0000000

LOEWDIN ATOMIC CHARGES
----------------------
   0 C :   -0.323825
   1 C :   -0.194134
   2 C :   -0.323911
   3 C :    0.011501
   4 O :   -0.118823
   5 H :    0.126220
   6 H :    0.120868
   7 H :    0.125941
   8 H :    0.126530
   9 H :    0.126211
  10 H :    0.125909
  11 H :    0.120861
  12 H :    0.076651

  Mayer bond orders larger than 0.100000
B(  0-C ,  1-C ) :   1.0777 B(  0-C ,  5-H ) :   0.9477 B(  0-C ,  6-H ) :   0.9483
B(  0-C ,  7-H ) :   0.9511 B(  1-C ,  2-C ) :   1.0777 B(  1-C ,  3-C ) :   0.9546
B(  1-C ,  8-H ) :   0.8925 B(  2-C ,  9-H ) :   0.9477 B(  2-C , 10-H ) :   0.9512
B(  2-C , 11-H ) :   0.9482 B(  3-C ,  4-O ) :   2.1883 B(  3-C , 12-H ) :   0.8987

Dispersion correction           -0.008392486
FINAL SINGLE POINT ENERGY      -231.919084736087

DIPOLE MOMENT
-------------

Method             : SCF
Type of density    : Electron Density
Multiplicity       :   1
Irrep              :   0
Energy             :  -231.9635186048942330 Eh
Relativity type    :
Basis              : AO
                                X                 Y                 Z
Electronic contribution:     -6.336593732      -0.005766382      -0.683005757
Nuclear contribution   :      7.341689449       0.005746174       0.875983161
                        -----------------------------------------
Total Dipole Moment    :      1.005095717      -0.000020208       0.192977403
                        -----------------------------------------
Magnitude (a.u.)       :      1.023453799
Magnitude (Debye)      :      2.601412819

Rotational constants in cm-1:             0.260106             0.125389             0.094902
Rotational constants in MHz :          7797.772363          3759.073621          2845.100997

                             ****ORCA TERMINATED NORMALLY****
TOTAL RUN TIME: 0 days 0 hours 0 minutes 4 seconds 542 msec
