                         Program Version 6.0.0  -   RELEASE  -
|  1> ! wb97x-v def2-tzvp def2/J RIJCOSX DEFGRID2 scfconv7 GCP(DFT/TZ) printgap
|  2> %output
|  3>     printlevel normal
|  4> end
|  5> * xyz 0 1
|  6> C -1.9551118337677398 -0.14795286726479637 -0.008025883645068158
|  7> C -0.586269770459785 0.5273073284521025 0.029426984830930196
|  8> C 0.5383172746250006 -0.49285701536223203 -0.02009879156636955
|  9> O 1.8441173217086952 0.11668377585817567 0.047492642318080106
| 10> H -2.7597366042044085 0.5923391091933286 0.01797296828065044
| 11> H -2.0763457314890856 -0.7428172437366274 -0.9196688118029113
| 12> H -2.086418056155454 -0.8167687210001081 0.8493658689773718
| 13> H -0.4844736185071497 1.1265491717301543 0.9421765113009881
| 14> H -0.48341399418389763 1.2120927200101017 -0.8225362384851931
| 15> H 0.480843131098236 -1.1663661206987097 0.8417864095502232
| 16> H 0.4559463722053294 -1.1037585994894143 -0.9311110104202911
| 17> H 1.9239444050081722 0.6976913290570491 -0.7202257048580943
| 18> *
| 19>
| 20>                          ****END OF INPUT****

CARTESIAN COORDINATES (ANGSTROEM)
---------------------------------
  C     -1.955112   -0.147953   -0.008026
  C     -0.586270    0.527307    0.029427
  C      0.538317   -0.492857   -0.020099
  O      1.844117    0.116684    0.047493
  H     -2.759737    0.592339    0.017973
  H     -2.076346   -0.742817   -0.919669
  H     -2.086418   -0.816769    0.849366
  H     -0.484474    1.126549    0.942177
  H     -0.483414    1.212093   -0.822536
  H      0.480843   -1.166366    0.841786
  H      0.455946   -1.103759   -0.931111
  H      1.923944    0.697691   -0.720226

 Total Charge           Charge          ....    0
 Multiplicity           Mult            ....    1
 Number of Electrons    NEL             ....   34
 Basis Dimension        Dim             ....  172

ORBITAL ENERGIES
----------------

  NO   OCC          E(Eh)            E(eV)
   0   2.0000     -21.667285      -589.5968
   1   2.0000     -12.089746      -328.9787
   2   2.0000     -12.045789      -327.7826
   3   2.0000     -12.041183      -327.6572
   4   2.0000      -1.664668       -45.2979
   5   2.0000      -1.294741       -35.2317
   6   2.0000      -1.189728       -32.3742
   7   2.0000      -1.092751       -29.7353
   8   2.0000      -1.011870       -27.5344
   9   2.0000      -0.951593       -25.8942
  10   2.0000      -0.924182       -25.1483
  11   2.0000      -0.881402       -23.9842
  12   2.0000      -0.841007       -22.8850
  13   2.0000      -0.824754       -22.4427
  14   2.0000      -0.809412       -22.0252
  15   2.0000      -0.775217       -21.0947
  16   2.0000      -0.756367       -20.5818
  17   0.0000      -0.146127        -3.9763
  18   0.0000      -0.049035        -1.3343
  19   0.0000      -0.008226        -0.2238
  20   0.0000       0.007794         0.2121
  21   0.0000       0.014699         0.4000

MULLIKEN ATOMIC CHARGES
-----------------------
   0 C :   -0.349998
   1 C :   -0.163680
   2 C :   -0.017754
   3 O :   -0.448410
   4 H :    0.117168
   5 H :    0.105000
   6 H :    0.109235
   7 H :    0.101025
   8 H :    0.075657
   9 H :    0.096041
  10 H :    0.081756
  11 H :    0.293962
Sum of atomic charges:    0.0000000

LOEWDIN ATOMIC CHARGES
----------------------
   0 C :   -0.305838
   1 C :   -0.305819
   2 C :   -0.333939
   3 O :   -0.066425
   4 H :    0.117731
   5 H :    0.116249
   6 H :    0.117829
   7 H :    0.133184
   8 H :    0.126310
   9 H :    0.124349
  10 H :    0.111655
  11 H :    0.164714

  Mayer bond orders larger than 0.100000
B(  0-C ,  1-C ) :   0.9776 B(  0-C ,  4-H ) :   0.9784 B(  0-C ,  5-H ) :   0.9776
B(  0-C ,  6-H ) :   0.9800 B(  1-C ,  2-C ) :   0.9924 B(  1-C ,  7-H ) :   0.9683
B(  1-C ,  8-H ) :   0.9665 B(  2-C ,  3-O ) :   1.0103 B(  2-C ,  9-H ) :   0.9643
B(  2-C , 10-H ) :   0.9747 B(  3-O , 11-H ) :   0.9075

FINAL SINGLE POINT ENERGY      -194.360581307162

DIPOLE MOMENT
-------------

Method             : SCF
Type of density    : Electron Density
Multiplicity       :   1
Irrep              :   0
Energy             :  -194.3688389677624855 Eh
Relativity type    :
Basis              : AO
                                X                 Y                 Z
Electronic contribution:      4.199312053       0.367074149       0.246418895
Nuclear contribution   :     -4.738397878      -0.224537069      -0.699065775
                        -----------------------------------------
Total Dipole Moment    :     -0.539085825       0.142537081      -0.452646879
                        -----------------------------------------
Magnitude (a.u.)       :      0.718205780
Magnitude (Debye)      :      1.825534016

Rotational constants in cm-1:             0.865224             0.125514             0.117760
Rotational constants in MHz :         25938.764384          3762.810463          3530.346673

                             ****ORCA TERMINATED NORMALLY****
TOTAL RUN TIME: 0 days 0 hours 0 minutes 39 seconds 696 msec
