                         Program Version 6.0.0  -   RELEASE  -
|  1> ! wb97x-v def2-tzvp def2/J RIJCOSX DEFGRID2 scfconv7 GCP(DFT/TZ) printgap
|  2> %output
|  3>     printlevel normal
|  4> end
|  5> %cpcm
|  6>     smd true
|  7>     smdsolvent "water"
|  8> end
|  9> * xyz 0 1
| 10> C -1.9551118337677398 -0.14795286726479637 -0.008025883645068158
| 11> C -0.586269770459785 0.5273073284521025 0.029426984830930196
| 12> C 0.5383172746250006 -0.49285701536223203 -0.02009879156636955
| 13> O 1.8441173217086952 0.11668377585817567 0.047492642318080106
| 14> H -2.7597366042044085 0.5923391091933286 0.01797296828065044
| 15> H -2.0763457314890856 -0.7428172437366274 -0.9196688118029113
| 16> H -2.086418056155454 -0.8167687210001081 0.8493658689773718
| 17> H -0.4844736185071497 1.1265491717301543 0.9421765113009881
| 18> H -0.48341399418389763 1.2120927200101017 -0.8225362384851931
| 19> H 0.480843131098236 -1.1663661206987097 0.8417864095502232
| 20> H 0.4559463722053294 -1.1037585994894143 -0.9311110104202911
| 21> H 1.9239444050081722 0.6976913290570491 -0.7202257048580943
| 22> *
| 23>
| 24>                          ****END OF INPUT****

CARTESIAN COORDINATES (ANGSTROEM)
---------------------------------
  C     -1.955112   -0.147953   -0.008026
  C     -0.586270    0.527307    0.029427
  C      0.538317   -0.492857   -0.020099
  O      1.844117    0.116684    0.047493
  H     -2.759737    0.592339    0.017973
  H     -2.076346   -0.742817   -0.919669
  H     -2.086418   -0.816769    0.849366
  H     -0.484474    1.126549    0.942177
  H     -0.483414    1.212093   -0.822536
  H      0.480843   -1.166366    0.841786
  H      0.455946   -1.103759   -0.931111
  H      1.923944    0.697691   -0.720226

 Total Charge           Charge          ....    0
 Multiplicity           Mult            ....    1
 Number of Electrons    NEL             ....   34
 Basis Dimension        Dim             ....  172

ORBITAL ENERGIES
----------------

  NO   OCC          E(Eh)            E(eV)
   0   2.0000     -21.671127      -589.7014
   1   2.0000     -12.082398      -328.7788
   2   2.0000     -12.033989      -327.4615
   3   2.0000     -12.027870      -327.2950
   4   2.0000      -1.668737       -45.4086
   5   2.0000      -1.284403       -34.9504
   6   2.0000      -1.182940       -32.1894
   7   2.0000      -1.085758       -29.5450
   8   2.0000      -1.011405       -27.5217
   9   2.0000      -0.954360       -25.9694
  10   2.0000      -0.925821       -25.1929
  11   2.0000      -0.871797       -23.7228
  12   2.0000      -0.831376       -22.6229
  13   2.0000      -0.814459       -22.1625
  14   2.0000      -0.800108       -21.7720
  15   2.0000      -0.764844       -20.8125
  16   2.0000      -0.744954       -20.2712
  17   0.0000      -0.140889        -3.8338
  18   0.0000      -0.027109        -0.7377
  19   0.0000       0.003685         0.1003
  20   0.0000       0.020030         0.5450
  21   0.0000       0.026023         0.7081

MULLIKEN ATOMIC CHARGES
-----------------------
   0 C :   -0.399101
   1 C :   -0.173264
   2 C :   -0.023996
   3 O :   -0.563761
   4 H :    0.131521
   5 H :    0.122586
   6 H :    0.122919
   7 H :    0.099829
   8 H :    0.104659
   9 H :    0.116577
  10 H :    0.104085
  11 H :    0.357947
Sum of atomic charges:    0.0000000

LOEWDIN ATOMIC CHARGES
----------------------
   0 C :   -0.310268
   1 C :   -0.304894
   2 C :   -0.332757
   3 O :   -0.110838
   4 H :    0.119950
   5 H :    0.119684
   6 H :    0.119994
   7 H :    0.132171
   8 H :    0.133954
   9 H :    0.126872
  10 H :    0.119027
  11 H :    0.187106

  Mayer bond orders larger than 0.100000
B(  0-C ,  1-C ) :   0.9760 B(  0-C ,  4-H ) :   0.9754 B(  0-C ,  5-H ) :   0.9762
B(  0-C ,  6-H ) :   0.9770 B(  1-C ,  2-C ) :   0.9945 B(  1-C ,  7-H ) :   0.9642
B(  1-C ,  8-H ) :   0.9677 B(  2-C ,  3-O ) :   0.9675 B(  2-C ,  9-H ) :   0.9644
B(  2-C , 10-H ) :   0.9769 B(  3-O , 11-H ) :   0.8697

FINAL SINGLE POINT ENERGY      -194.368419764319

DIPOLE MOMENT
-------------

Method             : SCF
Type of density    : Electron Density
Multiplicity       :   1
Irrep              :   0
Energy             :  -194.3766774249188813 Eh
Relativity type    :
Basis              : AO
                                X                 Y                 Z
Electronic contribution:      4.039994097       0.400391983       0.057632498
Nuclear contribution   :     -4.738397878      -0.224537069      -0.699065775
                        -----------------------------------------
Total Dipole Moment    :     -0.698403781       0.175854914      -0.641433277
                        -----------------------------------------
Magnitude (a.u.)       :      0.964432186
Magnitude (Debye)      :      2.451391801

Rotational constants in cm-1:             0.865224             0.125514             0.117760
Rotational constants in MHz :         25938.764384          3762.810463          3530.346673

                             ****ORCA TERMINATED NORMALLY****
TOTAL RUN TIME: 0 days 0 hours 0 minutes 44 seconds 222 msec
