                         Program Version 6.0.0  -   RELEASE  -
|  1> ! wb97x-v def2-tzvp def2/J RIJCOSX DEFGRID2 scfconv7 GCP(DFT/TZ) printgap
|  2> %output
|  3>     printlevel normal
|  4> end
|  5> * xyz 0 1
|  6> C 3.3816148496907306 -0.05270643870721717 0.15775050478220878
|  7> N 1.9429951012205338 -0.2782006275850644 0.27806379506982504
|  8> C 1.516716749843332 -1.4151895929216336 1.1053685911599074
|  9> C 1.0604971302236532 0.5151488352522566 -0.353041166389049
| 10> O 1.38385676680373 1.481903970366374 -1.0743057467866475
| 11> C -0.3930822167043787 0.19832919426692017 -0.1629308770163537
| 12> C -1.0555166977899375 -0.5998571400614565 -1.0967871003229952
| 13> C -2.4216943791937737 -0.8321247233679112 -0.964176356655657
| 14> C -3.127743089977851 -0.2672928211456969 0.09605922394328512
| 15> C -2.4652250443941712 0.5316089262082061 1.0258457187222985
| 16> C -1.098482193008235 0.7647781408689225 0.8996733852677854
| 17> H 3.567447221591918 0.8189793452833374 -0.46844087367442977
| 18> H 3.862547538743021 -0.9277370296187368 -0.2924722345355457
| 19> H 3.817810018390088 0.11628398377644375 1.1479990938402642
| 20> H 0.9212268672561197 -1.0855633721702707 1.9616603793752159
| 21> H 2.4105948006291875 -1.915634981240897 1.4801557597927653
| 22> H 0.9364162586976154 -2.1361190105524916 0.5223978398490636
| 23> H -0.5002621547449454 -1.0388160441767247 -1.9205844550196354
| 24> H -2.9348380832456122 -1.455175877664918 -1.689947333357475
| 25> H -4.193105198143884 -0.4487521662312144 0.19722179685291502
| 26> H -3.012774843958093 0.9739145041585984 1.8521671540327387
| 27> H -0.5779043811368323 1.3843304454775924 1.6241271681831455
| 28> *
| 29>
| 30>                          ****END OF INPUT****

CARTESIAN COORDINATES (ANGSTROEM)
---------------------------------
  C      3.381615   -0.052706    0.157751
  N      1.942995   -0.278201    0.278064
  C      1.516717   -1.415190    1.105369
  C      1.060497    0.515149   -0.353041
  O      1.383857    1.481904   -1.074306
  C     -0.393082    0.198329   -0.162931
  C     -1.055517   -0.599857   -1.096787
  C     -2.421694   -0.832125   -0.964176
  C     -3.127743   -0.267293    0.096059
  C     -2.465225    0.531609    1.025846
  C     -1.098482    0.764778    0.899673
  H      3.567447    0.818979   -0.468441
  H      3.862548   -0.927737   -0.292472
  H      3.817810    0.116284    1.147999
  H      0.921227   -1.085563    1.961660
  H      2.410595   -1.915635    1.480156
  H      0.936416   -2.136119    0.522398
  H     -0.500262   -1.038816   -1.920584
  H     -2.934838   -1.455176   -1.689947
  H     -4.193105   -0.448752    0.197222
  H     -3.012775    0.973915    1.852167
  H     -0.577904    1.384330    1.624127

 Total Charge           Charge          ....    0
 Multiplicity           Mult            ....    1
 Number of Electrons    NEL             ....   80
 Basis Dimension        Dim             ....  407

ORBITAL ENERGIES
----------------

  NO   OCC          E(Eh)            E(eV)
   0   2.0000     -21.625032      -588.4470
   1   2.0000     -16.563902      -450.7267
   2   2.0000     -12.145642      -330.4997
   3   2.0000     -12.089502      -328.9721
   4   2.0000     -12.079196      -328.6916
   5   2.0000     -12.066505      -328.3463
   6   2.0000     -12.060864      -328.1928
   7   2.0000     -12.060306      -328.1776
   8   2.0000     -12.059076      -328.1441
   9   2.0000     -12.058358      -328.1246
  10   2.0000     -12.056544      -328.0752
  11   2.0000      -1.671173       -45.4749
  12   2.0000      -1.532755       -41.7084
  13   2.0000      -1.392625       -37.8953
  14   2.0000      -1.299243       -35.3542
  15   2.0000      -1.281235       -34.8642
  16   2.0000      -1.242364       -33.8064
  17   2.0000      -1.237476       -33.6734
  18   2.0000      -1.132612       -30.8199
  19   2.0000      -1.115027       -30.3414
  20   2.0000      -1.062839       -28.9213
  21   2.0000      -1.018365       -27.7111
  22   2.0000      -1.008257       -27.4361
  23   2.0000      -0.963346       -26.2140
  24   2.0000      -0.959031       -26.0966
  25   2.0000      -0.930811       -25.3287
  26   2.0000      -0.927503       -25.2386
  27   2.0000      -0.901899       -24.5419
  28   2.0000      -0.882664       -24.0185
  29   2.0000      -0.866959       -23.5912
  30   2.0000      -0.857720       -23.3398
  31   2.0000      -0.846474       -23.0337
  32   2.0000      -0.844264       -22.9736
  33   2.0000      -0.829837       -22.5810
  34   2.0000      -0.814967       -22.1764
  35   2.0000      -0.811234       -22.0748
  36   2.0000      -0.778864       -21.1940
  37   2.0000      -0.741218       -20.1696
  38   2.0000      -0.651366       -17.7246
  39   2.0000      -0.646099       -17.5812
  40   0.0000      -0.285739        -7.7754
  41   0.0000      -0.256521        -6.9803
  42   0.0000      -0.243970        -6.6388
  43   0.0000      -0.132229        -3.5981
  44   0.0000      -0.100779        -2.7423

MULLIKEN ATOMIC CHARGES
-----------------------
   0 C :   -0.306197
   1 N :   -0.068002
   2 C :   -0.285859
   3 C :    0.185498
   4 O :   -0.403447
   5 C :    0.211979
   6 C :   -0.217652
   7 C :   -0.105629
   8 C :   -0.131578
   9 C :   -0.105554
  10 C :   -0.223394
  11 H :    0.169298
  12 H :    0.124753
  13 H :    0.124573
  14 H :    0.134849
  15 H :    0.137278
  16 H :    0.137153
  17 H :    0.129128
  18 H :    0.120647
  19 H :    0.120365
  20 H :    0.120613
  21 H :    0.131178
Sum of atomic charges:    0.0000000

LOEWDIN ATOMIC CHARGES
----------------------
   0 C :   -0.274879
   1 N :    0.161167
   2 C :   -0.266016
   3 C :   -0.382455
   4 O :    0.029352
   5 C :   -0.104440
   6 C :   -0.099597
   7 C :   -0.134038
   8 C :   -0.137678
   9 C :   -0.134389
  10 C :   -0.101393
  11 H :    0.131314
  12 H :    0.113524
  13 H :    0.113548
  14 H :    0.118449
  15 H :    0.121478
  16 H :    0.119615
  17 H :    0.149530
  18 H :    0.142890
  19 H :    0.142165
  20 H :    0.142825
  21 H :    0.149026

  Mayer bond orders larger than 0.100000
B(  0-C ,  1-N ) :   0.9207 B(  0-C , 11-H ) :   0.9669 B(  0-C , 12-H ) :   0.9749
B(  0-C , 13-H ) :   0.9740 B(  1-N ,  2-C ) :   0.9231 B(  1-N ,  3-C ) :   1.2975
B(  2-C , 14-H ) :   0.9735 B(  2-C , 15-H ) :   0.9731 B(  2-C , 16-H ) :   0.9730
B(  3-C ,  4-O ) :   2.0585 B(  3-C ,  5-C ) :   0.8675 B(  5-C ,  6-C ) :   1.3932
B(  5-C , 10-C ) :   1.3828 B(  6-C ,  7-C ) :   1.4361 B(  6-C , 17-H ) :   0.9720
B(  7-C ,  8-C ) :   1.4191 B(  7-C , 18-H ) :   0.9751 B(  8-C ,  9-C ) :   1.4213
B(  8-C , 19-H ) :   0.9720 B(  9-C , 10-C ) :   1.4391 B(  9-C , 20-H ) :   0.9746
B( 10-C , 21-H ) :   0.9696

FINAL SINGLE POINT ENERGY      -479.584051202769

DIPOLE MOMENT
-------------

Method             : SCF
Type of density    : Electron Density
Multiplicity       :   1
Irrep              :   0
Energy             :  -479.5968993201690296 Eh
Relativity type    :
Basis              : AO
                                X                 Y                 Z
Electronic contribution:     -4.171021445       4.012818545      -3.149407415
Nuclear contribution   :      4.173427002      -5.351150463       4.150754917
                        -----------------------------------------
Total Dipole Moment    :      0.002405556      -1.338331918       1.001347502
                        -----------------------------------------
Magnitude (a.u.)       :      1.671476870
Magnitude (Debye)      :      4.248556566

Rotational constants in cm-1:             0.080307             0.023074             0.022233
Rotational constants in MHz :          2407.543245           691.735335           666.524687

                             ****ORCA TERMINATED NORMALLY****
TOTAL RUN TIME: 0 days 0 hours 5 minutes 40 seconds 234 msec
