                         Program Version 6.0.0  -   RELEASE  -
|  1> ! wb97x-v def2-tzvp def2/J RIJCOSX DEFGRID2 scfconv7 GCP(DFT/TZ) printgap
|  2> %output
|  3>     printlevel normal
|  4> end
|  5> %cpcm
|  6>     smd true
|  7>     smdsolvent "water"
|  8> end
|  9> * xyz 0 1
| 10> C 3.3816148496907306 -0.05270643870721717 0.15775050478220878
| 11> N 1.9429951012205338 -0.2782006275850644 0.27806379506982504
| 12> C 1.516716749843332 -1.4151895929216336 1.1053685911599074
| 13> C 1.0604971302236532 0.5151488352522566 -0.353041166389049
| 14> O 1.38385676680373 1.481903970366374 -1.0743057467866475
| 15> C -0.3930822167043787 0.19832919426692017 -0.1629308770163537
| 16> C -1.0555166977899375 -0.5998571400614565 -1.0967871003229952
| 17> C -2.4216943791937737 -0.8321247233679112 -0.964176356655657
| 18> C -3.127743089977851 -0.2672928211456969 0.09605922394328512
| 19> C -2.4652250443941712 0.5316089262082061 1.0258457187222985
| 20> C -1.098482193008235 0.7647781408689225 0.8996733852677854
| 21> H 3.567447221591918 0.8189793452833374 -0.46844087367442977
| 22> H 3.862547538743021 -0.9277370296187368 -0.2924722345355457
| 23> H 3.817810018390088 0.11628398377644375 1.1479990938402642
| 24> H 0.9212268672561197 -1.0855633721702707 1.9616603793752159
| 25> H 2.4105948006291875 -1.915634981240897 1.4801557597927653
| 26> H 0.9364162586976154 -2.1361190105524916 0.5223978398490636
| 27> H -0.5002621547449454 -1.0388160441767247 -1.9205844550196354
| 28> H -2.9348380832456122 -1.455175877664918 -1.689947333357475
| 29> H -4.193105198143884 -0.4487521662312144 0.19722179685291502
| 30> H -3.012774843958093 0.9739145041585984 1.8521671540327387
| 31> H -0.5779043811368323 1.3843304454775924 1.6241271681831455
| 32> *
| 33>
| 34>                          ****END OF INPUT****

CARTESIAN COORDINATES (ANGSTROEM)
---------------------------------
  C      3.381615   -0.052706    0.157751
  N      1.942995   -0.278201    0.278064
  C      1.516717   -1.415190    1.105369
  C      1.060497    0.515149   -0.353041
  O      1.383857    1.481904   -1.074306
  C     -0.393082    0.198329   -0.162931
  C     -1.055517   -0.599857   -1.096787
  C     -2.421694   -0.832125   -0.964176
  C     -3.127743   -0.267293    0.096059
  C     -2.465225    0.531609    1.025846
  C     -1.098482    0.764778    0.899673
  H      3.567447    0.818979   -0.468441
  H      3.862548   -0.927737   -0.292472
  H      3.817810    0.116284    1.147999
  H      0.921227   -1.085563    1.961660
  H      2.410595   -1.915635    1.480156
  H      0.936416   -2.136119    0.522398
  H     -0.500262   -1.038816   -1.920584
  H     -2.934838   -1.455176   -1.689947
  H     -4.193105   -0.448752    0.197222
  H     -3.012775    0.973915    1.852167
  H     -0.577904    1.384330    1.624127

 Total Charge           Charge          ....    0
 Multiplicity           Mult            ....    1
 Number of Electrons    NEL             ....   80
 Basis Dimension        Dim             ....  407

ORBITAL ENERGIES
----------------

  NO   OCC          E(Eh)            E(eV)
   0   2.0000     -21.644792      -588.9847
   1   2.0000     -16.566171      -450.7884
   2   2.0000     -12.158218      -330.8419
   3   2.0000     -12.071245      -328.4753
   4   2.0000     -12.068186      -328.3920
   5   2.0000     -12.066774      -328.3536
   6   2.0000     -12.057381      -328.0980
   7   2.0000     -12.056785      -328.0818
   8   2.0000     -12.054526      -328.0203
   9   2.0000     -12.053528      -327.9932
  10   2.0000     -12.051665      -327.9425
  11   2.0000      -1.693749       -46.0893
  12   2.0000      -1.532452       -41.7001
  13   2.0000      -1.391201       -37.8565
  14   2.0000      -1.298297       -35.3285
  15   2.0000      -1.278060       -34.7778
  16   2.0000      -1.234362       -33.5887
  17   2.0000      -1.231287       -33.5050
  18   2.0000      -1.131832       -30.7987
  19   2.0000      -1.111386       -30.2424
  20   2.0000      -1.071377       -29.1537
  21   2.0000      -1.020520       -27.7698
  22   2.0000      -1.012456       -27.5503
  23   2.0000      -0.961756       -26.1707
  24   2.0000      -0.953226       -25.9386
  25   2.0000      -0.926724       -25.2174
  26   2.0000      -0.926137       -25.2015
  27   2.0000      -0.898722       -24.4555
  28   2.0000      -0.882853       -24.0236
  29   2.0000      -0.876821       -23.8595
  30   2.0000      -0.861201       -23.4345
  31   2.0000      -0.838586       -22.8191
  32   2.0000      -0.828830       -22.5536
  33   2.0000      -0.818489       -22.2722
  34   2.0000      -0.813463       -22.1355
  35   2.0000      -0.809590       -22.0301
  36   2.0000      -0.778462       -21.1830
  37   2.0000      -0.737076       -20.0569
  38   2.0000      -0.651192       -17.7198
  39   2.0000      -0.644050       -17.5255
  40   0.0000      -0.292458        -7.9582
  41   0.0000      -0.255832        -6.9615
  42   0.0000      -0.241465        -6.5706
  43   0.0000      -0.123627        -3.3641
  44   0.0000      -0.095800        -2.6068

MULLIKEN ATOMIC CHARGES
-----------------------
   0 C :   -0.321446
   1 N :   -0.044008
   2 C :   -0.320155
   3 C :    0.276768
   4 O :   -0.569508
   5 C :    0.161955
   6 C :   -0.242445
   7 C :   -0.148917
   8 C :   -0.171068
   9 C :   -0.147518
  10 C :   -0.244975
  11 H :    0.149533
  12 H :    0.155117
  13 H :    0.155227
  14 H :    0.155650
  15 H :    0.168631
  16 H :    0.156169
  17 H :    0.168632
  18 H :    0.163889
  19 H :    0.164085
  20 H :    0.164057
  21 H :    0.170326
Sum of atomic charges:    0.0000000

LOEWDIN ATOMIC CHARGES
----------------------
   0 C :   -0.268702
   1 N :    0.179328
   2 C :   -0.254809
   3 C :   -0.373704
   4 O :   -0.067296
   5 C :   -0.119858
   6 C :   -0.103538
   7 C :   -0.139543
   8 C :   -0.141682
   9 C :   -0.139506
  10 C :   -0.103628
  11 H :    0.124198
  12 H :    0.124288
  13 H :    0.124467
  14 H :    0.124916
  15 H :    0.131916
  16 H :    0.125577
  17 H :    0.159398
  18 H :    0.153168
  19 H :    0.152320
  20 H :    0.153169
  21 H :    0.159523

  Mayer bond orders larger than 0.100000
B(  0-C ,  1-N ) :   0.9118 B(  0-C , 11-H ) :   0.9674 B(  0-C , 12-H ) :   0.9685
B(  0-C , 13-H ) :   0.9677 B(  1-N ,  2-C ) :   0.9069 B(  1-N ,  3-C ) :   1.3729
B(  2-C , 14-H ) :   0.9679 B(  2-C , 15-H ) :   0.9661 B(  2-C , 16-H ) :   0.9672
B(  3-C ,  4-O ) :   1.8611 B(  3-C ,  5-C ) :   0.8901 B(  5-C ,  6-C ) :   1.3623
B(  5-C , 10-C ) :   1.3566 B(  6-C ,  7-C ) :   1.4196 B(  6-C , 17-H ) :   0.9768
B(  7-C ,  8-C ) :   1.3963 B(  7-C , 18-H ) :   0.9783 B(  8-C ,  9-C ) :   1.3972
B(  8-C , 19-H ) :   0.9736 B(  9-C , 10-C ) :   1.4200 B(  9-C , 20-H ) :   0.9776
B( 10-C , 21-H ) :   0.9758

FINAL SINGLE POINT ENERGY      -479.599105082212

DIPOLE MOMENT
-------------

Method             : SCF
Type of density    : Electron Density
Multiplicity       :   1
Irrep              :   0
Energy             :  -479.6119531996120600 Eh
Relativity type    :
Basis              : AO
                                X                 Y                 Z
Electronic contribution:     -4.156868893       3.316829140      -2.618625817
Nuclear contribution   :      4.173427002      -5.351150463       4.150754917
                        -----------------------------------------
Total Dipole Moment    :      0.016558109      -2.034321323       1.532129100
                        -----------------------------------------
Magnitude (a.u.)       :      2.546793473
Magnitude (Debye)      :      6.473434556

Rotational constants in cm-1:             0.080307             0.023074             0.022233
Rotational constants in MHz :          2407.543245           691.735335           666.524687

                             ****ORCA TERMINATED NORMALLY****
TOTAL RUN TIME: 0 days 0 hours 5 minutes 46 seconds 201 msec
