                         Program Version 6.0.0  -   RELEASE  -
|  1> ! wb97x-v def2-tzvp def2/J RIJCOSX DEFGRID2 scfconv7 GCP(DFT/TZ) printgap
|  2> %output
|  3>     printlevel normal
|  4> end
|  5> * xyz 0 1
|  6> C -2.2246531858750704 -0.04774234749321794 -0.06694809334546258
|  7> C -0.7684854904675225 -0.04782419618609799 0.3730354573502093
|  8> C 0.08105092236079058 -1.1771292340429527 -0.22198186890368593
|  9> C 1.5134184630732321 -0.7376254414320405 0.0936138798605332
| 10> C 1.4999009490367359 0.7941329738505751 -0.1285008863430772
| 11> C 0.008942191475140882 1.2164532651899351 -0.04362197463287895
| 12> H -2.295257554400232 0.016101974995386202 -1.159637351536173
| 13> H -2.7394578854651592 -0.9611254817353968 0.2514155981946087
| 14> H -2.769016246536104 0.8053354985952448 0.3538482403182727
| 15> H -0.7247117234340011 -0.13946869159920583 1.468051869293067
| 16> H -0.17006800438424804 -2.1626119498129475 0.18493968380041284
| 17> H -0.07595857940533791 -1.2101567231424692 -1.3095840771269833
| 18> H 1.7363023143623426 -0.9638478393135478 1.1430282764094768
| 19> H 2.266165627454119 -1.2453760825496456 -0.5174180174374853
| 20> H 2.116695925150893 1.3098412712910967 0.6129353495883912
| 21> H 1.9101165442790207 1.0420259596980548 -1.1120732150021273
| 22> H -0.15715445428775573 2.0450650754441 0.6514811998369041
| 23> H -0.34884164083087993 1.5442703213610118 -1.0270276590516776
| 24> *
| 25>
| 26>                          ****END OF INPUT****

CARTESIAN COORDINATES (ANGSTROEM)
---------------------------------
  C     -2.224653   -0.047742   -0.066948
  C     -0.768485   -0.047824    0.373035
  C      0.081051   -1.177129   -0.221982
  C      1.513418   -0.737625    0.093614
  C      1.499901    0.794133   -0.128501
  C      0.008942    1.216453   -0.043622
  H     -2.295258    0.016102   -1.159637
  H     -2.739458   -0.961125    0.251416
  H     -2.769016    0.805335    0.353848
  H     -0.724712   -0.139469    1.468052
  H     -0.170068   -2.162612    0.184940
  H     -0.075959   -1.210157   -1.309584
  H      1.736302   -0.963848    1.143028
  H      2.266166   -1.245376   -0.517418
  H      2.116696    1.309841    0.612935
  H      1.910117    1.042026   -1.112073
  H     -0.157154    2.045065    0.651481
  H     -0.348842    1.544270   -1.027028

 Total Charge           Charge          ....    0
 Multiplicity           Mult            ....    1
 Number of Electrons    NEL             ....   48
 Basis Dimension        Dim             ....  258

ORBITAL ENERGIES
----------------

  NO   OCC          E(Eh)            E(eV)
   0   2.0000     -12.041352      -327.6618
   1   2.0000     -12.035371      -327.4991
   2   2.0000     -12.034599      -327.4781
   3   2.0000     -12.032949      -327.4332
   4   2.0000     -12.032877      -327.4312
   5   2.0000     -12.030202      -327.3584
   6   2.0000      -1.344652       -36.5898
   7   2.0000      -1.243227       -33.8299
   8   2.0000      -1.204650       -32.7802
   9   2.0000      -1.144730       -31.1497
  10   2.0000      -1.037643       -28.2357
  11   2.0000      -1.019402       -27.7393
  12   2.0000      -0.911351       -24.7991
  13   2.0000      -0.898198       -24.4412
  14   2.0000      -0.857021       -23.3207
  15   2.0000      -0.845916       -23.0186
  16   2.0000      -0.824951       -22.4481
  17   2.0000      -0.802616       -21.8403
  18   2.0000      -0.784664       -21.3518
  19   2.0000      -0.781799       -21.2738
  20   2.0000      -0.777104       -21.1461
  21   2.0000      -0.756476       -20.5848
  22   2.0000      -0.741149       -20.1677
  23   2.0000      -0.735690       -20.0192
  24   0.0000      -0.048061        -1.3078
  25   0.0000      -0.045460        -1.2370
  26   0.0000      -0.029762        -0.8099
  27   0.0000      -0.021843        -0.5944
  28   0.0000       0.010734         0.2921

MULLIKEN ATOMIC CHARGES
-----------------------
   0 C :   -0.343126
   1 C :   -0.023574
   2 C :   -0.181681
   3 C :   -0.176950
   4 C :   -0.173649
   5 C :   -0.212803
   6 H :    0.101123
   7 H :    0.109319
   8 H :    0.111578
   9 H :    0.062895
  10 H :    0.095230
  11 H :    0.081070
  12 H :    0.086002
  13 H :    0.098678
  14 H :    0.090717
  15 H :    0.089728
  16 H :    0.096832
  17 H :    0.088613
Sum of atomic charges:   -0.0000000

LOEWDIN ATOMIC CHARGES
----------------------
   0 C :   -0.285900
   1 C :   -0.280962
   2 C :   -0.235206
   3 C :   -0.253235
   4 C :   -0.244892
   5 C :   -0.227020
   6 H :    0.117743
   7 H :    0.117689
   8 H :    0.118472
   9 H :    0.146156
  10 H :    0.127437
  11 H :    0.133757
  12 H :    0.129975
  13 H :    0.125081
  14 H :    0.125476
  15 H :    0.127255
  16 H :    0.126702
  17 H :    0.131470

  Mayer bond orders larger than 0.100000
B(  0-C ,  1-C ) :   0.9737 B(  0-C ,  6-H ) :   0.9735 B(  0-C ,  7-H ) :   0.9839
B(  0-C ,  8-H ) :   0.9860 B(  1-C ,  2-C ) :   0.9819 B(  1-C ,  5-C ) :   0.9869
B(  1-C ,  9-H ) :   0.9695 B(  2-C ,  3-C ) :   0.9927 B(  2-C , 10-H ) :   0.9693
B(  2-C , 11-H ) :   0.9694 B(  3-C ,  4-C ) :   0.9978 B(  3-C , 12-H ) :   0.9735
B(  3-C , 13-H ) :   0.9743 B(  4-C ,  5-C ) :   0.9947 B(  4-C , 14-H ) :   0.9743
B(  4-C , 15-H ) :   0.9786 B(  5-C , 16-H ) :   0.9719 B(  5-C , 17-H ) :   0.9718

FINAL SINGLE POINT ENERGY      -235.879802814454

DIPOLE MOMENT
-------------

Method             : SCF
Type of density    : Electron Density
Multiplicity       :   1
Irrep              :   0
Energy             :  -235.8921667519543632 Eh
Relativity type    :
Basis              : AO
                                X                 Y                 Z
Electronic contribution:      1.189280612      -0.073397953       0.415829698
Nuclear contribution   :     -1.182140234       0.063884167      -0.378559978
                        -----------------------------------------
Total Dipole Moment    :      0.007140379      -0.009513785       0.037269720
                        -----------------------------------------
Magnitude (a.u.)       :      0.039121978
Magnitude (Debye)      :      0.099440165

Rotational constants in cm-1:             0.207941             0.098158             0.074188
Rotational constants in MHz :          6233.908677          2942.710067          2224.104244

                             ****ORCA TERMINATED NORMALLY****
TOTAL RUN TIME: 0 days 0 hours 1 minutes 17 seconds 403 msec
