                         Program Version 6.0.0  -   RELEASE  -
|  1> ! wb97x-v def2-tzvp def2/J RIJCOSX DEFGRID2 scfconv7 GCP(DFT/TZ) printgap
|  2> %output
|  3>     printlevel normal
|  4> end
|  5> %cpcm
|  6>     smd true
|  7>     smdsolvent "water"
|  8> end
|  9> * xyz 0 1
| 10> C -2.2246531858750704 -0.04774234749321794 -0.06694809334546258
| 11> C -0.7684854904675225 -0.04782419618609799 0.3730354573502093
| 12> C 0.08105092236079058 -1.1771292340429527 -0.22198186890368593
| 13> C 1.5134184630732321 -0.7376254414320405 0.0936138798605332
| 14> C 1.4999009490367359 0.7941329738505751 -0.1285008863430772
| 15> C 0.008942191475140882 1.2164532651899351 -0.04362197463287895
| 16> H -2.295257554400232 0.016101974995386202 -1.159637351536173
| 17> H -2.7394578854651592 -0.9611254817353968 0.2514155981946087
| 18> H -2.769016246536104 0.8053354985952448 0.3538482403182727
| 19> H -0.7247117234340011 -0.13946869159920583 1.468051869293067
| 20> H -0.17006800438424804 -2.1626119498129475 0.18493968380041284
| 21> H -0.07595857940533791 -1.2101567231424692 -1.3095840771269833
| 22> H 1.7363023143623426 -0.9638478393135478 1.1430282764094768
| 23> H 2.266165627454119 -1.2453760825496456 -0.5174180174374853
| 24> H 2.116695925150893 1.3098412712910967 0.6129353495883912
| 25> H 1.9101165442790207 1.0420259596980548 -1.1120732150021273
| 26> H -0.15715445428775573 2.0450650754441 0.6514811998369041
| 27> H -0.34884164083087993 1.5442703213610118 -1.0270276590516776
| 28> *
| 29>
| 30>                          ****END OF INPUT****

CARTESIAN COORDINATES (ANGSTROEM)
---------------------------------
  C     -2.224653   -0.047742   -0.066948
  C     -0.768485   -0.047824    0.373035
  C      0.081051   -1.177129   -0.221982
  C      1.513418   -0.737625    0.093614
  C      1.499901    0.794133   -0.128501
  C      0.008942    1.216453   -0.043622
  H     -2.295258    0.016102   -1.159637
  H     -2.739458   -0.961125    0.251416
  H     -2.769016    0.805335    0.353848
  H     -0.724712   -0.139469    1.468052
  H     -0.170068   -2.162612    0.184940
  H     -0.075959   -1.210157   -1.309584
  H      1.736302   -0.963848    1.143028
  H      2.266166   -1.245376   -0.517418
  H      2.116696    1.309841    0.612935
  H      1.910117    1.042026   -1.112073
  H     -0.157154    2.045065    0.651481
  H     -0.348842    1.544270   -1.027028

 Total Charge           Charge          ....    0
 Multiplicity           Mult            ....    1
 Number of Electrons    NEL             ....   48
 Basis Dimension        Dim             ....  258

ORBITAL ENERGIES
----------------

  NO   OCC          E(Eh)            E(eV)
   0   2.0000     -12.033783      -327.4559
   1   2.0000     -12.028144      -327.3024
   2   2.0000     -12.027295      -327.2793
   3   2.0000     -12.025424      -327.2284
   4   2.0000     -12.025195      -327.2222
   5   2.0000     -12.022704      -327.1544
   6   2.0000      -1.337330       -36.3906
   7   2.0000      -1.236226       -33.6394
   8   2.0000      -1.197576       -32.5877
   9   2.0000      -1.137861       -30.9628
  10   2.0000      -1.030753       -28.0482
  11   2.0000      -1.012182       -27.5429
  12   2.0000      -0.904101       -24.6018
  13   2.0000      -0.891112       -24.2484
  14   2.0000      -0.849757       -23.1231
  15   2.0000      -0.838664       -22.8212
  16   2.0000      -0.817828       -22.2542
  17   2.0000      -0.795465       -21.6457
  18   2.0000      -0.777617       -21.1600
  19   2.0000      -0.774784       -21.0829
  20   2.0000      -0.770049       -20.9541
  21   2.0000      -0.749338       -20.3905
  22   2.0000      -0.733750       -19.9664
  23   2.0000      -0.727979       -19.8093
  24   0.0000      -0.041378        -1.1260
  25   0.0000      -0.038659        -1.0520
  26   0.0000      -0.021707        -0.5907
  27   0.0000      -0.013233        -0.3601
  28   0.0000       0.017735         0.4826

MULLIKEN ATOMIC CHARGES
-----------------------
   0 C :   -0.401019
   1 C :   -0.013092
   2 C :   -0.211078
   3 C :   -0.203963
   4 C :   -0.200323
   5 C :   -0.241504
   6 H :    0.117892
   7 H :    0.124561
   8 H :    0.126029
   9 H :    0.074079
  10 H :    0.108925
  11 H :    0.093804
  12 H :    0.098019
  13 H :    0.112111
  14 H :    0.103652
  15 H :    0.101822
  16 H :    0.110229
  17 H :    0.099856
Sum of atomic charges:   -0.0000000

LOEWDIN ATOMIC CHARGES
----------------------
   0 C :   -0.293349
   1 C :   -0.280923
   2 C :   -0.238685
   3 C :   -0.257369
   4 C :   -0.249103
   5 C :   -0.230429
   6 H :    0.120202
   7 H :    0.119586
   8 H :    0.120281
   9 H :    0.148567
  10 H :    0.129195
  11 H :    0.135861
  12 H :    0.131968
  13 H :    0.126578
  14 H :    0.127044
  15 H :    0.128978
  16 H :    0.128352
  17 H :    0.133247

  Mayer bond orders larger than 0.100000
B(  0-C ,  1-C ) :   0.9613 B(  0-C ,  6-H ) :   0.9733 B(  0-C ,  7-H ) :   0.9818
B(  0-C ,  8-H ) :   0.9833 B(  1-C ,  2-C ) :   0.9808 B(  1-C ,  5-C ) :   0.9857
B(  1-C ,  9-H ) :   0.9691 B(  2-C ,  3-C ) :   0.9935 B(  2-C , 10-H ) :   0.9669
B(  2-C , 11-H ) :   0.9689 B(  3-C ,  4-C ) :   0.9964 B(  3-C , 12-H ) :   0.9721
B(  3-C , 13-H ) :   0.9718 B(  4-C ,  5-C ) :   0.9938 B(  4-C , 14-H ) :   0.9727
B(  4-C , 15-H ) :   0.9768 B(  5-C , 16-H ) :   0.9700 B(  5-C , 17-H ) :   0.9713

FINAL SINGLE POINT ENERGY      -235.877459525527

DIPOLE MOMENT
-------------

Method             : SCF
Type of density    : Electron Density
Multiplicity       :   1
Irrep              :   0
Energy             :  -235.8898234630266018 Eh
Relativity type    :
Basis              : AO
                                X                 Y                 Z
Electronic contribution:      1.184354805      -0.076047803       0.422710175
Nuclear contribution   :     -1.182140234       0.063884167      -0.378559978
                        -----------------------------------------
Total Dipole Moment    :      0.002214572      -0.012163635       0.044150196
                        -----------------------------------------
Magnitude (a.u.)       :      0.045848645
Magnitude (Debye)      :      0.116537993

Rotational constants in cm-1:             0.207941             0.098158             0.074188
Rotational constants in MHz :          6233.908677          2942.710067          2224.104244

                             ****ORCA TERMINATED NORMALLY****
TOTAL RUN TIME: 0 days 0 hours 1 minutes 20 seconds 433 msec
