                         Program Version 6.0.0  -   RELEASE  -
|  1> ! pbe def2-sv(p) def2/J RI DEFGRID1 loosescf d4 GCP(DFT/SV(P)) printgap
|  2> %output
|  3>     printlevel normal
|  4> end
|  5> * xyz 0 1
|  6> C -2.3300997141 -0.9720573962 -0.3876046081
|  7> C -0.9655933488 -0.5350852939 0.1652771897
|  8> H -0.913524003 -0.7672541873 1.2425720874
|  9> C -0.7335499923 0.986129443 -0.0046820498
| 10> H -1.3919623491 1.3762023993 -0.7906801209
| 11> C 0.7227967839 1.2535840606 -0.4516256815
| 12> H 0.9536244691 2.3009286277 -0.2278346489
| 13> C 1.6746068107 0.3518212118 0.347310853
| 14> H 2.7005807599 0.4852324716 -0.015547937
| 15> C 1.3080230429 -1.1352163045 0.0941941609
| 16> H 1.2991983112 -1.6511875981 1.0766117299
| 17> O 0.0310242452 -1.2796550604 -0.5074603343
| 18> O 2.2385508225 -1.681061693 -0.7635510793
| 19> O 1.6691295134 0.6569557056 1.7176349021
| 20> O 0.8841150363 1.1082525439 -1.8352391099
| 21> O -0.9437133547 1.6707756402 1.2098297916
| 22> O -3.3858222017 -0.3490520493 0.2989530155
| 23> H -2.3976599985 -2.0630980933 -0.3453551652
| 24> H -2.4060176963 -0.6621895395 -1.4323502782
| 25> H 2.0002026492 -2.597828674 -0.9751775896
| 26> H 0.8208490106 1.0728550857 1.9527555349
| 27> H 0.816734567 0.1687855557 -2.0666767899
| 28> H -1.8941819173 1.7572138221 1.3724957957
| 29> H -3.5593588444 -0.8175319243 1.1274999016
| 30> *
| 31>
| 32>                          ****END OF INPUT****

CARTESIAN COORDINATES (ANGSTROEM)
---------------------------------
  C     -2.330100   -0.972057   -0.387605
  C     -0.965593   -0.535085    0.165277
  H     -0.913524   -0.767254    1.242572
  C     -0.733550    0.986129   -0.004682
  H     -1.391962    1.376202   -0.790680
  C      0.722797    1.253584   -0.451626
  H      0.953624    2.300929   -0.227835
  C      1.674607    0.351821    0.347311
  H      2.700581    0.485232   -0.015548
  C      1.308023   -1.135216    0.094194
  H      1.299198   -1.651188    1.076612
  O      0.031024   -1.279655   -0.507460
  O      2.238551   -1.681062   -0.763551
  O      1.669130    0.656956    1.717635
  O      0.884115    1.108253   -1.835239
  O     -0.943713    1.670776    1.209830
  O     -3.385822   -0.349052    0.298953
  H     -2.397660   -2.063098   -0.345355
  H     -2.406018   -0.662190   -1.432350
  H      2.000203   -2.597829   -0.975178
  H      0.820849    1.072855    1.952756
  H      0.816735    0.168786   -2.066677
  H     -1.894182    1.757214    1.372496
  H     -3.559359   -0.817532    1.127500

 Total Charge           Charge          ....    0
 Multiplicity           Mult            ....    1
 Number of Electrons    NEL             ....   96
 Basis Dimension        Dim             ....  192

ORBITAL ENERGIES
----------------

  NO   OCC          E(Eh)            E(eV)
   0   2.0000     -18.782129      -511.0877
   1   2.0000     -18.774308      -510.8749
   2   2.0000     -18.772865      -510.8356
   3   2.0000     -18.768516      -510.7173
   4   2.0000     -18.743768      -510.0439
   5   2.0000     -18.738402      -509.8978
   6   2.0000      -9.985858      -271.7290
   7   2.0000      -9.951377      -270.7907
   8   2.0000      -9.948458      -270.7113
   9   2.0000      -9.946573      -270.6600
  10   2.0000      -9.940227      -270.4873
  11   2.0000      -9.932497      -270.2770
  12   2.0000      -0.992133       -26.9973
  13   2.0000      -0.952693       -25.9241
  14   2.0000      -0.946250       -25.7488
  15   2.0000      -0.926789       -25.2192
  16   2.0000      -0.921557       -25.0768
  17   2.0000      -0.913370       -24.8541
  18   2.0000      -0.704785       -19.1782
  19   2.0000      -0.683504       -18.5991
  20   2.0000      -0.630679       -17.1616
  21   2.0000      -0.582626       -15.8541
  22   2.0000      -0.574087       -15.6217
  23   2.0000      -0.521356       -14.1868
  24   2.0000      -0.506470       -13.7818
  25   2.0000      -0.499633       -13.5957
  26   2.0000      -0.492784       -13.4093
  27   2.0000      -0.467561       -12.7230
  28   2.0000      -0.464816       -12.6483
  29   2.0000      -0.424521       -11.5518
  30   2.0000      -0.416690       -11.3387
  31   2.0000      -0.405366       -11.0306
  32   2.0000      -0.387328       -10.5397
  33   2.0000      -0.375502       -10.2179
  34   2.0000      -0.360182        -9.8010
  35   2.0000      -0.354243        -9.6394
  36   2.0000      -0.325990        -8.8706
  37   2.0000      -0.325047        -8.8450
  38   2.0000      -0.316062        -8.6005
  39   2.0000      -0.296821        -8.0769
  40   2.0000      -0.291940        -7.9441
  41   2.0000      -0.270751        -7.3675
  42   2.0000      -0.261724        -7.1219
  43   2.0000      -0.252989        -6.8842
  44   2.0000      -0.239560        -6.5188
  45   2.0000      -0.231903        -6.3104
  46   2.0000      -0.208326        -5.6688
  47   2.0000      -0.203678        -5.5424
  48   0.0000      -0.002393        -0.0651
  49   0.0000       0.018223         0.4959
  50   0.0000       0.033062         0.8997
  51   0.0000       0.045907         1.2492
  52   0.0000       0.051512         1.4017

MULLIKEN ATOMIC CHARGES
-----------------------
   0 C :    0.054960
   1 C :    0.011460
   2 H :    0.040166
   3 C :    0.028940
   4 H :    0.076034
   5 C :    0.028473
   6 H :    0.087488
   7 C :    0.038704
   8 H :    0.089922
   9 C :    0.176447
  10 H :    0.055778
  11 O :   -0.321100
  12 O :   -0.375643
  13 O :   -0.428307
  14 O :   -0.415651
  15 O :   -0.420601
  16 O :   -0.436272
  17 H :    0.088717
  18 H :    0.096300
  19 H :    0.305965
  20 H :    0.307639
  21 H :    0.298964
  22 H :    0.307314
  23 H :    0.304301
Sum of atomic charges:   -0.0000000

LOEWDIN ATOMIC CHARGES
----------------------
   0 C :   -0.124547
   1 C :   -0.082884
   2 H :    0.095970
   3 C :   -0.079318
   4 H :    0.113997
   5 C :   -0.069944
   6 H :    0.122776
   7 C :   -0.082639
   8 H :    0.122961
   9 C :   -0.007276
  10 H :    0.086559
  11 O :   -0.166093
  12 O :   -0.287977
  13 O :   -0.321970
  14 O :   -0.310503
  15 O :   -0.314813
  16 O :   -0.330931
  17 H :    0.103435
  18 H :    0.117441
  19 H :    0.289575
  20 H :    0.274268
  21 H :    0.273364
  22 H :    0.288961
  23 H :    0.289590

  Mayer bond orders larger than 0.100000
B(  0-C ,  1-C ) :   1.0240 B(  0-C , 16-O ) :   1.0628 B(  0-C , 17-H ) :   0.9250
B(  0-C , 18-H ) :   0.9148 B(  1-C ,  2-H ) :   0.8647 B(  1-C ,  3-C ) :   0.9731
B(  1-C , 11-O ) :   1.0245 B(  3-C ,  4-H ) :   0.8907 B(  3-C ,  5-C ) :   0.9771
B(  3-C , 15-O ) :   1.0389 B(  5-C ,  6-H ) :   0.8925 B(  5-C ,  7-C ) :   1.0246
B(  5-C , 14-O ) :   1.0664 B(  7-C ,  8-H ) :   0.8921 B(  7-C ,  9-C ) :   0.9298
B(  7-C , 13-O ) :   1.0826 B(  9-C , 10-H ) :   0.8955 B(  9-C , 11-O ) :   0.9784
B(  9-C , 12-O ) :   1.1625 B( 12-O , 19-H ) :   0.8397 B( 13-O , 20-H ) :   0.8101
B( 14-O , 21-H ) :   0.8325 B( 15-O , 22-H ) :   0.8334 B( 16-O , 23-H ) :   0.8497

Dispersion correction           -0.024926139
FINAL SINGLE POINT ENERGY      -685.693570399935

DIPOLE MOMENT
-------------

Method             : SCF
Type of density    : Electron Density
Multiplicity       :   1
Irrep              :   0
Energy             :  -685.8256521073398062 Eh
Relativity type    :
Basis              : AO
                                X                 Y                 Z
Electronic contribution:      2.362291888       0.207902085      -0.427002580
Nuclear contribution   :     -3.718648983      -1.309571978       0.863313581
                        -----------------------------------------
Total Dipole Moment    :     -1.356357095      -1.101669893       0.436311001
                        -----------------------------------------
Magnitude (a.u.)       :      1.801040924
Magnitude (Debye)      :      4.577882220

Rotational constants in cm-1:             0.042743             0.025313             0.021507
Rotational constants in MHz :          1281.396884           758.861588           644.760778

                             ****ORCA TERMINATED NORMALLY****
TOTAL RUN TIME: 0 days 0 hours 0 minutes 11 seconds 927 msec
