                         Program Version 6.0.0  -   RELEASE  -
|  1> ! pbe def2-sv(p) def2/J RI DEFGRID1 loosescf d4 GCP(DFT/SV(P)) printgap
|  2> %output
|  3>     printlevel normal
|  4> end
|  5> * xyz 0 1
|  6> C -1.6060975062 -0.0919779712 0.5076490819
|  7> C -0.6484120715 0.4979229137 -0.5222893222
|  8> C 0.6677213508 -0.2744673155 -0.6261524409
|  9> N 1.5047977792 -0.0474814881 0.5458499217
| 10> H -1.1900100235 -0.0236158112 1.5095827352
| 11> H -2.5481996377 0.4499860452 0.4968113782
| 12> H -1.8089297479 -1.1379074185 0.2850474072
| 13> H -0.4203242516 1.5318255548 -0.2618714376
| 14> H -1.1276836715 0.489554462 -1.5029224558
| 15> H 0.443368165 -1.3426427342 -0.7949785174
| 16> H 1.2257641573 0.0887069563 -1.4942274343
| 17> H 2.3804073305 -0.5473090516 0.4424964777
| 18> H 1.0427503073 -0.4154806188 1.3704951794
| 19> *
| 20>
| 21>                          ****END OF INPUT****

CARTESIAN COORDINATES (ANGSTROEM)
---------------------------------
  C     -1.606098   -0.091978    0.507649
  C     -0.648412    0.497923   -0.522289
  C      0.667721   -0.274467   -0.626152
  N      1.504798   -0.047481    0.545850
  H     -1.190010   -0.023616    1.509583
  H     -2.548200    0.449986    0.496811
  H     -1.808930   -1.137907    0.285047
  H     -0.420324    1.531826   -0.261871
  H     -1.127684    0.489554   -1.502922
  H      0.443368   -1.342643   -0.794979
  H      1.225764    0.088707   -1.494227
  H      2.380407   -0.547309    0.442496
  H      1.042750   -0.415481    1.370495

 Total Charge           Charge          ....    0
 Multiplicity           Mult            ....    1
 Number of Electrons    NEL             ....   34
 Basis Dimension        Dim             ....   74

ORBITAL ENERGIES
----------------

  NO   OCC          E(Eh)            E(eV)
   0   2.0000     -13.953768      -379.7013
   1   2.0000      -9.902468      -269.4598
   2   2.0000      -9.877986      -268.7937
   3   2.0000      -9.873406      -268.6690
   4   2.0000      -0.790322       -21.5058
   5   2.0000      -0.684268       -18.6199
   6   2.0000      -0.591851       -16.1051
   7   2.0000      -0.507886       -13.8203
   8   2.0000      -0.441717       -12.0197
   9   2.0000      -0.418539       -11.3890
  10   2.0000      -0.365361        -9.9420
  11   2.0000      -0.362652        -9.8683
  12   2.0000      -0.357042        -9.7156
  13   2.0000      -0.295487        -8.0406
  14   2.0000      -0.292721        -7.9653
  15   2.0000      -0.286979        -7.8091
  16   2.0000      -0.179119        -4.8741
  17   0.0000       0.031223         0.8496
  18   0.0000       0.066746         1.8163
  19   0.0000       0.073545         2.0012
  20   0.0000       0.087012         2.3677
  21   0.0000       0.112961         3.0738

MULLIKEN ATOMIC CHARGES
-----------------------
   0 C :   -0.297953
   1 C :   -0.179890
   2 C :   -0.076850
   3 N :   -0.466922
   4 H :    0.101083
   5 H :    0.107107
   6 H :    0.095589
   7 H :    0.092676
   8 H :    0.083782
   9 H :    0.059535
  10 H :    0.080064
  11 H :    0.202368
  12 H :    0.199411
Sum of atomic charges:   -0.0000000

LOEWDIN ATOMIC CHARGES
----------------------
   0 C :   -0.345647
   1 C :   -0.243452
   2 C :   -0.176128
   3 N :   -0.420135
   4 H :    0.114359
   5 H :    0.121415
   6 H :    0.115322
   7 H :    0.120161
   8 H :    0.116241
   9 H :    0.085644
  10 H :    0.110180
  11 H :    0.203650
  12 H :    0.198392

  Mayer bond orders larger than 0.100000
B(  0-C ,  1-C ) :   1.1535 B(  0-C ,  4-H ) :   0.9509 B(  0-C ,  5-H ) :   0.9536
B(  0-C ,  6-H ) :   0.9543 B(  1-C ,  2-C ) :   1.1224 B(  1-C ,  7-H ) :   0.9207
B(  1-C ,  8-H ) :   0.9261 B(  2-C ,  3-N ) :   1.1059 B(  2-C ,  9-H ) :   0.9176
B(  2-C , 10-H ) :   0.9307 B(  3-N , 11-H ) :   0.9043 B(  3-N , 12-H ) :   0.9014

Dispersion correction           -0.007370711
FINAL SINGLE POINT ENERGY      -174.031802562884

DIPOLE MOMENT
-------------

Method             : SCF
Type of density    : Electron Density
Multiplicity       :   1
Irrep              :   0
Energy             :  -174.0817375291053111 Eh
Relativity type    :
Basis              : AO
                                X                 Y                 Z
Electronic contribution:      1.850029383       0.354104117      -0.040178804
Nuclear contribution   :     -1.870734126      -0.851072615       0.050321776
                        -----------------------------------------
Total Dipole Moment    :     -0.020704743      -0.496968499       0.010142972
                        -----------------------------------------
Magnitude (a.u.)       :      0.497503020
Magnitude (Debye)      :      1.264552181

Rotational constants in cm-1:             0.482784             0.161844             0.139416
Rotational constants in MHz :         14473.491029          4851.963253          4179.574546

                             ****ORCA TERMINATED NORMALLY****
TOTAL RUN TIME: 0 days 0 hours 0 minutes 4 seconds 990 msec
