                         Program Version 6.0.0  -   RELEASE  -
|  1> ! pbe def2-sv(p) def2/J RI DEFGRID1 loosescf d4 GCP(DFT/SV(P)) printgap
|  2> %output
|  3>     printlevel normal
|  4> end
|  5> * xyz 0 1
|  6> C -3.4387671175 -0.5989372458 -0.1543703134
|  7> O -2.1504043961 -0.3080550108 -0.7028544512
|  8> C -1.237481324 0.2091006254 0.1154921865
|  9> O -1.4605524948 0.4541483072 1.2818170029
| 10> C 0.0828053866 0.397823675 -0.5932132775
| 11> C 0.7369946214 -0.9950393118 -0.7175054531
| 12> C 2.239285055 -0.8381755589 -0.9201338723
| 13> C 2.8941061548 -0.2597137943 0.3408390397
| 14> C 1.9253046849 0.6454730252 1.1106151148
| 15> C 0.9949415515 1.3818709708 0.1530340626
| 16> H -3.9125114378 0.3209515477 0.1902942148
| 17> H -3.3399394897 -1.2840877438 0.6883760599
| 18> H -4.0054833278 -1.0508175981 -0.9620755412
| 19> H -0.1387389266 0.7724009622 -1.5956805688
| 20> H 0.5552829318 -1.573663024 0.1908043912
| 21> H 0.2838524384 -1.5314343723 -1.5512902389
| 22> H 2.6821838305 -1.8053403192 -1.1589806583
| 23> H 2.4098399186 -0.1764873347 -1.7702895846
| 24> H 3.2196748505 -1.068881614 0.9962007266
| 25> H 3.7808060291 0.3081015938 0.0559933777
| 26> H 1.3159192835 0.0578703914 1.7994694884
| 27> H 2.4860558696 1.3658632965 1.7071592992
| 28> H 0.376539776 2.0863475469 0.712440395
| 29> H 1.5895309028 1.9464748723 -0.5652704825
| 30> *
| 31>
| 32>                          ****END OF INPUT****

CARTESIAN COORDINATES (ANGSTROEM)
---------------------------------
  C     -3.438767   -0.598937   -0.154370
  O     -2.150404   -0.308055   -0.702854
  C     -1.237481    0.209101    0.115492
  O     -1.460552    0.454148    1.281817
  C      0.082805    0.397824   -0.593213
  C      0.736995   -0.995039   -0.717505
  C      2.239285   -0.838176   -0.920134
  C      2.894106   -0.259714    0.340839
  C      1.925305    0.645473    1.110615
  C      0.994942    1.381871    0.153034
  H     -3.912511    0.320952    0.190294
  H     -3.339939   -1.284088    0.688376
  H     -4.005483   -1.050818   -0.962076
  H     -0.138739    0.772401   -1.595681
  H      0.555283   -1.573663    0.190804
  H      0.283852   -1.531434   -1.551290
  H      2.682184   -1.805340   -1.158981
  H      2.409840   -0.176487   -1.770290
  H      3.219675   -1.068882    0.996201
  H      3.780806    0.308102    0.055993
  H      1.315919    0.057870    1.799469
  H      2.486056    1.365863    1.707159
  H      0.376540    2.086348    0.712440
  H      1.589531    1.946475   -0.565270

 Total Charge           Charge          ....    0
 Multiplicity           Mult            ....    1
 Number of Electrons    NEL             ....   78
 Basis Dimension        Dim             ....  168

ORBITAL ENERGIES
----------------

  NO   OCC          E(Eh)            E(eV)
   0   2.0000     -18.796122      -511.4685
   1   2.0000     -18.734325      -509.7869
   2   2.0000     -10.001287      -272.1489
   3   2.0000      -9.940343      -270.4905
   4   2.0000      -9.902263      -269.4543
   5   2.0000      -9.891081      -269.1500
   6   2.0000      -9.884511      -268.9712
   7   2.0000      -9.881219      -268.8816
   8   2.0000      -9.880434      -268.8603
   9   2.0000      -9.876894      -268.7640
  10   2.0000      -1.003696       -27.3119
  11   2.0000      -0.908977       -24.7345
  12   2.0000      -0.760675       -20.6990
  13   2.0000      -0.691941       -18.8287
  14   2.0000      -0.664333       -18.0774
  15   2.0000      -0.648776       -17.6541
  16   2.0000      -0.559221       -15.2172
  17   2.0000      -0.554483       -15.0882
  18   2.0000      -0.503221       -13.6933
  19   2.0000      -0.471368       -12.8266
  20   2.0000      -0.456754       -12.4289
  21   2.0000      -0.441146       -12.0042
  22   2.0000      -0.433008       -11.7828
  23   2.0000      -0.413110       -11.2413
  24   2.0000      -0.406404       -11.0588
  25   2.0000      -0.381720       -10.3871
  26   2.0000      -0.358584        -9.7576
  27   2.0000      -0.357408        -9.7256
  28   2.0000      -0.335314        -9.1244
  29   2.0000      -0.332625        -9.0512
  30   2.0000      -0.327846        -8.9211
  31   2.0000      -0.322314        -8.7706
  32   2.0000      -0.309351        -8.4179
  33   2.0000      -0.300992        -8.1904
  34   2.0000      -0.269684        -7.3385
  35   2.0000      -0.266441        -7.2502
  36   2.0000      -0.260471        -7.0878
  37   2.0000      -0.254808        -6.9337
  38   2.0000      -0.216221        -5.8837
  39   0.0000      -0.016327        -0.4443
  40   0.0000       0.029778         0.8103
  41   0.0000       0.048145         1.3101
  42   0.0000       0.057115         1.5542
  43   0.0000       0.077701         2.1144

MULLIKEN ATOMIC CHARGES
-----------------------
   0 C :   -0.104983
   1 O :   -0.244195
   2 C :    0.132556
   3 O :   -0.203936
   4 C :   -0.175840
   5 C :   -0.147121
   6 C :   -0.123815
   7 C :   -0.164351
   8 C :   -0.158619
   9 C :   -0.095314
  10 H :    0.118731
  11 H :    0.117855
  12 H :    0.120404
  13 H :    0.083128
  14 H :    0.085719
  15 H :    0.093315
  16 H :    0.087103
  17 H :    0.074716
  18 H :    0.082147
  19 H :    0.080475
  20 H :    0.087740
  21 H :    0.085760
  22 H :    0.094642
  23 H :    0.073883
Sum of atomic charges:    0.0000000

LOEWDIN ATOMIC CHARGES
----------------------
   0 C :   -0.202984
   1 O :   -0.075040
   2 C :    0.045296
   3 O :   -0.167012
   4 C :   -0.165138
   5 C :   -0.210092
   6 C :   -0.227925
   7 C :   -0.229934
   8 C :   -0.229197
   9 C :   -0.216591
  10 H :    0.119427
  11 H :    0.119050
  12 H :    0.120081
  13 H :    0.130958
  14 H :    0.119962
  15 H :    0.121748
  16 H :    0.119513
  17 H :    0.115564
  18 H :    0.116655
  19 H :    0.115623
  20 H :    0.118792
  21 H :    0.119068
  22 H :    0.126175
  23 H :    0.116003

  Mayer bond orders larger than 0.100000
B(  0-C ,  1-O ) :   0.9401 B(  0-C , 10-H ) :   0.9535 B(  0-C , 11-H ) :   0.9507
B(  0-C , 12-H ) :   0.9594 B(  1-O ,  2-C ) :   1.2150 B(  2-C ,  3-O ) :   2.0576
B(  2-C ,  4-C ) :   0.9580 B(  4-C ,  5-C ) :   1.0928 B(  4-C ,  9-C ) :   1.0899
B(  4-C , 13-H ) :   0.8710 B(  5-C ,  6-C ) :   1.1795 B(  5-C , 14-H ) :   0.9021
B(  5-C , 15-H ) :   0.9157 B(  6-C ,  7-C ) :   1.1394 B(  6-C , 16-H ) :   0.9203
B(  6-C , 17-H ) :   0.9046 B(  7-C ,  8-C ) :   1.1433 B(  7-C , 18-H ) :   0.9219
B(  7-C , 19-H ) :   0.9225 B(  8-C ,  9-C ) :   1.1769 B(  8-C , 20-H ) :   0.9052
B(  8-C , 21-H ) :   0.9209 B(  9-C , 22-H ) :   0.9077 B(  9-C , 23-H ) :   0.9053

Dispersion correction           -0.022995994
FINAL SINGLE POINT ENERGY      -462.698525371138

DIPOLE MOMENT
-------------

Method             : SCF
Type of density    : Electron Density
Multiplicity       :   1
Irrep              :   0
Energy             :  -462.7863513685952057 Eh
Relativity type    :
Basis              : AO
                                X                 Y                 Z
Electronic contribution:     -6.939144400       1.229329669       0.577046789
Nuclear contribution   :      6.797909396      -1.529581177      -1.176179684
                        -----------------------------------------
Total Dipole Moment    :     -0.141235004      -0.300251509      -0.599132894
                        -----------------------------------------
Magnitude (a.u.)       :      0.684878471
Magnitude (Debye)      :      1.740822728

Rotational constants in cm-1:             0.097208             0.026859             0.023537
Rotational constants in MHz :          2914.215269           805.212497           705.618644

                             ****ORCA TERMINATED NORMALLY****
TOTAL RUN TIME: 0 days 0 hours 0 minutes 11 seconds 73 msec
