                         Program Version 6.0.0  -   RELEASE  -
|  1> ! pbe def2-sv(p) def2/J RI DEFGRID1 loosescf d4 GCP(DFT/SV(P)) printgap
|  2> %output
|  3>     printlevel normal
|  4> end
|  5> * xyz 0 1
|  6> C 2.1476229755 -0.0074804269 0.0185421905
|  7> C 0.8743172393 -0.6880480987 0.5074996891
|  8> C -0.4171016764 0.000282468 0.0179920349
|  9> C -0.4917076336 1.4544074182 0.5000858967
| 10> C -1.6267300623 -0.7766385295 0.5418369957
| 11> O -0.4046871426 0.0066986622 -1.4129493611
| 12> H 3.0118001718 -0.6281557329 0.241429626
| 13> H 2.285332208 0.9571253664 0.498693072
| 14> H 2.0924132371 0.142518749 -1.0569831978
| 15> H 0.8639387652 -0.7200586222 1.5977841718
| 16> H 0.8625600832 -1.7159216122 0.1374807207
| 17> H 0.2730108832 2.0457293127 0.0056060117
| 18> H -1.4615574789 1.8776698113 0.2497790954
| 19> H -0.3483082905 1.5048556816 1.5750867716
| 20> H -2.5502891749 -0.3258636897 0.1837525473
| 21> H -1.5852760068 -1.8135843854 0.2143222318
| 22> H -1.637049779 -0.7601058151 1.627975825
| 23> H -1.1789419652 -0.4622706767 -1.7453953744
| 24> *
| 25>
| 26>                          ****END OF INPUT****

CARTESIAN COORDINATES (ANGSTROEM)
---------------------------------
  C      2.147623   -0.007480    0.018542
  C      0.874317   -0.688048    0.507500
  C     -0.417102    0.000282    0.017992
  C     -0.491708    1.454407    0.500086
  C     -1.626730   -0.776639    0.541837
  O     -0.404687    0.006699   -1.412949
  H      3.011800   -0.628156    0.241430
  H      2.285332    0.957125    0.498693
  H      2.092413    0.142519   -1.056983
  H      0.863939   -0.720059    1.597784
  H      0.862560   -1.715922    0.137481
  H      0.273011    2.045729    0.005606
  H     -1.461557    1.877670    0.249779
  H     -0.348308    1.504856    1.575087
  H     -2.550289   -0.325864    0.183753
  H     -1.585276   -1.813584    0.214322
  H     -1.637050   -0.760106    1.627976
  H     -1.178942   -0.462271   -1.745395

 Total Charge           Charge          ....    0
 Multiplicity           Mult            ....    1
 Number of Electrons    NEL             ....   50
 Basis Dimension        Dim             ....  108

ORBITAL ENERGIES
----------------

  NO   OCC          E(Eh)            E(eV)
   0   2.0000     -18.735777      -509.8264
   1   2.0000      -9.944954      -270.6160
   2   2.0000      -9.879839      -268.8441
   3   2.0000      -9.877146      -268.7708
   4   2.0000      -9.867434      -268.5065
   5   2.0000      -9.863624      -268.4028
   6   2.0000      -0.913945       -24.8697
   7   2.0000      -0.714576       -19.4446
   8   2.0000      -0.655453       -17.8358
   9   2.0000      -0.617811       -16.8115
  10   2.0000      -0.556622       -15.1465
  11   2.0000      -0.505087       -13.7441
  12   2.0000      -0.430159       -11.7052
  13   2.0000      -0.410222       -11.1627
  14   2.0000      -0.398631       -10.8473
  15   2.0000      -0.376290       -10.2394
  16   2.0000      -0.363880        -9.9017
  17   2.0000      -0.343173        -9.3382
  18   2.0000      -0.332986        -9.0610
  19   2.0000      -0.317580        -8.6418
  20   2.0000      -0.306681        -8.3452
  21   2.0000      -0.291015        -7.9189
  22   2.0000      -0.285072        -7.7572
  23   2.0000      -0.262265        -7.1366
  24   2.0000      -0.209491        -5.7005
  25   0.0000       0.021532         0.5859
  26   0.0000       0.065142         1.7726
  27   0.0000       0.072721         1.9788
  28   0.0000       0.078533         2.1370
  29   0.0000       0.084267         2.2930

MULLIKEN ATOMIC CHARGES
-----------------------
   0 C :   -0.268848
   1 C :   -0.117226
   2 C :   -0.077448
   3 C :   -0.206977
   4 C :   -0.244489
   5 O :   -0.417301
   6 H :    0.097153
   7 H :    0.097289
   8 H :    0.113765
   9 H :    0.073407
  10 H :    0.068826
  11 H :    0.110592
  12 H :    0.087534
  13 H :    0.088607
  14 H :    0.099451
  15 H :    0.098906
  16 H :    0.101588
  17 H :    0.295172
Sum of atomic charges:    0.0000000

LOEWDIN ATOMIC CHARGES
----------------------
   0 C :   -0.345058
   1 C :   -0.228275
   2 C :   -0.014586
   3 C :   -0.332947
   4 C :   -0.340889
   5 O :   -0.324716
   6 H :    0.118262
   7 H :    0.115165
   8 H :    0.124327
   9 H :    0.113354
  10 H :    0.112813
  11 H :    0.124214
  12 H :    0.116251
  13 H :    0.118292
  14 H :    0.115892
  15 H :    0.116761
  16 H :    0.127427
  17 H :    0.283713

  Mayer bond orders larger than 0.100000
B(  0-C ,  1-C ) :   1.1647 B(  0-C ,  6-H ) :   0.9510 B(  0-C ,  7-H ) :   0.9482
B(  0-C ,  8-H ) :   0.9436 B(  1-C ,  2-C ) :   1.0323 B(  1-C ,  9-H ) :   0.9176
B(  1-C , 10-H ) :   0.9131 B(  2-C ,  3-C ) :   1.0661 B(  2-C ,  4-C ) :   1.1071
B(  2-C ,  5-O ) :   1.0606 B(  3-C , 11-H ) :   0.9378 B(  3-C , 12-H ) :   0.9425
B(  3-C , 13-H ) :   0.9426 B(  4-C , 14-H ) :   0.9382 B(  4-C , 15-H ) :   0.9380
B(  4-C , 16-H ) :   0.9380 B(  5-O , 17-H ) :   0.8541

Dispersion correction           -0.013617474
FINAL SINGLE POINT ENERGY      -272.306516437464

DIPOLE MOMENT
-------------

Method             : SCF
Type of density    : Electron Density
Multiplicity       :   1
Irrep              :   0
Energy             :  -272.3756245654407167 Eh
Relativity type    :
Basis              : AO
                                X                 Y                 Z
Electronic contribution:     -1.064815523      -0.386564769      -3.044586591
Nuclear contribution   :      0.582816387       0.095734298       3.290309272
                        -----------------------------------------
Total Dipole Moment    :     -0.481999136      -0.290830471       0.245722681
                        -----------------------------------------
Magnitude (a.u.)       :      0.614235432
Magnitude (Debye)      :      1.561262394

Rotational constants in cm-1:             0.151283             0.086972             0.085445
Rotational constants in MHz :          4535.361499          2607.343832          2561.567065

                             ****ORCA TERMINATED NORMALLY****
TOTAL RUN TIME: 0 days 0 hours 0 minutes 6 seconds 854 msec
