                         Program Version 6.0.0  -   RELEASE  -
|  1> ! pbe def2-sv(p) def2/J RI DEFGRID1 loosescf d4 GCP(DFT/SV(P)) printgap
|  2> %output
|  3>     printlevel normal
|  4> end
|  5> * xyz 0 1
|  6> C -3.432535271 0.5808181748 0.026233127
|  7> C -1.9376940185 0.4999993039 0.0645066869
|  8> C -1.1446133336 1.4896911442 -0.3213413768
|  9> C 0.3507179144 1.436247952 -0.3201191247
| 10> C 0.8578044583 -0.0045516466 -0.1983735923
| 11> H 0.5957164164 -0.5321736621 -1.1218532444
| 12> C 0.0946043073 -0.68341366 0.9409120615
| 13> C -1.3793144309 -0.8194239293 0.5503000455
| 14> H -1.9599645292 -1.1412935836 1.4319457436
| 15> O -1.5698566283 -1.7688931255 -0.4925334456
| 16> C 2.3569696505 -0.0446660699 -0.0182632797
| 17> C 2.9502642239 0.331129416 1.1041115055
| 18> C 3.1323824846 -0.5220878846 -1.2075948031
| 19> H -3.8412870007 0.4983167748 1.03290143
| 20> H -3.823676508 -0.2471914802 -0.563197114
| 21> H -3.7608129436 1.5183696967 -0.4129116944
| 22> H -1.5801247891 2.4222108113 -0.6553501657
| 23> H 0.731636249 1.8920681281 -1.237083199
| 24> H 0.7314533964 2.0306723344 0.5168968734
| 25> H 0.5193375705 -1.6683644734 1.146434807
| 26> H 0.159837606 -0.0860379907 1.8503429235
| 27> H -1.2578962842 -2.6326051188 -0.1915375228
| 28> H 4.0213657837 0.3079146882 1.2130338513
| 29> H 2.3976148704 0.6772103587 1.9604947372
| 30> H 2.8979346073 0.0915520326 -2.076299589
| 31> H 4.20232804 -0.4789343703 -1.0233666033
| 32> H 2.8570999432 -1.549011601 -1.4448529297
| 33> *
| 34>
| 35>                          ****END OF INPUT****

CARTESIAN COORDINATES (ANGSTROEM)
---------------------------------
  C     -3.432535    0.580818    0.026233
  C     -1.937694    0.499999    0.064507
  C     -1.144613    1.489691   -0.321341
  C      0.350718    1.436248   -0.320119
  C      0.857804   -0.004552   -0.198374
  H      0.595716   -0.532174   -1.121853
  C      0.094604   -0.683414    0.940912
  C     -1.379314   -0.819424    0.550300
  H     -1.959965   -1.141294    1.431946
  O     -1.569857   -1.768893   -0.492533
  C      2.356970   -0.044666   -0.018263
  C      2.950264    0.331129    1.104112
  C      3.132382   -0.522088   -1.207595
  H     -3.841287    0.498317    1.032901
  H     -3.823677   -0.247191   -0.563197
  H     -3.760813    1.518370   -0.412912
  H     -1.580125    2.422211   -0.655350
  H      0.731636    1.892068   -1.237083
  H      0.731453    2.030672    0.516897
  H      0.519338   -1.668364    1.146435
  H      0.159838   -0.086038    1.850343
  H     -1.257896   -2.632605   -0.191538
  H      4.021366    0.307915    1.213034
  H      2.397615    0.677210    1.960495
  H      2.897935    0.091552   -2.076300
  H      4.202328   -0.478934   -1.023367
  H      2.857100   -1.549012   -1.444853

 Total Charge           Charge          ....    0
 Multiplicity           Mult            ....    1
 Number of Electrons    NEL             ....   84
 Basis Dimension        Dim             ....  186

ORBITAL ENERGIES
----------------

  NO   OCC          E(Eh)            E(eV)
   0   2.0000     -18.743331      -510.0320
   1   2.0000      -9.937503      -270.4132
   2   2.0000      -9.894974      -269.2559
   3   2.0000      -9.892297      -269.1831
   4   2.0000      -9.888733      -269.0861
   5   2.0000      -9.887003      -269.0390
   6   2.0000      -9.884551      -268.9723
   7   2.0000      -9.880049      -268.8498
   8   2.0000      -9.878825      -268.8165
   9   2.0000      -9.872683      -268.6494
  10   2.0000      -9.864991      -268.4400
  11   2.0000      -0.919862       -25.0307
  12   2.0000      -0.762488       -20.7483
  13   2.0000      -0.720586       -19.6082
  14   2.0000      -0.674672       -18.3588
  15   2.0000      -0.658701       -17.9242
  16   2.0000      -0.611391       -16.6368
  17   2.0000      -0.600671       -16.3451
  18   2.0000      -0.556343       -15.1389
  19   2.0000      -0.538521       -14.6539
  20   2.0000      -0.472356       -12.8535
  21   2.0000      -0.464516       -12.6401
  22   2.0000      -0.440102       -11.9758
  23   2.0000      -0.426786       -11.6134
  24   2.0000      -0.402140       -10.9428
  25   2.0000      -0.394815       -10.7435
  26   2.0000      -0.379312       -10.3216
  27   2.0000      -0.374908       -10.2018
  28   2.0000      -0.367650       -10.0043
  29   2.0000      -0.362949        -9.8763
  30   2.0000      -0.353864        -9.6291
  31   2.0000      -0.353115        -9.6088
  32   2.0000      -0.324290        -8.8244
  33   2.0000      -0.323378        -8.7996
  34   2.0000      -0.310945        -8.4613
  35   2.0000      -0.301968        -8.2170
  36   2.0000      -0.286734        -7.8024
  37   2.0000      -0.274744        -7.4762
  38   2.0000      -0.258723        -7.0402
  39   2.0000      -0.219213        -5.9651
  40   2.0000      -0.211460        -5.7541
  41   2.0000      -0.206718        -5.6251
  42   0.0000      -0.018433        -0.5016
  43   0.0000      -0.003982        -0.1084
  44   0.0000       0.028030         0.7627
  45   0.0000       0.049324         1.3422
  46   0.0000       0.056836         1.5466

MULLIKEN ATOMIC CHARGES
-----------------------
   0 C :   -0.204397
   1 C :   -0.068940
   2 C :   -0.164930
   3 C :   -0.045319
   4 C :   -0.178520
   5 H :    0.065253
   6 C :   -0.107455
   7 C :    0.093788
   8 H :    0.052961
   9 O :   -0.424442
  10 C :   -0.006933
  11 C :   -0.254247
  12 C :   -0.208285
  13 H :    0.098455
  14 H :    0.117459
  15 H :    0.094890
  16 H :    0.041009
  17 H :    0.085257
  18 H :    0.091943
  19 H :    0.067455
  20 H :    0.081041
  21 H :    0.293101
  22 H :    0.080817
  23 H :    0.089643
  24 H :    0.108875
  25 H :    0.093066
  26 H :    0.108455
Sum of atomic charges:    0.0000000

LOEWDIN ATOMIC CHARGES
----------------------
   0 C :   -0.321998
   1 C :   -0.069199
   2 C :   -0.137604
   3 C :   -0.202956
   4 C :   -0.133240
   5 H :    0.120071
   6 C :   -0.217760
   7 C :   -0.038861
   8 H :    0.099142
   9 O :   -0.328746
  10 C :   -0.047223
  11 C :   -0.271127
  12 C :   -0.321181
  13 H :    0.124182
  14 H :    0.132371
  15 H :    0.121254
  16 H :    0.116963
  17 H :    0.125047
  18 H :    0.126953
  19 H :    0.112315
  20 H :    0.121382
  21 H :    0.281022
  22 H :    0.116999
  23 H :    0.114465
  24 H :    0.128118
  25 H :    0.121446
  26 H :    0.128165

  Mayer bond orders larger than 0.100000
B(  0-C ,  1-C ) :   1.1227 B(  0-C , 13-H ) :   0.9297 B(  0-C , 14-H ) :   0.9274
B(  0-C , 15-H ) :   0.9448 B(  1-C ,  2-C ) :   1.9401 B(  1-C ,  7-C ) :   0.9915
B(  2-C ,  3-C ) :   1.0466 B(  2-C , 16-H ) :   0.9236 B(  3-C ,  4-C ) :   1.0938
B(  3-C , 17-H ) :   0.9020 B(  3-C , 18-H ) :   0.8846 B(  4-C ,  5-H ) :   0.8851
B(  4-C ,  6-C ) :   1.0561 B(  4-C , 10-C ) :   0.9857 B(  6-C ,  7-C ) :   1.0706
B(  6-C , 19-H ) :   0.9116 B(  6-C , 20-H ) :   0.8918 B(  7-C ,  8-H ) :   0.8918
B(  7-C ,  9-O ) :   1.0494 B(  9-O , 21-H ) :   0.8491 B( 10-C , 11-C ) :   2.0288
B( 10-C , 12-C ) :   1.1390 B( 11-C , 22-H ) :   0.9023 B( 11-C , 23-H ) :   0.9094
B( 12-C , 24-H ) :   0.9290 B( 12-C , 25-H ) :   0.9386 B( 12-C , 26-H ) :   0.9280

Dispersion correction           -0.028234925
FINAL SINGLE POINT ENERGY      -464.792547116139

DIPOLE MOMENT
-------------

Method             : SCF
Type of density    : Electron Density
Multiplicity       :   1
Irrep              :   0
Energy             :  -464.8821566221430430 Eh
Relativity type    :
Basis              : AO
                                X                 Y                 Z
Electronic contribution:     -2.585956133      -1.258425409      -0.121218228
Nuclear contribution   :      2.688549916       1.008288116       0.391978422
                        -----------------------------------------
Total Dipole Moment    :      0.102593784      -0.250137293       0.270760194
                        -----------------------------------------
Magnitude (a.u.)       :      0.382629367
Magnitude (Debye)      :      0.972566559

Rotational constants in cm-1:             0.071566             0.022398             0.020254
Rotational constants in MHz :          2145.506910           671.488073           607.190499

                             ****ORCA TERMINATED NORMALLY****
TOTAL RUN TIME: 0 days 0 hours 0 minutes 12 seconds 491 msec
