                         Program Version 6.0.0  -   RELEASE  -
|  1> ! pbe def2-sv(p) def2/J RI DEFGRID1 loosescf d4 GCP(DFT/SV(P)) printgap
|  2> %output
|  3>     printlevel normal
|  4> end
|  5> * xyz 0 1
|  6> C -1.8158084144 -0.020315866 -0.9904731348
|  7> C -0.9781180269 0.338633917 0.2317893214
|  8> H -1.0656404317 1.4114956363 0.4562227447
|  9> C 0.5085053637 0.0942913704 -0.0762627998
| 10> F 1.2917898033 0.355893733 0.9915281292
| 11> F 0.7815472051 -1.1670404497 -0.4366275899
| 12> F 0.9610402439 0.8825648943 -1.0679170541
| 13> O -1.3752821726 -0.454173049 1.3128994624
| 14> H -1.7060793863 -1.0797044372 -1.2063486188
| 15> H -1.4986955658 0.5644798734 -1.8481686815
| 16> H -2.8579249713 0.1855870541 -0.7707515974
| 17> H -1.0021346124 -0.1354489323 2.1479502919
| 18> *
| 19>
| 20>                          ****END OF INPUT****

CARTESIAN COORDINATES (ANGSTROEM)
---------------------------------
  C     -1.815808   -0.020316   -0.990473
  C     -0.978118    0.338634    0.231789
  H     -1.065640    1.411496    0.456223
  C      0.508505    0.094291   -0.076263
  F      1.291790    0.355894    0.991528
  F      0.781547   -1.167040   -0.436628
  F      0.961040    0.882565   -1.067917
  O     -1.375282   -0.454173    1.312899
  H     -1.706079   -1.079704   -1.206349
  H     -1.498696    0.564480   -1.848169
  H     -2.857925    0.185587   -0.770752
  H     -1.002135   -0.135449    2.147950

 Total Charge           Charge          ....    0
 Multiplicity           Mult            ....    1
 Number of Electrons    NEL             ....   58
 Basis Dimension        Dim             ....  108

ORBITAL ENERGIES
----------------

  NO   OCC          E(Eh)            E(eV)
   0   2.0000     -24.285377      -660.8387
   1   2.0000     -24.284074      -660.8033
   2   2.0000     -24.283351      -660.7836
   3   2.0000     -18.772108      -510.8150
   4   2.0000     -10.116036      -275.2713
   5   2.0000      -9.969737      -271.2903
   6   2.0000      -9.892464      -269.1876
   7   2.0000      -1.187979       -32.3265
   8   2.0000      -1.095178       -29.8013
   9   2.0000      -1.094025       -29.7699
  10   2.0000      -0.950474       -25.8637
  11   2.0000      -0.714648       -19.4466
  12   2.0000      -0.627653       -17.0793
  13   2.0000      -0.569142       -15.4871
  14   2.0000      -0.528756       -14.3882
  15   2.0000      -0.522178       -14.2092
  16   2.0000      -0.513484       -13.9726
  17   2.0000      -0.470340       -12.7986
  18   2.0000      -0.399219       -10.8633
  19   2.0000      -0.396486       -10.7889
  20   2.0000      -0.386872       -10.5273
  21   2.0000      -0.372107       -10.1255
  22   2.0000      -0.363831        -9.9003
  23   2.0000      -0.350823        -9.5464
  24   2.0000      -0.350154        -9.5282
  25   2.0000      -0.334349        -9.0981
  26   2.0000      -0.330727        -8.9995
  27   2.0000      -0.297970        -8.1082
  28   2.0000      -0.244097        -6.6422
  29   0.0000       0.016099         0.4381
  30   0.0000       0.054779         1.4906
  31   0.0000       0.083161         2.2629
  32   0.0000       0.095458         2.5975
  33   0.0000       0.101412         2.7595

MULLIKEN ATOMIC CHARGES
-----------------------
   0 C :   -0.257074
   1 C :   -0.037745
   2 H :    0.086852
   3 C :    0.385332
   4 F :   -0.152805
   5 F :   -0.136430
   6 F :   -0.143895
   7 O :   -0.412183
   8 H :    0.121497
   9 H :    0.117131
  10 H :    0.120658
  11 H :    0.308661
Sum of atomic charges:   -0.0000000

LOEWDIN ATOMIC CHARGES
----------------------
   0 C :   -0.340244
   1 C :   -0.097141
   2 H :    0.114740
   3 C :    0.095817
   4 F :   -0.059628
   5 F :   -0.040787
   6 F :   -0.051355
   7 O :   -0.309810
   8 H :    0.132333
   9 H :    0.131422
  10 H :    0.132421
  11 H :    0.292230

  Mayer bond orders larger than 0.100000
B(  0-C ,  1-C ) :   1.0960 B(  0-C ,  8-H ) :   0.9404 B(  0-C ,  9-H ) :   0.9415
B(  0-C , 10-H ) :   0.9416 B(  1-C ,  2-H ) :   0.8885 B(  1-C ,  3-C ) :   0.9494
B(  1-C ,  7-O ) :   1.0638 B(  3-C ,  4-F ) :   1.1547 B(  3-C ,  5-F ) :   1.1651
B(  3-C ,  6-F ) :   1.1456 B(  7-O , 11-H ) :   0.8418

Dispersion correction           -0.008160551
FINAL SINGLE POINT ENERGY      -491.116288981708

DIPOLE MOMENT
-------------

Method             : SCF
Type of density    : Electron Density
Multiplicity       :   1
Irrep              :   0
Energy             :  -491.1874033685220411 Eh
Relativity type    :
Basis              : AO
                                X                 Y                 Z
Electronic contribution:      9.993429193      -0.310268664       0.926774388
Nuclear contribution   :    -10.459582764       0.815005126      -0.650848919
                        -----------------------------------------
Total Dipole Moment    :     -0.466153572       0.504736461       0.275925469
                        -----------------------------------------
Magnitude (a.u.)       :      0.740400508
Magnitude (Debye)      :      1.881948531

Rotational constants in cm-1:             0.117856             0.079564             0.065197
Rotational constants in MHz :          3533.239751          2385.278017          1954.552902

                             ****ORCA TERMINATED NORMALLY****
TOTAL RUN TIME: 0 days 0 hours 0 minutes 5 seconds 821 msec
