                         Program Version 6.0.0  -   RELEASE  -
|  1> ! pbe def2-sv(p) def2/J RI DEFGRID1 loosescf d4 GCP(DFT/SV(P)) printgap
|  2> %output
|  3>     printlevel normal
|  4> end
|  5> * xyz 0 1
|  6> C 1.6875908092 0.3884849095 0.6402676892
|  7> C 0.8933455922 0.4089577144 -0.661629305
|  8> C -0.56316465 -0.0516934172 -0.4890873544
|  9> H -1.0563394942 0.0081055107 -1.4749878843
| 10> C -1.3420270446 0.8179185987 0.492929743
| 11> O -0.6386923069 -1.388734284 -0.0186595022
| 12> H 1.3666145188 1.1866319551 1.303436977
| 13> H 2.74716 0.5187199796 0.4358102684
| 14> H 1.5444569352 -0.5620724036 1.149328533
| 15> H 1.3769114258 -0.2497087352 -1.3878260567
| 16> H 0.8877910254 1.415585563 -1.0816388873
| 17> H -2.38531049 0.514334298 0.498821779
| 18> H -0.9450751201 0.6880009227 1.4949453344
| 19> H -1.2734689564 1.8618953905 0.2038157646
| 20> H -0.1767981578 -1.970457566 -0.6367557677
| 21> *
| 22>
| 23>                          ****END OF INPUT****

CARTESIAN COORDINATES (ANGSTROEM)
---------------------------------
  C      1.687591    0.388485    0.640268
  C      0.893346    0.408958   -0.661629
  C     -0.563165   -0.051693   -0.489087
  H     -1.056339    0.008106   -1.474988
  C     -1.342027    0.817919    0.492930
  O     -0.638692   -1.388734   -0.018660
  H      1.366615    1.186632    1.303437
  H      2.747160    0.518720    0.435810
  H      1.544457   -0.562072    1.149329
  H      1.376911   -0.249709   -1.387826
  H      0.887791    1.415586   -1.081639
  H     -2.385310    0.514334    0.498822
  H     -0.945075    0.688001    1.494945
  H     -1.273469    1.861895    0.203816
  H     -0.176798   -1.970458   -0.636756

 Total Charge           Charge          ....    0
 Multiplicity           Mult            ....    1
 Number of Electrons    NEL             ....   42
 Basis Dimension        Dim             ....   90

ORBITAL ENERGIES
----------------

  NO   OCC          E(Eh)            E(eV)
   0   2.0000     -18.738447      -509.8991
   1   2.0000      -9.934870      -270.3416
   2   2.0000      -9.883670      -268.9483
   3   2.0000      -9.870053      -268.5778
   4   2.0000      -9.869789      -268.5706
   5   2.0000      -0.915507       -24.9122
   6   2.0000      -0.705111       -19.1870
   7   2.0000      -0.646214       -17.5844
   8   2.0000      -0.570441       -15.5225
   9   2.0000      -0.511234       -13.9114
  10   2.0000      -0.446938       -12.1618
  11   2.0000      -0.416582       -11.3358
  12   2.0000      -0.402649       -10.9566
  13   2.0000      -0.350385        -9.5345
  14   2.0000      -0.341798        -9.3008
  15   2.0000      -0.333226        -9.0675
  16   2.0000      -0.321225        -8.7410
  17   2.0000      -0.300849        -8.1865
  18   2.0000      -0.292254        -7.9526
  19   2.0000      -0.263845        -7.1796
  20   2.0000      -0.211387        -5.7521
  21   0.0000       0.022034         0.5996
  22   0.0000       0.059447         1.6176
  23   0.0000       0.076950         2.0939
  24   0.0000       0.084219         2.2917
  25   0.0000       0.095482         2.5982

MULLIKEN ATOMIC CHARGES
-----------------------
   0 C :   -0.284030
   1 C :   -0.186780
   2 C :    0.019575
   3 H :    0.057941
   4 C :   -0.256366
   5 O :   -0.425798
   6 H :    0.105060
   7 H :    0.100892
   8 H :    0.104381
   9 H :    0.072733
  10 H :    0.082647
  11 H :    0.108107
  12 H :    0.110718
  13 H :    0.097342
  14 H :    0.293578
Sum of atomic charges:   -0.0000000

LOEWDIN ATOMIC CHARGES
----------------------
   0 C :   -0.346745
   1 C :   -0.249139
   2 C :   -0.056762
   3 H :    0.093579
   4 C :   -0.341414
   5 O :   -0.334436
   6 H :    0.118312
   7 H :    0.119015
   8 H :    0.118840
   9 H :    0.108329
  10 H :    0.117973
  11 H :    0.124601
  12 H :    0.124368
  13 H :    0.122051
  14 H :    0.281428

  Mayer bond orders larger than 0.100000
B(  0-C ,  1-C ) :   1.1409 B(  0-C ,  6-H ) :   0.9524 B(  0-C ,  7-H ) :   0.9519
B(  0-C ,  8-H ) :   0.9459 B(  1-C ,  2-C ) :   1.0692 B(  1-C ,  9-H ) :   0.9240
B(  1-C , 10-H ) :   0.9156 B(  2-C ,  3-H ) :   0.9104 B(  2-C ,  4-C ) :   1.1161
B(  2-C ,  5-O ) :   1.0506 B(  4-C , 11-H ) :   0.9454 B(  4-C , 12-H ) :   0.9397
B(  4-C , 13-H ) :   0.9490 B(  5-O , 14-H ) :   0.8523

Dispersion correction           -0.009847125
FINAL SINGLE POINT ENERGY      -233.092176642948

DIPOLE MOMENT
-------------

Method             : SCF
Type of density    : Electron Density
Multiplicity       :   1
Irrep              :   0
Energy             :  -233.1516545752403999 Eh
Relativity type    :
Basis              : AO
                                X                 Y                 Z
Electronic contribution:     -1.673517268      -3.091256457      -0.960416961
Nuclear contribution   :      1.947464409       3.179464849       0.473452113
                        -----------------------------------------
Total Dipole Moment    :      0.273947141       0.088208392      -0.486964848
                        -----------------------------------------
Magnitude (a.u.)       :      0.565652295
Magnitude (Debye)      :      1.437773873

Rotational constants in cm-1:             0.213813             0.131059             0.107343
Rotational constants in MHz :          6409.964113          3929.041291          3218.062350

                             ****ORCA TERMINATED NORMALLY****
TOTAL RUN TIME: 0 days 0 hours 0 minutes 5 seconds 404 msec
