                         Program Version 6.0.0  -   RELEASE  -
|  1> ! pbe def2-sv(p) def2/J RI DEFGRID1 loosescf d4 GCP(DFT/SV(P)) printgap
|  2> %output
|  3>     printlevel normal
|  4> end
|  5> * xyz 0 1
|  6> C 3.4221192632 0.6717866446 0.2277632398
|  7> C 2.1785449807 0.2088718761 -0.5287782542
|  8> H 2.4796900887 -0.0470296925 -1.5506209169
|  9> C 1.1197035404 1.3209399757 -0.6054425443
| 10> C 0.1293326421 1.2362027123 0.5522235259
| 11> C -0.6809398664 -0.0708209387 0.5376910544
| 12> H -0.7970121394 -0.4204903043 1.570459738
| 13> C 0.1021060896 -1.1884537733 -0.1705274585
| 14> H -0.0476007299 -1.1306813891 -1.2591558748
| 15> C 1.5939176997 -1.0454687852 0.1349572148
| 16> O -0.4204473287 -2.4210412717 0.2995349934
| 17> C -2.1105912957 0.054433657 -0.0286445886
| 18> C -3.0224816821 0.7819794683 0.9591256073
| 19> C -2.1857220676 0.7316836787 -1.3956301919
| 20> H 3.9008341424 1.4975041549 -0.293327606
| 21> H 3.156810323 1.0032451787 1.2289341028
| 22> H 4.1389527509 -0.1415827065 0.3142246007
| 23> H 1.6148220427 2.2934338997 -0.5889331235
| 24> H 0.5768164942 1.2472125044 -1.5473756788
| 25> H 0.6830011484 1.3077579352 1.4897096597
| 26> H -0.5469571818 2.0896492197 0.5163430004
| 27> H 1.7142697995 -0.9922285511 1.2188158441
| 28> H 2.1310129545 -1.9309502567 -0.2122290157
| 29> H 0.052595953 -3.149852234 -0.1234918227
| 30> H -2.4820519002 -0.9719082525 -0.133865495
| 31> H -3.029312049 0.272851482 1.9199421544
| 32> H -4.0409365718 0.8099836553 0.5790952491
| 33> H -2.6897863773 1.8054019501 1.1149277294
| 34> H -1.8656344327 1.7685071319 -1.3363107449
| 35> H -3.212761066 0.7151859585 -1.753764852
| 36> H -1.5690506371 0.2163167743 -2.127423522
| 37> *
| 38>
| 39>                          ****END OF INPUT****

CARTESIAN COORDINATES (ANGSTROEM)
---------------------------------
  C      3.422119    0.671787    0.227763
  C      2.178545    0.208872   -0.528778
  H      2.479690   -0.047030   -1.550621
  C      1.119704    1.320940   -0.605443
  C      0.129333    1.236203    0.552224
  C     -0.680940   -0.070821    0.537691
  H     -0.797012   -0.420490    1.570460
  C      0.102106   -1.188454   -0.170527
  H     -0.047601   -1.130681   -1.259156
  C      1.593918   -1.045469    0.134957
  O     -0.420447   -2.421041    0.299535
  C     -2.110591    0.054434   -0.028645
  C     -3.022482    0.781979    0.959126
  C     -2.185722    0.731684   -1.395630
  H      3.900834    1.497504   -0.293328
  H      3.156810    1.003245    1.228934
  H      4.138953   -0.141583    0.314225
  H      1.614822    2.293434   -0.588933
  H      0.576816    1.247213   -1.547376
  H      0.683001    1.307758    1.489710
  H     -0.546957    2.089649    0.516343
  H      1.714270   -0.992229    1.218816
  H      2.131013   -1.930950   -0.212229
  H      0.052596   -3.149852   -0.123492
  H     -2.482052   -0.971908   -0.133865
  H     -3.029312    0.272851    1.919942
  H     -4.040937    0.809984    0.579095
  H     -2.689786    1.805402    1.114928
  H     -1.865634    1.768507   -1.336311
  H     -3.212761    0.715186   -1.753765
  H     -1.569051    0.216317   -2.127424

 Total Charge           Charge          ....    0
 Multiplicity           Mult            ....    1
 Number of Electrons    NEL             ....   88
 Basis Dimension        Dim             ....  194

ORBITAL ENERGIES
----------------

  NO   OCC          E(Eh)            E(eV)
   0   2.0000     -18.737630      -509.8768
   1   2.0000      -9.930295      -270.2171
   2   2.0000      -9.893517      -269.2163
   3   2.0000      -9.883728      -268.9499
   4   2.0000      -9.883028      -268.9309
   5   2.0000      -9.879685      -268.8399
   6   2.0000      -9.879017      -268.8217
   7   2.0000      -9.878848      -268.8171
   8   2.0000      -9.872599      -268.6471
   9   2.0000      -9.868173      -268.5266
  10   2.0000      -9.865104      -268.4431
  11   2.0000      -0.914890       -24.8954
  12   2.0000      -0.758091       -20.6287
  13   2.0000      -0.718089       -19.5402
  14   2.0000      -0.664800       -18.0901
  15   2.0000      -0.653493       -17.7824
  16   2.0000      -0.607639       -16.5347
  17   2.0000      -0.601090       -16.3565
  18   2.0000      -0.558831       -15.2066
  19   2.0000      -0.529936       -14.4203
  20   2.0000      -0.487713       -13.2713
  21   2.0000      -0.468746       -12.7552
  22   2.0000      -0.458594       -12.4790
  23   2.0000      -0.440574       -11.9886
  24   2.0000      -0.407901       -11.0995
  25   2.0000      -0.399520       -10.8715
  26   2.0000      -0.395705       -10.7677
  27   2.0000      -0.367985       -10.0134
  28   2.0000      -0.361895        -9.8477
  29   2.0000      -0.346969        -9.4415
  30   2.0000      -0.340409        -9.2630
  31   2.0000      -0.338545        -9.2123
  32   2.0000      -0.334599        -9.1049
  33   2.0000      -0.330457        -8.9922
  34   2.0000      -0.324308        -8.8249
  35   2.0000      -0.304255        -8.2792
  36   2.0000      -0.297091        -8.0843
  37   2.0000      -0.290394        -7.9020
  38   2.0000      -0.280220        -7.6252
  39   2.0000      -0.277283        -7.5452
  40   2.0000      -0.262804        -7.1513
  41   2.0000      -0.256561        -6.9814
  42   2.0000      -0.244017        -6.6400
  43   2.0000      -0.207034        -5.6337
  44   0.0000       0.023702         0.6450
  45   0.0000       0.035025         0.9531
  46   0.0000       0.046916         1.2767
  47   0.0000       0.052909         1.4397
  48   0.0000       0.076034         2.0690

MULLIKEN ATOMIC CHARGES
-----------------------
   0 C :   -0.240143
   1 C :   -0.189971
   2 H :    0.063657
   3 C :   -0.112031
   4 C :   -0.123457
   5 C :   -0.107755
   6 H :    0.061577
   7 C :    0.036142
   8 H :    0.048178
   9 C :   -0.067869
  10 O :   -0.414827
  11 C :   -0.155782
  12 C :   -0.234415
  13 C :   -0.257574
  14 H :    0.098067
  15 H :    0.097725
  16 H :    0.098483
  17 H :    0.075705
  18 H :    0.078623
  19 H :    0.073588
  20 H :    0.089268
  21 H :    0.064058
  22 H :    0.062939
  23 H :    0.293204
  24 H :    0.076985
  25 H :    0.098498
  26 H :    0.094421
  27 H :    0.092063
  28 H :    0.098071
  29 H :    0.097148
  30 H :    0.105424
Sum of atomic charges:    0.0000000

LOEWDIN ATOMIC CHARGES
----------------------
   0 C :   -0.328441
   1 C :   -0.150657
   2 H :    0.114060
   3 C :   -0.221250
   4 C :   -0.218258
   5 C :   -0.137894
   6 H :    0.121466
   7 C :   -0.047497
   8 H :    0.094303
   9 C :   -0.228708
  10 O :   -0.325532
  11 C :   -0.149864
  12 C :   -0.328554
  13 C :   -0.332683
  14 H :    0.116379
  15 H :    0.115881
  16 H :    0.117234
  17 H :    0.116786
  18 H :    0.115240
  19 H :    0.116902
  20 H :    0.117187
  21 H :    0.118327
  22 H :    0.110228
  23 H :    0.280695
  24 H :    0.119741
  25 H :    0.117658
  26 H :    0.116383
  27 H :    0.113222
  28 H :    0.115305
  29 H :    0.119206
  30 H :    0.113135

  Mayer bond orders larger than 0.100000
B(  0-C ,  1-C ) :   1.1173 B(  0-C , 14-H ) :   0.9468 B(  0-C , 15-H ) :   0.9458
B(  0-C , 16-H ) :   0.9492 B(  1-C ,  2-H ) :   0.8940 B(  1-C ,  3-C ) :   1.0905
B(  1-C ,  9-C ) :   1.0756 B(  3-C ,  4-C ) :   1.1869 B(  3-C , 17-H ) :   0.9141
B(  3-C , 18-H ) :   0.8955 B(  4-C ,  5-C ) :   1.0674 B(  4-C , 19-H ) :   0.8959
B(  4-C , 20-H ) :   0.9061 B(  5-C ,  6-H ) :   0.8695 B(  5-C ,  7-C ) :   1.0480
B(  5-C , 11-C ) :   1.0557 B(  7-C ,  8-H ) :   0.8827 B(  7-C ,  9-C ) :   1.1359
B(  7-C , 10-O ) :   1.0664 B(  9-C , 21-H ) :   0.8792 B(  9-C , 22-H ) :   0.9067
B( 10-O , 23-H ) :   0.8509 B( 11-C , 12-C ) :   1.1133 B( 11-C , 13-C ) :   1.1183
B( 11-C , 24-H ) :   0.8900 B( 12-C , 25-H ) :   0.9481 B( 12-C , 26-H ) :   0.9496
B( 12-C , 27-H ) :   0.9429 B( 13-C , 28-H ) :   0.9369 B( 13-C , 29-H ) :   0.9451
B( 13-C , 30-H ) :   0.9373

Dispersion correction           -0.032154440
FINAL SINGLE POINT ENERGY      -467.190148754937

DIPOLE MOMENT
-------------

Method             : SCF
Type of density    : Electron Density
Multiplicity       :   1
Irrep              :   0
Energy             :  -467.3017013248205558 Eh
Relativity type    :
Basis              : AO
                                X                 Y                 Z
Electronic contribution:      0.261082292      -5.894846327       0.534803233
Nuclear contribution   :      0.151094290       5.820406582      -0.909371509
                        -----------------------------------------
Total Dipole Moment    :      0.412176582      -0.074439745      -0.374568276
                        -----------------------------------------
Magnitude (a.u.)       :      0.561900529
Magnitude (Debye)      :      1.428237640

Rotational constants in cm-1:             0.055168             0.025192             0.020679
Rotational constants in MHz :          1653.898836           755.248941           619.954938

                             ****ORCA TERMINATED NORMALLY****
TOTAL RUN TIME: 0 days 0 hours 0 minutes 14 seconds 574 msec
