                         Program Version 6.0.0  -   RELEASE  -
|  1> ! pbe def2-sv(p) def2/J RI DEFGRID1 loosescf d4 GCP(DFT/SV(P)) printgap
|  2> %output
|  3>     printlevel normal
|  4> end
|  5> * xyz 0 1
|  6> C -1.9519899898 -1.2596344483 -0.354937066
|  7> C -1.262283987 -0.428344474 0.7408943103
|  8> H -1.9389309823 -0.4004224878 1.6016555282
|  9> C -0.9824892863 1.0185139477 0.2758489759
| 10> H -1.3753822758 1.1549715597 -0.7362963267
| 11> C 0.5299641168 1.2760117911 0.2336789668
| 12> H 0.9135453383 1.3752402626 1.2640778456
| 13> C 1.2375428977 0.0879532516 -0.4256780559
| 14> H 0.7949124566 -0.0942189639 -1.4142403704
| 15> C 1.0271349168 -1.1588047538 0.4431566116
| 16> H 1.8777510967 -1.2287986712 1.1386014854
| 17> O -0.0992428258 -1.048115471 1.2829697491
| 18> O 0.9598630564 -2.2764097034 -0.3775353701
| 19> O 2.6204118949 0.306770297 -0.5306802331
| 20> O 0.8415957955 2.4318471888 -0.5048796378
| 21> O -1.638164601 1.9822311703 1.0633556486
| 22> O -1.4003129747 -0.985334857 -1.6231834252
| 23> H -3.0177643232 -0.9945313365 -0.3486663044
| 24> H -1.8404234458 -2.3180951411 -0.0978504624
| 25> H 1.0400693257 -3.0847038985 0.151733737
| 26> H 2.7508435365 1.1592609298 -0.9756551647
| 27> H 0.2492752969 3.147531258 -0.2301091405
| 28> H -1.3599183117 1.8970052316 1.9874836408
| 29> H -1.7696952612 -1.6042178274 -2.2680776455
| 30> *
| 31>
| 32>                          ****END OF INPUT****

CARTESIAN COORDINATES (ANGSTROEM)
---------------------------------
  C     -1.951990   -1.259634   -0.354937
  C     -1.262284   -0.428344    0.740894
  H     -1.938931   -0.400422    1.601656
  C     -0.982489    1.018514    0.275849
  H     -1.375382    1.154972   -0.736296
  C      0.529964    1.276012    0.233679
  H      0.913545    1.375240    1.264078
  C      1.237543    0.087953   -0.425678
  H      0.794912   -0.094219   -1.414240
  C      1.027135   -1.158805    0.443157
  H      1.877751   -1.228799    1.138601
  O     -0.099243   -1.048115    1.282970
  O      0.959863   -2.276410   -0.377535
  O      2.620412    0.306770   -0.530680
  O      0.841596    2.431847   -0.504880
  O     -1.638165    1.982231    1.063356
  O     -1.400313   -0.985335   -1.623183
  H     -3.017764   -0.994531   -0.348666
  H     -1.840423   -2.318095   -0.097850
  H      1.040069   -3.084704    0.151734
  H      2.750844    1.159261   -0.975655
  H      0.249275    3.147531   -0.230109
  H     -1.359918    1.897005    1.987484
  H     -1.769695   -1.604218   -2.268078

 Total Charge           Charge          ....    0
 Multiplicity           Mult            ....    1
 Number of Electrons    NEL             ....   96
 Basis Dimension        Dim             ....  192

ORBITAL ENERGIES
----------------

  NO   OCC          E(Eh)            E(eV)
   0   2.0000     -18.760680      -510.5041
   1   2.0000     -18.756587      -510.3927
   2   2.0000     -18.755786      -510.3709
   3   2.0000     -18.751103      -510.2435
   4   2.0000     -18.750190      -510.2186
   5   2.0000     -18.734097      -509.7807
   6   2.0000      -9.975418      -271.4449
   7   2.0000      -9.945363      -270.6271
   8   2.0000      -9.936764      -270.3931
   9   2.0000      -9.936395      -270.3830
  10   2.0000      -9.933849      -270.3138
  11   2.0000      -9.924804      -270.0676
  12   2.0000      -0.971562       -26.4375
  13   2.0000      -0.941875       -25.6297
  14   2.0000      -0.929915       -25.3043
  15   2.0000      -0.924809       -25.1653
  16   2.0000      -0.905784       -24.6476
  17   2.0000      -0.903070       -24.5738
  18   2.0000      -0.699367       -19.0308
  19   2.0000      -0.685905       -18.6644
  20   2.0000      -0.618518       -16.8307
  21   2.0000      -0.578746       -15.7485
  22   2.0000      -0.562497       -15.3063
  23   2.0000      -0.502436       -13.6720
  24   2.0000      -0.497888       -13.5482
  25   2.0000      -0.491264       -13.3680
  26   2.0000      -0.478455       -13.0194
  27   2.0000      -0.460053       -12.5187
  28   2.0000      -0.427860       -11.6427
  29   2.0000      -0.413644       -11.2558
  30   2.0000      -0.409269       -11.1368
  31   2.0000      -0.398833       -10.8528
  32   2.0000      -0.391804       -10.6615
  33   2.0000      -0.374356       -10.1868
  34   2.0000      -0.349242        -9.5034
  35   2.0000      -0.343614        -9.3502
  36   2.0000      -0.325094        -8.8463
  37   2.0000      -0.305846        -8.3225
  38   2.0000      -0.296187        -8.0597
  39   2.0000      -0.292201        -7.9512
  40   2.0000      -0.287842        -7.8326
  41   2.0000      -0.248449        -6.7606
  42   2.0000      -0.242932        -6.6105
  43   2.0000      -0.240915        -6.5556
  44   2.0000      -0.229080        -6.2336
  45   2.0000      -0.220933        -6.0119
  46   2.0000      -0.206644        -5.6231
  47   2.0000      -0.197575        -5.3763
  48   0.0000       0.018260         0.4969
  49   0.0000       0.024571         0.6686
  50   0.0000       0.039904         1.0858
  51   0.0000       0.041567         1.1311
  52   0.0000       0.065327         1.7776

MULLIKEN ATOMIC CHARGES
-----------------------
   0 C :    0.035698
   1 C :    0.023825
   2 H :    0.064133
   3 C :    0.048972
   4 H :    0.087086
   5 C :    0.049282
   6 H :    0.035975
   7 C :    0.017145
   8 H :    0.086537
   9 C :    0.212249
  10 H :    0.062861
  11 O :   -0.316433
  12 O :   -0.381715
  13 O :   -0.420775
  14 O :   -0.426895
  15 O :   -0.422326
  16 O :   -0.419550
  17 H :    0.077752
  18 H :    0.070907
  19 H :    0.297593
  20 H :    0.306911
  21 H :    0.304870
  22 H :    0.298436
  23 H :    0.307461
Sum of atomic charges:   -0.0000000

LOEWDIN ATOMIC CHARGES
----------------------
   0 C :   -0.134720
   1 C :   -0.065436
   2 H :    0.119146
   3 C :   -0.083098
   4 H :    0.124201
   5 C :   -0.079562
   6 H :    0.095501
   7 C :   -0.082372
   8 H :    0.116993
   9 C :    0.001636
  10 H :    0.100950
  11 O :   -0.156697
  12 O :   -0.299584
  13 O :   -0.318911
  14 O :   -0.325698
  15 O :   -0.316598
  16 O :   -0.328238
  17 H :    0.101593
  18 H :    0.101299
  19 H :    0.283406
  20 H :    0.285852
  21 H :    0.286942
  22 H :    0.282394
  23 H :    0.290999

  Mayer bond orders larger than 0.100000
B(  0-C ,  1-C ) :   1.0602 B(  0-C , 16-O ) :   1.0753 B(  0-C , 17-H ) :   0.9094
B(  0-C , 18-H ) :   0.9045 B(  1-C ,  2-H ) :   0.8921 B(  1-C ,  3-C ) :   0.9720
B(  1-C , 11-O ) :   1.0517 B(  3-C ,  4-H ) :   0.8622 B(  3-C ,  5-C ) :   1.0262
B(  3-C , 15-O ) :   1.0126 B(  5-C ,  6-H ) :   0.8628 B(  5-C ,  7-C ) :   1.0204
B(  5-C , 14-O ) :   1.0763 B(  7-C ,  8-H ) :   0.8665 B(  7-C ,  9-C ) :   0.9992
B(  7-C , 13-O ) :   1.0717 B(  9-C , 10-H ) :   0.8850 B(  9-C , 11-O ) :   1.0382
B(  9-C , 12-O ) :   1.1563 B( 12-O , 19-H ) :   0.8437 B( 13-O , 20-H ) :   0.8373
B( 14-O , 21-H ) :   0.8349 B( 15-O , 22-H ) :   0.8500 B( 16-O , 23-H ) :   0.8449

Dispersion correction           -0.025207454
FINAL SINGLE POINT ENERGY      -685.690147125380

DIPOLE MOMENT
-------------

Method             : SCF
Type of density    : Electron Density
Multiplicity       :   1
Irrep              :   0
Energy             :  -685.8203326805388542 Eh
Relativity type    :
Basis              : AO
                                X                 Y                 Z
Electronic contribution:      2.563908833       0.512062370       0.300666026
Nuclear contribution   :     -3.429424333      -0.923618378       0.057943153
                        -----------------------------------------
Total Dipole Moment    :     -0.865515500      -0.411556008       0.358609179
                        -----------------------------------------
Magnitude (a.u.)       :      1.023277074
Magnitude (Debye)      :      2.600963621

Rotational constants in cm-1:             0.034894             0.033156             0.022432
Rotational constants in MHz :          1046.096582           993.983226           672.496043

                             ****ORCA TERMINATED NORMALLY****
TOTAL RUN TIME: 0 days 0 hours 0 minutes 12 seconds 232 msec
