                         Program Version 6.0.0  -   RELEASE  -
|  1> ! pbe def2-sv(p) def2/J RI DEFGRID1 loosescf d4 GCP(DFT/SV(P)) printgap
|  2> %output
|  3>     printlevel normal
|  4> end
|  5> * xyz 0 1
|  6> C -2.5689238448 -0.6993616277 -0.2998330084
|  7> C -1.1926578143 -0.2807090084 0.2337480881
|  8> H -1.2260139121 -0.2284653086 1.3326602542
|  9> C -0.736035083 1.0892699705 -0.3112936065
| 10> H -0.7555533411 1.0515203169 -1.4109713127
| 11> C 0.7065100819 1.3477873896 0.1488706352
| 12> H 0.7045623979 1.474786824 1.2375297208
| 13> C 1.618508852 0.1628566324 -0.2154755226
| 14> H 1.6793862863 0.0800005278 -1.3149898736
| 15> C 1.0184133505 -1.1447123412 0.3315773877
| 16> H 1.0101269449 -1.0988376711 1.431955562
| 17> O -0.2929515681 -1.2992495141 -0.1699474925
| 18> O 1.7375292521 -2.2685600981 0.0011919639
| 19> O 2.9013988402 0.3333211665 0.3248382005
| 20> O 1.2431165591 2.5436385099 -0.3562113439
| 21> O -1.5275840873 2.1424369332 0.1745683334
| 22> O -2.9987107556 -1.9120916052 0.2590706055
| 23> H -2.5131591407 -0.7791306097 -1.3935678046
| 24> H -3.3184292492 0.040902643 -0.0181426182
| 25> H 1.7515048462 -2.3852016316 -0.9625102869
| 26> H 3.1505339801 1.2674391293 0.2266994695
| 27> H 1.0746801847 2.6117870333 -1.3078218348
| 28> H -2.3665564872 2.1886456493 -0.3036740796
| 29> H -2.3076859897 -2.5754671449 0.1156184169
| 30> *
| 31>
| 32>                          ****END OF INPUT****

CARTESIAN COORDINATES (ANGSTROEM)
---------------------------------
  C     -2.568924   -0.699362   -0.299833
  C     -1.192658   -0.280709    0.233748
  H     -1.226014   -0.228465    1.332660
  C     -0.736035    1.089270   -0.311294
  H     -0.755553    1.051520   -1.410971
  C      0.706510    1.347787    0.148871
  H      0.704562    1.474787    1.237530
  C      1.618509    0.162857   -0.215476
  H      1.679386    0.080001   -1.314990
  C      1.018413   -1.144712    0.331577
  H      1.010127   -1.098838    1.431956
  O     -0.292952   -1.299250   -0.169947
  O      1.737529   -2.268560    0.001192
  O      2.901399    0.333321    0.324838
  O      1.243117    2.543639   -0.356211
  O     -1.527584    2.142437    0.174568
  O     -2.998711   -1.912092    0.259071
  H     -2.513159   -0.779131   -1.393568
  H     -3.318429    0.040903   -0.018143
  H      1.751505   -2.385202   -0.962510
  H      3.150534    1.267439    0.226699
  H      1.074680    2.611787   -1.307822
  H     -2.366556    2.188646   -0.303674
  H     -2.307686   -2.575467    0.115618

 Total Charge           Charge          ....    0
 Multiplicity           Mult            ....    1
 Number of Electrons    NEL             ....   96
 Basis Dimension        Dim             ....  192

ORBITAL ENERGIES
----------------

  NO   OCC          E(Eh)            E(eV)
   0   2.0000     -18.782427      -511.0958
   1   2.0000     -18.767979      -510.7027
   2   2.0000     -18.766131      -510.6524
   3   2.0000     -18.761190      -510.5179
   4   2.0000     -18.750275      -510.2209
   5   2.0000     -18.748814      -510.1812
   6   2.0000      -9.990500      -271.8553
   7   2.0000      -9.957454      -270.9561
   8   2.0000      -9.951361      -270.7903
   9   2.0000      -9.949932      -270.7514
  10   2.0000      -9.944531      -270.6044
  11   2.0000      -9.942009      -270.5358
  12   2.0000      -0.989988       -26.9389
  13   2.0000      -0.956232       -26.0204
  14   2.0000      -0.941895       -25.6303
  15   2.0000      -0.931098       -25.3365
  16   2.0000      -0.920646       -25.0520
  17   2.0000      -0.914625       -24.8882
  18   2.0000      -0.712140       -19.3783
  19   2.0000      -0.694885       -18.9088
  20   2.0000      -0.626206       -17.0399
  21   2.0000      -0.586844       -15.9688
  22   2.0000      -0.572952       -15.5908
  23   2.0000      -0.550703       -14.9854
  24   2.0000      -0.503588       -13.7033
  25   2.0000      -0.501887       -13.6570
  26   2.0000      -0.476219       -12.9586
  27   2.0000      -0.462952       -12.5976
  28   2.0000      -0.452000       -12.2996
  29   2.0000      -0.434967       -11.8361
  30   2.0000      -0.429161       -11.6781
  31   2.0000      -0.416081       -11.3221
  32   2.0000      -0.401262       -10.9189
  33   2.0000      -0.383345       -10.4313
  34   2.0000      -0.362372        -9.8607
  35   2.0000      -0.350272        -9.5314
  36   2.0000      -0.328189        -8.9305
  37   2.0000      -0.315718        -8.5911
  38   2.0000      -0.311272        -8.4701
  39   2.0000      -0.297284        -8.0895
  40   2.0000      -0.291668        -7.9367
  41   2.0000      -0.280639        -7.6366
  42   2.0000      -0.259708        -7.0670
  43   2.0000      -0.254966        -6.9380
  44   2.0000      -0.233338        -6.3494
  45   2.0000      -0.224206        -6.1010
  46   2.0000      -0.219067        -5.9611
  47   2.0000      -0.214351        -5.8328
  48   0.0000      -0.000614        -0.0167
  49   0.0000       0.015716         0.4277
  50   0.0000       0.029400         0.8000
  51   0.0000       0.040141         1.0923
  52   0.0000       0.046602         1.2681

MULLIKEN ATOMIC CHARGES
-----------------------
   0 C :    0.092875
   1 C :   -0.014665
   2 H :    0.066625
   3 C :    0.027383
   4 H :    0.035544
   5 C :    0.058049
   6 H :    0.075424
   7 C :    0.046549
   8 H :    0.017896
   9 C :    0.207872
  10 H :    0.058911
  11 O :   -0.321426
  12 O :   -0.363612
  13 O :   -0.405124
  14 O :   -0.408360
  15 O :   -0.394872
  16 O :   -0.432910
  17 H :    0.065899
  18 H :    0.071107
  19 H :    0.301746
  20 H :    0.303889
  21 H :    0.299846
  22 H :    0.308556
  23 H :    0.302799
Sum of atomic charges:    0.0000000

LOEWDIN ATOMIC CHARGES
----------------------
   0 C :   -0.126727
   1 C :   -0.080392
   2 H :    0.111530
   3 C :   -0.079804
   4 H :    0.094459
   5 C :   -0.079708
   6 H :    0.124539
   7 C :   -0.096804
   8 H :    0.087455
   9 C :    0.005428
  10 H :    0.104321
  11 O :   -0.161594
  12 O :   -0.277245
  13 O :   -0.316442
  14 O :   -0.305601
  15 O :   -0.308486
  16 O :   -0.332989
  17 H :    0.097811
  18 H :    0.110540
  19 H :    0.287785
  20 H :    0.283358
  21 H :    0.285746
  22 H :    0.289416
  23 H :    0.283405

  Mayer bond orders larger than 0.100000
B(  0-C ,  1-C ) :   1.0451 B(  0-C , 16-O ) :   1.0945 B(  0-C , 17-H ) :   0.9037
B(  0-C , 18-H ) :   0.9135 B(  1-C ,  2-H ) :   0.8681 B(  1-C ,  3-C ) :   0.9783
B(  1-C , 11-O ) :   0.9735 B(  3-C ,  4-H ) :   0.8681 B(  3-C ,  5-C ) :   1.0032
B(  3-C , 15-O ) :   1.1004 B(  5-C ,  6-H ) :   0.8685 B(  5-C ,  7-C ) :   1.0026
B(  5-C , 14-O ) :   1.0402 B(  7-C ,  8-H ) :   0.8512 B(  7-C ,  9-C ) :   0.9770
B(  7-C , 13-O ) :   1.1016 B(  9-C , 10-H ) :   0.8790 B(  9-C , 11-O ) :   0.9844
B(  9-C , 12-O ) :   1.1684 B( 12-O , 19-H ) :   0.8424 B( 13-O , 20-H ) :   0.8292
B( 14-O , 21-H ) :   0.8469 B( 15-O , 22-H ) :   0.8418 B( 16-O , 23-H ) :   0.8402

Dispersion correction           -0.023633290
FINAL SINGLE POINT ENERGY      -685.696086622019

DIPOLE MOMENT
-------------

Method             : SCF
Type of density    : Electron Density
Multiplicity       :   1
Irrep              :   0
Energy             :  -685.8252482209883283 Eh
Relativity type    :
Basis              : AO
                                X                 Y                 Z
Electronic contribution:      2.592337055      -0.977552710       0.784928207
Nuclear contribution   :     -2.908159439       1.539263222      -2.217390465
                        -----------------------------------------
Total Dipole Moment    :     -0.315822384       0.561710512      -1.432462258
                        -----------------------------------------
Magnitude (a.u.)       :      1.570735687
Magnitude (Debye)      :      3.992492828

Rotational constants in cm-1:             0.038804             0.026225             0.016373
Rotational constants in MHz :          1163.324767           786.204795           490.844327

                             ****ORCA TERMINATED NORMALLY****
TOTAL RUN TIME: 0 days 0 hours 0 minutes 11 seconds 817 msec
