                         Program Version 6.0.0  -   RELEASE  -
|  1> ! r2scan-3c def2/J RI DEFGRID2 scfconv6 printgap
|  2> %output
|  3>     printlevel normal
|  4> end
|  5> %cpcm
|  6>     smd true
|  7>     smdsolvent "water"
|  8> end
|  9> * xyz 0 1
| 10> C 1.6860757609 -1.0704202641 0.1617982816
| 11> C 1.0396236757 0.2595990697 -0.2101935136
| 12> C -0.4589568762 0.3418333891 -0.0394236249
| 13> O -1.0506003528 1.4007001639 -0.0705531669
| 14> O -1.1380962796 -0.7846992117 0.1354708957
| 15> H 1.3908811229 -1.8660683661 -0.5183425704
| 16> H 2.7655064635 -0.968941867 0.0910360201
| 17> H 1.446095545 -1.3494755798 1.1852584369
| 18> H 1.4618953608 1.0751604172 0.3795982322
| 19> H 1.2400310337 0.5003805278 -1.2575608529
| 20> H -0.5732036766 -1.5805474184 0.1360077728
| 21> *
| 22>
| 23>                          ****END OF INPUT****

CARTESIAN COORDINATES (ANGSTROEM)
---------------------------------
  C      1.686076   -1.070420    0.161798
  C      1.039624    0.259599   -0.210194
  C     -0.458957    0.341833   -0.039424
  O     -1.050600    1.400700   -0.070553
  O     -1.138096   -0.784699    0.135471
  H      1.390881   -1.866068   -0.518343
  H      2.765506   -0.968942    0.091036
  H      1.446096   -1.349476    1.185258
  H      1.461895    1.075160    0.379598
  H      1.240031    0.500381   -1.257561
  H     -0.573204   -1.580547    0.136008

 Total Charge           Charge          ....    0
 Multiplicity           Mult            ....    1
 Number of Electrons    NEL             ....   40
 Basis Dimension        Dim             ....  135

ORBITAL ENERGIES
----------------

  NO   OCC          E(Eh)            E(eV)
   0   2.0000     -19.005227      -517.1585
   1   2.0000     -18.942227      -515.4442
   2   2.0000     -10.169243      -276.7192
   3   2.0000     -10.042247      -273.2634
   4   2.0000     -10.022855      -272.7357
   5   2.0000      -1.077622       -29.3236
   6   2.0000      -0.990475       -26.9522
   7   2.0000      -0.748167       -20.3587
   8   2.0000      -0.627034       -17.0625
   9   2.0000      -0.586779       -15.9671
  10   2.0000      -0.482339       -13.1251
  11   2.0000      -0.449184       -12.2229
  12   2.0000      -0.436486       -11.8774
  13   2.0000      -0.391307       -10.6480
  14   2.0000      -0.363861        -9.9012
  15   2.0000      -0.361061        -9.8250
  16   2.0000      -0.329287        -8.9604
  17   2.0000      -0.325156        -8.8480
  18   2.0000      -0.295634        -8.0446
  19   2.0000      -0.252444        -6.8694
  20   0.0000      -0.023743        -0.6461
  21   0.0000       0.069311         1.8860
  22   0.0000       0.121783         3.3139
  23   0.0000       0.131055         3.5662
  24   0.0000       0.151950         4.1348

MULLIKEN ATOMIC CHARGES
-----------------------
   0 C :   -0.543267
   1 C :   -0.252694
   2 C :    0.364904
   3 O :   -0.494463
   4 O :   -0.375025
   5 H :    0.168948
   6 H :    0.174203
   7 H :    0.181437
   8 H :    0.184558
   9 H :    0.197581
  10 H :    0.393819
Sum of atomic charges:    0.0000000

LOEWDIN ATOMIC CHARGES
----------------------
   0 C :   -0.418209
   1 C :   -0.252091
   2 C :    0.354294
   3 O :   -0.488505
   4 O :   -0.392977
   5 H :    0.161002
   6 H :    0.166534
   7 H :    0.163155
   8 H :    0.190105
   9 H :    0.195280
  10 H :    0.321411

  Mayer bond orders larger than 0.100000
B(  0-C ,  1-C ) :   0.8745 B(  0-C ,  5-H ) :   0.9634 B(  0-C ,  6-H ) :   0.9517
B(  0-C ,  7-H ) :   0.9778 B(  1-C ,  2-C ) :   1.0103 B(  1-C ,  8-H ) :   0.9404
B(  1-C ,  9-H ) :   0.9094 B(  2-C ,  3-O ) :   1.8865 B(  2-C ,  4-O ) :   1.1298
B(  4-O , 10-H ) :   0.8216

Dispersion correction           -0.002145720
FINAL SINGLE POINT ENERGY      -268.357314960668

DIPOLE MOMENT
-------------

Method             : SCF
Type of density    : Electron Density
Multiplicity       :   1
Irrep              :   0
Energy             :  -268.3616949403014473 Eh
Relativity type    :
Basis              : AO
                                X                 Y                 Z
Electronic contribution:     -5.418542004       2.147450852      -0.070273059
Nuclear contribution   :      7.220717295      -3.921325162       0.015971839
                        -----------------------------------------
Total Dipole Moment    :      1.802175290      -1.773874310      -0.054301220
                        -----------------------------------------
Magnitude (a.u.)       :      2.529311066
Magnitude (Debye)      :      6.428997808

Rotational constants in cm-1:             0.324847             0.131990             0.097817
Rotational constants in MHz :          9738.680307          3956.955505          2932.485152

                             ****ORCA TERMINATED NORMALLY****
TOTAL RUN TIME: 0 days 0 hours 0 minutes 14 seconds 817 msec
