                         Program Version 6.0.0  -   RELEASE  -
|  1> ! pbe def2-sv(p) def2/J RI DEFGRID1 loosescf d4 GCP(DFT/SV(P)) printgap
|  2> %output
|  3>     printlevel normal
|  4> end
|  5> * xyz 0 1
|  6> C 2.7486241659 -0.0123876951 0.7282811213
|  7> C 1.9712064425 -0.0140403211 -0.5904022506
|  8> C 0.4958482453 0.0202668105 -0.3265299162
|  9> C -0.1909393657 1.2199234557 -0.1760451449
| 10> C -1.54587849 1.1957967887 0.1088067742
| 11> C -2.1696450034 -0.0354548337 0.2367510718
| 12> N -1.5325033327 -1.1882248988 0.0979686689
| 13> C -0.2383545033 -1.1518625973 -0.1747262227
| 14> H 2.4788039871 -0.8794196734 1.326853959
| 15> H 2.5216883198 0.8835593672 1.301508516
| 16> H 3.817550474 -0.0410117802 0.534942325
| 17> H 2.2217341414 -0.9132036488 -1.155476707
| 18> H 2.2589324524 0.8579627782 -1.1801493797
| 19> H 0.3310944067 2.1599414497 -0.2845208278
| 20> H -2.1068746122 2.1090346525 0.2284111518
| 21> H -3.2255622461 -0.1112814488 0.4584731255
| 22> H 0.2383975946 -2.118200271 -0.2812480746
| 23> *
| 24>
| 25>                          ****END OF INPUT****

CARTESIAN COORDINATES (ANGSTROEM)
---------------------------------
  C      2.748624   -0.012388    0.728281
  C      1.971206   -0.014040   -0.590402
  C      0.495848    0.020267   -0.326530
  C     -0.190939    1.219923   -0.176045
  C     -1.545878    1.195797    0.108807
  C     -2.169645   -0.035455    0.236751
  N     -1.532503   -1.188225    0.097969
  C     -0.238355   -1.151863   -0.174726
  H      2.478804   -0.879420    1.326854
  H      2.521688    0.883559    1.301509
  H      3.817550   -0.041012    0.534942
  H      2.221734   -0.913204   -1.155477
  H      2.258932    0.857963   -1.180149
  H      0.331094    2.159941   -0.284521
  H     -2.106875    2.109035    0.228411
  H     -3.225562   -0.111281    0.458473
  H      0.238398   -2.118200   -0.281248

 Total Charge           Charge          ....    0
 Multiplicity           Mult            ....    1
 Number of Electrons    NEL             ....   58
 Basis Dimension        Dim             ....  130

ORBITAL ENERGIES
----------------

  NO   OCC          E(Eh)            E(eV)
   0   2.0000     -13.976868      -380.3299
   1   2.0000      -9.917633      -269.8725
   2   2.0000      -9.916644      -269.8456
   3   2.0000      -9.910377      -269.6751
   4   2.0000      -9.907891      -269.6074
   5   2.0000      -9.900390      -269.4033
   6   2.0000      -9.900140      -269.3965
   7   2.0000      -9.886297      -269.0198
   8   2.0000      -0.855145       -23.2697
   9   2.0000      -0.743972       -20.2445
  10   2.0000      -0.704400       -19.1677
  11   2.0000      -0.662483       -18.0271
  12   2.0000      -0.581145       -15.8138
  13   2.0000      -0.565399       -15.3853
  14   2.0000      -0.532213       -14.4823
  15   2.0000      -0.468101       -12.7377
  16   2.0000      -0.446053       -12.1377
  17   2.0000      -0.414787       -11.2869
  18   2.0000      -0.393304       -10.7024
  19   2.0000      -0.386795       -10.5252
  20   2.0000      -0.368001       -10.0138
  21   2.0000      -0.355248        -9.6668
  22   2.0000      -0.343109        -9.3365
  23   2.0000      -0.333154        -9.0656
  24   2.0000      -0.314365        -8.5543
  25   2.0000      -0.303683        -8.2636
  26   2.0000      -0.258157        -7.0248
  27   2.0000      -0.231421        -6.2973
  28   2.0000      -0.199974        -5.4416
  29   0.0000      -0.053412        -1.4534
  30   0.0000      -0.042128        -1.1463
  31   0.0000       0.037669         1.0250
  32   0.0000       0.056641         1.5413
  33   0.0000       0.076185         2.0731

MULLIKEN ATOMIC CHARGES
-----------------------
   0 C :   -0.272359
   1 C :   -0.127841
   2 C :    0.005836
   3 C :   -0.060257
   4 C :   -0.067270
   5 C :   -0.061110
   6 N :   -0.053174
   7 C :   -0.104360
   8 H :    0.107045
   9 H :    0.103154
  10 H :    0.109978
  11 H :    0.093959
  12 H :    0.090032
  13 H :    0.052959
  14 H :    0.060349
  15 H :    0.068194
  16 H :    0.054865
Sum of atomic charges:   -0.0000000

LOEWDIN ATOMIC CHARGES
----------------------
   0 C :   -0.331839
   1 C :   -0.216894
   2 C :   -0.056347
   3 C :   -0.100542
   4 C :   -0.140627
   5 C :   -0.086277
   6 N :   -0.072906
   7 C :   -0.083929
   8 H :    0.122106
   9 H :    0.120002
  10 H :    0.120879
  11 H :    0.125326
  12 H :    0.123295
  13 H :    0.124600
  14 H :    0.127789
  15 H :    0.113655
  16 H :    0.111708

  Mayer bond orders larger than 0.100000
B(  0-C ,  1-C ) :   1.1449 B(  0-C ,  8-H ) :   0.9548 B(  0-C ,  9-H ) :   0.9553
B(  0-C , 10-H ) :   0.9487 B(  1-C ,  2-C ) :   1.0635 B(  1-C , 11-H ) :   0.9094
B(  1-C , 12-H ) :   0.9106 B(  2-C ,  3-C ) :   1.4223 B(  2-C ,  7-C ) :   1.3622
B(  3-C ,  4-C ) :   1.4077 B(  3-C , 13-H ) :   0.9555 B(  4-C ,  5-C ) :   1.3795
B(  4-C , 14-H ) :   0.9471 B(  5-C ,  6-N ) :   1.5470 B(  5-C , 15-H ) :   0.9531
B(  6-N ,  7-C ) :   1.5583 B(  7-C , 16-H ) :   0.9525

Dispersion correction           -0.016281636
FINAL SINGLE POINT ENERGY      -326.177416834574

DIPOLE MOMENT
-------------

Method             : SCF
Type of density    : Electron Density
Multiplicity       :   1
Irrep              :   0
Energy             :  -326.2266367629378010 Eh
Relativity type    :
Basis              : AO
                                X                 Y                 Z
Electronic contribution:     -7.416235915      -1.134552825      -0.960021261
Nuclear contribution   :      7.999582949       1.820456936       0.890665918
                        -----------------------------------------
Total Dipole Moment    :      0.583347034       0.685904112      -0.069355342
                        -----------------------------------------
Magnitude (a.u.)       :      0.903088243
Magnitude (Debye)      :      2.295467891

Rotational constants in cm-1:             0.155900             0.050678             0.042162
Rotational constants in MHz :          4673.758655          1519.292730          1263.995349

                             ****ORCA TERMINATED NORMALLY****
TOTAL RUN TIME: 0 days 0 hours 0 minutes 6 seconds 992 msec
