                         Program Version 6.0.0  -   RELEASE  -
|  1> ! pbe def2-sv(p) def2/J RI DEFGRID1 loosescf d4 GCP(DFT/SV(P)) printgap
|  2> %output
|  3>     printlevel normal
|  4> end
|  5> * xyz 0 1
|  6> C -2.3951223605 -0.8596493163 0.4562879404
|  7> C -0.932407379 -0.4198225553 0.586623952
|  8> H -0.6180778952 -0.5519411145 1.6329208546
|  9> C -0.7348207208 1.0573818243 0.1898717358
| 10> H -1.4848623932 1.336625125 -0.5587638886
| 11> C 0.6688708293 1.2565218154 -0.4363333951
| 12> H 0.9584395908 2.2997807592 -0.2675936407
| 13> C 1.6755504642 0.3205556083 0.2612241983
| 14> H 2.6531404638 0.4202150837 -0.2200464431
| 15> C 1.2375035179 -1.1475328699 0.0534663796
| 16> H 1.4431188084 -1.694023048 0.9968833255
| 17> O -0.1406384418 -1.260457642 -0.2397226191
| 18> O 1.9454455236 -1.6713228897 -1.0094113552
| 19> O 1.7272666499 0.5959835775 1.6435740865
| 20> O 0.6822137431 1.0838150345 -1.8271907928
| 21> O -0.9397205377 1.9103663957 1.2850528507
| 22> O -2.8858594215 -0.7375967587 -0.8525174396
| 23> H -3.0074985631 -0.2048580745 1.0787821264
| 24> H -2.4887341725 -1.8934370556 0.8109099192
| 25> H 1.6611904183 -2.5827504732 -1.1824080615
| 26> H 2.5161830896 1.1140163222 1.8526809503
| 27> H 0.5590584689 0.1456868802 -2.0355009933
| 28> H -0.2668986189 1.7151188492 1.9574685401
| 29> H -2.3702368503 -1.3192234909 -1.4292260287
| 30> *
| 31>
| 32>                          ****END OF INPUT****

CARTESIAN COORDINATES (ANGSTROEM)
---------------------------------
  C     -2.395122   -0.859649    0.456288
  C     -0.932407   -0.419823    0.586624
  H     -0.618078   -0.551941    1.632921
  C     -0.734821    1.057382    0.189872
  H     -1.484862    1.336625   -0.558764
  C      0.668871    1.256522   -0.436333
  H      0.958440    2.299781   -0.267594
  C      1.675550    0.320556    0.261224
  H      2.653140    0.420215   -0.220046
  C      1.237504   -1.147533    0.053466
  H      1.443119   -1.694023    0.996883
  O     -0.140638   -1.260458   -0.239723
  O      1.945446   -1.671323   -1.009411
  O      1.727267    0.595984    1.643574
  O      0.682214    1.083815   -1.827191
  O     -0.939721    1.910366    1.285053
  O     -2.885859   -0.737597   -0.852517
  H     -3.007499   -0.204858    1.078782
  H     -2.488734   -1.893437    0.810910
  H      1.661190   -2.582750   -1.182408
  H      2.516183    1.114016    1.852681
  H      0.559058    0.145687   -2.035501
  H     -0.266899    1.715119    1.957469
  H     -2.370237   -1.319223   -1.429226

 Total Charge           Charge          ....    0
 Multiplicity           Mult            ....    1
 Number of Electrons    NEL             ....   96
 Basis Dimension        Dim             ....  192

ORBITAL ENERGIES
----------------

  NO   OCC          E(Eh)            E(eV)
   0   2.0000     -18.781274      -511.0645
   1   2.0000     -18.781085      -511.0593
   2   2.0000     -18.779688      -511.0213
   3   2.0000     -18.748201      -510.1645
   4   2.0000     -18.741364      -509.9784
   5   2.0000     -18.739549      -509.9291
   6   2.0000      -9.998587      -272.0754
   7   2.0000      -9.951413      -270.7917
   8   2.0000      -9.941520      -270.5225
   9   2.0000      -9.934893      -270.3422
  10   2.0000      -9.932082      -270.2657
  11   2.0000      -9.927546      -270.1423
  12   2.0000      -0.997534       -27.1443
  13   2.0000      -0.954171       -25.9643
  14   2.0000      -0.938070       -25.5262
  15   2.0000      -0.923351       -25.1257
  16   2.0000      -0.917924       -24.9780
  17   2.0000      -0.913882       -24.8680
  18   2.0000      -0.694625       -18.9017
  19   2.0000      -0.691777       -18.8242
  20   2.0000      -0.625262       -17.0142
  21   2.0000      -0.580827       -15.8051
  22   2.0000      -0.569831       -15.5059
  23   2.0000      -0.530293       -14.4300
  24   2.0000      -0.516191       -14.0463
  25   2.0000      -0.493088       -13.4176
  26   2.0000      -0.475847       -12.9485
  27   2.0000      -0.464920       -12.6511
  28   2.0000      -0.445835       -12.1318
  29   2.0000      -0.433412       -11.7937
  30   2.0000      -0.427339       -11.6285
  31   2.0000      -0.394558       -10.7365
  32   2.0000      -0.379016       -10.3135
  33   2.0000      -0.369412       -10.0522
  34   2.0000      -0.360047        -9.7974
  35   2.0000      -0.349411        -9.5079
  36   2.0000      -0.336773        -9.1641
  37   2.0000      -0.326325        -8.8797
  38   2.0000      -0.304121        -8.2756
  39   2.0000      -0.294094        -8.0027
  40   2.0000      -0.282148        -7.6776
  41   2.0000      -0.268329        -7.3016
  42   2.0000      -0.264257        -7.1908
  43   2.0000      -0.256413        -6.9773
  44   2.0000      -0.246674        -6.7123
  45   2.0000      -0.225500        -6.1362
  46   2.0000      -0.210676        -5.7328
  47   2.0000      -0.191192        -5.2026
  48   0.0000      -0.002133        -0.0580
  49   0.0000       0.017104         0.4654
  50   0.0000       0.034616         0.9419
  51   0.0000       0.052289         1.4228
  52   0.0000       0.056781         1.5451

MULLIKEN ATOMIC CHARGES
-----------------------
   0 C :    0.085606
   1 C :   -0.030669
   2 H :    0.056616
   3 C :    0.093154
   4 H :    0.076921
   5 C :    0.060291
   6 H :    0.064307
   7 C :   -0.024823
   8 H :    0.093661
   9 C :    0.179275
  10 H :    0.062383
  11 O :   -0.331325
  12 O :   -0.379644
  13 O :   -0.416380
  14 O :   -0.411010
  15 O :   -0.428772
  16 O :   -0.431300
  17 H :    0.097347
  18 H :    0.073946
  19 H :    0.309722
  20 H :    0.318003
  21 H :    0.292961
  22 H :    0.292416
  23 H :    0.297314
Sum of atomic charges:    0.0000000

LOEWDIN ATOMIC CHARGES
----------------------
   0 C :   -0.122472
   1 C :   -0.084352
   2 H :    0.105645
   3 C :   -0.076427
   4 H :    0.121948
   5 C :   -0.077369
   6 H :    0.114095
   7 C :   -0.091829
   8 H :    0.120207
   9 C :   -0.002488
  10 H :    0.088300
  11 O :   -0.172001
  12 O :   -0.290273
  13 O :   -0.314454
  14 O :   -0.311764
  15 O :   -0.315952
  16 O :   -0.328173
  17 H :    0.124447
  18 H :    0.099030
  19 H :    0.292170
  20 H :    0.299705
  21 H :    0.270332
  22 H :    0.270138
  23 H :    0.281534

  Mayer bond orders larger than 0.100000
B(  0-C ,  1-C ) :   1.0439 B(  0-C , 16-O ) :   1.0699 B(  0-C , 17-H ) :   0.9176
B(  0-C , 18-H ) :   0.9137 B(  1-C ,  2-H ) :   0.8639 B(  1-C ,  3-C ) :   0.9867
B(  1-C , 11-O ) :   0.9933 B(  3-C ,  4-H ) :   0.8737 B(  3-C ,  5-C ) :   0.9627
B(  3-C , 15-O ) :   1.0307 B(  5-C ,  6-H ) :   0.8894 B(  5-C ,  7-C ) :   0.9953
B(  5-C , 14-O ) :   1.0664 B(  7-C ,  8-H ) :   0.8983 B(  7-C ,  9-C ) :   0.9436
B(  7-C , 13-O ) :   1.0540 B(  9-C , 10-H ) :   0.9007 B(  9-C , 11-O ) :   1.0174
B(  9-C , 12-O ) :   1.1565 B( 12-O , 19-H ) :   0.8382 B( 13-O , 20-H ) :   0.8432
B( 14-O , 21-H ) :   0.8351 B( 15-O , 22-H ) :   0.8324 B( 16-O , 23-H ) :   0.8459

Dispersion correction           -0.025086880
FINAL SINGLE POINT ENERGY      -685.694025808333

DIPOLE MOMENT
-------------

Method             : SCF
Type of density    : Electron Density
Multiplicity       :   1
Irrep              :   0
Energy             :  -685.8255815636773605 Eh
Relativity type    :
Basis              : AO
                                X                 Y                 Z
Electronic contribution:      1.620953021      -0.004430625      -1.775181532
Nuclear contribution   :     -0.411893867      -1.140853390       2.458298816
                        -----------------------------------------
Total Dipole Moment    :      1.209059153      -1.145284015       0.683117284
                        -----------------------------------------
Magnitude (a.u.)       :      1.800041315
Magnitude (Debye)      :      4.575341414

Rotational constants in cm-1:             0.039064             0.028111             0.023000
Rotational constants in MHz :          1171.122995           842.752430           689.530895

                             ****ORCA TERMINATED NORMALLY****
TOTAL RUN TIME: 0 days 0 hours 0 minutes 12 seconds 359 msec
