                         Program Version 6.0.0  -   RELEASE  -
|  1> ! r2scan-3c def2/J RI DEFGRID2 scfconv6 printgap
|  2> %output
|  3>     printlevel normal
|  4> end
|  5> * xyz 0 1
|  6> C -2.4674547302 -1.1083703296 0.3451788674
|  7> C -1.0441035832 -0.5727918221 0.5715303052
|  8> H -0.8546520001 -0.4806242484 1.6529278015
|  9> C -0.8154552298 0.7974694009 -0.0878745059
| 10> H -0.9213787327 0.6770434888 -1.1743781079
| 11> C 0.6147535383 1.2464081909 0.21941736
| 12> H 0.7129195151 1.3799089403 1.3095182873
| 13> C 1.6213236924 0.1838513947 -0.2375735128
| 14> H 1.6295963769 0.1502602433 -1.3365315526
| 15> C 1.2213577435 -1.2088197889 0.2728191246
| 16> H 1.4053908546 -1.2295437135 1.3684327609
| 17> O -0.1338240038 -1.509269445 0.0248882219
| 18> O 1.9843081468 -2.1474657725 -0.3854835194
| 19> O 2.9028359372 0.4574903456 0.2628194921
| 20> O 0.9380177874 2.4456751755 -0.4402302223
| 21> O -1.6894326199 1.7847635663 0.3966945755
| 22> O -3.046114235 -0.4965277781 -0.7859023134
| 23> H -3.0725060073 -0.8969324313 1.2350146765
| 24> H -2.381507342 -2.1907966378 0.2124431804
| 25> H 1.6744351127 -3.038571341 -0.1564695634
| 26> H 3.1689414037 1.3348772985 -0.0540169203
| 27> H 0.2394567726 3.0910390958 -0.2524628452
| 28> H -2.5760122375 1.5994022638 0.0513364625
| 29> H -3.8342625761 -0.991376421 -1.0491133311
| 30> *
| 31>
| 32>                          ****END OF INPUT****

CARTESIAN COORDINATES (ANGSTROEM)
---------------------------------
  C     -2.467455   -1.108370    0.345179
  C     -1.044104   -0.572792    0.571530
  H     -0.854652   -0.480624    1.652928
  C     -0.815455    0.797469   -0.087875
  H     -0.921379    0.677043   -1.174378
  C      0.614754    1.246408    0.219417
  H      0.712920    1.379909    1.309518
  C      1.621324    0.183851   -0.237574
  H      1.629596    0.150260   -1.336532
  C      1.221358   -1.208820    0.272819
  H      1.405391   -1.229544    1.368433
  O     -0.133824   -1.509269    0.024888
  O      1.984308   -2.147466   -0.385484
  O      2.902836    0.457490    0.262819
  O      0.938018    2.445675   -0.440230
  O     -1.689433    1.784764    0.396695
  O     -3.046114   -0.496528   -0.785902
  H     -3.072506   -0.896932    1.235015
  H     -2.381507   -2.190797    0.212443
  H      1.674435   -3.038571   -0.156470
  H      3.168941    1.334877   -0.054017
  H      0.239457    3.091039   -0.252463
  H     -2.576012    1.599402    0.051336
  H     -3.834263   -0.991376   -1.049113

 Total Charge           Charge          ....    0
 Multiplicity           Mult            ....    1
 Number of Electrons    NEL             ....   96
 Basis Dimension        Dim             ....  318

ORBITAL ENERGIES
----------------

  NO   OCC          E(Eh)            E(eV)
   0   2.0000     -18.975655      -516.3538
   1   2.0000     -18.967852      -516.1415
   2   2.0000     -18.961777      -515.9762
   3   2.0000     -18.959896      -515.9250
   4   2.0000     -18.954768      -515.7855
   5   2.0000     -18.947697      -515.5931
   6   2.0000     -10.135182      -275.7923
   7   2.0000     -10.096576      -274.7418
   8   2.0000     -10.095801      -274.7207
   9   2.0000     -10.085717      -274.4463
  10   2.0000     -10.084737      -274.4196
  11   2.0000     -10.082728      -274.3650
  12   2.0000      -1.048282       -28.5252
  13   2.0000      -1.015952       -27.6455
  14   2.0000      -1.008067       -27.4309
  15   2.0000      -0.994170       -27.0527
  16   2.0000      -0.980619       -26.6840
  17   2.0000      -0.976207       -26.5639
  18   2.0000      -0.750121       -20.4118
  19   2.0000      -0.737166       -20.0593
  20   2.0000      -0.665553       -18.1106
  21   2.0000      -0.609557       -16.5869
  22   2.0000      -0.588427       -16.0119
  23   2.0000      -0.551819       -15.0158
  24   2.0000      -0.525122       -14.2893
  25   2.0000      -0.510902       -13.9024
  26   2.0000      -0.501371       -13.6430
  27   2.0000      -0.483292       -13.1510
  28   2.0000      -0.480169       -13.0661
  29   2.0000      -0.454299       -12.3621
  30   2.0000      -0.430783       -11.7222
  31   2.0000      -0.422116       -11.4864
  32   2.0000      -0.409827       -11.1520
  33   2.0000      -0.401593       -10.9279
  34   2.0000      -0.378922       -10.3110
  35   2.0000      -0.376723       -10.2512
  36   2.0000      -0.347556        -9.4575
  37   2.0000      -0.338675        -9.2158
  38   2.0000      -0.327041        -8.8992
  39   2.0000      -0.323356        -8.7990
  40   2.0000      -0.298937        -8.1345
  41   2.0000      -0.296079        -8.0567
  42   2.0000      -0.275011        -7.4834
  43   2.0000      -0.261500        -7.1158
  44   2.0000      -0.252626        -6.8743
  45   2.0000      -0.245941        -6.6924
  46   2.0000      -0.235330        -6.4037
  47   2.0000      -0.224368        -6.1054
  48   0.0000       0.025457         0.6927
  49   0.0000       0.046583         1.2676
  50   0.0000       0.063652         1.7321
  51   0.0000       0.083038         2.2596
  52   0.0000       0.090259         2.4561

MULLIKEN ATOMIC CHARGES
-----------------------
   0 C :   -0.205450
   1 C :   -0.063322
   2 H :    0.165250
   3 C :   -0.035255
   4 H :    0.188698
   5 C :    0.001629
   6 H :    0.167530
   7 C :    0.033181
   8 H :    0.172389
   9 C :   -0.116240
  10 H :    0.145222
  11 O :   -0.179527
  12 O :   -0.377954
  13 O :   -0.423587
  14 O :   -0.444671
  15 O :   -0.447527
  16 O :   -0.416591
  17 H :    0.131375
  18 H :    0.145477
  19 H :    0.306726
  20 H :    0.313047
  21 H :    0.313401
  22 H :    0.321201
  23 H :    0.304999
Sum of atomic charges:   -0.0000000

LOEWDIN ATOMIC CHARGES
----------------------
   0 C :    0.046660
   1 C :    0.121195
   2 H :    0.184150
   3 C :    0.107609
   4 H :    0.196252
   5 C :    0.107548
   6 H :    0.184668
   7 C :    0.127884
   8 H :    0.192558
   9 C :    0.306637
  10 H :    0.180782
  11 O :   -0.689502
  12 O :   -0.482421
  13 O :   -0.558591
  14 O :   -0.576244
  15 O :   -0.576103
  16 O :   -0.628251
  17 H :    0.164500
  18 H :    0.183950
  19 H :    0.283036
  20 H :    0.282650
  21 H :    0.283640
  22 H :    0.282990
  23 H :    0.274405

  Mayer bond orders larger than 0.100000
B(  0-C ,  1-C ) :   0.9454 B(  0-C , 16-O ) :   0.9735 B(  0-C , 17-H ) :   0.9515
B(  0-C , 18-H ) :   0.9843 B(  1-C ,  2-H ) :   0.9624 B(  1-C ,  3-C ) :   0.7622
B(  1-C , 11-O ) :   0.7939 B(  1-C , 16-O ) :  -0.1060 B(  3-C ,  4-H ) :   1.0191
B(  3-C ,  5-C ) :   0.8176 B(  3-C , 15-O ) :   0.9140 B(  3-C , 16-O ) :   0.1254
B(  5-C ,  6-H ) :   0.9847 B(  5-C ,  7-C ) :   0.8706 B(  5-C , 14-O ) :   0.8998
B(  7-C ,  8-H ) :   0.9609 B(  7-C ,  9-C ) :   0.8702 B(  7-C , 13-O ) :   0.8997
B(  9-C , 10-H ) :   1.0208 B(  9-C , 11-O ) :   0.9262 B(  9-C , 12-O ) :   1.0795
B( 12-O , 19-H ) :   0.8800 B( 13-O , 20-H ) :   0.8809 B( 14-O , 21-H ) :   0.8747
B( 15-O , 22-H ) :   0.8659 B( 16-O , 23-H ) :   0.8927

Dispersion correction           -0.007989752
FINAL SINGLE POINT ENERGY      -687.072156798168

DIPOLE MOMENT
-------------

Method             : SCF
Type of density    : Electron Density
Multiplicity       :   1
Irrep              :   0
Energy             :  -687.0837969783531207 Eh
Relativity type    :
Basis              : AO
                                X                 Y                 Z
Electronic contribution:      2.832631927       0.094199290      -1.368652241
Nuclear contribution   :     -4.498043609      -0.550584495       1.681256548
                        -----------------------------------------
Total Dipole Moment    :     -1.665411682      -0.456385205       0.312604307
                        -----------------------------------------
Magnitude (a.u.)       :      1.754880332
Magnitude (Debye)      :      4.460551317

Rotational constants in cm-1:             0.042134             0.025934             0.017337
Rotational constants in MHz :          1263.136905           777.490834           519.757559

                             ****ORCA TERMINATED NORMALLY****
TOTAL RUN TIME: 0 days 0 hours 0 minutes 43 seconds 581 msec
