                         Program Version 6.0.0  -   RELEASE  -
|  1> ! r2scan-3c def2/J RI DEFGRID2 scfconv6 printgap
|  2> %output
|  3>     printlevel normal
|  4> end
|  5> %cpcm
|  6>     smd true
|  7>     smdsolvent "water"
|  8> end
|  9> * xyz 0 1
| 10> C -2.4674547302 -1.1083703296 0.3451788674
| 11> C -1.0441035832 -0.5727918221 0.5715303052
| 12> H -0.8546520001 -0.4806242484 1.6529278015
| 13> C -0.8154552298 0.7974694009 -0.0878745059
| 14> H -0.9213787327 0.6770434888 -1.1743781079
| 15> C 0.6147535383 1.2464081909 0.21941736
| 16> H 0.7129195151 1.3799089403 1.3095182873
| 17> C 1.6213236924 0.1838513947 -0.2375735128
| 18> H 1.6295963769 0.1502602433 -1.3365315526
| 19> C 1.2213577435 -1.2088197889 0.2728191246
| 20> H 1.4053908546 -1.2295437135 1.3684327609
| 21> O -0.1338240038 -1.509269445 0.0248882219
| 22> O 1.9843081468 -2.1474657725 -0.3854835194
| 23> O 2.9028359372 0.4574903456 0.2628194921
| 24> O 0.9380177874 2.4456751755 -0.4402302223
| 25> O -1.6894326199 1.7847635663 0.3966945755
| 26> O -3.046114235 -0.4965277781 -0.7859023134
| 27> H -3.0725060073 -0.8969324313 1.2350146765
| 28> H -2.381507342 -2.1907966378 0.2124431804
| 29> H 1.6744351127 -3.038571341 -0.1564695634
| 30> H 3.1689414037 1.3348772985 -0.0540169203
| 31> H 0.2394567726 3.0910390958 -0.2524628452
| 32> H -2.5760122375 1.5994022638 0.0513364625
| 33> H -3.8342625761 -0.991376421 -1.0491133311
| 34> *
| 35>
| 36>                          ****END OF INPUT****

CARTESIAN COORDINATES (ANGSTROEM)
---------------------------------
  C     -2.467455   -1.108370    0.345179
  C     -1.044104   -0.572792    0.571530
  H     -0.854652   -0.480624    1.652928
  C     -0.815455    0.797469   -0.087875
  H     -0.921379    0.677043   -1.174378
  C      0.614754    1.246408    0.219417
  H      0.712920    1.379909    1.309518
  C      1.621324    0.183851   -0.237574
  H      1.629596    0.150260   -1.336532
  C      1.221358   -1.208820    0.272819
  H      1.405391   -1.229544    1.368433
  O     -0.133824   -1.509269    0.024888
  O      1.984308   -2.147466   -0.385484
  O      2.902836    0.457490    0.262819
  O      0.938018    2.445675   -0.440230
  O     -1.689433    1.784764    0.396695
  O     -3.046114   -0.496528   -0.785902
  H     -3.072506   -0.896932    1.235015
  H     -2.381507   -2.190797    0.212443
  H      1.674435   -3.038571   -0.156470
  H      3.168941    1.334877   -0.054017
  H      0.239457    3.091039   -0.252463
  H     -2.576012    1.599402    0.051336
  H     -3.834263   -0.991376   -1.049113

 Total Charge           Charge          ....    0
 Multiplicity           Mult            ....    1
 Number of Electrons    NEL             ....   96
 Basis Dimension        Dim             ....  318

ORBITAL ENERGIES
----------------

  NO   OCC          E(Eh)            E(eV)
   0   2.0000     -18.972024      -516.2550
   1   2.0000     -18.968713      -516.1649
   2   2.0000     -18.961846      -515.9781
   3   2.0000     -18.961823      -515.9774
   4   2.0000     -18.960193      -515.9331
   5   2.0000     -18.958439      -515.8853
   6   2.0000     -10.138210      -275.8747
   7   2.0000     -10.088593      -274.5246
   8   2.0000     -10.088392      -274.5191
   9   2.0000     -10.086136      -274.4577
  10   2.0000     -10.084354      -274.4092
  11   2.0000     -10.078426      -274.2479
  12   2.0000      -1.053306       -28.6619
  13   2.0000      -1.014629       -27.6095
  14   2.0000      -1.005650       -27.3651
  15   2.0000      -0.993021       -27.0215
  16   2.0000      -0.985477       -26.8162
  17   2.0000      -0.982437       -26.7335
  18   2.0000      -0.748910       -20.3789
  19   2.0000      -0.735336       -20.0095
  20   2.0000      -0.660853       -17.9827
  21   2.0000      -0.611138       -16.6299
  22   2.0000      -0.585006       -15.9188
  23   2.0000      -0.549638       -14.9564
  24   2.0000      -0.521957       -14.2032
  25   2.0000      -0.513929       -13.9847
  26   2.0000      -0.496442       -13.5089
  27   2.0000      -0.483007       -13.1433
  28   2.0000      -0.478297       -13.0151
  29   2.0000      -0.453623       -12.3437
  30   2.0000      -0.428420       -11.6579
  31   2.0000      -0.422730       -11.5031
  32   2.0000      -0.402624       -10.9560
  33   2.0000      -0.401826       -10.9342
  34   2.0000      -0.381992       -10.3945
  35   2.0000      -0.378134       -10.2896
  36   2.0000      -0.355044        -9.6612
  37   2.0000      -0.340301        -9.2601
  38   2.0000      -0.334243        -9.0952
  39   2.0000      -0.323283        -8.7970
  40   2.0000      -0.308361        -8.3909
  41   2.0000      -0.295447        -8.0395
  42   2.0000      -0.282100        -7.6763
  43   2.0000      -0.258025        -7.0212
  44   2.0000      -0.253735        -6.9045
  45   2.0000      -0.248838        -6.7712
  46   2.0000      -0.245515        -6.6808
  47   2.0000      -0.226838        -6.1726
  48   0.0000       0.038512         1.0480
  49   0.0000       0.056946         1.5496
  50   0.0000       0.078427         2.1341
  51   0.0000       0.090293         2.4570
  52   0.0000       0.098583         2.6826

MULLIKEN ATOMIC CHARGES
-----------------------
   0 C :   -0.210213
   1 C :   -0.075264
   2 H :    0.195830
   3 C :   -0.053642
   4 H :    0.196467
   5 C :    0.016348
   6 H :    0.182433
   7 C :    0.038804
   8 H :    0.183816
   9 C :   -0.095824
  10 H :    0.168312
  11 O :   -0.227462
  12 O :   -0.450744
  13 O :   -0.493436
  14 O :   -0.502133
  15 O :   -0.495437
  16 O :   -0.470941
  17 H :    0.153167
  18 H :    0.160584
  19 H :    0.361414
  20 H :    0.355030
  21 H :    0.351900
  22 H :    0.358165
  23 H :    0.352825
Sum of atomic charges:    0.0000000

LOEWDIN ATOMIC CHARGES
----------------------
   0 C :    0.052745
   1 C :    0.122629
   2 H :    0.196281
   3 C :    0.107309
   4 H :    0.197356
   5 C :    0.108864
   6 H :    0.193047
   7 C :    0.123554
   8 H :    0.196799
   9 C :    0.305068
  10 H :    0.192540
  11 O :   -0.706158
  12 O :   -0.514006
  13 O :   -0.589737
  14 O :   -0.598398
  15 O :   -0.591039
  16 O :   -0.643773
  17 H :    0.174631
  18 H :    0.189874
  19 H :    0.302820
  20 H :    0.297200
  21 H :    0.295757
  22 H :    0.294712
  23 H :    0.291927

  Mayer bond orders larger than 0.100000
B(  0-C ,  1-C ) :   0.9325 B(  0-C , 16-O ) :   0.9691 B(  0-C , 17-H ) :   0.9520
B(  0-C , 18-H ) :   0.9807 B(  1-C ,  2-H ) :   0.9545 B(  1-C ,  3-C ) :   0.7715
B(  1-C , 11-O ) :   0.7842 B(  3-C ,  4-H ) :   1.0162 B(  3-C ,  5-C ) :   0.8454
B(  3-C , 15-O ) :   0.9013 B(  3-C , 16-O ) :   0.1219 B(  5-C ,  6-H ) :   0.9660
B(  5-C ,  7-C ) :   0.9043 B(  5-C , 14-O ) :   0.8825 B(  7-C ,  8-H ) :   0.9411
B(  7-C ,  9-C ) :   0.8712 B(  7-C , 13-O ) :   0.8756 B(  9-C , 10-H ) :   1.0103
B(  9-C , 11-O ) :   0.9500 B(  9-C , 12-O ) :   1.0611 B( 12-O , 19-H ) :   0.8528
B( 13-O , 20-H ) :   0.8605 B( 14-O , 21-H ) :   0.8562 B( 15-O , 22-H ) :   0.8467
B( 16-O , 23-H ) :   0.8673

Dispersion correction           -0.007989752
FINAL SINGLE POINT ENERGY      -687.105466246815

DIPOLE MOMENT
-------------

Method             : SCF
Type of density    : Electron Density
Multiplicity       :   1
Irrep              :   0
Energy             :  -687.1171064269999533 Eh
Relativity type    :
Basis              : AO
                                X                 Y                 Z
Electronic contribution:      2.241542627      -0.013031396      -1.060873303
Nuclear contribution   :     -4.498043609      -0.550584495       1.681256548
                        -----------------------------------------
Total Dipole Moment    :     -2.256500982      -0.563615891       0.620383245
                        -----------------------------------------
Magnitude (a.u.)       :      2.407142481
Magnitude (Debye)      :      6.118469945

Rotational constants in cm-1:             0.042134             0.025934             0.017337
Rotational constants in MHz :          1263.136905           777.490834           519.757559

                             ****ORCA TERMINATED NORMALLY****
TOTAL RUN TIME: 0 days 0 hours 0 minutes 52 seconds 320 msec
