                         Program Version 6.0.0  -   RELEASE  -
|  1> ! wb97x-v def2-tzvp def2/J RIJCOSX DEFGRID2 scfconv7 GCP(DFT/TZ) printgap
|  2> %output
|  3>     printlevel normal
|  4> end
|  5> * xyz 0 1
|  6> C -1.2557241937247727 -0.7356371655378976 -0.12461547763646837
|  7> C -0.00038361628776464613 -0.03415470017341958 0.36743590227475287
|  8> C 1.2672204531802675 -0.6941855197863565 -0.1376668252078074
|  9> O 0.031406079326352865 1.3383787809397367 -0.10143908041360138
| 10> H -1.271962183949555 -0.7660310163040527 -1.2197958937227493
| 11> H -1.2905327379288825 -1.763179986491173 0.25205976023681737
| 12> H -2.155004550139168 -0.21655653298060018 0.22479626717024506
| 13> H 0.005820004869560365 -0.02938761093122715 1.4678014529881724
| 14> H 1.2805096859077802 -0.7058199736629379 -1.2332904928550295
| 15> H 1.3208696252445358 -1.7269119352952118 0.21868161825784221
| 16> H 2.154558152820908 -0.1614585838850324 0.21797354439385525
| 17> H -0.786753142923143 1.7595891460137063 0.19257784639814535
| 18> *
| 19>
| 20>                          ****END OF INPUT****

CARTESIAN COORDINATES (ANGSTROEM)
---------------------------------
  C     -1.255724   -0.735637   -0.124615
  C     -0.000384   -0.034155    0.367436
  C      1.267220   -0.694186   -0.137667
  O      0.031406    1.338379   -0.101439
  H     -1.271962   -0.766031   -1.219796
  H     -1.290533   -1.763180    0.252060
  H     -2.155005   -0.216557    0.224796
  H      0.005820   -0.029388    1.467801
  H      1.280510   -0.705820   -1.233290
  H      1.320870   -1.726912    0.218682
  H      2.154558   -0.161459    0.217974
  H     -0.786753    1.759589    0.192578

 Total Charge           Charge          ....    0
 Multiplicity           Mult            ....    1
 Number of Electrons    NEL             ....   34
 Basis Dimension        Dim             ....  172

ORBITAL ENERGIES
----------------

  NO   OCC          E(Eh)            E(eV)
   0   2.0000     -21.664910      -589.5322
   1   2.0000     -12.097757      -329.1967
   2   2.0000     -12.039184      -327.6028
   3   2.0000     -12.032888      -327.4315
   4   2.0000      -1.662803       -45.2472
   5   2.0000      -1.294286       -35.2193
   6   2.0000      -1.187092       -32.3024
   7   2.0000      -1.100349       -29.9420
   8   2.0000      -1.013408       -27.5762
   9   2.0000      -0.942279       -25.6407
  10   2.0000      -0.924944       -25.1690
  11   2.0000      -0.858253       -23.3543
  12   2.0000      -0.834997       -22.7214
  13   2.0000      -0.819795       -22.3077
  14   2.0000      -0.812239       -22.1021
  15   2.0000      -0.788474       -21.4555
  16   2.0000      -0.762580       -20.7509
  17   0.0000      -0.142029        -3.8648
  18   0.0000      -0.048701        -1.3252
  19   0.0000      -0.007668        -0.2086
  20   0.0000       0.001486         0.0404
  21   0.0000       0.005838         0.1589

MULLIKEN ATOMIC CHARGES
-----------------------
   0 C :   -0.355540
   1 C :    0.112167
   2 C :   -0.315261
   3 O :   -0.449929
   4 H :    0.117565
   5 H :    0.104985
   6 H :    0.102282
   7 H :    0.063294
   8 H :    0.108675
   9 H :    0.100680
  10 H :    0.118990
  11 H :    0.292093
Sum of atomic charges:    0.0000000

LOEWDIN ATOMIC CHARGES
----------------------
   0 C :   -0.294542
   1 C :   -0.391774
   2 C :   -0.283225
   3 O :   -0.044741
   4 H :    0.121985
   5 H :    0.121905
   6 H :    0.114468
   7 H :    0.126732
   8 H :    0.122068
   9 H :    0.120612
  10 H :    0.122237
  11 H :    0.164276

  Mayer bond orders larger than 0.100000
B(  0-C ,  1-C ) :   0.9839 B(  0-C ,  4-H ) :   0.9756 B(  0-C ,  5-H ) :   0.9709
B(  0-C ,  6-H ) :   0.9777 B(  1-C ,  2-C ) :   0.9838 B(  1-C ,  3-O ) :   1.0132
B(  1-C ,  7-H ) :   0.9719 B(  2-C ,  8-H ) :   0.9762 B(  2-C ,  9-H ) :   0.9723
B(  2-C , 10-H ) :   0.9777 B(  3-O , 11-H ) :   0.9084

FINAL SINGLE POINT ENERGY      -194.366453083079

DIPOLE MOMENT
-------------

Method             : SCF
Type of density    : Electron Density
Multiplicity       :   1
Irrep              :   0
Energy             :  -194.3748038897791162 Eh
Relativity type    :
Basis              : AO
                                X                 Y                 Z
Electronic contribution:      0.208034845       3.060085458       0.198297017
Nuclear contribution   :     -0.682049700      -3.390602590       0.141637024
                        -----------------------------------------
Total Dipole Moment    :     -0.474014854      -0.330517131       0.339934041
                        -----------------------------------------
Magnitude (a.u.)       :      0.670437774
Magnitude (Debye)      :      1.704117392

Rotational constants in cm-1:             0.285550             0.269413             0.158479
Rotational constants in MHz :          8560.569249          8076.788193          4751.094085

                             ****ORCA TERMINATED NORMALLY****
TOTAL RUN TIME: 0 days 0 hours 0 minutes 40 seconds 224 msec
