                         Program Version 6.0.0  -   RELEASE  -
|  1> ! wb97x-v def2-tzvp def2/J RIJCOSX DEFGRID2 scfconv7 GCP(DFT/TZ) printgap
|  2> %output
|  3>     printlevel normal
|  4> end
|  5> %cpcm
|  6>     smd true
|  7>     smdsolvent "water"
|  8> end
|  9> * xyz 0 1
| 10> C -1.2557241937247727 -0.7356371655378976 -0.12461547763646837
| 11> C -0.00038361628776464613 -0.03415470017341958 0.36743590227475287
| 12> C 1.2672204531802675 -0.6941855197863565 -0.1376668252078074
| 13> O 0.031406079326352865 1.3383787809397367 -0.10143908041360138
| 14> H -1.271962183949555 -0.7660310163040527 -1.2197958937227493
| 15> H -1.2905327379288825 -1.763179986491173 0.25205976023681737
| 16> H -2.155004550139168 -0.21655653298060018 0.22479626717024506
| 17> H 0.005820004869560365 -0.02938761093122715 1.4678014529881724
| 18> H 1.2805096859077802 -0.7058199736629379 -1.2332904928550295
| 19> H 1.3208696252445358 -1.7269119352952118 0.21868161825784221
| 20> H 2.154558152820908 -0.1614585838850324 0.21797354439385525
| 21> H -0.786753142923143 1.7595891460137063 0.19257784639814535
| 22> *
| 23>
| 24>                          ****END OF INPUT****

CARTESIAN COORDINATES (ANGSTROEM)
---------------------------------
  C     -1.255724   -0.735637   -0.124615
  C     -0.000384   -0.034155    0.367436
  C      1.267220   -0.694186   -0.137667
  O      0.031406    1.338379   -0.101439
  H     -1.271962   -0.766031   -1.219796
  H     -1.290533   -1.763180    0.252060
  H     -2.155005   -0.216557    0.224796
  H      0.005820   -0.029388    1.467801
  H      1.280510   -0.705820   -1.233290
  H      1.320870   -1.726912    0.218682
  H      2.154558   -0.161459    0.217974
  H     -0.786753    1.759589    0.192578

 Total Charge           Charge          ....    0
 Multiplicity           Mult            ....    1
 Number of Electrons    NEL             ....   34
 Basis Dimension        Dim             ....  172

ORBITAL ENERGIES
----------------

  NO   OCC          E(Eh)            E(eV)
   0   2.0000     -21.668922      -589.6413
   1   2.0000     -12.091783      -329.0341
   2   2.0000     -12.026863      -327.2676
   3   2.0000     -12.026557      -327.2593
   4   2.0000      -1.667143       -45.3653
   5   2.0000      -1.288145       -35.0522
   6   2.0000      -1.178720       -32.0746
   7   2.0000      -1.099141       -29.9091
   8   2.0000      -1.014244       -27.5990
   9   2.0000      -0.945238       -25.7212
  10   2.0000      -0.925362       -25.1804
  11   2.0000      -0.853343       -23.2206
  12   2.0000      -0.830380       -22.5958
  13   2.0000      -0.811187       -22.0735
  14   2.0000      -0.803732       -21.8707
  15   2.0000      -0.779814       -21.2198
  16   2.0000      -0.755753       -20.5651
  17   0.0000      -0.137665        -3.7461
  18   0.0000      -0.027848        -0.7578
  19   0.0000       0.000950         0.0258
  20   0.0000       0.013532         0.3682
  21   0.0000       0.016500         0.4490

MULLIKEN ATOMIC CHARGES
-----------------------
   0 C :   -0.397412
   1 C :    0.124103
   2 C :   -0.364464
   3 O :   -0.563308
   4 H :    0.121669
   5 H :    0.126966
   6 H :    0.133209
   7 H :    0.086175
   8 H :    0.120635
   9 H :    0.128378
  10 H :    0.128509
  11 H :    0.355541
Sum of atomic charges:   -0.0000000

LOEWDIN ATOMIC CHARGES
----------------------
   0 C :   -0.295974
   1 C :   -0.387728
   2 C :   -0.292685
   3 O :   -0.087877
   4 H :    0.121858
   5 H :    0.127565
   6 H :    0.122371
   7 H :    0.134195
   8 H :    0.122367
   9 H :    0.128150
  10 H :    0.121465
  11 H :    0.186292

  Mayer bond orders larger than 0.100000
B(  0-C ,  1-C ) :   0.9902 B(  0-C ,  4-H ) :   0.9695 B(  0-C ,  5-H ) :   0.9675
B(  0-C ,  6-H ) :   0.9744 B(  1-C ,  2-C ) :   0.9808 B(  1-C ,  3-O ) :   0.9751
B(  1-C ,  7-H ) :   0.9772 B(  2-C ,  8-H ) :   0.9702 B(  2-C ,  9-H ) :   0.9703
B(  2-C , 10-H ) :   0.9750 B(  3-O , 11-H ) :   0.8717

FINAL SINGLE POINT ENERGY      -194.374055567558

DIPOLE MOMENT
-------------

Method             : SCF
Type of density    : Electron Density
Multiplicity       :   1
Irrep              :   0
Energy             :  -194.3824063742580961 Eh
Relativity type    :
Basis              : AO
                                X                 Y                 Z
Electronic contribution:      0.009816916       2.918779738       0.364452601
Nuclear contribution   :     -0.682049700      -3.390602590       0.141637024
                        -----------------------------------------
Total Dipole Moment    :     -0.672232783      -0.471822852       0.506089626
                        -----------------------------------------
Magnitude (a.u.)       :      0.964697065
Magnitude (Debye)      :      2.452065071

Rotational constants in cm-1:             0.285550             0.269413             0.158479
Rotational constants in MHz :          8560.569249          8076.788193          4751.094085

                             ****ORCA TERMINATED NORMALLY****
TOTAL RUN TIME: 0 days 0 hours 0 minutes 49 seconds 223 msec
