                         Program Version 6.0.0  -   RELEASE  -
|  1> ! pbe def2-sv(p) def2/J RI DEFGRID1 loosescf d4 GCP(DFT/SV(P)) printgap
|  2> %output
|  3>     printlevel normal
|  4> end
|  5> * xyz 0 1
|  6> C -2.8609910121 -0.0938541483 1.0754394382
|  7> C -2.283064863 -0.3690206196 -0.3117066068
|  8> H -3.1151262313 -0.6378373274 -0.9714232421
|  9> C -1.2713592297 -1.5125799119 -0.3166898304
| 10> C -0.1316018177 -1.2447755733 0.658443547
| 11> C 0.4991292975 0.1517996489 0.5130981452
| 12> H 0.3641811256 0.6907116989 1.4620669198
| 13> C -0.1637641244 1.0843419068 -0.4810071592
| 14> O 0.4386987625 2.048399324 -0.9249463059
| 15> C -1.5975507777 0.8661416178 -0.889973222
| 16> C 2.0244130464 0.1250088694 0.2581855513
| 17> C 2.7799587162 -0.4924669723 1.4318456252
| 18> C 2.3680681825 -0.5818090297 -1.0517002318
| 19> H -2.114516758 0.3367144812 1.7362471306
| 20> H -3.6888419991 0.6074820498 1.0006878526
| 21> H -3.2332015537 -1.0136182579 1.519478201
| 22> H -1.7594565804 -2.4500112904 -0.0459495207
| 23> H -0.8736679113 -1.620495673 -1.3284024515
| 24> H -0.5020196577 -1.3675179181 1.6760661094
| 25> H 0.6338608693 -2.0045845751 0.5085502616
| 26> H -2.145999263 1.7775405167 -0.6375003325
| 27> H -1.5853727243 0.81623942 -1.9829448926
| 28> H 2.3383070091 1.1706878384 0.1606793298
| 29> H 2.5490011667 0.0323723923 2.3558153536
| 30> H 3.8508515643 -0.4224598276 1.2580491305
| 31> H 2.5253824946 -1.5413984048 1.5578007085
| 32> H 1.8624073201 -0.0967063572 -1.8842502289
| 33> H 2.0791049287 -1.6293225671 -1.0303391822
| 34> H 3.4394125703 -0.5293819141 -1.2296013252
| 35> *
| 36>
| 37>                          ****END OF INPUT****

CARTESIAN COORDINATES (ANGSTROEM)
---------------------------------
  C     -2.860991   -0.093854    1.075439
  C     -2.283065   -0.369021   -0.311707
  H     -3.115126   -0.637837   -0.971423
  C     -1.271359   -1.512580   -0.316690
  C     -0.131602   -1.244776    0.658444
  C      0.499129    0.151800    0.513098
  H      0.364181    0.690712    1.462067
  C     -0.163764    1.084342   -0.481007
  O      0.438699    2.048399   -0.924946
  C     -1.597551    0.866142   -0.889973
  C      2.024413    0.125009    0.258186
  C      2.779959   -0.492467    1.431846
  C      2.368068   -0.581809   -1.051700
  H     -2.114517    0.336714    1.736247
  H     -3.688842    0.607482    1.000688
  H     -3.233202   -1.013618    1.519478
  H     -1.759457   -2.450011   -0.045950
  H     -0.873668   -1.620496   -1.328402
  H     -0.502020   -1.367518    1.676066
  H      0.633861   -2.004585    0.508550
  H     -2.145999    1.777541   -0.637500
  H     -1.585373    0.816239   -1.982945
  H      2.338307    1.170688    0.160679
  H      2.549001    0.032372    2.355815
  H      3.850852   -0.422460    1.258049
  H      2.525382   -1.541398    1.557801
  H      1.862407   -0.096706   -1.884250
  H      2.079105   -1.629323   -1.030339
  H      3.439413   -0.529382   -1.229601

 Total Charge           Charge          ....    0
 Multiplicity           Mult            ....    1
 Number of Electrons    NEL             ....   86
 Basis Dimension        Dim             ....  190

ORBITAL ENERGIES
----------------

  NO   OCC          E(Eh)            E(eV)
   0   2.0000     -18.728744      -509.6350
   1   2.0000      -9.969293      -271.2782
   2   2.0000      -9.902486      -269.4604
   3   2.0000      -9.900091      -269.3952
   4   2.0000      -9.892466      -269.1877
   5   2.0000      -9.890715      -269.1400
   6   2.0000      -9.889942      -269.1190
   7   2.0000      -9.889575      -269.1090
   8   2.0000      -9.881444      -268.8878
   9   2.0000      -9.871730      -268.6234
  10   2.0000      -9.869913      -268.5740
  11   2.0000      -0.929080       -25.2816
  12   2.0000      -0.765355       -20.8264
  13   2.0000      -0.728563       -19.8252
  14   2.0000      -0.671803       -18.2807
  15   2.0000      -0.650466       -17.7001
  16   2.0000      -0.622277       -16.9330
  17   2.0000      -0.610164       -16.6034
  18   2.0000      -0.564521       -15.3614
  19   2.0000      -0.517383       -14.0787
  20   2.0000      -0.498338       -13.5605
  21   2.0000      -0.447242       -12.1701
  22   2.0000      -0.441165       -12.0047
  23   2.0000      -0.421411       -11.4672
  24   2.0000      -0.417115       -11.3503
  25   2.0000      -0.408354       -11.1119
  26   2.0000      -0.390709       -10.6317
  27   2.0000      -0.375995       -10.2313
  28   2.0000      -0.370928       -10.0935
  29   2.0000      -0.352353        -9.5880
  30   2.0000      -0.349570        -9.5123
  31   2.0000      -0.345725        -9.4077
  32   2.0000      -0.337309        -9.1787
  33   2.0000      -0.332081        -9.0364
  34   2.0000      -0.318334        -8.6623
  35   2.0000      -0.304935        -8.2977
  36   2.0000      -0.300294        -8.1714
  37   2.0000      -0.294303        -8.0084
  38   2.0000      -0.290069        -7.8932
  39   2.0000      -0.276587        -7.5263
  40   2.0000      -0.268464        -7.3053
  41   2.0000      -0.266587        -7.2542
  42   2.0000      -0.188133        -5.1194
  43   0.0000      -0.053271        -1.4496
  44   0.0000       0.019341         0.5263
  45   0.0000       0.041928         1.1409
  46   0.0000       0.051188         1.3929
  47   0.0000       0.062760         1.7078

MULLIKEN ATOMIC CHARGES
-----------------------
   0 C :   -0.259024
   1 C :   -0.156930
   2 H :    0.069569
   3 C :   -0.119076
   4 C :   -0.151179
   5 C :   -0.109636
   6 H :    0.099928
   7 C :   -0.013315
   8 O :   -0.179594
   9 C :   -0.092510
  10 C :   -0.169933
  11 C :   -0.226236
  12 C :   -0.258083
  13 H :    0.106084
  14 H :    0.103976
  15 H :    0.103859
  16 H :    0.084756
  17 H :    0.082800
  18 H :    0.081832
  19 H :    0.104504
  20 H :    0.108523
  21 H :    0.108714
  22 H :    0.086694
  23 H :    0.093318
  24 H :    0.100394
  25 H :    0.093739
  26 H :    0.112306
  27 H :    0.092571
  28 H :    0.101953
Sum of atomic charges:    0.0000000

LOEWDIN ATOMIC CHARGES
----------------------
   0 C :   -0.331992
   1 C :   -0.155189
   2 H :    0.118494
   3 C :   -0.216443
   4 C :   -0.220855
   5 C :   -0.163315
   6 H :    0.146009
   7 C :    0.057295
   8 O :   -0.136606
   9 C :   -0.240549
  10 C :   -0.145899
  11 C :   -0.329817
  12 C :   -0.332460
  13 H :    0.116737
  14 H :    0.122065
  15 H :    0.120588
  16 H :    0.118449
  17 H :    0.115589
  18 H :    0.120139
  19 H :    0.120738
  20 H :    0.141872
  21 H :    0.144693
  22 H :    0.124525
  23 H :    0.116304
  24 H :    0.120252
  25 H :    0.114130
  26 H :    0.120610
  27 H :    0.113035
  28 H :    0.121600

  Mayer bond orders larger than 0.100000
B(  0-C ,  1-C ) :   1.1017 B(  0-C , 13-H ) :   0.9442 B(  0-C , 14-H ) :   0.9460
B(  0-C , 15-H ) :   0.9498 B(  1-C ,  2-H ) :   0.8930 B(  1-C ,  3-C ) :   1.0925
B(  1-C ,  9-C ) :   1.0500 B(  3-C ,  4-C ) :   1.1631 B(  3-C , 16-H ) :   0.9126
B(  3-C , 17-H ) :   0.9149 B(  4-C ,  5-C ) :   1.0315 B(  4-C , 18-H ) :   0.8977
B(  4-C , 19-H ) :   0.9072 B(  5-C ,  6-H ) :   0.8404 B(  5-C ,  7-C ) :   0.9867
B(  5-C , 10-C ) :   1.0626 B(  7-C ,  8-O ) :   2.1243 B(  7-C ,  9-C ) :   1.0387
B(  9-C , 20-H ) :   0.8877 B(  9-C , 21-H ) :   0.8827 B( 10-C , 11-C ) :   1.1149
B( 10-C , 12-C ) :   1.1152 B( 10-C , 22-H ) :   0.8783 B( 11-C , 23-H ) :   0.9490
B( 11-C , 24-H ) :   0.9492 B( 11-C , 25-H ) :   0.9401 B( 12-C , 26-H ) :   0.9441
B( 12-C , 27-H ) :   0.9392 B( 12-C , 28-H ) :   0.9490

Dispersion correction           -0.030782484
FINAL SINGLE POINT ENERGY      -466.027232763899

DIPOLE MOMENT
-------------

Method             : SCF
Type of density    : Electron Density
Multiplicity       :   1
Irrep              :   0
Energy             :  -466.1235473104412677 Eh
Relativity type    :
Basis              : AO
                                X                 Y                 Z
Electronic contribution:     -1.115003032       6.621058561      -3.491395707
Nuclear contribution   :      0.592209947      -7.363847313       3.856240650
                        -----------------------------------------
Total Dipole Moment    :     -0.522793085      -0.742788752       0.364844943
                        -----------------------------------------
Magnitude (a.u.)       :      0.978856257
Magnitude (Debye)      :      2.488054878

Rotational constants in cm-1:             0.056835             0.027117             0.022860
Rotational constants in MHz :          1703.872254           812.937241           685.316801

                             ****ORCA TERMINATED NORMALLY****
TOTAL RUN TIME: 0 days 0 hours 0 minutes 13 seconds 122 msec
