                         Program Version 6.0.0  -   RELEASE  -
|  1> ! wb97x-v def2-tzvp def2/J RIJCOSX DEFGRID2 scfconv7 GCP(DFT/TZ) printgap
|  2> %output
|  3>     printlevel normal
|  4> end
|  5> * xyz 0 1
|  6> C -2.5611630271708963 -0.9757066310580133 0.00059918831601361
|  7> C -1.236128642282847 -0.2775626854254946 -0.0008416142106384253
|  8> C -1.156654539481149 1.120357030105698 -0.0006438709455822429
|  9> C 0.08905639837118592 1.721294529987229 0.00026449029420012323
| 10> N 1.2528251184801085 1.0463530435902981 0.0008209237478389405
| 11> C 1.185574120362135 -0.2952430546992461 0.00045002785731925284
| 12> C -0.035109510276197235 -0.9785015778854538 -0.0004059979749362478
| 13> C 2.474047041607562 -1.0623424750407733 2.031300233556338e-06
| 14> H -3.1341855635091416 -0.7105778087699494 0.8957111540886901
| 15> H -3.1597216242238173 -0.6686303895394589 -0.8635637158146905
| 16> H -2.440870380697987 -2.060972591348886 -0.025850453141306354
| 17> H -2.0568004190763354 1.7276252895593454 -0.0012547868836948653
| 18> H 0.16783687268827888 2.8067676264925496 0.00035788488313149094
| 19> H -0.038474255840351156 -2.0652233473225454 -0.001005818021465681
| 20> H 3.3304954137924643 -0.386251604671594 0.009284310878953098
| 21> H 2.5338446805735537 -1.7186261891758705 0.8748428987096118
| 22> H 2.54175422378815 -1.7034237939627492 -0.885583064728893
| 23> *
| 24>
| 25>                          ****END OF INPUT****

CARTESIAN COORDINATES (ANGSTROEM)
---------------------------------
  C     -2.561163   -0.975707    0.000599
  C     -1.236129   -0.277563   -0.000842
  C     -1.156655    1.120357   -0.000644
  C      0.089056    1.721295    0.000264
  N      1.252825    1.046353    0.000821
  C      1.185574   -0.295243    0.000450
  C     -0.035110   -0.978502   -0.000406
  C      2.474047   -1.062342    0.000002
  H     -3.134186   -0.710578    0.895711
  H     -3.159722   -0.668630   -0.863564
  H     -2.440870   -2.060973   -0.025850
  H     -2.056800    1.727625   -0.001255
  H      0.167837    2.806768    0.000358
  H     -0.038474   -2.065223   -0.001006
  H      3.330495   -0.386252    0.009284
  H      2.533845   -1.718626    0.874843
  H      2.541754   -1.703424   -0.885583

 Total Charge           Charge          ....    0
 Multiplicity           Mult            ....    1
 Number of Electrons    NEL             ....   58
 Basis Dimension        Dim             ....  302

ORBITAL ENERGIES
----------------

  NO   OCC          E(Eh)            E(eV)
   0   2.0000     -16.515889      -449.4202
   1   2.0000     -12.089585      -328.9743
   2   2.0000     -12.078939      -328.6846
   3   2.0000     -12.076653      -328.6224
   4   2.0000     -12.053491      -327.9922
   5   2.0000     -12.049765      -327.8908
   6   2.0000     -12.049383      -327.8804
   7   2.0000     -12.039131      -327.6014
   8   2.0000      -1.510891       -41.1134
   9   2.0000      -1.354480       -36.8573
  10   2.0000      -1.308519       -35.6066
  11   2.0000      -1.229485       -33.4560
  12   2.0000      -1.203151       -32.7394
  13   2.0000      -1.139364       -31.0037
  14   2.0000      -1.091767       -29.7085
  15   2.0000      -1.000030       -27.2122
  16   2.0000      -0.956599       -26.0304
  17   2.0000      -0.916813       -24.9478
  18   2.0000      -0.875632       -23.8272
  19   2.0000      -0.869745       -23.6670
  20   2.0000      -0.857447       -23.3323
  21   2.0000      -0.846082       -23.0231
  22   2.0000      -0.842506       -22.9258
  23   2.0000      -0.817486       -22.2449
  24   2.0000      -0.812958       -22.1217
  25   2.0000      -0.798813       -21.7368
  26   2.0000      -0.759094       -20.6560
  27   2.0000      -0.685794       -18.6614
  28   2.0000      -0.642151       -17.4738
  29   0.0000      -0.286203        -7.7880
  30   0.0000      -0.241689        -6.5767
  31   0.0000      -0.097475        -2.6524
  32   0.0000      -0.055254        -1.5035
  33   0.0000      -0.037482        -1.0200

MULLIKEN ATOMIC CHARGES
-----------------------
   0 C :   -0.363868
   1 C :    0.132427
   2 C :   -0.149860
   3 C :   -0.052374
   4 N :   -0.241432
   5 C :    0.182024
   6 C :   -0.244775
   7 C :   -0.371209
   8 H :    0.129644
   9 H :    0.129253
  10 H :    0.120129
  11 H :    0.120352
  12 H :    0.117350
  13 H :    0.115311
  14 H :    0.137218
  15 H :    0.119867
  16 H :    0.119942
Sum of atomic charges:   -0.0000000

LOEWDIN ATOMIC CHARGES
----------------------
   0 C :   -0.245123
   1 C :   -0.156066
   2 C :   -0.136385
   3 C :   -0.198309
   4 N :    0.133313
   5 C :   -0.234120
   6 C :   -0.106957
   7 C :   -0.254775
   8 H :    0.131374
   9 H :    0.131028
  10 H :    0.125521
  11 H :    0.144661
  12 H :    0.134662
  13 H :    0.146461
  14 H :    0.129076
  15 H :    0.127745
  16 H :    0.127895

  Mayer bond orders larger than 0.100000
B(  0-C ,  1-C ) :   0.9151 B(  0-C ,  8-H ) :   0.9713 B(  0-C ,  9-H ) :   0.9735
B(  0-C , 10-H ) :   0.9975 B(  1-C ,  2-C ) :   1.3579 B(  1-C ,  6-C ) :   1.4441
B(  2-C ,  3-C ) :   1.4433 B(  2-C , 11-H ) :   0.9670 B(  3-C ,  4-N ) :   1.4884
B(  3-C , 12-H ) :   0.9922 B(  4-N ,  5-C ) :   1.5175 B(  5-C ,  6-C ) :   1.3840
B(  5-C ,  7-C ) :   0.9220 B(  6-C , 13-H ) :   0.9586 B(  7-C , 14-H ) :   0.9934
B(  7-C , 15-H ) :   0.9739 B(  7-C , 16-H ) :   0.9730

FINAL SINGLE POINT ENERGY      -326.933153650830

DIPOLE MOMENT
-------------

Method             : SCF
Type of density    : Electron Density
Multiplicity       :   1
Irrep              :   0
Energy             :  -326.9428815294301671 Eh
Relativity type    :
Basis              : AO
                                X                 Y                 Z
Electronic contribution:      1.366724293       3.977966824      -0.001482362
Nuclear contribution   :     -2.139385325      -4.545731599       0.002166330
                        -----------------------------------------
Total Dipole Moment    :     -0.772661032      -0.567764775       0.000683968
                        -----------------------------------------
Magnitude (a.u.)       :      0.958833864
Magnitude (Debye)      :      2.437161997

Rotational constants in cm-1:             0.125691             0.059514             0.041003
Rotational constants in MHz :          3768.128709          1784.175010          1229.245825

                             ****ORCA TERMINATED NORMALLY****
TOTAL RUN TIME: 0 days 0 hours 2 minutes 23 seconds 367 msec
