                         Program Version 6.0.0  -   RELEASE  -
|  1> ! wb97x-v def2-tzvp def2/J RIJCOSX DEFGRID2 scfconv7 GCP(DFT/TZ) printgap
|  2> %output
|  3>     printlevel normal
|  4> end
|  5> %cpcm
|  6>     smd true
|  7>     smdsolvent "water"
|  8> end
|  9> * xyz 0 1
| 10> C -2.5611630271708963 -0.9757066310580133 0.00059918831601361
| 11> C -1.236128642282847 -0.2775626854254946 -0.0008416142106384253
| 12> C -1.156654539481149 1.120357030105698 -0.0006438709455822429
| 13> C 0.08905639837118592 1.721294529987229 0.00026449029420012323
| 14> N 1.2528251184801085 1.0463530435902981 0.0008209237478389405
| 15> C 1.185574120362135 -0.2952430546992461 0.00045002785731925284
| 16> C -0.035109510276197235 -0.9785015778854538 -0.0004059979749362478
| 17> C 2.474047041607562 -1.0623424750407733 2.031300233556338e-06
| 18> H -3.1341855635091416 -0.7105778087699494 0.8957111540886901
| 19> H -3.1597216242238173 -0.6686303895394589 -0.8635637158146905
| 20> H -2.440870380697987 -2.060972591348886 -0.025850453141306354
| 21> H -2.0568004190763354 1.7276252895593454 -0.0012547868836948653
| 22> H 0.16783687268827888 2.8067676264925496 0.00035788488313149094
| 23> H -0.038474255840351156 -2.0652233473225454 -0.001005818021465681
| 24> H 3.3304954137924643 -0.386251604671594 0.009284310878953098
| 25> H 2.5338446805735537 -1.7186261891758705 0.8748428987096118
| 26> H 2.54175422378815 -1.7034237939627492 -0.885583064728893
| 27> *
| 28>
| 29>                          ****END OF INPUT****

CARTESIAN COORDINATES (ANGSTROEM)
---------------------------------
  C     -2.561163   -0.975707    0.000599
  C     -1.236129   -0.277563   -0.000842
  C     -1.156655    1.120357   -0.000644
  C      0.089056    1.721295    0.000264
  N      1.252825    1.046353    0.000821
  C      1.185574   -0.295243    0.000450
  C     -0.035110   -0.978502   -0.000406
  C      2.474047   -1.062342    0.000002
  H     -3.134186   -0.710578    0.895711
  H     -3.159722   -0.668630   -0.863564
  H     -2.440870   -2.060973   -0.025850
  H     -2.056800    1.727625   -0.001255
  H      0.167837    2.806768    0.000358
  H     -0.038474   -2.065223   -0.001006
  H      3.330495   -0.386252    0.009284
  H      2.533845   -1.718626    0.874843
  H      2.541754   -1.703424   -0.885583

 Total Charge           Charge          ....    0
 Multiplicity           Mult            ....    1
 Number of Electrons    NEL             ....   58
 Basis Dimension        Dim             ....  302

ORBITAL ENERGIES
----------------

  NO   OCC          E(Eh)            E(eV)
   0   2.0000     -16.520832      -449.5547
   1   2.0000     -12.089756      -328.9790
   2   2.0000     -12.078179      -328.6640
   3   2.0000     -12.072769      -328.5167
   4   2.0000     -12.045168      -327.7657
   5   2.0000     -12.044563      -327.7492
   6   2.0000     -12.037337      -327.5526
   7   2.0000     -12.033470      -327.4474
   8   2.0000      -1.515106       -41.2281
   9   2.0000      -1.350353       -36.7450
  10   2.0000      -1.307489       -35.5786
  11   2.0000      -1.221548       -33.2400
  12   2.0000      -1.197128       -32.5755
  13   2.0000      -1.138491       -30.9799
  14   2.0000      -1.086745       -29.5718
  15   2.0000      -0.997536       -27.1443
  16   2.0000      -0.952356       -25.9149
  17   2.0000      -0.910920       -24.7874
  18   2.0000      -0.871422       -23.7126
  19   2.0000      -0.863439       -23.4954
  20   2.0000      -0.854062       -23.2402
  21   2.0000      -0.835807       -22.7435
  22   2.0000      -0.830624       -22.6024
  23   2.0000      -0.813418       -22.1342
  24   2.0000      -0.801923       -21.8214
  25   2.0000      -0.798173       -21.7194
  26   2.0000      -0.763583       -20.7782
  27   2.0000      -0.683942       -18.6110
  28   2.0000      -0.641049       -17.4438
  29   0.0000      -0.286114        -7.7856
  30   0.0000      -0.240386        -6.5412
  31   0.0000      -0.094740        -2.5780
  32   0.0000      -0.047145        -1.2829
  33   0.0000      -0.034672        -0.9435

MULLIKEN ATOMIC CHARGES
-----------------------
   0 C :   -0.394577
   1 C :    0.122225
   2 C :   -0.202589
   3 C :   -0.064916
   4 N :   -0.324394
   5 C :    0.198188
   6 C :   -0.282558
   7 C :   -0.401623
   8 H :    0.148206
   9 H :    0.148073
  10 H :    0.145242
  11 H :    0.164944
  12 H :    0.156696
  13 H :    0.161937
  14 H :    0.134868
  15 H :    0.145168
  16 H :    0.145110
Sum of atomic charges:   -0.0000000

LOEWDIN ATOMIC CHARGES
----------------------
   0 C :   -0.243267
   1 C :   -0.153741
   2 C :   -0.135793
   3 C :   -0.212397
   4 N :    0.089280
   5 C :   -0.241484
   6 C :   -0.103921
   7 C :   -0.257745
   8 H :    0.137314
   9 H :    0.136958
  10 H :    0.131521
  11 H :    0.156147
  12 H :    0.142024
  13 H :    0.158668
  14 H :    0.125967
  15 H :    0.135187
  16 H :    0.135282

  Mayer bond orders larger than 0.100000
B(  0-C ,  1-C ) :   0.9296 B(  0-C ,  8-H ) :   0.9635 B(  0-C ,  9-H ) :   0.9656
B(  0-C , 10-H ) :   0.9923 B(  1-C ,  2-C ) :   1.3389 B(  1-C ,  6-C ) :   1.4253
B(  2-C ,  3-C ) :   1.4697 B(  2-C , 11-H ) :   0.9663 B(  3-C ,  4-N ) :   1.4722
B(  3-C , 12-H ) :   0.9728 B(  4-N ,  5-C ) :   1.4952 B(  5-C ,  6-C ) :   1.3883
B(  5-C ,  7-C ) :   0.9311 B(  6-C , 13-H ) :   0.9630 B(  7-C , 14-H ) :   0.9911
B(  7-C , 15-H ) :   0.9663 B(  7-C , 16-H ) :   0.9655

FINAL SINGLE POINT ENERGY      -326.939809216446

DIPOLE MOMENT
-------------

Method             : SCF
Type of density    : Electron Density
Multiplicity       :   1
Irrep              :   0
Energy             :  -326.9495370950460824 Eh
Relativity type    :
Basis              : AO
                                X                 Y                 Z
Electronic contribution:      0.984612420       3.680213741      -0.001416219
Nuclear contribution   :     -2.139385325      -4.545731599       0.002166330
                        -----------------------------------------
Total Dipole Moment    :     -1.154772905      -0.865517858       0.000750111
                        -----------------------------------------
Magnitude (a.u.)       :      1.443129304
Magnitude (Debye)      :      3.668143178

Rotational constants in cm-1:             0.125691             0.059514             0.041003
Rotational constants in MHz :          3768.128709          1784.175010          1229.245825

                             ****ORCA TERMINATED NORMALLY****
TOTAL RUN TIME: 0 days 0 hours 2 minutes 29 seconds 1 msec
