                         Program Version 6.0.0  -   RELEASE  -
|  1> ! r2scan-3c def2/J RI DEFGRID2 scfconv6 printgap
|  2> %output
|  3>     printlevel normal
|  4> end
|  5> * xyz 0 1
|  6> C 2.1476229755 -0.0074804269 0.0185421905
|  7> C 0.8743172393 -0.6880480987 0.5074996891
|  8> C -0.4171016764 0.000282468 0.0179920349
|  9> C -0.4917076336 1.4544074182 0.5000858967
| 10> C -1.6267300623 -0.7766385295 0.5418369957
| 11> O -0.4046871426 0.0066986622 -1.4129493611
| 12> H 3.0118001718 -0.6281557329 0.241429626
| 13> H 2.285332208 0.9571253664 0.498693072
| 14> H 2.0924132371 0.142518749 -1.0569831978
| 15> H 0.8639387652 -0.7200586222 1.5977841718
| 16> H 0.8625600832 -1.7159216122 0.1374807207
| 17> H 0.2730108832 2.0457293127 0.0056060117
| 18> H -1.4615574789 1.8776698113 0.2497790954
| 19> H -0.3483082905 1.5048556816 1.5750867716
| 20> H -2.5502891749 -0.3258636897 0.1837525473
| 21> H -1.5852760068 -1.8135843854 0.2143222318
| 22> H -1.637049779 -0.7601058151 1.627975825
| 23> H -1.1789419652 -0.4622706767 -1.7453953744
| 24> *
| 25>
| 26>                          ****END OF INPUT****

CARTESIAN COORDINATES (ANGSTROEM)
---------------------------------
  C      2.147623   -0.007480    0.018542
  C      0.874317   -0.688048    0.507500
  C     -0.417102    0.000282    0.017992
  C     -0.491708    1.454407    0.500086
  C     -1.626730   -0.776639    0.541837
  O     -0.404687    0.006699   -1.412949
  H      3.011800   -0.628156    0.241430
  H      2.285332    0.957125    0.498693
  H      2.092413    0.142519   -1.056983
  H      0.863939   -0.720059    1.597784
  H      0.862560   -1.715922    0.137481
  H      0.273011    2.045729    0.005606
  H     -1.461557    1.877670    0.249779
  H     -0.348308    1.504856    1.575087
  H     -2.550289   -0.325864    0.183753
  H     -1.585276   -1.813584    0.214322
  H     -1.637050   -0.760106    1.627976
  H     -1.178942   -0.462271   -1.745395

 Total Charge           Charge          ....    0
 Multiplicity           Mult            ....    1
 Number of Electrons    NEL             ....   50
 Basis Dimension        Dim             ....  179

ORBITAL ENERGIES
----------------

  NO   OCC          E(Eh)            E(eV)
   0   2.0000     -18.941024      -515.4115
   1   2.0000     -10.087253      -274.4881
   2   2.0000     -10.024640      -272.7843
   3   2.0000     -10.020063      -272.6598
   4   2.0000     -10.012210      -272.4461
   5   2.0000     -10.008206      -272.3371
   6   2.0000      -0.980016       -26.6676
   7   2.0000      -0.761975       -20.7344
   8   2.0000      -0.699465       -19.0334
   9   2.0000      -0.658680       -17.9236
  10   2.0000      -0.593089       -16.1388
  11   2.0000      -0.532139       -14.4802
  12   2.0000      -0.451390       -12.2829
  13   2.0000      -0.429136       -11.6774
  14   2.0000      -0.417280       -11.3548
  15   2.0000      -0.393885       -10.7182
  16   2.0000      -0.380019       -10.3408
  17   2.0000      -0.358841        -9.7646
  18   2.0000      -0.347913        -9.4672
  19   2.0000      -0.331478        -9.0200
  20   2.0000      -0.322453        -8.7744
  21   2.0000      -0.306675        -8.3451
  22   2.0000      -0.298089        -8.1114
  23   2.0000      -0.278678        -7.5832
  24   2.0000      -0.231227        -6.2920
  25   0.0000       0.062540         1.7018
  26   0.0000       0.108700         2.9579
  27   0.0000       0.114353         3.1117
  28   0.0000       0.123087         3.3494
  29   0.0000       0.132550         3.6069

MULLIKEN ATOMIC CHARGES
-----------------------
   0 C :   -0.528619
   1 C :   -0.207349
   2 C :    0.196887
   3 C :   -0.483723
   4 C :   -0.539846
   5 O :   -0.427215
   6 H :    0.144694
   7 H :    0.148550
   8 H :    0.179202
   9 H :    0.135191
  10 H :    0.143433
  11 H :    0.166310
  12 H :    0.143300
  13 H :    0.149613
  14 H :    0.159688
  15 H :    0.159712
  16 H :    0.155904
  17 H :    0.304267
Sum of atomic charges:   -0.0000000

LOEWDIN ATOMIC CHARGES
----------------------
   0 C :   -0.417986
   1 C :   -0.281601
   2 C :    0.055653
   3 C :   -0.382948
   4 C :   -0.392760
   5 O :   -0.602821
   6 H :    0.149926
   7 H :    0.149870
   8 H :    0.166837
   9 H :    0.157069
  10 H :    0.161925
  11 H :    0.166967
  12 H :    0.159312
  13 H :    0.157651
  14 H :    0.157991
  15 H :    0.159722
  16 H :    0.165316
  17 H :    0.269877

  Mayer bond orders larger than 0.100000
B(  0-C ,  1-C ) :   0.8837 B(  0-C ,  6-H ) :   0.9729 B(  0-C ,  7-H ) :   0.9805
B(  0-C ,  8-H ) :   0.9802 B(  1-C ,  2-C ) :   0.9518 B(  1-C ,  9-H ) :   0.9732
B(  1-C , 10-H ) :   0.9688 B(  2-C ,  3-C ) :   0.9364 B(  2-C ,  4-C ) :   0.9396
B(  2-C ,  5-O ) :   0.8205 B(  3-C , 11-H ) :   0.9696 B(  3-C , 12-H ) :   0.9636
B(  3-C , 13-H ) :   0.9773 B(  4-C , 14-H ) :   0.9776 B(  4-C , 15-H ) :   0.9764
B(  4-C , 16-H ) :   0.9705 B(  5-O , 17-H ) :   0.9019

Dispersion correction           -0.004517938
FINAL SINGLE POINT ENERGY      -272.906951295909

DIPOLE MOMENT
-------------

Method             : SCF
Type of density    : Electron Density
Multiplicity       :   1
Irrep              :   0
Energy             :  -272.9120631808356165 Eh
Relativity type    :
Basis              : AO
                                X                 Y                 Z
Electronic contribution:     -1.028332185      -0.378758602      -2.944623492
Nuclear contribution   :      0.582816387       0.095734298       3.290309272
                        -----------------------------------------
Total Dipole Moment    :     -0.445515798      -0.283024305       0.345685780
                        -----------------------------------------
Magnitude (a.u.)       :      0.630940363
Magnitude (Debye)      :      1.603722953

Rotational constants in cm-1:             0.151283             0.086972             0.085445
Rotational constants in MHz :          4535.361499          2607.343832          2561.567065

                             ****ORCA TERMINATED NORMALLY****
TOTAL RUN TIME: 0 days 0 hours 0 minutes 20 seconds 117 msec
