                         Program Version 6.0.0  -   RELEASE  -
|  1> ! r2scan-3c def2/J RI DEFGRID2 scfconv6 printgap
|  2> %output
|  3>     printlevel normal
|  4> end
|  5> %cpcm
|  6>     smd true
|  7>     smdsolvent "water"
|  8> end
|  9> * xyz 0 1
| 10> C 2.1476229755 -0.0074804269 0.0185421905
| 11> C 0.8743172393 -0.6880480987 0.5074996891
| 12> C -0.4171016764 0.000282468 0.0179920349
| 13> C -0.4917076336 1.4544074182 0.5000858967
| 14> C -1.6267300623 -0.7766385295 0.5418369957
| 15> O -0.4046871426 0.0066986622 -1.4129493611
| 16> H 3.0118001718 -0.6281557329 0.241429626
| 17> H 2.285332208 0.9571253664 0.498693072
| 18> H 2.0924132371 0.142518749 -1.0569831978
| 19> H 0.8639387652 -0.7200586222 1.5977841718
| 20> H 0.8625600832 -1.7159216122 0.1374807207
| 21> H 0.2730108832 2.0457293127 0.0056060117
| 22> H -1.4615574789 1.8776698113 0.2497790954
| 23> H -0.3483082905 1.5048556816 1.5750867716
| 24> H -2.5502891749 -0.3258636897 0.1837525473
| 25> H -1.5852760068 -1.8135843854 0.2143222318
| 26> H -1.637049779 -0.7601058151 1.627975825
| 27> H -1.1789419652 -0.4622706767 -1.7453953744
| 28> *
| 29>
| 30>                          ****END OF INPUT****

CARTESIAN COORDINATES (ANGSTROEM)
---------------------------------
  C      2.147623   -0.007480    0.018542
  C      0.874317   -0.688048    0.507500
  C     -0.417102    0.000282    0.017992
  C     -0.491708    1.454407    0.500086
  C     -1.626730   -0.776639    0.541837
  O     -0.404687    0.006699   -1.412949
  H      3.011800   -0.628156    0.241430
  H      2.285332    0.957125    0.498693
  H      2.092413    0.142519   -1.056983
  H      0.863939   -0.720059    1.597784
  H      0.862560   -1.715922    0.137481
  H      0.273011    2.045729    0.005606
  H     -1.461557    1.877670    0.249779
  H     -0.348308    1.504856    1.575087
  H     -2.550289   -0.325864    0.183753
  H     -1.585276   -1.813584    0.214322
  H     -1.637050   -0.760106    1.627976
  H     -1.178942   -0.462271   -1.745395

 Total Charge           Charge          ....    0
 Multiplicity           Mult            ....    1
 Number of Electrons    NEL             ....   50
 Basis Dimension        Dim             ....  179

ORBITAL ENERGIES
----------------

  NO   OCC          E(Eh)            E(eV)
   0   2.0000     -18.944901      -515.5170
   1   2.0000     -10.083066      -274.3742
   2   2.0000     -10.014938      -272.5203
   3   2.0000     -10.010847      -272.4090
   4   2.0000     -10.007044      -272.3055
   5   2.0000     -10.006622      -272.2940
   6   2.0000      -0.982708       -26.7408
   7   2.0000      -0.757039       -20.6001
   8   2.0000      -0.694600       -18.9010
   9   2.0000      -0.650694       -17.7063
  10   2.0000      -0.589004       -16.0276
  11   2.0000      -0.529828       -14.4173
  12   2.0000      -0.446407       -12.1474
  13   2.0000      -0.424802       -11.5595
  14   2.0000      -0.412236       -11.2175
  15   2.0000      -0.388541       -10.5728
  16   2.0000      -0.373321       -10.1586
  17   2.0000      -0.353660        -9.6236
  18   2.0000      -0.343801        -9.3553
  19   2.0000      -0.323708        -8.8085
  20   2.0000      -0.319690        -8.6992
  21   2.0000      -0.306264        -8.3339
  22   2.0000      -0.294739        -8.0202
  23   2.0000      -0.276057        -7.5119
  24   2.0000      -0.235422        -6.4062
  25   0.0000       0.077129         2.0988
  26   0.0000       0.118546         3.2258
  27   0.0000       0.120819         3.2877
  28   0.0000       0.134186         3.6514
  29   0.0000       0.140549         3.8245

MULLIKEN ATOMIC CHARGES
-----------------------
   0 C :   -0.554266
   1 C :   -0.244451
   2 C :    0.227097
   3 C :   -0.537806
   4 C :   -0.558031
   5 O :   -0.511662
   6 H :    0.159257
   7 H :    0.163641
   8 H :    0.165834
   9 H :    0.155733
  10 H :    0.158420
  11 H :    0.169541
  12 H :    0.160710
  13 H :    0.170938
  14 H :    0.173453
  15 H :    0.170700
  16 H :    0.173201
  17 H :    0.357693
Sum of atomic charges:   -0.0000000

LOEWDIN ATOMIC CHARGES
----------------------
   0 C :   -0.426545
   1 C :   -0.284678
   2 C :    0.057629
   3 C :   -0.391592
   4 C :   -0.392205
   5 O :   -0.638470
   6 H :    0.153928
   7 H :    0.154318
   8 H :    0.159925
   9 H :    0.164719
  10 H :    0.164082
  11 H :    0.165112
  12 H :    0.162546
  13 H :    0.165869
  14 H :    0.164062
  15 H :    0.164783
  16 H :    0.169922
  17 H :    0.286594

  Mayer bond orders larger than 0.100000
B(  0-C ,  1-C ) :   0.8730 B(  0-C ,  6-H ) :   0.9700 B(  0-C ,  7-H ) :   0.9767
B(  0-C ,  8-H ) :   0.9826 B(  1-C ,  2-C ) :   0.9414 B(  1-C ,  9-H ) :   0.9686
B(  1-C , 10-H ) :   0.9741 B(  2-C ,  3-C ) :   0.9305 B(  2-C ,  4-C ) :   0.9460
B(  2-C ,  5-O ) :   0.8035 B(  3-C , 11-H ) :   0.9669 B(  3-C , 12-H ) :   0.9649
B(  3-C , 13-H ) :   0.9712 B(  4-C , 14-H ) :   0.9703 B(  4-C , 15-H ) :   0.9696
B(  4-C , 16-H ) :   0.9694 B(  5-O , 17-H ) :   0.8742

Dispersion correction           -0.004517938
FINAL SINGLE POINT ENERGY      -272.912432676015

DIPOLE MOMENT
-------------

Method             : SCF
Type of density    : Electron Density
Multiplicity       :   1
Irrep              :   0
Energy             :  -272.9175445609421899 Eh
Relativity type    :
Basis              : AO
                                X                 Y                 Z
Electronic contribution:     -1.223919467      -0.507501217      -2.721134865
Nuclear contribution   :      0.582816387       0.095734298       3.290309272
                        -----------------------------------------
Total Dipole Moment    :     -0.641103080      -0.411766919       0.569174408
                        -----------------------------------------
Magnitude (a.u.)       :      0.951065014
Magnitude (Debye)      :      2.417415151

Rotational constants in cm-1:             0.151283             0.086972             0.085445
Rotational constants in MHz :          4535.361499          2607.343832          2561.567065

                             ****ORCA TERMINATED NORMALLY****
TOTAL RUN TIME: 0 days 0 hours 0 minutes 23 seconds 796 msec
