                         Program Version 6.0.0  -   RELEASE  -
|  1> ! wb97x-v def2-tzvp def2/J RIJCOSX DEFGRID2 scfconv7 GCP(DFT/TZ) printgap
|  2> %output
|  3>     printlevel normal
|  4> end
|  5> * xyz 0 1
|  6> C 4.123758307824536 -0.07570702197592213 0.0003912039268922611
|  7> C 3.749110252612448 1.2644746338343276 0.0001484867890853859
|  8> C 2.400016421299872 1.6129164391745556 -0.0001403177867246549
|  9> C 1.4378678696821021 0.6163548784704797 -0.00020640367670500537
| 10> C 1.8113318991506038 -0.7238094905128803 -2.6693745358353902e-05
| 11> C 3.1520310917206067 -1.0742552039738857 0.0003062707383588617
| 12> O 0.8729183976794856 -1.7467273627562456 -0.00020490590196830152
| 13> C -0.45627152791105435 -1.3592318058006185 -0.00013239868361844453
| 14> C -1.4160228291359283 -2.358181887785733 7.966783025954399e-06
| 15> C -2.7646159873719904 -2.014107610238248 0.00010422807330468664
| 16> C -3.1541244504653143 -0.6806615827159155 8.381204947972472e-05
| 17> C -2.175946570292513 0.3082987969118658 -6.851282376097378e-05
| 18> C -0.8212831011370199 -0.01227333253893652 -0.000219445341096468
| 19> O 0.1039644267587517 1.006915696399554 -0.00047696499531731454
| 20> Cl -2.640974540045996 1.9962147837163686 -9.547381924790259e-05
| 21> H 5.172239643342177 -0.35240008951686125 0.0006494631573041609
| 22> H 4.501704025201675 2.0451238119033435 0.00018812519932954357
| 23> H 2.0813363624415446 2.6499654381003546 -0.0003216831018424558
| 24> H 3.4194411657768207 -2.1256983191151497 0.0004814026040940723
| 25> H -1.094536751920541 -3.393752292911077 3.617744665166067e-05
| 26> H -3.5186285636293633 -2.792948882464029 0.000202398691623812
| 27> H -4.201113391403446 -0.40238715777848805 0.00019040775236296527
| 28> *
| 29>
| 30>                          ****END OF INPUT****

CARTESIAN COORDINATES (ANGSTROEM)
---------------------------------
  C      4.123758   -0.075707    0.000391
  C      3.749110    1.264475    0.000148
  C      2.400016    1.612916   -0.000140
  C      1.437868    0.616355   -0.000206
  C      1.811332   -0.723809   -0.000027
  C      3.152031   -1.074255    0.000306
  O      0.872918   -1.746727   -0.000205
  C     -0.456272   -1.359232   -0.000132
  C     -1.416023   -2.358182    0.000008
  C     -2.764616   -2.014108    0.000104
  C     -3.154124   -0.680662    0.000084
  C     -2.175947    0.308299   -0.000069
  C     -0.821283   -0.012273   -0.000219
  O      0.103964    1.006916   -0.000477
  Cl    -2.640975    1.996215   -0.000095
  H      5.172240   -0.352400    0.000649
  H      4.501704    2.045124    0.000188
  H      2.081336    2.649965   -0.000322
  H      3.419441   -2.125698    0.000481
  H     -1.094537   -3.393752    0.000036
  H     -3.518629   -2.792949    0.000202
  H     -4.201113   -0.402387    0.000190

 Total Charge           Charge          ....    0
 Multiplicity           Mult            ....    1
 Number of Electrons    NEL             ....  112
 Basis Dimension        Dim             ....  513

ORBITAL ENERGIES
----------------

  NO   OCC          E(Eh)            E(eV)
   0   2.0000    -107.147539     -2915.6328
   1   2.0000     -21.737353      -591.5034
   2   2.0000     -21.735676      -591.4578
   3   2.0000     -12.138148      -330.2958
   4   2.0000     -12.134697      -330.2019
   5   2.0000     -12.130449      -330.0863
   6   2.0000     -12.128286      -330.0274
   7   2.0000     -12.124573      -329.9264
   8   2.0000     -12.069871      -328.4379
   9   2.0000     -12.068367      -328.3970
  10   2.0000     -12.066780      -328.3538
  11   2.0000     -12.065837      -328.3281
  12   2.0000     -12.065511      -328.3193
  13   2.0000     -12.063051      -328.2523
  14   2.0000     -12.061022      -328.1971
  15   2.0000     -11.300435      -307.5005
  16   2.0000      -9.092060      -247.4075
  17   2.0000      -9.089323      -247.3331
  18   2.0000      -9.089283      -247.3320
  19   2.0000      -1.767166       -48.0870
  20   2.0000      -1.750248       -47.6267
  21   2.0000      -1.446138       -39.3514
  22   2.0000      -1.413727       -38.4695
  23   2.0000      -1.387998       -37.7693
  24   2.0000      -1.327862       -36.1330
  25   2.0000      -1.322951       -35.9993
  26   2.0000      -1.284595       -34.9556
  27   2.0000      -1.282109       -34.8880
  28   2.0000      -1.218972       -33.1699
  29   2.0000      -1.166013       -31.7288
  30   2.0000      -1.157865       -31.5071
  31   2.0000      -1.116932       -30.3933
  32   2.0000      -1.102742       -30.0071
  33   2.0000      -1.049845       -28.5677
  34   2.0000      -1.034257       -28.1436
  35   2.0000      -1.030526       -28.0420
  36   2.0000      -1.012844       -27.5609
  37   2.0000      -0.985193       -26.8085
  38   2.0000      -0.979398       -26.6508
  39   2.0000      -0.963947       -26.2303
  40   2.0000      -0.944577       -25.7032
  41   2.0000      -0.932326       -25.3699
  42   2.0000      -0.927374       -25.2351
  43   2.0000      -0.906343       -24.6628
  44   2.0000      -0.867668       -23.6104
  45   2.0000      -0.854988       -23.2654
  46   2.0000      -0.853245       -23.2180
  47   2.0000      -0.836267       -22.7560
  48   2.0000      -0.832630       -22.6570
  49   2.0000      -0.794793       -21.6274
  50   2.0000      -0.794188       -21.6110
  51   2.0000      -0.772989       -21.0341
  52   2.0000      -0.673881       -18.3372
  53   2.0000      -0.668975       -18.2037
  54   2.0000      -0.653161       -17.7734
  55   2.0000      -0.647950       -17.6316
  56   0.0000      -0.293064        -7.9747
  57   0.0000      -0.277217        -7.5435
  58   0.0000      -0.274588        -7.4719
  59   0.0000      -0.258325        -7.0294
  60   0.0000      -0.255027        -6.9396

MULLIKEN ATOMIC CHARGES
-----------------------
   0 C :   -0.093414
   1 C :   -0.096859
   2 C :   -0.253514
   3 C :    0.207934
   4 C :    0.232333
   5 C :   -0.254558
   6 O :   -0.232967
   7 C :    0.228574
   8 C :   -0.270728
   9 C :   -0.081914
  10 C :   -0.180891
  11 C :   -0.013725
  12 C :    0.222260
  13 O :   -0.228641
  14 Cl:   -0.074604
  15 H :    0.122430
  16 H :    0.122505
  17 H :    0.132364
  18 H :    0.127462
  19 H :    0.128228
  20 H :    0.125087
  21 H :    0.132638
Sum of atomic charges:    0.0000000

LOEWDIN ATOMIC CHARGES
----------------------
   0 C :   -0.140993
   1 C :   -0.140925
   2 C :   -0.103887
   3 C :   -0.191202
   4 C :   -0.194091
   5 C :   -0.106899
   6 O :    0.311099
   7 C :   -0.193412
   8 C :   -0.109345
   9 C :   -0.137082
  10 C :   -0.147715
  11 C :   -0.388762
  12 C :   -0.208306
  13 O :    0.316990
  14 Cl:    0.394412
  15 H :    0.144141
  16 H :    0.144253
  17 H :    0.152908
  18 H :    0.151339
  19 H :    0.152290
  20 H :    0.146472
  21 H :    0.148715

  Mayer bond orders larger than 0.100000
B(  0-C ,  1-C ) :   1.4289 B(  0-C ,  5-C ) :   1.4104 B(  0-C , 15-H ) :   0.9763
B(  1-C ,  2-C ) :   1.4092 B(  1-C , 16-H ) :   0.9772 B(  2-C ,  3-C ) :   1.4121
B(  2-C , 17-H ) :   0.9714 B(  3-C ,  4-C ) :   1.3577 B(  3-C , 13-O ) :   1.0194
B(  4-C ,  5-C ) :   1.4045 B(  4-C ,  6-O ) :   1.0130 B(  5-C , 18-H ) :   0.9729
B(  6-O ,  7-C ) :   1.0266 B(  7-C ,  8-C ) :   1.4181 B(  7-C , 12-C ) :   1.3599
B(  8-C ,  9-C ) :   1.4054 B(  8-C , 19-H ) :   0.9777 B(  9-C , 10-C ) :   1.4179
B(  9-C , 20-H ) :   0.9768 B( 10-C , 11-C ) :   1.3856 B( 10-C , 21-H ) :   0.9680
B( 11-C , 12-C ) :   1.2638 B( 11-C , 14-Cl) :   1.0856 B( 12-C , 13-O ) :   1.0858

FINAL SINGLE POINT ENERGY     -1072.109475920624

DIPOLE MOMENT
-------------

Method             : SCF
Type of density    : Electron Density
Multiplicity       :   1
Irrep              :   0
Energy             : -1072.1209876517236808 Eh
Relativity type    :
Basis              : AO
                                X                 Y                 Z
Electronic contribution:     -9.198715196       6.263576352      -0.001490302
Nuclear contribution   :      9.547910853      -6.804687660       0.001693510
                        -----------------------------------------
Total Dipole Moment    :      0.349195657      -0.541111308       0.000203208
                        -----------------------------------------
Magnitude (a.u.)       :      0.644002404
Magnitude (Debye)      :      1.636924022

Rotational constants in cm-1:             0.036523             0.013136             0.009661
Rotational constants in MHz :          1094.925646           393.797912           289.630291

                             ****ORCA TERMINATED NORMALLY****
TOTAL RUN TIME: 0 days 0 hours 8 minutes 38 seconds 162 msec
