                         Program Version 6.0.0  -   RELEASE  -
|  1> ! r2scan-3c def2/J RI DEFGRID2 scfconv6 printgap
|  2> %output
|  3>     printlevel normal
|  4> end
|  5> * xyz 0 1
|  6> C -2.6545985711 -0.4073818133 1.0617899497
|  7> C -1.7587377417 0.0099229699 -0.0711372292
|  8> O -2.1768744766 0.1185517022 -1.2083714993
|  9> C -0.3094886413 0.2548599841 0.2847538279
| 10> C 0.4289501559 1.0069406764 -0.8220995816
| 11> C 1.8956463501 1.2046731194 -0.4547579543
| 12> C 2.5688234594 -0.1405093944 -0.199691732
| 13> C 1.8366313843 -0.8991656354 0.9027951805
| 14> C 0.3694819248 -1.1026502703 0.5352111263
| 15> H -2.1440945983 -0.3839934882 2.0176035172
| 16> H -3.5196167763 0.2520575533 1.0851528909
| 17> H -3.0264414503 -1.4108982894 0.8635913578
| 18> H -0.2741966822 0.8379479849 1.2104873479
| 19> H 0.3489538362 0.4369505669 -1.7504725693
| 20> H -0.0543539184 1.971990403 -0.9905098759
| 21> H 2.4071345913 1.7312827764 -1.2621179421
| 22> H 1.9638467715 1.8217781241 0.4440197442
| 23> H 2.5535578666 -0.73152225 -1.1180640268
| 24> H 3.6114776403 0.0129563684 0.0839003271
| 25> H 2.3079141501 -1.8704137035 1.0623128351
| 26> H 1.9017415341 -0.3349215475 1.835382946
| 27> H 0.2997251252 -1.7035162926 -0.3744627707
| 28> H -0.1428453678 -1.6379582786 1.3353335949
| 29> *
| 30>
| 31>                          ****END OF INPUT****

CARTESIAN COORDINATES (ANGSTROEM)
---------------------------------
  C     -2.654599   -0.407382    1.061790
  C     -1.758738    0.009923   -0.071137
  O     -2.176874    0.118552   -1.208371
  C     -0.309489    0.254860    0.284754
  C      0.428950    1.006941   -0.822100
  C      1.895646    1.204673   -0.454758
  C      2.568823   -0.140509   -0.199692
  C      1.836631   -0.899166    0.902795
  C      0.369482   -1.102650    0.535211
  H     -2.144095   -0.383993    2.017604
  H     -3.519617    0.252058    1.085153
  H     -3.026441   -1.410898    0.863591
  H     -0.274197    0.837948    1.210487
  H      0.348954    0.436951   -1.750473
  H     -0.054354    1.971990   -0.990510
  H      2.407135    1.731283   -1.262118
  H      1.963847    1.821778    0.444020
  H      2.553558   -0.731522   -1.118064
  H      3.611478    0.012956    0.083900
  H      2.307914   -1.870414    1.062313
  H      1.901742   -0.334922    1.835383
  H      0.299725   -1.703516   -0.374463
  H     -0.142845   -1.637958    1.335334

 Total Charge           Charge          ....    0
 Multiplicity           Mult            ....    1
 Number of Electrons    NEL             ....   70
 Basis Dimension        Dim             ....  246

ORBITAL ENERGIES
----------------

  NO   OCC          E(Eh)            E(eV)
   0   2.0000     -18.932706      -515.1851
   1   2.0000     -10.114655      -275.2338
   2   2.0000     -10.040976      -273.2289
   3   2.0000     -10.038723      -273.1675
   4   2.0000     -10.032668      -273.0028
   5   2.0000     -10.030974      -272.9567
   6   2.0000     -10.025801      -272.8159
   7   2.0000     -10.024582      -272.7827
   8   2.0000     -10.022008      -272.7127
   9   2.0000      -0.999731       -27.2041
  10   2.0000      -0.810002       -22.0413
  11   2.0000      -0.739237       -20.1157
  12   2.0000      -0.713531       -19.4162
  13   2.0000      -0.698778       -19.0147
  14   2.0000      -0.596601       -16.2343
  15   2.0000      -0.579817       -15.7776
  16   2.0000      -0.531436       -14.4611
  17   2.0000      -0.497577       -13.5398
  18   2.0000      -0.451799       -12.2941
  19   2.0000      -0.434223       -11.8158
  20   2.0000      -0.420910       -11.4536
  21   2.0000      -0.417427       -11.3588
  22   2.0000      -0.404079       -10.9955
  23   2.0000      -0.395528       -10.7629
  24   2.0000      -0.382719       -10.4143
  25   2.0000      -0.355098        -9.6627
  26   2.0000      -0.351724        -9.5709
  27   2.0000      -0.342906        -9.3310
  28   2.0000      -0.324854        -8.8397
  29   2.0000      -0.316615        -8.6155
  30   2.0000      -0.312789        -8.5114
  31   2.0000      -0.295362        -8.0372
  32   2.0000      -0.282915        -7.6985
  33   2.0000      -0.271591        -7.3904
  34   2.0000      -0.208799        -5.6817
  35   0.0000      -0.044658        -1.2152
  36   0.0000       0.070125         1.9082
  37   0.0000       0.093211         2.5364
  38   0.0000       0.104646         2.8476
  39   0.0000       0.112194         3.0529

MULLIKEN ATOMIC CHARGES
-----------------------
   0 C :   -0.549782
   1 C :    0.292375
   2 O :   -0.348140
   3 C :   -0.079612
   4 C :   -0.366685
   5 C :   -0.272406
   6 C :   -0.284103
   7 C :   -0.283520
   8 C :   -0.314935
   9 H :    0.158940
  10 H :    0.178800
  11 H :    0.183371
  12 H :    0.166468
  13 H :    0.175765
  14 H :    0.153382
  15 H :    0.148568
  16 H :    0.141766
  17 H :    0.144445
  18 H :    0.148057
  19 H :    0.148954
  20 H :    0.144073
  21 H :    0.168516
  22 H :    0.145703
Sum of atomic charges:   -0.0000000

LOEWDIN ATOMIC CHARGES
----------------------
   0 C :   -0.391838
   1 C :    0.225114
   2 O :   -0.467163
   3 C :   -0.206229
   4 C :   -0.277873
   5 C :   -0.301703
   6 C :   -0.303292
   7 C :   -0.299085
   8 C :   -0.270736
   9 H :    0.158192
  10 H :    0.182074
  11 H :    0.182666
  12 H :    0.172350
  13 H :    0.172238
  14 H :    0.165304
  15 H :    0.156617
  16 H :    0.153933
  17 H :    0.155974
  18 H :    0.155391
  19 H :    0.156796
  20 H :    0.155423
  21 H :    0.165658
  22 H :    0.160187

  Mayer bond orders larger than 0.100000
B(  0-C ,  1-C ) :   0.8819 B(  0-C ,  9-H ) :   0.9770 B(  0-C , 10-H ) :   0.9566
B(  0-C , 11-H ) :   0.9591 B(  1-C ,  2-O ) :   1.9361 B(  1-C ,  3-C ) :   0.8668
B(  2-O ,  3-C ) :  -0.1100 B(  3-C ,  4-C ) :   0.9216 B(  3-C ,  8-C ) :   0.8817
B(  3-C , 12-H ) :   0.9380 B(  4-C ,  5-C ) :   0.8836 B(  4-C , 13-H ) :   1.0058
B(  4-C , 14-H ) :   0.9456 B(  5-C ,  6-C ) :   0.9174 B(  5-C , 15-H ) :   0.9479
B(  5-C , 16-H ) :   0.9922 B(  6-C ,  7-C ) :   0.9202 B(  6-C , 17-H ) :   0.9926
B(  6-C , 18-H ) :   0.9484 B(  7-C ,  8-C ) :   0.9016 B(  7-C , 19-H ) :   0.9438
B(  7-C , 20-H ) :   0.9925 B(  8-C , 21-H ) :   0.9988 B(  8-C , 22-H ) :   0.9342

Dispersion correction           -0.007296953
FINAL SINGLE POINT ENERGY      -388.408307571579

DIPOLE MOMENT
-------------

Method             : SCF
Type of density    : Electron Density
Multiplicity       :   1
Irrep              :   0
Energy             :  -388.4107440294397975 Eh
Relativity type    :
Basis              : AO
                                X                 Y                 Z
Electronic contribution:     -5.309363100       0.793965050      -3.146478810
Nuclear contribution   :      5.815118407      -0.944157079       4.149559675
                        -----------------------------------------
Total Dipole Moment    :      0.505755307      -0.150192029       1.003080865
                        -----------------------------------------
Magnitude (a.u.)       :      1.133365474
Magnitude (Debye)      :      2.880786095

Rotational constants in cm-1:             0.103415             0.036243             0.030064
Rotational constants in MHz :          3100.303495          1086.540095           901.283797

                             ****ORCA TERMINATED NORMALLY****
TOTAL RUN TIME: 0 days 0 hours 0 minutes 37 seconds 148 msec
