                         Program Version 6.0.0  -   RELEASE  -
|  1> ! r2scan-3c def2/J RI DEFGRID2 scfconv6 printgap
|  2> %output
|  3>     printlevel normal
|  4> end
|  5> %cpcm
|  6>     smd true
|  7>     smdsolvent "water"
|  8> end
|  9> * xyz 0 1
| 10> C -2.6545985711 -0.4073818133 1.0617899497
| 11> C -1.7587377417 0.0099229699 -0.0711372292
| 12> O -2.1768744766 0.1185517022 -1.2083714993
| 13> C -0.3094886413 0.2548599841 0.2847538279
| 14> C 0.4289501559 1.0069406764 -0.8220995816
| 15> C 1.8956463501 1.2046731194 -0.4547579543
| 16> C 2.5688234594 -0.1405093944 -0.199691732
| 17> C 1.8366313843 -0.8991656354 0.9027951805
| 18> C 0.3694819248 -1.1026502703 0.5352111263
| 19> H -2.1440945983 -0.3839934882 2.0176035172
| 20> H -3.5196167763 0.2520575533 1.0851528909
| 21> H -3.0264414503 -1.4108982894 0.8635913578
| 22> H -0.2741966822 0.8379479849 1.2104873479
| 23> H 0.3489538362 0.4369505669 -1.7504725693
| 24> H -0.0543539184 1.971990403 -0.9905098759
| 25> H 2.4071345913 1.7312827764 -1.2621179421
| 26> H 1.9638467715 1.8217781241 0.4440197442
| 27> H 2.5535578666 -0.73152225 -1.1180640268
| 28> H 3.6114776403 0.0129563684 0.0839003271
| 29> H 2.3079141501 -1.8704137035 1.0623128351
| 30> H 1.9017415341 -0.3349215475 1.835382946
| 31> H 0.2997251252 -1.7035162926 -0.3744627707
| 32> H -0.1428453678 -1.6379582786 1.3353335949
| 33> *
| 34>
| 35>                          ****END OF INPUT****

CARTESIAN COORDINATES (ANGSTROEM)
---------------------------------
  C     -2.654599   -0.407382    1.061790
  C     -1.758738    0.009923   -0.071137
  O     -2.176874    0.118552   -1.208371
  C     -0.309489    0.254860    0.284754
  C      0.428950    1.006941   -0.822100
  C      1.895646    1.204673   -0.454758
  C      2.568823   -0.140509   -0.199692
  C      1.836631   -0.899166    0.902795
  C      0.369482   -1.102650    0.535211
  H     -2.144095   -0.383993    2.017604
  H     -3.519617    0.252058    1.085153
  H     -3.026441   -1.410898    0.863591
  H     -0.274197    0.837948    1.210487
  H      0.348954    0.436951   -1.750473
  H     -0.054354    1.971990   -0.990510
  H      2.407135    1.731283   -1.262118
  H      1.963847    1.821778    0.444020
  H      2.553558   -0.731522   -1.118064
  H      3.611478    0.012956    0.083900
  H      2.307914   -1.870414    1.062313
  H      1.901742   -0.334922    1.835383
  H      0.299725   -1.703516   -0.374463
  H     -0.142845   -1.637958    1.335334

 Total Charge           Charge          ....    0
 Multiplicity           Mult            ....    1
 Number of Electrons    NEL             ....   70
 Basis Dimension        Dim             ....  246

ORBITAL ENERGIES
----------------

  NO   OCC          E(Eh)            E(eV)
   0   2.0000     -18.944568      -515.5079
   1   2.0000     -10.121352      -275.4160
   2   2.0000     -10.032445      -272.9967
   3   2.0000     -10.025783      -272.8154
   4   2.0000     -10.021487      -272.6985
   5   2.0000     -10.017284      -272.5842
   6   2.0000     -10.016334      -272.5583
   7   2.0000     -10.014855      -272.5181
   8   2.0000     -10.013960      -272.4937
   9   2.0000      -1.013153       -27.5693
  10   2.0000      -0.800144       -21.7730
  11   2.0000      -0.730946       -19.8901
  12   2.0000      -0.703417       -19.1409
  13   2.0000      -0.689371       -18.7587
  14   2.0000      -0.588052       -16.0017
  15   2.0000      -0.569699       -15.5023
  16   2.0000      -0.520810       -14.1720
  17   2.0000      -0.494141       -13.4463
  18   2.0000      -0.448050       -12.1921
  19   2.0000      -0.428751       -11.6669
  20   2.0000      -0.414267       -11.2728
  21   2.0000      -0.410923       -11.1818
  22   2.0000      -0.396941       -10.8013
  23   2.0000      -0.390152       -10.6166
  24   2.0000      -0.376697       -10.2504
  25   2.0000      -0.348660        -9.4875
  26   2.0000      -0.341721        -9.2987
  27   2.0000      -0.333826        -9.0839
  28   2.0000      -0.322478        -8.7751
  29   2.0000      -0.309005        -8.4085
  30   2.0000      -0.305561        -8.3147
  31   2.0000      -0.284442        -7.7401
  32   2.0000      -0.275326        -7.4920
  33   2.0000      -0.261764        -7.1230
  34   2.0000      -0.218999        -5.9593
  35   0.0000      -0.048066        -1.3079
  36   0.0000       0.081333         2.2132
  37   0.0000       0.105074         2.8592
  38   0.0000       0.115977         3.1559
  39   0.0000       0.124962         3.4004

MULLIKEN ATOMIC CHARGES
-----------------------
   0 C :   -0.585135
   1 C :    0.330241
   2 O :   -0.454413
   3 C :   -0.059995
   4 C :   -0.384776
   5 C :   -0.298889
   6 C :   -0.300330
   7 C :   -0.300682
   8 C :   -0.323483
   9 H :    0.186316
  10 H :    0.195671
  11 H :    0.203712
  12 H :    0.195241
  13 H :    0.168750
  14 H :    0.160329
  15 H :    0.154608
  16 H :    0.154818
  17 H :    0.151380
  18 H :    0.155233
  19 H :    0.157634
  20 H :    0.156842
  21 H :    0.174303
  22 H :    0.162625
Sum of atomic charges:   -0.0000000

LOEWDIN ATOMIC CHARGES
----------------------
   0 C :   -0.389332
   1 C :    0.242552
   2 O :   -0.544701
   3 C :   -0.200127
   4 C :   -0.284736
   5 C :   -0.302908
   6 C :   -0.306241
   7 C :   -0.299675
   8 C :   -0.267547
   9 H :    0.171396
  10 H :    0.188450
  11 H :    0.190454
  12 H :    0.186001
  13 H :    0.167653
  14 H :    0.164636
  15 H :    0.157638
  16 H :    0.158649
  17 H :    0.157605
  18 H :    0.157104
  19 H :    0.159522
  20 H :    0.159665
  21 H :    0.166988
  22 H :    0.166954

  Mayer bond orders larger than 0.100000
B(  0-C ,  1-C ) :   0.8996 B(  0-C ,  9-H ) :   0.9634 B(  0-C , 10-H ) :   0.9486
B(  0-C , 11-H ) :   0.9502 B(  1-C ,  2-O ) :   1.8534 B(  1-C ,  3-C ) :   0.8842
B(  2-O ,  3-C ) :  -0.1035 B(  3-C ,  4-C ) :   0.9041 B(  3-C ,  8-C ) :   0.8786
B(  3-C , 12-H ) :   0.9225 B(  4-C ,  5-C ) :   0.8995 B(  4-C , 13-H ) :   1.0030
B(  4-C , 14-H ) :   0.9442 B(  5-C ,  6-C ) :   0.9179 B(  5-C , 15-H ) :   0.9479
B(  5-C , 16-H ) :   0.9900 B(  6-C ,  7-C ) :   0.9166 B(  6-C , 17-H ) :   0.9912
B(  6-C , 18-H ) :   0.9479 B(  7-C ,  8-C ) :   0.8974 B(  7-C , 19-H ) :   0.9429
B(  7-C , 20-H ) :   0.9905 B(  8-C , 21-H ) :   0.9975 B(  8-C , 22-H ) :   0.9293

Dispersion correction           -0.007296953
FINAL SINGLE POINT ENERGY      -388.415297434856

DIPOLE MOMENT
-------------

Method             : SCF
Type of density    : Electron Density
Multiplicity       :   1
Irrep              :   0
Energy             :  -388.4177338927163987 Eh
Relativity type    :
Basis              : AO
                                X                 Y                 Z
Electronic contribution:     -5.112558031       0.715112117      -2.574134755
Nuclear contribution   :      5.815118407      -0.944157079       4.149559675
                        -----------------------------------------
Total Dipole Moment    :      0.702560376      -0.229044962       1.575424920
                        -----------------------------------------
Magnitude (a.u.)       :      1.740119638
Magnitude (Debye)      :      4.423032616

Rotational constants in cm-1:             0.103415             0.036243             0.030064
Rotational constants in MHz :          3100.303495          1086.540095           901.283797

                             ****ORCA TERMINATED NORMALLY****
TOTAL RUN TIME: 0 days 0 hours 0 minutes 38 seconds 331 msec
