                         Program Version 6.0.0  -   RELEASE  -
|  1> ! pbe def2-sv(p) def2/J RI DEFGRID1 loosescf d4 GCP(DFT/SV(P)) printgap
|  2> %output
|  3>     printlevel normal
|  4> end
|  5> * xyz 0 1
|  6> C -2.9235926564 -1.7483e-05 -0.0594815427
|  7> C -1.4501149351 0.000164193 0.3388298423
|  8> C -0.7403988618 -1.2475156572 -0.1879066726
|  9> C 0.7356506172 -1.2457615704 0.1994460551
| 10> C 1.4448156236 0.00016908 -0.3354476594
| 11> C 0.7353754629 1.2456672836 0.19998366
| 12> C -0.7402970988 1.2475042226 -0.188460928
| 13> C 2.9373715339 -0.0001183877 0.0353566634
| 14> H -3.4257842961 -0.8808845615 0.3337829414
| 15> H -3.4244000212 0.8842089548 0.328016485
| 16> H -3.0230527445 -0.0034610318 -1.1429816638
| 17> H -1.3838522424 0.0004451391 1.433113533
| 18> H -1.2241656734 -2.1424384508 0.2098203234
| 19> H -0.8290788597 -1.2767226763 -1.2768139603
| 20> H 0.8244525505 -1.2679036062 1.2885444027
| 21> H 1.2191305778 -2.1420443572 -0.195657024
| 22> H 1.3460060639 0.0005300732 -1.4266241646
| 23> H 0.8232697695 1.2669133987 1.2891153974
| 24> H 1.2191531866 2.1422753279 -0.1939303374
| 25> H -1.2243080907 2.142693343 0.2082943082
| 26> H -0.828177886 1.2758510066 -1.2773860679
| 27> H 3.5641459907 -0.0064042266 -0.8521886765
| 28> H 3.1889704421 -0.8756353712 0.6288729115
| 29> H 3.1918760422 0.8814844915 0.6183814148
| 30> *
| 31>
| 32>                          ****END OF INPUT****

CARTESIAN COORDINATES (ANGSTROEM)
---------------------------------
  C     -2.923593   -0.000017   -0.059482
  C     -1.450115    0.000164    0.338830
  C     -0.740399   -1.247516   -0.187907
  C      0.735651   -1.245762    0.199446
  C      1.444816    0.000169   -0.335448
  C      0.735375    1.245667    0.199984
  C     -0.740297    1.247504   -0.188461
  C      2.937372   -0.000118    0.035357
  H     -3.425784   -0.880885    0.333783
  H     -3.424400    0.884209    0.328016
  H     -3.023053   -0.003461   -1.142982
  H     -1.383852    0.000445    1.433114
  H     -1.224166   -2.142438    0.209820
  H     -0.829079   -1.276723   -1.276814
  H      0.824453   -1.267904    1.288544
  H      1.219131   -2.142044   -0.195657
  H      1.346006    0.000530   -1.426624
  H      0.823270    1.266913    1.289115
  H      1.219153    2.142275   -0.193930
  H     -1.224308    2.142693    0.208294
  H     -0.828178    1.275851   -1.277386
  H      3.564146   -0.006404   -0.852189
  H      3.188970   -0.875635    0.628873
  H      3.191876    0.881484    0.618381

 Total Charge           Charge          ....    0
 Multiplicity           Mult            ....    1
 Number of Electrons    NEL             ....   64
 Basis Dimension        Dim             ....  144

ORBITAL ENERGIES
----------------

  NO   OCC          E(Eh)            E(eV)
   0   2.0000      -9.886413      -269.0230
   1   2.0000      -9.886235      -269.0181
   2   2.0000      -9.875407      -268.7235
   3   2.0000      -9.875374      -268.7226
   4   2.0000      -9.874981      -268.7119
   5   2.0000      -9.874959      -268.7113
   6   2.0000      -9.867987      -268.5216
   7   2.0000      -9.867237      -268.5012
   8   2.0000      -0.756901       -20.5963
   9   2.0000      -0.697465       -18.9790
  10   2.0000      -0.660540       -17.9742
  11   2.0000      -0.627803       -17.0834
  12   2.0000      -0.568954       -15.4820
  13   2.0000      -0.539472       -14.6798
  14   2.0000      -0.503938       -13.7128
  15   2.0000      -0.493253       -13.4221
  16   2.0000      -0.419561       -11.4168
  17   2.0000      -0.395855       -10.7718
  18   2.0000      -0.391934       -10.6651
  19   2.0000      -0.380080       -10.3425
  20   2.0000      -0.378936       -10.3114
  21   2.0000      -0.354362        -9.6427
  22   2.0000      -0.339494        -9.2381
  23   2.0000      -0.328047        -8.9266
  24   2.0000      -0.322265        -8.7693
  25   2.0000      -0.311789        -8.4842
  26   2.0000      -0.297337        -8.0909
  27   2.0000      -0.286628        -7.7995
  28   2.0000      -0.279575        -7.6076
  29   2.0000      -0.273607        -7.4452
  30   2.0000      -0.251899        -6.8545
  31   2.0000      -0.247186        -6.7263
  32   0.0000       0.039571         1.0768
  33   0.0000       0.046711         1.2711
  34   0.0000       0.051175         1.3925
  35   0.0000       0.070654         1.9226
  36   0.0000       0.086719         2.3597

MULLIKEN ATOMIC CHARGES
-----------------------
   0 C :   -0.198157
   1 C :   -0.212717
   2 C :   -0.109914
   3 C :   -0.109900
   4 C :   -0.211768
   5 C :   -0.109892
   6 C :   -0.109833
   7 C :   -0.201218
   8 H :    0.093798
   9 H :    0.093784
  10 H :    0.088268
  11 H :    0.061738
  12 H :    0.076993
  13 H :    0.065516
  14 H :    0.068064
  15 H :    0.080087
  16 H :    0.062174
  17 H :    0.068017
  18 H :    0.080052
  19 H :    0.076971
  20 H :    0.065494
  21 H :    0.095379
  22 H :    0.093537
  23 H :    0.093523
Sum of atomic charges:    0.0000000

LOEWDIN ATOMIC CHARGES
----------------------
   0 C :   -0.327113
   1 C :   -0.153540
   2 C :   -0.216989
   3 C :   -0.218487
   4 C :   -0.153193
   5 C :   -0.218515
   6 C :   -0.216997
   7 C :   -0.332439
   8 H :    0.116055
   9 H :    0.116030
  10 H :    0.115767
  11 H :    0.112628
  12 H :    0.113904
  13 H :    0.112724
  14 H :    0.112610
  15 H :    0.113810
  16 H :    0.111991
  17 H :    0.112622
  18 H :    0.113787
  19 H :    0.113894
  20 H :    0.112735
  21 H :    0.121040
  22 H :    0.118845
  23 H :    0.118830

  Mayer bond orders larger than 0.100000
B(  0-C ,  1-C ) :   1.1153 B(  0-C ,  8-H ) :   0.9489 B(  0-C ,  9-H ) :   0.9489
B(  0-C , 10-H ) :   0.9462 B(  1-C ,  2-C ) :   1.0965 B(  1-C ,  6-C ) :   1.0965
B(  1-C , 11-H ) :   0.8935 B(  2-C ,  3-C ) :   1.1408 B(  2-C , 12-H ) :   0.9156
B(  2-C , 13-H ) :   0.9049 B(  3-C ,  4-C ) :   1.1121 B(  3-C , 14-H ) :   0.9016
B(  3-C , 15-H ) :   0.9135 B(  4-C ,  5-C ) :   1.1122 B(  4-C ,  7-C ) :   1.0898
B(  4-C , 16-H ) :   0.9033 B(  5-C ,  6-C ) :   1.1408 B(  5-C , 17-H ) :   0.9017
B(  5-C , 18-H ) :   0.9133 B(  6-C , 19-H ) :   0.9155 B(  6-C , 20-H ) :   0.9050
B(  7-C , 21-H ) :   0.9521 B(  7-C , 22-H ) :   0.9510 B(  7-C , 23-H ) :   0.9510

Dispersion correction           -0.021893034
FINAL SINGLE POINT ENERGY      -313.701902454366

DIPOLE MOMENT
-------------

Method             : SCF
Type of density    : Electron Density
Multiplicity       :   1
Irrep              :   0
Energy             :  -313.7828975468980843 Eh
Relativity type    :
Basis              : AO
                                X                 Y                 Z
Electronic contribution:      0.005670815       0.000981689       0.022605996
Nuclear contribution   :      0.013307664      -0.001024987      -0.025930992
                        -----------------------------------------
Total Dipole Moment    :      0.018978479      -0.000043299      -0.003324996
                        -----------------------------------------
Magnitude (a.u.)       :      0.019267593
Magnitude (Debye)      :      0.048974329

Rotational constants in cm-1:             0.138871             0.044353             0.036306
Rotational constants in MHz :          4163.251323          1329.680236          1088.431646

                             ****ORCA TERMINATED NORMALLY****
TOTAL RUN TIME: 0 days 0 hours 0 minutes 10 seconds 143 msec
