                         Program Version 6.0.0  -   RELEASE  -
|  1> ! wb97x-v def2-tzvp def2/J RIJCOSX DEFGRID2 scfconv7 GCP(DFT/TZ) printgap
|  2> %output
|  3>     printlevel normal
|  4> end
|  5> * xyz 0 1
|  6> C -2.1281168259932204 -0.005767477967750213 -0.3187739277083108
|  7> C -0.8090295859412715 -0.06676609294198788 0.44381622985991076
|  8> C 0.09953040467537705 -1.2266919472090358 -0.03105760549246836
|  9> C 1.5263631439865435 -0.6840867329790531 0.08273190475385579
| 10> C 1.3633786991154324 0.761140283478723 -0.39846713830796016
| 11> C 0.05968573891064991 1.2176947303283776 0.2793066740761578
| 12> H -1.9469962033367243 0.18225440459044762 -1.3840888306352304
| 13> H -2.6786479853924705 -0.9500293047315573 -0.23425460990818003
| 14> H -2.7745099041761736 0.7939270035775464 0.059487296448185074
| 15> H -1.0324018139363171 -0.20865757384603056 1.5078774842917786
| 16> H -0.06523158210974363 -2.1461114715777665 0.5398718983003113
| 17> H -0.11738920004885678 -1.4488871399358618 -1.084616568156035
| 18> H 1.8520108280937362 -0.6929517699903086 1.1311010555333463
| 19> H 2.254300382355977 -1.256876592565241 -0.5010491404890672
| 20> H 2.2170251753011954 1.4018974974709004 -0.155831390610206
| 21> H 1.2444600927200713 0.7650091591613294 -1.4892646004958696
| 22> H 0.2837774863031005 1.6487587019884014 1.2610256840868075
| 23> H -0.4620299773209886 1.987374066753231 -0.2994139989753329
| 24> *
| 25>
| 26>                          ****END OF INPUT****

CARTESIAN COORDINATES (ANGSTROEM)
---------------------------------
  C     -2.128117   -0.005767   -0.318774
  C     -0.809030   -0.066766    0.443816
  C      0.099530   -1.226692   -0.031058
  C      1.526363   -0.684087    0.082732
  C      1.363379    0.761140   -0.398467
  C      0.059686    1.217695    0.279307
  H     -1.946996    0.182254   -1.384089
  H     -2.678648   -0.950029   -0.234255
  H     -2.774510    0.793927    0.059487
  H     -1.032402   -0.208658    1.507877
  H     -0.065232   -2.146111    0.539872
  H     -0.117389   -1.448887   -1.084617
  H      1.852011   -0.692952    1.131101
  H      2.254300   -1.256877   -0.501049
  H      2.217025    1.401897   -0.155831
  H      1.244460    0.765009   -1.489265
  H      0.283777    1.648759    1.261026
  H     -0.462030    1.987374   -0.299414

 Total Charge           Charge          ....    0
 Multiplicity           Mult            ....    1
 Number of Electrons    NEL             ....   48
 Basis Dimension        Dim             ....  258

ORBITAL ENERGIES
----------------

  NO   OCC          E(Eh)            E(eV)
   0   2.0000     -12.042116      -327.6826
   1   2.0000     -12.035333      -327.4981
   2   2.0000     -12.034542      -327.4765
   3   2.0000     -12.032856      -327.4307
   4   2.0000     -12.032789      -327.4288
   5   2.0000     -12.029913      -327.3506
   6   2.0000      -1.343686       -36.5636
   7   2.0000      -1.244862       -33.8744
   8   2.0000      -1.205002       -32.7898
   9   2.0000      -1.141581       -31.0640
  10   2.0000      -1.039991       -28.2996
  11   2.0000      -1.015636       -27.6369
  12   2.0000      -0.913590       -24.8601
  13   2.0000      -0.899462       -24.4756
  14   2.0000      -0.856114       -23.2961
  15   2.0000      -0.840339       -22.8668
  16   2.0000      -0.828270       -22.5384
  17   2.0000      -0.810111       -22.0442
  18   2.0000      -0.781295       -21.2601
  19   2.0000      -0.778307       -21.1788
  20   2.0000      -0.772240       -21.0137
  21   2.0000      -0.756638       -20.5892
  22   2.0000      -0.743410       -20.2292
  23   2.0000      -0.737911       -20.0796
  24   0.0000      -0.043766        -1.1909
  25   0.0000      -0.042345        -1.1523
  26   0.0000      -0.029485        -0.8023
  27   0.0000      -0.025961        -0.7064
  28   0.0000       0.005251         0.1429

MULLIKEN ATOMIC CHARGES
-----------------------
   0 C :   -0.380570
   1 C :    0.013875
   2 C :   -0.214819
   3 C :   -0.154428
   4 C :   -0.186041
   5 C :   -0.212318
   6 H :    0.105015
   7 H :    0.110533
   8 H :    0.113186
   9 H :    0.066094
  10 H :    0.098348
  11 H :    0.087461
  12 H :    0.085003
  13 H :    0.095493
  14 H :    0.096673
  15 H :    0.085853
  16 H :    0.093828
  17 H :    0.096814
Sum of atomic charges:    0.0000000

LOEWDIN ATOMIC CHARGES
----------------------
   0 C :   -0.290947
   1 C :   -0.264152
   2 C :   -0.232980
   3 C :   -0.256557
   4 C :   -0.255233
   5 C :   -0.225909
   6 H :    0.117424
   7 H :    0.117765
   8 H :    0.116389
   9 H :    0.141739
  10 H :    0.126578
  11 H :    0.134156
  12 H :    0.131638
  13 H :    0.125736
  14 H :    0.125354
  15 H :    0.130965
  16 H :    0.129229
  17 H :    0.128805

  Mayer bond orders larger than 0.100000
B(  0-C ,  1-C ) :   0.9682 B(  0-C ,  6-H ) :   0.9755 B(  0-C ,  7-H ) :   0.9858
B(  0-C ,  8-H ) :   0.9859 B(  1-C ,  2-C ) :   0.9850 B(  1-C ,  5-C ) :   0.9597
B(  1-C ,  9-H ) :   0.9739 B(  2-C ,  3-C ) :   0.9893 B(  2-C , 10-H ) :   0.9710
B(  2-C , 11-H ) :   0.9731 B(  3-C ,  4-C ) :   0.9859 B(  3-C , 12-H ) :   0.9743
B(  3-C , 13-H ) :   0.9731 B(  4-C ,  5-C ) :   1.0018 B(  4-C , 14-H ) :   0.9742
B(  4-C , 15-H ) :   0.9752 B(  5-C , 16-H ) :   0.9777 B(  5-C , 17-H ) :   0.9756

FINAL SINGLE POINT ENERGY      -235.879089706188

DIPOLE MOMENT
-------------

Method             : SCF
Type of density    : Electron Density
Multiplicity       :   1
Irrep              :   0
Energy             :  -235.8914680477884076 Eh
Relativity type    :
Basis              : AO
                                X                 Y                 Z
Electronic contribution:      1.182121752      -0.075958352       0.653991115
Nuclear contribution   :     -1.164243827       0.068011854      -0.613966330
                        -----------------------------------------
Total Dipole Moment    :      0.017877925      -0.007946498       0.040024786
                        -----------------------------------------
Magnitude (a.u.)       :      0.044550539
Magnitude (Debye)      :      0.113238471

Rotational constants in cm-1:             0.195910             0.101670             0.077939
Rotational constants in MHz :          5873.220479          3047.977442          2336.550945

                             ****ORCA TERMINATED NORMALLY****
TOTAL RUN TIME: 0 days 0 hours 1 minutes 24 seconds 811 msec
