                         Program Version 6.0.0  -   RELEASE  -
|  1> ! wb97x-v def2-tzvp def2/J RIJCOSX DEFGRID2 scfconv7 GCP(DFT/TZ) printgap
|  2> %output
|  3>     printlevel normal
|  4> end
|  5> %cpcm
|  6>     smd true
|  7>     smdsolvent "water"
|  8> end
|  9> * xyz 0 1
| 10> C -2.1281168259932204 -0.005767477967750213 -0.3187739277083108
| 11> C -0.8090295859412715 -0.06676609294198788 0.44381622985991076
| 12> C 0.09953040467537705 -1.2266919472090358 -0.03105760549246836
| 13> C 1.5263631439865435 -0.6840867329790531 0.08273190475385579
| 14> C 1.3633786991154324 0.761140283478723 -0.39846713830796016
| 15> C 0.05968573891064991 1.2176947303283776 0.2793066740761578
| 16> H -1.9469962033367243 0.18225440459044762 -1.3840888306352304
| 17> H -2.6786479853924705 -0.9500293047315573 -0.23425460990818003
| 18> H -2.7745099041761736 0.7939270035775464 0.059487296448185074
| 19> H -1.0324018139363171 -0.20865757384603056 1.5078774842917786
| 20> H -0.06523158210974363 -2.1461114715777665 0.5398718983003113
| 21> H -0.11738920004885678 -1.4488871399358618 -1.084616568156035
| 22> H 1.8520108280937362 -0.6929517699903086 1.1311010555333463
| 23> H 2.254300382355977 -1.256876592565241 -0.5010491404890672
| 24> H 2.2170251753011954 1.4018974974709004 -0.155831390610206
| 25> H 1.2444600927200713 0.7650091591613294 -1.4892646004958696
| 26> H 0.2837774863031005 1.6487587019884014 1.2610256840868075
| 27> H -0.4620299773209886 1.987374066753231 -0.2994139989753329
| 28> *
| 29>
| 30>                          ****END OF INPUT****

CARTESIAN COORDINATES (ANGSTROEM)
---------------------------------
  C     -2.128117   -0.005767   -0.318774
  C     -0.809030   -0.066766    0.443816
  C      0.099530   -1.226692   -0.031058
  C      1.526363   -0.684087    0.082732
  C      1.363379    0.761140   -0.398467
  C      0.059686    1.217695    0.279307
  H     -1.946996    0.182254   -1.384089
  H     -2.678648   -0.950029   -0.234255
  H     -2.774510    0.793927    0.059487
  H     -1.032402   -0.208658    1.507877
  H     -0.065232   -2.146111    0.539872
  H     -0.117389   -1.448887   -1.084617
  H      1.852011   -0.692952    1.131101
  H      2.254300   -1.256877   -0.501049
  H      2.217025    1.401897   -0.155831
  H      1.244460    0.765009   -1.489265
  H      0.283777    1.648759    1.261026
  H     -0.462030    1.987374   -0.299414

 Total Charge           Charge          ....    0
 Multiplicity           Mult            ....    1
 Number of Electrons    NEL             ....   48
 Basis Dimension        Dim             ....  258

ORBITAL ENERGIES
----------------

  NO   OCC          E(Eh)            E(eV)
   0   2.0000     -12.034767      -327.4827
   1   2.0000     -12.028055      -327.3000
   2   2.0000     -12.027233      -327.2776
   3   2.0000     -12.025497      -327.2304
   4   2.0000     -12.025301      -327.2251
   5   2.0000     -12.022435      -327.1471
   6   2.0000      -1.336453       -36.3667
   7   2.0000      -1.237809       -33.6825
   8   2.0000      -1.197980       -32.5987
   9   2.0000      -1.134674       -30.8760
  10   2.0000      -1.033025       -28.1100
  11   2.0000      -1.008574       -27.4447
  12   2.0000      -0.906437       -24.6654
  13   2.0000      -0.892294       -24.2806
  14   2.0000      -0.848858       -23.0986
  15   2.0000      -0.832994       -22.6669
  16   2.0000      -0.821232       -22.3469
  17   2.0000      -0.802939       -21.8491
  18   2.0000      -0.774271       -21.0690
  19   2.0000      -0.771346       -20.9894
  20   2.0000      -0.765044       -20.8179
  21   2.0000      -0.749537       -20.3959
  22   2.0000      -0.735953       -20.0263
  23   2.0000      -0.730332       -19.8734
  24   0.0000      -0.036946        -1.0053
  25   0.0000      -0.035739        -0.9725
  26   0.0000      -0.021790        -0.5929
  27   0.0000      -0.017085        -0.4649
  28   0.0000       0.012360         0.3363

MULLIKEN ATOMIC CHARGES
-----------------------
   0 C :   -0.431914
   1 C :    0.017250
   2 C :   -0.241260
   3 C :   -0.181207
   4 C :   -0.211363
   5 C :   -0.239306
   6 H :    0.121302
   7 H :    0.123988
   8 H :    0.126586
   9 H :    0.077328
  10 H :    0.112253
  11 H :    0.098028
  12 H :    0.097583
  13 H :    0.108522
  14 H :    0.109940
  15 H :    0.098006
  16 H :    0.105783
  17 H :    0.108482
Sum of atomic charges:    0.0000000

LOEWDIN ATOMIC CHARGES
----------------------
   0 C :   -0.297708
   1 C :   -0.264380
   2 C :   -0.236246
   3 C :   -0.260690
   4 C :   -0.259243
   5 C :   -0.229218
   6 H :    0.120007
   7 H :    0.119256
   8 H :    0.118018
   9 H :    0.143839
  10 H :    0.128200
  11 H :    0.136001
  12 H :    0.133714
  13 H :    0.127303
  14 H :    0.126822
  15 H :    0.133160
  16 H :    0.131049
  17 H :    0.130116

  Mayer bond orders larger than 0.100000
B(  0-C ,  1-C ) :   0.9576 B(  0-C ,  6-H ) :   0.9748 B(  0-C ,  7-H ) :   0.9834
B(  0-C ,  8-H ) :   0.9830 B(  1-C ,  2-C ) :   0.9845 B(  1-C ,  5-C ) :   0.9585
B(  1-C ,  9-H ) :   0.9744 B(  2-C ,  3-C ) :   0.9891 B(  2-C , 10-H ) :   0.9689
B(  2-C , 11-H ) :   0.9721 B(  3-C ,  4-C ) :   0.9861 B(  3-C , 12-H ) :   0.9729
B(  3-C , 13-H ) :   0.9707 B(  4-C ,  5-C ) :   1.0008 B(  4-C , 14-H ) :   0.9719
B(  4-C , 15-H ) :   0.9731 B(  5-C , 16-H ) :   0.9765 B(  5-C , 17-H ) :   0.9743

FINAL SINGLE POINT ENERGY      -235.876815753522

DIPOLE MOMENT
-------------

Method             : SCF
Type of density    : Electron Density
Multiplicity       :   1
Irrep              :   0
Energy             :  -235.8891940951222068 Eh
Relativity type    :
Basis              : AO
                                X                 Y                 Z
Electronic contribution:      1.181975360      -0.077209026       0.658932533
Nuclear contribution   :     -1.164243827       0.068011854      -0.613966330
                        -----------------------------------------
Total Dipole Moment    :      0.017731533      -0.009197172       0.044966203
                        -----------------------------------------
Magnitude (a.u.)       :      0.049203198
Magnitude (Debye)      :      0.125064590

Rotational constants in cm-1:             0.195910             0.101670             0.077939
Rotational constants in MHz :          5873.220479          3047.977442          2336.550945

                             ****ORCA TERMINATED NORMALLY****
TOTAL RUN TIME: 0 days 0 hours 1 minutes 20 seconds 823 msec
