                         Program Version 6.0.0  -   RELEASE  -
|  1> ! wb97x-v def2-tzvp def2/J RIJCOSX DEFGRID2 scfconv7 GCP(DFT/TZ) printgap
|  2> %output
|  3>     printlevel normal
|  4> end
|  5> * xyz 0 1
|  6> C -2.6405782548628993 1.5180501581540573 0.11112496072069378
|  7> C -1.967086522443215 0.1573992701310716 -0.011777471396601421
|  8> C -0.45852508745091003 0.1753217630192961 0.009792757973887142
|  9> C 0.29774129461968235 1.3411910747276221 0.13323487716868565
| 10> C 1.6931326650443626 1.3147928199790913 0.14904279372098114
| 11> C 2.3606762725772685 0.1000708585543552 0.037628646915384395
| 12> C 1.63427995590052 -1.0816288198118444 -0.0869543514413232
| 13> C 0.24275758649891593 -1.037203120231181 -0.09767997800287032
| 14> O -0.5124015641531432 -2.1858773820569444 -0.21372917970194688
| 15> H -2.3588862562173745 2.1849208827309208 -0.7102208541212294
| 16> H -2.383876561233996 2.0130962038974234 1.053280308107223
| 17> H -3.7273889181694813 1.3973743338360274 0.08399481384407213
| 18> H -2.2956022160040885 -0.3301182983836415 -0.9390956644280798
| 19> H -2.318922943304587 -0.4983273228570472 0.7955385474418735
| 20> H -0.21160327604677218 2.2950233404441893 0.21997970839974343
| 21> H 2.250469397338803 2.240572552999516 0.24751926714064912
| 22> H 3.4455245026694765 0.06342505017513171 0.04730034456184733
| 23> H 2.139151558772394 -2.0403544051556137 -0.1745698002701725
| 24> H 0.08473949510082783 -2.945233740012024 -0.2666979308206411
| 25> *
| 26>
| 27>                          ****END OF INPUT****

CARTESIAN COORDINATES (ANGSTROEM)
---------------------------------
  C     -2.640578    1.518050    0.111125
  C     -1.967087    0.157399   -0.011777
  C     -0.458525    0.175322    0.009793
  C      0.297741    1.341191    0.133235
  C      1.693133    1.314793    0.149043
  C      2.360676    0.100071    0.037629
  C      1.634280   -1.081629   -0.086954
  C      0.242758   -1.037203   -0.097680
  O     -0.512402   -2.185877   -0.213729
  H     -2.358886    2.184921   -0.710221
  H     -2.383877    2.013096    1.053280
  H     -3.727389    1.397374    0.083995
  H     -2.295602   -0.330118   -0.939096
  H     -2.318923   -0.498327    0.795539
  H     -0.211603    2.295023    0.219980
  H      2.250469    2.240573    0.247519
  H      3.445525    0.063425    0.047300
  H      2.139152   -2.040354   -0.174570
  H      0.084739   -2.945234   -0.266698

 Total Charge           Charge          ....    0
 Multiplicity           Mult            ....    1
 Number of Electrons    NEL             ....   66
 Basis Dimension        Dim             ....  339

ORBITAL ENERGIES
----------------

  NO   OCC          E(Eh)            E(eV)
   0   2.0000     -21.702872      -590.5652
   1   2.0000     -12.109224      -329.5087
   2   2.0000     -12.053581      -327.9946
   3   2.0000     -12.051567      -327.9398
   4   2.0000     -12.049169      -327.8746
   5   2.0000     -12.047740      -327.8357
   6   2.0000     -12.044772      -327.7549
   7   2.0000     -12.041623      -327.6692
   8   2.0000     -12.034958      -327.4879
   9   2.0000      -1.715429       -46.6792
  10   2.0000      -1.384352       -37.6701
  11   2.0000      -1.304451       -35.4959
  12   2.0000      -1.274335       -34.6764
  13   2.0000      -1.240825       -33.7646
  14   2.0000      -1.153398       -31.3856
  15   2.0000      -1.137177       -30.9441
  16   2.0000      -1.073675       -29.2162
  17   2.0000      -1.056457       -28.7476
  18   2.0000      -1.003248       -27.2998
  19   2.0000      -0.946947       -25.7677
  20   2.0000      -0.939398       -25.5623
  21   2.0000      -0.938748       -25.5446
  22   2.0000      -0.894566       -24.3424
  23   2.0000      -0.882551       -24.0154
  24   2.0000      -0.867859       -23.6156
  25   2.0000      -0.836039       -22.7498
  26   2.0000      -0.828271       -22.5384
  27   2.0000      -0.806125       -21.9358
  28   2.0000      -0.784520       -21.3479
  29   2.0000      -0.782391       -21.2899
  30   2.0000      -0.753062       -20.4919
  31   2.0000      -0.637518       -17.3477
  32   2.0000      -0.628880       -17.1127
  33   0.0000      -0.242522        -6.5994
  34   0.0000      -0.237255        -6.4560
  35   0.0000      -0.146483        -3.9860
  36   0.0000      -0.069653        -1.8954
  37   0.0000      -0.068650        -1.8680

MULLIKEN ATOMIC CHARGES
-----------------------
   0 C :   -0.363522
   1 C :   -0.124643
   2 C :    0.001436
   3 C :   -0.166338
   4 C :   -0.163591
   5 C :   -0.122383
   6 C :   -0.209485
   7 C :    0.212186
   8 O :   -0.393312
   9 H :    0.115626
  10 H :    0.115459
  11 H :    0.120652
  12 H :    0.105707
  13 H :    0.105714
  14 H :    0.128545
  15 H :    0.112749
  16 H :    0.116092
  17 H :    0.099042
  18 H :    0.310066
Sum of atomic charges:    0.0000000

LOEWDIN ATOMIC CHARGES
----------------------
   0 C :   -0.303436
   1 C :   -0.239647
   2 C :   -0.126400
   3 C :   -0.111749
   4 C :   -0.158916
   5 C :   -0.144475
   6 C :   -0.149394
   7 C :   -0.228976
   8 O :    0.066865
   9 H :    0.117680
  10 H :    0.117655
  11 H :    0.118697
  12 H :    0.145299
  13 H :    0.145264
  14 H :    0.147014
  15 H :    0.139814
  16 H :    0.141378
  17 H :    0.138660
  18 H :    0.184666

  Mayer bond orders larger than 0.100000
B(  0-C ,  1-C ) :   0.9905 B(  0-C ,  9-H ) :   0.9792 B(  0-C , 10-H ) :   0.9792
B(  0-C , 11-H ) :   0.9839 B(  1-C ,  2-C ) :   0.9866 B(  1-C , 12-H ) :   0.9570
B(  1-C , 13-H ) :   0.9568 B(  2-C ,  3-C ) :   1.4052 B(  2-C ,  7-C ) :   1.3523
B(  3-C ,  4-C ) :   1.4400 B(  3-C , 14-H ) :   0.9631 B(  4-C ,  5-C ) :   1.4519
B(  4-C , 15-H ) :   0.9765 B(  5-C ,  6-C ) :   1.4182 B(  5-C , 16-H ) :   0.9679
B(  6-C ,  7-C ) :   1.4214 B(  6-C , 17-H ) :   0.9669 B(  7-C ,  8-O ) :   1.1760
B(  8-O , 18-H ) :   0.8887

FINAL SINGLE POINT ENERGY      -386.118513281047

DIPOLE MOMENT
-------------

Method             : SCF
Type of density    : Electron Density
Multiplicity       :   1
Irrep              :   0
Energy             :  -386.1297185835469463 Eh
Relativity type    :
Basis              : AO
                                X                 Y                 Z
Electronic contribution:      5.333644950      -4.418757459      -0.358545932
Nuclear contribution   :     -5.078062874       4.129014886       0.341327411
                        -----------------------------------------
Total Dipole Moment    :      0.255582076      -0.289742573      -0.017218521
                        -----------------------------------------
Magnitude (a.u.)       :      0.386742076
Magnitude (Debye)      :      0.983020236

Rotational constants in cm-1:             0.083143             0.048993             0.031182
Rotational constants in MHz :          2492.556167          1468.759988           934.827388

                             ****ORCA TERMINATED NORMALLY****
TOTAL RUN TIME: 0 days 0 hours 3 minutes 24 seconds 273 msec
