                         Program Version 6.0.0  -   RELEASE  -
|  1> ! wb97x-v def2-tzvp def2/J RIJCOSX DEFGRID2 scfconv7 GCP(DFT/TZ) printgap
|  2> %output
|  3>     printlevel normal
|  4> end
|  5> %cpcm
|  6>     smd true
|  7>     smdsolvent "water"
|  8> end
|  9> * xyz 0 1
| 10> C -2.6405782548628993 1.5180501581540573 0.11112496072069378
| 11> C -1.967086522443215 0.1573992701310716 -0.011777471396601421
| 12> C -0.45852508745091003 0.1753217630192961 0.009792757973887142
| 13> C 0.29774129461968235 1.3411910747276221 0.13323487716868565
| 14> C 1.6931326650443626 1.3147928199790913 0.14904279372098114
| 15> C 2.3606762725772685 0.1000708585543552 0.037628646915384395
| 16> C 1.63427995590052 -1.0816288198118444 -0.0869543514413232
| 17> C 0.24275758649891593 -1.037203120231181 -0.09767997800287032
| 18> O -0.5124015641531432 -2.1858773820569444 -0.21372917970194688
| 19> H -2.3588862562173745 2.1849208827309208 -0.7102208541212294
| 20> H -2.383876561233996 2.0130962038974234 1.053280308107223
| 21> H -3.7273889181694813 1.3973743338360274 0.08399481384407213
| 22> H -2.2956022160040885 -0.3301182983836415 -0.9390956644280798
| 23> H -2.318922943304587 -0.4983273228570472 0.7955385474418735
| 24> H -0.21160327604677218 2.2950233404441893 0.21997970839974343
| 25> H 2.250469397338803 2.240572552999516 0.24751926714064912
| 26> H 3.4455245026694765 0.06342505017513171 0.04730034456184733
| 27> H 2.139151558772394 -2.0403544051556137 -0.1745698002701725
| 28> H 0.08473949510082783 -2.945233740012024 -0.2666979308206411
| 29> *
| 30>
| 31>                          ****END OF INPUT****

CARTESIAN COORDINATES (ANGSTROEM)
---------------------------------
  C     -2.640578    1.518050    0.111125
  C     -1.967087    0.157399   -0.011777
  C     -0.458525    0.175322    0.009793
  C      0.297741    1.341191    0.133235
  C      1.693133    1.314793    0.149043
  C      2.360676    0.100071    0.037629
  C      1.634280   -1.081629   -0.086954
  C      0.242758   -1.037203   -0.097680
  O     -0.512402   -2.185877   -0.213729
  H     -2.358886    2.184921   -0.710221
  H     -2.383877    2.013096    1.053280
  H     -3.727389    1.397374    0.083995
  H     -2.295602   -0.330118   -0.939096
  H     -2.318923   -0.498327    0.795539
  H     -0.211603    2.295023    0.219980
  H      2.250469    2.240573    0.247519
  H      3.445525    0.063425    0.047300
  H      2.139152   -2.040354   -0.174570
  H      0.084739   -2.945234   -0.266698

 Total Charge           Charge          ....    0
 Multiplicity           Mult            ....    1
 Number of Electrons    NEL             ....   66
 Basis Dimension        Dim             ....  339

ORBITAL ENERGIES
----------------

  NO   OCC          E(Eh)            E(eV)
   0   2.0000     -21.700039      -590.4881
   1   2.0000     -12.108904      -329.5000
   2   2.0000     -12.054134      -328.0097
   3   2.0000     -12.049113      -327.8730
   4   2.0000     -12.046767      -327.8092
   5   2.0000     -12.045617      -327.7779
   6   2.0000     -12.042218      -327.6854
   7   2.0000     -12.040783      -327.6464
   8   2.0000     -12.027796      -327.2930
   9   2.0000      -1.712935       -46.6113
  10   2.0000      -1.384817       -37.6828
  11   2.0000      -1.303252       -35.4633
  12   2.0000      -1.273714       -34.6595
  13   2.0000      -1.237741       -33.6806
  14   2.0000      -1.151447       -31.3325
  15   2.0000      -1.134418       -30.8691
  16   2.0000      -1.071137       -29.1471
  17   2.0000      -1.054799       -28.7026
  18   2.0000      -1.003770       -27.3140
  19   2.0000      -0.946743       -25.7622
  20   2.0000      -0.938517       -25.5383
  21   2.0000      -0.936107       -25.4728
  22   2.0000      -0.890921       -24.2432
  23   2.0000      -0.878551       -23.9066
  24   2.0000      -0.863932       -23.5088
  25   2.0000      -0.832918       -22.6649
  26   2.0000      -0.824231       -22.4285
  27   2.0000      -0.802435       -21.8354
  28   2.0000      -0.779572       -21.2132
  29   2.0000      -0.779535       -21.2122
  30   2.0000      -0.752416       -20.4743
  31   2.0000      -0.638128       -17.3643
  32   2.0000      -0.630667       -17.1613
  33   0.0000      -0.244069        -6.6414
  34   0.0000      -0.237546        -6.4640
  35   0.0000      -0.143980        -3.9179
  36   0.0000      -0.069756        -1.8981
  37   0.0000      -0.037678        -1.0253

MULLIKEN ATOMIC CHARGES
-----------------------
   0 C :   -0.401707
   1 C :   -0.148289
   2 C :   -0.014576
   3 C :   -0.205593
   4 C :   -0.219380
   5 C :   -0.154192
   6 C :   -0.269878
   7 C :    0.225567
   8 O :   -0.468766
   9 H :    0.129199
  10 H :    0.129067
  11 H :    0.138100
  12 H :    0.118196
  13 H :    0.118178
  14 H :    0.167949
  15 H :    0.157162
  16 H :    0.162083
  17 H :    0.162655
  18 H :    0.374223
Sum of atomic charges:    0.0000000

LOEWDIN ATOMIC CHARGES
----------------------
   0 C :   -0.305271
   1 C :   -0.244344
   2 C :   -0.136609
   3 C :   -0.122930
   4 C :   -0.173543
   5 C :   -0.155888
   6 C :   -0.145921
   7 C :   -0.237184
   8 O :    0.045077
   9 H :    0.121098
  10 H :    0.121079
  11 H :    0.121768
  12 H :    0.146393
  13 H :    0.146379
  14 H :    0.155597
  15 H :    0.148273
  16 H :    0.150947
  17 H :    0.155559
  18 H :    0.209518

  Mayer bond orders larger than 0.100000
B(  0-C ,  1-C ) :   0.9943 B(  0-C ,  9-H ) :   0.9765 B(  0-C , 10-H ) :   0.9765
B(  0-C , 11-H ) :   0.9793 B(  1-C ,  2-C ) :   0.9731 B(  1-C , 12-H ) :   0.9589
B(  1-C , 13-H ) :   0.9588 B(  2-C ,  3-C ) :   1.3870 B(  2-C ,  7-C ) :   1.3371
B(  3-C ,  4-C ) :   1.4180 B(  3-C , 14-H ) :   0.9669 B(  4-C ,  5-C ) :   1.4197
B(  4-C , 15-H ) :   0.9827 B(  5-C ,  6-C ) :   1.3762 B(  5-C , 16-H ) :   0.9702
B(  6-C ,  7-C ) :   1.4232 B(  6-C , 17-H ) :   0.9749 B(  7-C ,  8-O ) :   1.1351
B(  8-O , 18-H ) :   0.8489

FINAL SINGLE POINT ENERGY      -386.126936195059

DIPOLE MOMENT
-------------

Method             : SCF
Type of density    : Electron Density
Multiplicity       :   1
Irrep              :   0
Energy             :  -386.1381414975593316 Eh
Relativity type    :
Basis              : AO
                                X                 Y                 Z
Electronic contribution:      5.480904888      -4.528639417      -0.364177923
Nuclear contribution   :     -5.078062874       4.129014886       0.341327411
                        -----------------------------------------
Total Dipole Moment    :      0.402842014      -0.399624531      -0.022850512
                        -----------------------------------------
Magnitude (a.u.)       :      0.567894004
Magnitude (Debye)      :      1.443471843

Rotational constants in cm-1:             0.083143             0.048993             0.031182
Rotational constants in MHz :          2492.556167          1468.759988           934.827388

                             ****ORCA TERMINATED NORMALLY****
TOTAL RUN TIME: 0 days 0 hours 3 minutes 29 seconds 937 msec
