                         Program Version 6.0.0  -   RELEASE  -
|  1> ! r2scan-3c def2/J RI DEFGRID2 scfconv6 printgap
|  2> %output
|  3>     printlevel normal
|  4> end
|  5> * xyz 0 1
|  6> C 2.4841165233 -3.09027e-05 -0.0798522825
|  7> C 1.0143188991 -7.7977e-05 0.3320022174
|  8> C 0.3011542533 1.2493904912 -0.1875152541
|  9> C -1.1686176498 1.2520097964 0.2232297882
| 10> C -1.8705695694 -4.00276e-05 -0.2938435545
| 11> C -1.1685795743 -1.251947952 0.2234713977
| 12> C 0.3010354578 -1.2493584402 -0.1877731026
| 13> H 2.9891730111 -0.8826805971 0.3056896675
| 14> H 2.5736818873 0.0004309488 -1.1642587466
| 15> H 2.9894188588 0.8823972481 0.3061946267
| 16> H 0.9584240025 -0.0001974614 1.4269913228
| 17> H 0.7951469751 2.1432188602 0.1999642605
| 18> H 0.3723941785 1.2746050567 -1.2776495199
| 19> H -1.2396233974 1.281789404 1.313152536
| 20> H -1.6612940358 2.1442733431 -0.1686012139
| 21> H -2.9153065461 -1.1266e-05 0.0236020251
| 22> H -1.8516561067 -0.0001485855 -1.3861251857
| 23> H -1.2391462404 -1.2812231305 1.3134426445
| 24> H -1.6614428411 -2.1443611311 -0.1677818997
| 25> H 0.7951329608 -2.1433520124 0.1991626444
| 26> H 0.3718891176 -1.2740851077 -1.2779427296
| 27> *
| 28>
| 29>                          ****END OF INPUT****

CARTESIAN COORDINATES (ANGSTROEM)
---------------------------------
  C      2.484117   -0.000031   -0.079852
  C      1.014319   -0.000078    0.332002
  C      0.301154    1.249390   -0.187515
  C     -1.168618    1.252010    0.223230
  C     -1.870570   -0.000040   -0.293844
  C     -1.168580   -1.251948    0.223471
  C      0.301035   -1.249358   -0.187773
  H      2.989173   -0.882681    0.305690
  H      2.573682    0.000431   -1.164259
  H      2.989419    0.882397    0.306195
  H      0.958424   -0.000197    1.426991
  H      0.795147    2.143219    0.199964
  H      0.372394    1.274605   -1.277650
  H     -1.239623    1.281789    1.313153
  H     -1.661294    2.144273   -0.168601
  H     -2.915307   -0.000011    0.023602
  H     -1.851656   -0.000149   -1.386125
  H     -1.239146   -1.281223    1.313443
  H     -1.661443   -2.144361   -0.167782
  H      0.795133   -2.143352    0.199163
  H      0.371889   -1.274085   -1.277943

 Total Charge           Charge          ....    0
 Multiplicity           Mult            ....    1
 Number of Electrons    NEL             ....   56
 Basis Dimension        Dim             ....  203

ORBITAL ENERGIES
----------------

  NO   OCC          E(Eh)            E(eV)
   0   2.0000     -10.026270      -272.8287
   1   2.0000     -10.018525      -272.6179
   2   2.0000     -10.018483      -272.6168
   3   2.0000     -10.018293      -272.6116
   4   2.0000     -10.017310      -272.5849
   5   2.0000     -10.017301      -272.5846
   6   2.0000     -10.011286      -272.4209
   7   2.0000      -0.800040       -21.7702
   8   2.0000      -0.727320       -19.7914
   9   2.0000      -0.703483       -19.1428
  10   2.0000      -0.637524       -17.3479
  11   2.0000      -0.570369       -15.5205
  12   2.0000      -0.546475       -14.8703
  13   2.0000      -0.517143       -14.0722
  14   2.0000      -0.439707       -11.9650
  15   2.0000      -0.414344       -11.2749
  16   2.0000      -0.406823       -11.0702
  17   2.0000      -0.399331       -10.8664
  18   2.0000      -0.377777       -10.2798
  19   2.0000      -0.351185        -9.5562
  20   2.0000      -0.341914        -9.3040
  21   2.0000      -0.331271        -9.0143
  22   2.0000      -0.314369        -8.5544
  23   2.0000      -0.306972        -8.3531
  24   2.0000      -0.297890        -8.1060
  25   2.0000      -0.284665        -7.7461
  26   2.0000      -0.261503        -7.1159
  27   2.0000      -0.258614        -7.0372
  28   0.0000       0.088485         2.4078
  29   0.0000       0.106395         2.8952
  30   0.0000       0.116233         3.1629
  31   0.0000       0.121489         3.3059
  32   0.0000       0.130759         3.5581

MULLIKEN ATOMIC CHARGES
-----------------------
   0 C :   -0.486850
   1 C :   -0.062028
   2 C :   -0.315369
   3 C :   -0.284781
   4 C :   -0.277972
   5 C :   -0.284704
   6 C :   -0.315330
   7 H :    0.145501
   8 H :    0.147558
   9 H :    0.145499
  10 H :    0.152922
  11 H :    0.143065
  12 H :    0.147777
  13 H :    0.141348
  14 H :    0.144207
  15 H :    0.144342
  16 H :    0.138417
  17 H :    0.141331
  18 H :    0.144223
  19 H :    0.143075
  20 H :    0.147768
Sum of atomic charges:   -0.0000000

LOEWDIN ATOMIC CHARGES
----------------------
   0 C :   -0.415138
   1 C :   -0.238382
   2 C :   -0.299289
   3 C :   -0.304189
   4 C :   -0.306118
   5 C :   -0.304183
   6 C :   -0.299283
   7 H :    0.152631
   8 H :    0.153333
   9 H :    0.152640
  10 H :    0.156912
  11 H :    0.156598
  12 H :    0.156872
  13 H :    0.154275
  14 H :    0.153864
  15 H :    0.154142
  16 H :    0.153705
  17 H :    0.154280
  18 H :    0.153860
  19 H :    0.156592
  20 H :    0.156877

  Mayer bond orders larger than 0.100000
B(  0-C ,  1-C ) :   0.8942 B(  0-C ,  7-H ) :   0.9771 B(  0-C ,  8-H ) :   0.9945
B(  0-C ,  9-H ) :   0.9771 B(  1-C ,  2-C ) :   0.9206 B(  1-C ,  6-C ) :   0.9206
B(  1-C , 10-H ) :   0.9585 B(  2-C ,  3-C ) :   0.9059 B(  2-C , 11-H ) :   0.9415
B(  2-C , 12-H ) :   1.0032 B(  3-C ,  4-C ) :   0.9272 B(  3-C , 13-H ) :   0.9917
B(  3-C , 14-H ) :   0.9445 B(  4-C ,  5-C ) :   0.9272 B(  4-C , 15-H ) :   0.9463
B(  4-C , 16-H ) :   0.9909 B(  5-C ,  6-C ) :   0.9058 B(  5-C , 17-H ) :   0.9917
B(  5-C , 18-H ) :   0.9444 B(  6-C , 19-H ) :   0.9415 B(  6-C , 20-H ) :   1.0032

Dispersion correction           -0.006057148
FINAL SINGLE POINT ENERGY      -275.094540135576

DIPOLE MOMENT
-------------

Method             : SCF
Type of density    : Electron Density
Multiplicity       :   1
Irrep              :   0
Energy             :  -275.0974307064225286 Eh
Relativity type    :
Basis              : AO
                                X                 Y                 Z
Electronic contribution:     -1.227757520      -0.000587162       0.359570638
Nuclear contribution   :      1.197838899       0.000615031      -0.332259416
                        -----------------------------------------
Total Dipole Moment    :     -0.029918622       0.000027868       0.027311222
                        -----------------------------------------
Magnitude (a.u.)       :      0.040509598
Magnitude (Debye)      :      0.102967215

Rotational constants in cm-1:             0.141937             0.073849             0.053828
Rotational constants in MHz :          4255.169066          2213.923321          1613.722732

                             ****ORCA TERMINATED NORMALLY****
TOTAL RUN TIME: 0 days 0 hours 0 minutes 21 seconds 806 msec
