                         Program Version 6.0.0  -   RELEASE  -
|  1> ! r2scan-3c def2/J RI DEFGRID2 scfconv6 printgap
|  2> %output
|  3>     printlevel normal
|  4> end
|  5> %cpcm
|  6>     smd true
|  7>     smdsolvent "water"
|  8> end
|  9> * xyz 0 1
| 10> C 2.4841165233 -3.09027e-05 -0.0798522825
| 11> C 1.0143188991 -7.7977e-05 0.3320022174
| 12> C 0.3011542533 1.2493904912 -0.1875152541
| 13> C -1.1686176498 1.2520097964 0.2232297882
| 14> C -1.8705695694 -4.00276e-05 -0.2938435545
| 15> C -1.1685795743 -1.251947952 0.2234713977
| 16> C 0.3010354578 -1.2493584402 -0.1877731026
| 17> H 2.9891730111 -0.8826805971 0.3056896675
| 18> H 2.5736818873 0.0004309488 -1.1642587466
| 19> H 2.9894188588 0.8823972481 0.3061946267
| 20> H 0.9584240025 -0.0001974614 1.4269913228
| 21> H 0.7951469751 2.1432188602 0.1999642605
| 22> H 0.3723941785 1.2746050567 -1.2776495199
| 23> H -1.2396233974 1.281789404 1.313152536
| 24> H -1.6612940358 2.1442733431 -0.1686012139
| 25> H -2.9153065461 -1.1266e-05 0.0236020251
| 26> H -1.8516561067 -0.0001485855 -1.3861251857
| 27> H -1.2391462404 -1.2812231305 1.3134426445
| 28> H -1.6614428411 -2.1443611311 -0.1677818997
| 29> H 0.7951329608 -2.1433520124 0.1991626444
| 30> H 0.3718891176 -1.2740851077 -1.2779427296
| 31> *
| 32>
| 33>                          ****END OF INPUT****

CARTESIAN COORDINATES (ANGSTROEM)
---------------------------------
  C      2.484117   -0.000031   -0.079852
  C      1.014319   -0.000078    0.332002
  C      0.301154    1.249390   -0.187515
  C     -1.168618    1.252010    0.223230
  C     -1.870570   -0.000040   -0.293844
  C     -1.168580   -1.251948    0.223471
  C      0.301035   -1.249358   -0.187773
  H      2.989173   -0.882681    0.305690
  H      2.573682    0.000431   -1.164259
  H      2.989419    0.882397    0.306195
  H      0.958424   -0.000197    1.426991
  H      0.795147    2.143219    0.199964
  H      0.372394    1.274605   -1.277650
  H     -1.239623    1.281789    1.313153
  H     -1.661294    2.144273   -0.168601
  H     -2.915307   -0.000011    0.023602
  H     -1.851656   -0.000149   -1.386125
  H     -1.239146   -1.281223    1.313443
  H     -1.661443   -2.144361   -0.167782
  H      0.795133   -2.143352    0.199163
  H      0.371889   -1.274085   -1.277943

 Total Charge           Charge          ....    0
 Multiplicity           Mult            ....    1
 Number of Electrons    NEL             ....   56
 Basis Dimension        Dim             ....  203

ORBITAL ENERGIES
----------------

  NO   OCC          E(Eh)            E(eV)
   0   2.0000     -10.019093      -272.6334
   1   2.0000     -10.011514      -272.4271
   2   2.0000     -10.011465      -272.4258
   3   2.0000     -10.011297      -272.4212
   4   2.0000     -10.009933      -272.3841
   5   2.0000     -10.009924      -272.3839
   6   2.0000     -10.004798      -272.2444
   7   2.0000      -0.792999       -21.5786
   8   2.0000      -0.720676       -19.6106
   9   2.0000      -0.696650       -18.9568
  10   2.0000      -0.631271       -17.1778
  11   2.0000      -0.563649       -15.3377
  12   2.0000      -0.539968       -14.6933
  13   2.0000      -0.509866       -13.8742
  14   2.0000      -0.432967       -11.7816
  15   2.0000      -0.407377       -11.0853
  16   2.0000      -0.399632       -10.8745
  17   2.0000      -0.392581       -10.6827
  18   2.0000      -0.371389       -10.1060
  19   2.0000      -0.344591        -9.3768
  20   2.0000      -0.335086        -9.1182
  21   2.0000      -0.324593        -8.8326
  22   2.0000      -0.307786        -8.3753
  23   2.0000      -0.299707        -8.1554
  24   2.0000      -0.290678        -7.9098
  25   2.0000      -0.276816        -7.5325
  26   2.0000      -0.254790        -6.9332
  27   2.0000      -0.251727        -6.8499
  28   0.0000       0.095707         2.6043
  29   0.0000       0.112969         3.0740
  30   0.0000       0.123738         3.3671
  31   0.0000       0.127873         3.4796
  32   0.0000       0.136152         3.7049

MULLIKEN ATOMIC CHARGES
-----------------------
   0 C :   -0.535461
   1 C :   -0.043497
   2 C :   -0.333110
   3 C :   -0.302556
   4 C :   -0.291720
   5 C :   -0.302491
   6 C :   -0.333083
   7 H :    0.156302
   8 H :    0.159777
   9 H :    0.156295
  10 H :    0.159628
  11 H :    0.150238
  12 H :    0.156415
  13 H :    0.149612
  14 H :    0.150211
  15 H :    0.150418
  16 H :    0.146533
  17 H :    0.149600
  18 H :    0.150230
  19 H :    0.150252
  20 H :    0.156406
Sum of atomic charges:   -0.0000000

LOEWDIN ATOMIC CHARGES
----------------------
   0 C :   -0.424729
   1 C :   -0.236915
   2 C :   -0.302668
   3 C :   -0.307756
   4 C :   -0.309631
   5 C :   -0.307751
   6 C :   -0.302663
   7 H :    0.154803
   8 H :    0.155625
   9 H :    0.154811
  10 H :    0.159177
  11 H :    0.157910
  12 H :    0.159072
  13 H :    0.156366
  14 H :    0.154943
  15 H :    0.155222
  16 H :    0.155890
  17 H :    0.156372
  18 H :    0.154940
  19 H :    0.157904
  20 H :    0.159078

  Mayer bond orders larger than 0.100000
B(  0-C ,  1-C ) :   0.8808 B(  0-C ,  7-H ) :   0.9750 B(  0-C ,  8-H ) :   0.9931
B(  0-C ,  9-H ) :   0.9750 B(  1-C ,  2-C ) :   0.9185 B(  1-C ,  6-C ) :   0.9185
B(  1-C , 10-H ) :   0.9576 B(  2-C ,  3-C ) :   0.9060 B(  2-C , 11-H ) :   0.9411
B(  2-C , 12-H ) :   1.0010 B(  3-C ,  4-C ) :   0.9250 B(  3-C , 13-H ) :   0.9907
B(  3-C , 14-H ) :   0.9443 B(  4-C ,  5-C ) :   0.9250 B(  4-C , 15-H ) :   0.9459
B(  4-C , 16-H ) :   0.9887 B(  5-C ,  6-C ) :   0.9059 B(  5-C , 17-H ) :   0.9908
B(  5-C , 18-H ) :   0.9443 B(  6-C , 19-H ) :   0.9411 B(  6-C , 20-H ) :   1.0011

Dispersion correction           -0.006057148
FINAL SINGLE POINT ENERGY      -275.092168297263

DIPOLE MOMENT
-------------

Method             : SCF
Type of density    : Electron Density
Multiplicity       :   1
Irrep              :   0
Energy             :  -275.0950588681104136 Eh
Relativity type    :
Basis              : AO
                                X                 Y                 Z
Electronic contribution:     -1.231329408      -0.000580959       0.366933933
Nuclear contribution   :      1.197838899       0.000615031      -0.332259416
                        -----------------------------------------
Total Dipole Moment    :     -0.033490510       0.000034072       0.034674516
                        -----------------------------------------
Magnitude (a.u.)       :      0.048207235
Magnitude (Debye)      :      0.122533053

Rotational constants in cm-1:             0.141937             0.073849             0.053828
Rotational constants in MHz :          4255.169066          2213.923321          1613.722732

                             ****ORCA TERMINATED NORMALLY****
TOTAL RUN TIME: 0 days 0 hours 0 minutes 25 seconds 413 msec
