                         Program Version 6.0.0  -   RELEASE  -
|  1> ! pbe def2-sv(p) def2/J RI DEFGRID1 loosescf d4 GCP(DFT/SV(P)) printgap
|  2> %output
|  3>     printlevel normal
|  4> end
|  5> * xyz 0 1
|  6> C -2.3298751333 -1.0491544305 0.5352100938
|  7> C -1.4724523821 -0.0085836692 -0.129689045
|  8> O -1.6954320053 0.3630795718 -1.2656617802
|  9> C -0.3563633287 0.5764836167 0.715790226
| 10> C 0.5393218706 1.5195850033 -0.0937844189
| 11> C 1.4036972518 0.7500455913 -1.0900943749
| 12> C 2.2380756342 -0.3116997647 -0.3806970833
| 13> C 1.3304726062 -1.2655089275 0.3895355897
| 14> C 0.4987550047 -0.4922884704 1.4088000495
| 15> H -3.2700356732 -1.1423062691 -0.002282214
| 16> H -1.8158596237 -2.0073894884 0.4921872187
| 17> H -2.5113023506 -0.8007463152 1.5758686227
| 18> H -0.8710431547 1.1614046284 1.489131307
| 19> H -0.0848970544 2.2353739019 -0.6325411618
| 20> H 1.1821787984 2.0734179679 0.5930659157
| 21> H 0.7564868685 0.274376477 -1.8301360891
| 22> H 2.0559580399 1.4472521464 -1.6196044211
| 23> H 2.8300693849 -0.8659285949 -1.1113909909
| 24> H 2.9281548399 0.1727556032 0.3139236111
| 25> H 0.670739198 -1.7777250112 -0.3152575351
| 26> H 1.9303462665 -2.0206209114 0.900834744
| 27> H -0.1261157939 -1.1738462203 1.9841370798
| 28> H 1.1729724006 0.0105379394 2.1049856934
| 29> *
| 30>
| 31>                          ****END OF INPUT****

CARTESIAN COORDINATES (ANGSTROEM)
---------------------------------
  C     -2.329875   -1.049154    0.535210
  C     -1.472452   -0.008584   -0.129689
  O     -1.695432    0.363080   -1.265662
  C     -0.356363    0.576484    0.715790
  C      0.539322    1.519585   -0.093784
  C      1.403697    0.750046   -1.090094
  C      2.238076   -0.311700   -0.380697
  C      1.330473   -1.265509    0.389536
  C      0.498755   -0.492288    1.408800
  H     -3.270036   -1.142306   -0.002282
  H     -1.815860   -2.007389    0.492187
  H     -2.511302   -0.800746    1.575869
  H     -0.871043    1.161405    1.489131
  H     -0.084897    2.235374   -0.632541
  H      1.182179    2.073418    0.593066
  H      0.756487    0.274376   -1.830136
  H      2.055958    1.447252   -1.619604
  H      2.830069   -0.865929   -1.111391
  H      2.928155    0.172756    0.313924
  H      0.670739   -1.777725   -0.315258
  H      1.930346   -2.020621    0.900835
  H     -0.126116   -1.173846    1.984137
  H      1.172972    0.010538    2.104986

 Total Charge           Charge          ....    0
 Multiplicity           Mult            ....    1
 Number of Electrons    NEL             ....   70
 Basis Dimension        Dim             ....  154

ORBITAL ENERGIES
----------------

  NO   OCC          E(Eh)            E(eV)
   0   2.0000     -18.738188      -509.8920
   1   2.0000      -9.973398      -271.3899
   2   2.0000      -9.901071      -269.4218
   3   2.0000      -9.893934      -269.2276
   4   2.0000      -9.887055      -269.0404
   5   2.0000      -9.886743      -269.0320
   6   2.0000      -9.880701      -268.8675
   7   2.0000      -9.879807      -268.8432
   8   2.0000      -9.874912      -268.7100
   9   2.0000      -0.936023       -25.4705
  10   2.0000      -0.761397       -20.7187
  11   2.0000      -0.692395       -18.8410
  12   2.0000      -0.668702       -18.1963
  13   2.0000      -0.653827       -17.7915
  14   2.0000      -0.561444       -15.2777
  15   2.0000      -0.542197       -14.7539
  16   2.0000      -0.510839       -13.9006
  17   2.0000      -0.449088       -12.2203
  18   2.0000      -0.443737       -12.0747
  19   2.0000      -0.418282       -11.3820
  20   2.0000      -0.409761       -11.1502
  21   2.0000      -0.395012       -10.7488
  22   2.0000      -0.383573       -10.4376
  23   2.0000      -0.372114       -10.1257
  24   2.0000      -0.357396        -9.7252
  25   2.0000      -0.344894        -9.3850
  26   2.0000      -0.336306        -9.1513
  27   2.0000      -0.329318        -8.9612
  28   2.0000      -0.317486        -8.6392
  29   2.0000      -0.310082        -8.4378
  30   2.0000      -0.302239        -8.2243
  31   2.0000      -0.280691        -7.6380
  32   2.0000      -0.262340        -7.1386
  33   2.0000      -0.259811        -7.0698
  34   2.0000      -0.194687        -5.2977
  35   0.0000      -0.051535        -1.4024
  36   0.0000       0.025133         0.6839
  37   0.0000       0.047033         1.2798
  38   0.0000       0.061498         1.6734
  39   0.0000       0.076154         2.0723

MULLIKEN ATOMIC CHARGES
-----------------------
   0 C :   -0.247844
   1 C :   -0.007933
   2 O :   -0.164479
   3 C :   -0.177766
   4 C :   -0.094415
   5 C :   -0.167225
   6 C :   -0.154496
   7 C :   -0.159860
   8 C :   -0.136377
   9 H :    0.119251
  10 H :    0.133656
  11 H :    0.119564
  12 H :    0.094160
  13 H :    0.090732
  14 H :    0.069620
  15 H :    0.097826
  16 H :    0.083555
  17 H :    0.085471
  18 H :    0.071463
  19 H :    0.087811
  20 H :    0.087166
  21 H :    0.088190
  22 H :    0.081930
Sum of atomic charges:    0.0000000

LOEWDIN ATOMIC CHARGES
----------------------
   0 C :   -0.362196
   1 C :    0.048924
   2 O :   -0.127115
   3 C :   -0.172499
   4 C :   -0.215695
   5 C :   -0.229773
   6 C :   -0.226120
   7 C :   -0.228022
   8 C :   -0.213865
   9 H :    0.136717
  10 H :    0.146246
  11 H :    0.134125
  12 H :    0.137751
  13 H :    0.123378
  14 H :    0.114237
  15 H :    0.121187
  16 H :    0.116789
  17 H :    0.116375
  18 H :    0.112018
  19 H :    0.114973
  20 H :    0.117925
  21 H :    0.114619
  22 H :    0.120023

  Mayer bond orders larger than 0.100000
B(  0-C ,  1-C ) :   1.0795 B(  0-C ,  9-H ) :   0.9286 B(  0-C , 10-H ) :   0.9126
B(  0-C , 11-H ) :   0.9309 B(  1-C ,  2-O ) :   2.1733 B(  1-C ,  3-C ) :   0.9194
B(  3-C ,  4-C ) :   1.1026 B(  3-C ,  8-C ) :   1.0739 B(  3-C , 12-H ) :   0.8555
B(  4-C ,  5-C ) :   1.1328 B(  4-C , 13-H ) :   0.9039 B(  4-C , 14-H ) :   0.9109
B(  5-C ,  6-C ) :   1.1309 B(  5-C , 15-H ) :   0.9112 B(  5-C , 16-H ) :   0.9181
B(  6-C ,  7-C ) :   1.1304 B(  6-C , 17-H ) :   0.9196 B(  6-C , 18-H ) :   0.9145
B(  7-C ,  8-C ) :   1.1312 B(  7-C , 19-H ) :   0.9092 B(  7-C , 20-H ) :   0.9178
B(  8-C , 21-H ) :   0.9073 B(  8-C , 22-H ) :   0.9087

Dispersion correction           -0.022966782
FINAL SINGLE POINT ENERGY      -387.609278871194

DIPOLE MOMENT
-------------

Method             : SCF
Type of density    : Electron Density
Multiplicity       :   1
Irrep              :   0
Energy             :  -387.6869426020119818 Eh
Relativity type    :
Basis              : AO
                                X                 Y                 Z
Electronic contribution:     -4.310887362       1.930545601      -2.796557029
Nuclear contribution   :      4.522757497      -2.258826409       3.680344144
                        -----------------------------------------
Total Dipole Moment    :      0.211870135      -0.328280808       0.883787114
                        -----------------------------------------
Magnitude (a.u.)       :      0.966300629
Magnitude (Debye)      :      2.456141007

Rotational constants in cm-1:             0.082743             0.046278             0.038081
Rotational constants in MHz :          2480.564299          1387.392303          1141.631920

                             ****ORCA TERMINATED NORMALLY****
TOTAL RUN TIME: 0 days 0 hours 0 minutes 10 seconds 232 msec
