                         Program Version 6.0.0  -   RELEASE  -
|  1> ! wb97x-v def2-tzvp def2/J RIJCOSX DEFGRID2 scfconv7 GCP(DFT/TZ) printgap
|  2> %output
|  3>     printlevel normal
|  4> end
|  5> * xyz 0 1
|  6> C 3.7432363782469964 0.18463169716587394 0.04863482288493716
|  7> C 2.2660841659171873 0.31853478082170017 -0.3096739590537081
|  8> H 2.183529999047099 0.509213936062432 -1.3905140725641414
|  9> C 1.6087413394735985 1.4862680797739327 0.4264658691096478
| 10> C 0.12088814499351011 1.5875411659751166 0.09914066005446193
| 11> C -0.6463268845145872 0.2913036400380944 0.4167001342103703
| 12> H -0.5225352410771104 0.0861743076284173 1.4916145501297426
| 13> C 0.02190293145158917 -0.866807177187261 -0.33481594539651177
| 14> H -0.0810065900004229 -0.6981145529033491 -1.4179545305900771
| 15> C 1.5033007714725628 -0.9696903307138638 0.004269661714924552
| 16> O -0.5509829105848365 -2.155752014977269 -0.006422284761787741
| 17> C -2.162727616849713 0.48341256482148176 0.1509313101869031
| 18> C -2.5419386261321595 0.4024804600059086 -1.330543684040707
| 19> C -3.0612466973771424 -0.43274426905689706 0.9887280551517181
| 20> H 4.291576399656259 1.1025744956647834 -0.18988532180139336
| 21> H 3.862726481450763 -0.010047131180064593 1.1213368346368235
| 22> H 4.212462726801386 -0.6411120687155133 -0.49738755320045225
| 23> H 1.7364481567513466 1.3375664089436474 1.508837537943744
| 24> H 2.116066862463197 2.4244186219964456 0.16935058235857142
| 25> H -0.33210721523547865 2.4127310589924895 0.6610799552247653
| 26> H 0.002188439697465722 1.8282843540796208 -0.9665145516252746
| 27> H 1.6024966877716906 -1.1949006316741115 1.0765369419865438
| 28> H 1.9364146616918707 -1.81212705844501 -0.548917059249525
| 29> H -1.4230515134132449 -2.2082907226100037 -0.41476479416334416
| 30> H -2.3810454292385095 1.508464025575189 0.4830460950421733
| 31> H -2.4571502372268186 -0.6204168133627277 -1.7168396522803389
| 32> H -1.9138072400168809 1.0496423211273136 -1.9511304055294083
| 33> H -3.5823510859225958 0.7151034748022312 -1.4708228882553211
| 34> H -2.7790760836844446 -0.40311220599649267 2.046954557145468
| 35> H -3.0231709383654404 -1.4769905944814317 0.6615623311146096
| 36> H -4.105709313161282 -0.10988899928663456 0.9109116816503973
| 37> *
| 38>
| 39>                          ****END OF INPUT****

CARTESIAN COORDINATES (ANGSTROEM)
---------------------------------
  C      3.743236    0.184632    0.048635
  C      2.266084    0.318535   -0.309674
  H      2.183530    0.509214   -1.390514
  C      1.608741    1.486268    0.426466
  C      0.120888    1.587541    0.099141
  C     -0.646327    0.291304    0.416700
  H     -0.522535    0.086174    1.491615
  C      0.021903   -0.866807   -0.334816
  H     -0.081007   -0.698115   -1.417955
  C      1.503301   -0.969690    0.004270
  O     -0.550983   -2.155752   -0.006422
  C     -2.162728    0.483413    0.150931
  C     -2.541939    0.402480   -1.330544
  C     -3.061247   -0.432744    0.988728
  H      4.291576    1.102574   -0.189885
  H      3.862726   -0.010047    1.121337
  H      4.212463   -0.641112   -0.497388
  H      1.736448    1.337566    1.508838
  H      2.116067    2.424419    0.169351
  H     -0.332107    2.412731    0.661080
  H      0.002188    1.828284   -0.966515
  H      1.602497   -1.194901    1.076537
  H      1.936415   -1.812127   -0.548917
  H     -1.423052   -2.208291   -0.414765
  H     -2.381045    1.508464    0.483046
  H     -2.457150   -0.620417   -1.716840
  H     -1.913807    1.049642   -1.951130
  H     -3.582351    0.715103   -1.470823
  H     -2.779076   -0.403112    2.046955
  H     -3.023171   -1.476991    0.661562
  H     -4.105709   -0.109889    0.910912

 Total Charge           Charge          ....    0
 Multiplicity           Mult            ....    1
 Number of Electrons    NEL             ....   88
 Basis Dimension        Dim             ....  461

ORBITAL ENERGIES
----------------

  NO   OCC          E(Eh)            E(eV)
   0   2.0000     -21.663612      -589.4968
   1   2.0000     -12.090004      -328.9857
   2   2.0000     -12.052018      -327.9521
   3   2.0000     -12.045604      -327.7775
   4   2.0000     -12.043620      -327.7236
   5   2.0000     -12.040435      -327.6369
   6   2.0000     -12.039689      -327.6166
   7   2.0000     -12.037325      -327.5523
   8   2.0000     -12.034337      -327.4710
   9   2.0000     -12.032464      -327.4200
  10   2.0000     -12.031390      -327.3908
  11   2.0000      -1.661854       -45.2213
  12   2.0000      -1.352499       -36.8034
  13   2.0000      -1.310566       -35.6623
  14   2.0000      -1.256579       -34.1933
  15   2.0000      -1.251056       -34.0430
  16   2.0000      -1.179231       -32.0885
  17   2.0000      -1.174249       -31.9529
  18   2.0000      -1.116521       -30.3821
  19   2.0000      -1.093100       -29.7448
  20   2.0000      -1.051796       -28.6208
  21   2.0000      -1.017997       -27.7011
  22   2.0000      -1.006360       -27.3844
  23   2.0000      -0.941643       -25.6234
  24   2.0000      -0.922229       -25.0951
  25   2.0000      -0.900386       -24.5007
  26   2.0000      -0.891700       -24.2644
  27   2.0000      -0.879713       -23.9382
  28   2.0000      -0.867707       -23.6115
  29   2.0000      -0.858946       -23.3731
  30   2.0000      -0.851041       -23.1580
  31   2.0000      -0.842970       -22.9384
  32   2.0000      -0.825258       -22.4564
  33   2.0000      -0.815461       -22.1898
  34   2.0000      -0.808162       -21.9912
  35   2.0000      -0.802377       -21.8338
  36   2.0000      -0.792406       -21.5625
  37   2.0000      -0.785345       -21.3703
  38   2.0000      -0.778968       -21.1968
  39   2.0000      -0.763544       -20.7771
  40   2.0000      -0.762621       -20.7520
  41   2.0000      -0.754490       -20.5307
  42   2.0000      -0.741595       -20.1798
  43   2.0000      -0.730259       -19.8714
  44   0.0000      -0.156422        -4.2565
  45   0.0000      -0.071748        -1.9524
  46   0.0000      -0.058578        -1.5940
  47   0.0000      -0.042243        -1.1495
  48   0.0000      -0.034792        -0.9467

MULLIKEN ATOMIC CHARGES
-----------------------
   0 C :   -0.340834
   1 C :   -0.035449
   2 H :    0.062505
   3 C :   -0.186119
   4 C :   -0.194145
   5 C :   -0.013912
   6 H :    0.065631
   7 C :   -0.004394
   8 H :    0.089749
   9 C :   -0.195034
  10 O :   -0.422442
  11 C :   -0.061741
  12 C :   -0.360386
  13 C :   -0.298377
  14 H :    0.110740
  15 H :    0.105058
  16 H :    0.113005
  17 H :    0.088220
  18 H :    0.100306
  19 H :    0.101515
  20 H :    0.088574
  21 H :    0.096168
  22 H :    0.105332
  23 H :    0.289564
  24 H :    0.064013
  25 H :    0.092282
  26 H :    0.120576
  27 H :    0.120927
  28 H :    0.114478
  29 H :    0.073206
  30 H :    0.110984
Sum of atomic charges:   -0.0000000

LOEWDIN ATOMIC CHARGES
----------------------
   0 C :   -0.279398
   1 C :   -0.282941
   2 H :    0.147501
   3 C :   -0.235349
   4 C :   -0.228041
   5 C :   -0.214851
   6 H :    0.156628
   7 C :   -0.304756
   8 H :    0.136537
   9 C :   -0.210204
  10 O :   -0.023870
  11 C :   -0.284049
  12 C :   -0.281400
  13 C :   -0.280434
  14 H :    0.117716
  15 H :    0.119486
  16 H :    0.118597
  17 H :    0.137257
  18 H :    0.133794
  19 H :    0.134885
  20 H :    0.135465
  21 H :    0.142527
  22 H :    0.139511
  23 H :    0.153952
  24 H :    0.152268
  25 H :    0.112533
  26 H :    0.117917
  27 H :    0.120867
  28 H :    0.120264
  29 H :    0.109926
  30 H :    0.117666

  Mayer bond orders larger than 0.100000
B(  0-C ,  1-C ) :   0.9737 B(  0-C , 14-H ) :   0.9872 B(  0-C , 15-H ) :   0.9745
B(  0-C , 16-H ) :   0.9867 B(  1-C ,  2-H ) :   0.9702 B(  1-C ,  3-C ) :   0.9790
B(  1-C ,  9-C ) :   0.9751 B(  3-C ,  4-C ) :   1.0025 B(  3-C , 17-H ) :   0.9656
B(  3-C , 18-H ) :   0.9730 B(  4-C ,  5-C ) :   0.9780 B(  4-C , 19-H ) :   0.9710
B(  4-C , 20-H ) :   0.9689 B(  5-C ,  6-H ) :   0.9664 B(  5-C ,  7-C ) :   0.9348
B(  5-C , 11-C ) :   0.9162 B(  7-C ,  8-H ) :   0.9877 B(  7-C ,  9-C ) :   0.9861
B(  7-C , 10-O ) :   1.1368 B(  9-C , 21-H ) :   0.9665 B(  9-C , 22-H ) :   0.9726
B( 10-O , 23-H ) :   0.9063 B( 11-C , 12-C ) :   0.9765 B( 11-C , 13-C ) :   1.0035
B( 11-C , 24-H ) :   0.9774 B( 12-C , 25-H ) :   0.9644 B( 12-C , 26-H ) :   0.9878
B( 12-C , 27-H ) :   0.9811 B( 13-C , 28-H ) :   0.9846 B( 13-C , 29-H ) :   0.9593
B( 13-C , 30-H ) :   0.9858

FINAL SINGLE POINT ENERGY      -468.375708362974

DIPOLE MOMENT
-------------

Method             : SCF
Type of density    : Electron Density
Multiplicity       :   1
Irrep              :   0
Energy             :  -468.3986784170738247 Eh
Relativity type    :
Basis              : AO
                                X                 Y                 Z
Electronic contribution:      0.461049584      -3.034535121       0.281559463
Nuclear contribution   :     -0.715327191       3.630204440      -0.572634194
                        -----------------------------------------
Total Dipole Moment    :     -0.254277607       0.595669319      -0.291074730
                        -----------------------------------------
Magnitude (a.u.)       :      0.710072910
Magnitude (Debye)      :      1.804861903

Rotational constants in cm-1:             0.064664             0.022423             0.019231
Rotational constants in MHz :          1938.584756           672.227850           576.538058

                             ****ORCA TERMINATED NORMALLY****
TOTAL RUN TIME: 0 days 0 hours 5 minutes 52 seconds 96 msec
