                         Program Version 6.0.0  -   RELEASE  -
|  1> ! wb97x-v def2-tzvp def2/J RIJCOSX DEFGRID2 scfconv7 GCP(DFT/TZ) printgap
|  2> %output
|  3>     printlevel normal
|  4> end
|  5> %cpcm
|  6>     smd true
|  7>     smdsolvent "water"
|  8> end
|  9> * xyz 0 1
| 10> C 3.7432363782469964 0.18463169716587394 0.04863482288493716
| 11> C 2.2660841659171873 0.31853478082170017 -0.3096739590537081
| 12> H 2.183529999047099 0.509213936062432 -1.3905140725641414
| 13> C 1.6087413394735985 1.4862680797739327 0.4264658691096478
| 14> C 0.12088814499351011 1.5875411659751166 0.09914066005446193
| 15> C -0.6463268845145872 0.2913036400380944 0.4167001342103703
| 16> H -0.5225352410771104 0.0861743076284173 1.4916145501297426
| 17> C 0.02190293145158917 -0.866807177187261 -0.33481594539651177
| 18> H -0.0810065900004229 -0.6981145529033491 -1.4179545305900771
| 19> C 1.5033007714725628 -0.9696903307138638 0.004269661714924552
| 20> O -0.5509829105848365 -2.155752014977269 -0.006422284761787741
| 21> C -2.162727616849713 0.48341256482148176 0.1509313101869031
| 22> C -2.5419386261321595 0.4024804600059086 -1.330543684040707
| 23> C -3.0612466973771424 -0.43274426905689706 0.9887280551517181
| 24> H 4.291576399656259 1.1025744956647834 -0.18988532180139336
| 25> H 3.862726481450763 -0.010047131180064593 1.1213368346368235
| 26> H 4.212462726801386 -0.6411120687155133 -0.49738755320045225
| 27> H 1.7364481567513466 1.3375664089436474 1.508837537943744
| 28> H 2.116066862463197 2.4244186219964456 0.16935058235857142
| 29> H -0.33210721523547865 2.4127310589924895 0.6610799552247653
| 30> H 0.002188439697465722 1.8282843540796208 -0.9665145516252746
| 31> H 1.6024966877716906 -1.1949006316741115 1.0765369419865438
| 32> H 1.9364146616918707 -1.81212705844501 -0.548917059249525
| 33> H -1.4230515134132449 -2.2082907226100037 -0.41476479416334416
| 34> H -2.3810454292385095 1.508464025575189 0.4830460950421733
| 35> H -2.4571502372268186 -0.6204168133627277 -1.7168396522803389
| 36> H -1.9138072400168809 1.0496423211273136 -1.9511304055294083
| 37> H -3.5823510859225958 0.7151034748022312 -1.4708228882553211
| 38> H -2.7790760836844446 -0.40311220599649267 2.046954557145468
| 39> H -3.0231709383654404 -1.4769905944814317 0.6615623311146096
| 40> H -4.105709313161282 -0.10988899928663456 0.9109116816503973
| 41> *
| 42>
| 43>                          ****END OF INPUT****

CARTESIAN COORDINATES (ANGSTROEM)
---------------------------------
  C      3.743236    0.184632    0.048635
  C      2.266084    0.318535   -0.309674
  H      2.183530    0.509214   -1.390514
  C      1.608741    1.486268    0.426466
  C      0.120888    1.587541    0.099141
  C     -0.646327    0.291304    0.416700
  H     -0.522535    0.086174    1.491615
  C      0.021903   -0.866807   -0.334816
  H     -0.081007   -0.698115   -1.417955
  C      1.503301   -0.969690    0.004270
  O     -0.550983   -2.155752   -0.006422
  C     -2.162728    0.483413    0.150931
  C     -2.541939    0.402480   -1.330544
  C     -3.061247   -0.432744    0.988728
  H      4.291576    1.102574   -0.189885
  H      3.862726   -0.010047    1.121337
  H      4.212463   -0.641112   -0.497388
  H      1.736448    1.337566    1.508838
  H      2.116067    2.424419    0.169351
  H     -0.332107    2.412731    0.661080
  H      0.002188    1.828284   -0.966515
  H      1.602497   -1.194901    1.076537
  H      1.936415   -1.812127   -0.548917
  H     -1.423052   -2.208291   -0.414765
  H     -2.381045    1.508464    0.483046
  H     -2.457150   -0.620417   -1.716840
  H     -1.913807    1.049642   -1.951130
  H     -3.582351    0.715103   -1.470823
  H     -2.779076   -0.403112    2.046955
  H     -3.023171   -1.476991    0.661562
  H     -4.105709   -0.109889    0.910912

 Total Charge           Charge          ....    0
 Multiplicity           Mult            ....    1
 Number of Electrons    NEL             ....   88
 Basis Dimension        Dim             ....  461

ORBITAL ENERGIES
----------------

  NO   OCC          E(Eh)            E(eV)
   0   2.0000     -21.668522      -589.6304
   1   2.0000     -12.084650      -328.8400
   2   2.0000     -12.039425      -327.6094
   3   2.0000     -12.036980      -327.5429
   4   2.0000     -12.034280      -327.4694
   5   2.0000     -12.028466      -327.3112
   6   2.0000     -12.027605      -327.2878
   7   2.0000     -12.026397      -327.2549
   8   2.0000     -12.023139      -327.1662
   9   2.0000     -12.022890      -327.1595
  10   2.0000     -12.022517      -327.1493
  11   2.0000      -1.667293       -45.3694
  12   2.0000      -1.343672       -36.5632
  13   2.0000      -1.299595       -35.3638
  14   2.0000      -1.248779       -33.9810
  15   2.0000      -1.242181       -33.8015
  16   2.0000      -1.165849       -31.7244
  17   2.0000      -1.165616       -31.7180
  18   2.0000      -1.112944       -30.2848
  19   2.0000      -1.083587       -29.4859
  20   2.0000      -1.045936       -28.4614
  21   2.0000      -1.011794       -27.5323
  22   2.0000      -1.002210       -27.2715
  23   2.0000      -0.944485       -25.7007
  24   2.0000      -0.922087       -25.0913
  25   2.0000      -0.891143       -24.2492
  26   2.0000      -0.882323       -24.0092
  27   2.0000      -0.869390       -23.6573
  28   2.0000      -0.861194       -23.4343
  29   2.0000      -0.848654       -23.0930
  30   2.0000      -0.840440       -22.8695
  31   2.0000      -0.834786       -22.7157
  32   2.0000      -0.816707       -22.2237
  33   2.0000      -0.804922       -21.9031
  34   2.0000      -0.795951       -21.6589
  35   2.0000      -0.792393       -21.5621
  36   2.0000      -0.783720       -21.3261
  37   2.0000      -0.773113       -21.0375
  38   2.0000      -0.770011       -20.9531
  39   2.0000      -0.752577       -20.4787
  40   2.0000      -0.752533       -20.4775
  41   2.0000      -0.744937       -20.2708
  42   2.0000      -0.730875       -19.8881
  43   2.0000      -0.721248       -19.6262
  44   0.0000      -0.152144        -4.1400
  45   0.0000      -0.053368        -1.4522
  46   0.0000      -0.047675        -1.2973
  47   0.0000      -0.029139        -0.7929
  48   0.0000      -0.024944        -0.6788

MULLIKEN ATOMIC CHARGES
-----------------------
   0 C :   -0.403292
   1 C :   -0.020866
   2 H :    0.076589
   3 C :   -0.216880
   4 C :   -0.224525
   5 C :   -0.035291
   6 H :    0.074181
   7 C :    0.011439
   8 H :    0.111028
   9 C :   -0.212173
  10 O :   -0.539881
  11 C :   -0.007233
  12 C :   -0.428328
  13 C :   -0.395571
  14 H :    0.127993
  15 H :    0.119852
  16 H :    0.127809
  17 H :    0.098420
  18 H :    0.113329
  19 H :    0.115989
  20 H :    0.107228
  21 H :    0.102236
  22 H :    0.112834
  23 H :    0.353712
  24 H :    0.075422
  25 H :    0.124469
  26 H :    0.135466
  27 H :    0.133377
  28 H :    0.129007
  29 H :    0.106615
  30 H :    0.127046
Sum of atomic charges:   -0.0000000

LOEWDIN ATOMIC CHARGES
----------------------
   0 C :   -0.286890
   1 C :   -0.280440
   2 H :    0.151624
   3 C :   -0.237581
   4 C :   -0.227962
   5 C :   -0.215259
   6 H :    0.157041
   7 C :   -0.302492
   8 H :    0.144515
   9 C :   -0.218700
  10 O :   -0.066384
  11 C :   -0.281896
  12 C :   -0.286784
  13 C :   -0.290954
  14 H :    0.120278
  15 H :    0.121235
  16 H :    0.120139
  17 H :    0.138770
  18 H :    0.135906
  19 H :    0.137629
  20 H :    0.140066
  21 H :    0.142092
  22 H :    0.138276
  23 H :    0.175640
  24 H :    0.154690
  25 H :    0.120255
  26 H :    0.120342
  27 H :    0.121582
  28 H :    0.120060
  29 H :    0.114855
  30 H :    0.120347

  Mayer bond orders larger than 0.100000
B(  0-C ,  1-C ) :   0.9530 B(  0-C , 14-H ) :   0.9852 B(  0-C , 15-H ) :   0.9749
B(  0-C , 16-H ) :   0.9849 B(  1-C ,  2-H ) :   0.9702 B(  1-C ,  3-C ) :   0.9821
B(  1-C ,  9-C ) :   0.9780 B(  3-C ,  4-C ) :   1.0017 B(  3-C , 17-H ) :   0.9657
B(  3-C , 18-H ) :   0.9711 B(  4-C ,  5-C ) :   0.9830 B(  4-C , 19-H ) :   0.9706
B(  4-C , 20-H ) :   0.9681 B(  5-C ,  6-H ) :   0.9614 B(  5-C ,  7-C ) :   0.9567
B(  5-C , 11-C ) :   0.9255 B(  7-C ,  8-H ) :   0.9937 B(  7-C ,  9-C ) :   0.9919
B(  7-C , 10-O ) :   1.0702 B(  9-C , 21-H ) :   0.9583 B(  9-C , 22-H ) :   0.9683
B( 10-O , 23-H ) :   0.8724 B( 11-C , 12-C ) :   0.9622 B( 11-C , 13-C ) :   0.9744
B( 11-C , 24-H ) :   0.9798 B( 12-C , 25-H ) :   0.9653 B( 12-C , 26-H ) :   0.9836
B( 12-C , 27-H ) :   0.9787 B( 13-C , 28-H ) :   0.9839 B( 13-C , 29-H ) :   0.9660
B( 13-C , 30-H ) :   0.9839

FINAL SINGLE POINT ENERGY      -468.382540674864

DIPOLE MOMENT
-------------

Method             : SCF
Type of density    : Electron Density
Multiplicity       :   1
Irrep              :   0
Energy             :  -468.4055107289639182 Eh
Relativity type    :
Basis              : AO
                                X                 Y                 Z
Electronic contribution:      0.347346586      -2.790412059       0.063870789
Nuclear contribution   :     -0.715327191       3.630204440      -0.572634194
                        -----------------------------------------
Total Dipole Moment    :     -0.367980605       0.839792381      -0.508763405
                        -----------------------------------------
Magnitude (a.u.)       :      1.048571014
Magnitude (Debye)      :      2.665255706

Rotational constants in cm-1:             0.064664             0.022423             0.019231
Rotational constants in MHz :          1938.584756           672.227850           576.538058

                             ****ORCA TERMINATED NORMALLY****
TOTAL RUN TIME: 0 days 0 hours 6 minutes 38 seconds 498 msec
