                         Program Version 6.0.0  -   RELEASE  -
|  1> ! r2scan-3c def2/J RI DEFGRID2 scfconv6 printgap
|  2> %output
|  3>     printlevel normal
|  4> end
|  5> * xyz 0 1
|  6> C 0.0002189625 0.0004739288 0.5226544332
|  7> Br 0.3852240127 -1.8225247471 -0.0329712852
|  8> Br 1.3864403176 1.2446958042 -0.032995888
|  9> Br -1.7716975477 0.5777601073 -0.0329799331
| 10> H 2.40961e-05 -0.0001905161 1.6159268241
| 11> *
| 12>
| 13>                          ****END OF INPUT****

CARTESIAN COORDINATES (ANGSTROEM)
---------------------------------
  C      0.000219    0.000474    0.522654
  Br     0.385224   -1.822525   -0.032971
  Br     1.386440    1.244696   -0.032996
  Br    -1.771698    0.577760   -0.032980
  H      0.000024   -0.000191    1.615927

 Total Charge           Charge          ....    0
 Multiplicity           Mult            ....    1
 Number of Electrons    NEL             ....  112
 Basis Dimension        Dim             ....  132

ORBITAL ENERGIES
----------------

  NO   OCC          E(Eh)            E(eV)
   0   2.0000    -482.253284    -13122.7790
   1   2.0000    -482.253197    -13122.7766
   2   2.0000    -482.253188    -13122.7764
   3   2.0000     -62.324940     -1695.9478
   4   2.0000     -62.324850     -1695.9454
   5   2.0000     -62.324843     -1695.9452
   6   2.0000     -56.105584     -1526.7106
   7   2.0000     -56.105496     -1526.7082
   8   2.0000     -56.105487     -1526.7079
   9   2.0000     -56.102571     -1526.6286
  10   2.0000     -56.102546     -1526.6279
  11   2.0000     -56.102481     -1526.6261
  12   2.0000     -56.102474     -1526.6259
  13   2.0000     -56.102456     -1526.6254
  14   2.0000     -56.102450     -1526.6253
  15   2.0000     -10.212856      -277.9059
  16   2.0000      -8.656824      -235.5642
  17   2.0000      -8.656731      -235.5616
  18   2.0000      -8.656725      -235.5615
  19   2.0000      -6.465615      -175.9383
  20   2.0000      -6.465524      -175.9358
  21   2.0000      -6.465517      -175.9357
  22   2.0000      -6.449976      -175.5128
  23   2.0000      -6.449882      -175.5102
  24   2.0000      -6.449880      -175.5102
  25   2.0000      -6.449877      -175.5101
  26   2.0000      -6.449787      -175.5076
  27   2.0000      -6.449785      -175.5076
  28   2.0000      -2.562816       -69.7378
  29   2.0000      -2.562731       -69.7355
  30   2.0000      -2.562711       -69.7349
  31   2.0000      -2.558950       -69.6326
  32   2.0000      -2.558861       -69.6302
  33   2.0000      -2.558852       -69.6299
  34   2.0000      -2.558832       -69.6294
  35   2.0000      -2.558760       -69.6274
  36   2.0000      -2.558749       -69.6271
  37   2.0000      -2.547267       -69.3146
  38   2.0000      -2.547255       -69.3143
  39   2.0000      -2.547170       -69.3120
  40   2.0000      -2.547168       -69.3120
  41   2.0000      -2.547166       -69.3119
  42   2.0000      -2.547158       -69.3117
  43   2.0000      -0.852059       -23.1857
  44   2.0000      -0.756978       -20.5984
  45   2.0000      -0.756874       -20.5956
  46   2.0000      -0.615691       -16.7538
  47   2.0000      -0.458387       -12.4733
  48   2.0000      -0.424878       -11.5615
  49   2.0000      -0.424810       -11.5597
  50   2.0000      -0.304768        -8.2932
  51   2.0000      -0.304727        -8.2920
  52   2.0000      -0.282520        -7.6878
  53   2.0000      -0.282288        -7.6814
  54   2.0000      -0.282232        -7.6799
  55   2.0000      -0.265279        -7.2186
  56   0.0000      -0.108405        -2.9499
  57   0.0000      -0.045482        -1.2376
  58   0.0000      -0.045332        -1.2335
  59   0.0000       0.083926         2.2837
  60   0.0000       0.167499         4.5579

MULLIKEN ATOMIC CHARGES
-----------------------
   0 C :   -0.078094
   1 Br:   -0.044027
   2 Br:   -0.043587
   3 Br:   -0.044098
   4 H :    0.209807
Sum of atomic charges:   -0.0000000

LOEWDIN ATOMIC CHARGES
----------------------
   0 C :   -0.605355
   1 Br:    0.146510
   2 Br:    0.147026
   3 Br:    0.146390
   4 H :    0.165430

  Mayer bond orders larger than 0.100000
B(  0-C ,  1-Br) :   1.0205 B(  0-C ,  2-Br) :   1.0207 B(  0-C ,  3-Br) :   1.0203
B(  0-C ,  4-H ) :   0.9242

Dispersion correction           -0.001701180
FINAL SINGLE POINT ENERGY     -7761.093530763110

DIPOLE MOMENT
-------------

Method             : SCF
Type of density    : Electron Density
Multiplicity       :   1
Irrep              :   0
Energy             : -7761.0951435161687186 Eh
Relativity type    :
Basis              : AO
                                X                 Y                 Z
Electronic contribution:      0.000762480       0.000226888      -2.058926898
Nuclear contribution   :      0.000331049       0.000460439       2.434810832
                        -----------------------------------------
Total Dipole Moment    :      0.001093529       0.000687327       0.375883933
                        -----------------------------------------
Magnitude (a.u.)       :      0.375886152
Magnitude (Debye)      :      0.955426670

Rotational constants in cm-1:             0.039944             0.039908             0.020259
Rotational constants in MHz :          1197.504851          1196.405010           607.358369

                             ****ORCA TERMINATED NORMALLY****
TOTAL RUN TIME: 0 days 0 hours 0 minutes 22 seconds 805 msec
