                         Program Version 6.0.0  -   RELEASE  -
|  1> ! r2scan-3c def2/J RI DEFGRID2 scfconv6 printgap
|  2> %output
|  3>     printlevel normal
|  4> end
|  5> %cpcm
|  6>     smd true
|  7>     smdsolvent "water"
|  8> end
|  9> * xyz 0 1
| 10> C 0.0002189625 0.0004739288 0.5226544332
| 11> Br 0.3852240127 -1.8225247471 -0.0329712852
| 12> Br 1.3864403176 1.2446958042 -0.032995888
| 13> Br -1.7716975477 0.5777601073 -0.0329799331
| 14> H 2.40961e-05 -0.0001905161 1.6159268241
| 15> *
| 16>
| 17>                          ****END OF INPUT****

CARTESIAN COORDINATES (ANGSTROEM)
---------------------------------
  C      0.000219    0.000474    0.522654
  Br     0.385224   -1.822525   -0.032971
  Br     1.386440    1.244696   -0.032996
  Br    -1.771698    0.577760   -0.032980
  H      0.000024   -0.000191    1.615927

 Total Charge           Charge          ....    0
 Multiplicity           Mult            ....    1
 Number of Electrons    NEL             ....  112
 Basis Dimension        Dim             ....  132

ORBITAL ENERGIES
----------------

  NO   OCC          E(Eh)            E(eV)
   0   2.0000    -482.251978    -13122.7435
   1   2.0000    -482.251899    -13122.7413
   2   2.0000    -482.251888    -13122.7410
   3   2.0000     -62.323643     -1695.9126
   4   2.0000     -62.323562     -1695.9104
   5   2.0000     -62.323554     -1695.9101
   6   2.0000     -56.104272     -1526.6748
   7   2.0000     -56.104192     -1526.6727
   8   2.0000     -56.104181     -1526.6724
   9   2.0000     -56.101287     -1526.5936
  10   2.0000     -56.101254     -1526.5927
  11   2.0000     -56.101205     -1526.5914
  12   2.0000     -56.101197     -1526.5912
  13   2.0000     -56.101172     -1526.5905
  14   2.0000     -56.101165     -1526.5903
  15   2.0000     -10.208524      -277.7881
  16   2.0000      -8.655535      -235.5291
  17   2.0000      -8.655451      -235.5268
  18   2.0000      -8.655444      -235.5266
  19   2.0000      -6.464234      -175.9008
  20   2.0000      -6.464151      -175.8985
  21   2.0000      -6.464143      -175.8983
  22   2.0000      -6.448758      -175.4796
  23   2.0000      -6.448672      -175.4773
  24   2.0000      -6.448667      -175.4772
  25   2.0000      -6.448617      -175.4758
  26   2.0000      -6.448531      -175.4734
  27   2.0000      -6.448528      -175.4734
  28   2.0000      -2.561462       -69.7009
  29   2.0000      -2.561385       -69.6988
  30   2.0000      -2.561364       -69.6983
  31   2.0000      -2.557647       -69.5971
  32   2.0000      -2.557564       -69.5949
  33   2.0000      -2.557537       -69.5941
  34   2.0000      -2.557514       -69.5935
  35   2.0000      -2.557427       -69.5911
  36   2.0000      -2.557417       -69.5909
  37   2.0000      -2.546048       -69.2815
  38   2.0000      -2.546037       -69.2812
  39   2.0000      -2.545960       -69.2791
  40   2.0000      -2.545959       -69.2791
  41   2.0000      -2.545956       -69.2790
  42   2.0000      -2.545948       -69.2788
  43   2.0000      -0.849676       -23.1209
  44   2.0000      -0.755598       -20.5609
  45   2.0000      -0.755500       -20.5582
  46   2.0000      -0.611696       -16.6451
  47   2.0000      -0.453812       -12.3489
  48   2.0000      -0.422818       -11.5055
  49   2.0000      -0.422753       -11.5037
  50   2.0000      -0.303955        -8.2710
  51   2.0000      -0.303914        -8.2699
  52   2.0000      -0.281245        -7.6531
  53   2.0000      -0.281190        -7.6516
  54   2.0000      -0.280475        -7.6321
  55   2.0000      -0.264594        -7.2000
  56   0.0000      -0.106493        -2.8978
  57   0.0000      -0.043042        -1.1712
  58   0.0000      -0.042888        -1.1670
  59   0.0000       0.095031         2.5859
  60   0.0000       0.170356         4.6356

MULLIKEN ATOMIC CHARGES
-----------------------
   0 C :   -0.083494
   1 Br:   -0.054459
   2 Br:   -0.053974
   3 Br:   -0.054540
   4 H :    0.246467
Sum of atomic charges:    0.0000000

LOEWDIN ATOMIC CHARGES
----------------------
   0 C :   -0.602324
   1 Br:    0.140840
   2 Br:    0.141392
   3 Br:    0.140715
   4 H :    0.179378

  Mayer bond orders larger than 0.100000
B(  0-C ,  1-Br) :   1.0124 B(  0-C ,  2-Br) :   1.0127 B(  0-C ,  3-Br) :   1.0122
B(  0-C ,  4-H ) :   0.9113

Dispersion correction           -0.001701180
FINAL SINGLE POINT ENERGY     -7761.097281442690

DIPOLE MOMENT
-------------

Method             : SCF
Type of density    : Electron Density
Multiplicity       :   1
Irrep              :   0
Energy             : -7761.0988941957493807 Eh
Relativity type    :
Basis              : AO
                                X                 Y                 Z
Electronic contribution:      0.000945399       0.000372688      -1.936897073
Nuclear contribution   :      0.000331049       0.000460439       2.434810832
                        -----------------------------------------
Total Dipole Moment    :      0.001276447       0.000833127       0.497913759
                        -----------------------------------------
Magnitude (a.u.)       :      0.497916092
Magnitude (Debye)      :      1.265602127

Rotational constants in cm-1:             0.039944             0.039908             0.020259
Rotational constants in MHz :          1197.504851          1196.405010           607.358369

                             ****ORCA TERMINATED NORMALLY****
TOTAL RUN TIME: 0 days 0 hours 0 minutes 22 seconds 456 msec
