                         Program Version 6.0.0  -   RELEASE  -
|  1> ! pbe def2-sv(p) def2/J RI DEFGRID1 loosescf d4 GCP(DFT/SV(P)) printgap
|  2> %output
|  3>     printlevel normal
|  4> end
|  5> * xyz 0 1
|  6> C -2.4094177446 -1.148513971 -0.264908477
|  7> C -1.0630181532 -0.6121127783 0.2520482918
|  8> H -1.0821857905 -0.58909945 1.3553354
|  9> C -0.7623543255 0.8000800287 -0.2772156003
| 10> H -0.7772669885 0.7807213073 -1.3727514401
| 11> C 0.6332341529 1.2346342979 0.1893830023
| 12> H 0.6283715455 1.3421962393 1.2888188478
| 13> C 1.6911869878 0.1832063362 -0.1719463249
| 14> H 1.8286379809 0.1693038426 -1.2621727164
| 15> C 1.2349908712 -1.2183343812 0.261072642
| 16> H 1.2618760185 -1.2583539018 1.3705675598
| 17> O -0.0701599015 -1.5150655783 -0.1883962147
| 18> O 2.0869870906 -2.1430082197 -0.2982438604
| 19> O 2.9019213028 0.4486449635 0.48407292
| 20> O 1.0231713196 2.4499299918 -0.4042620583
| 21> O -1.7340173153 1.7438849664 0.1028811841
| 22> O -3.5090645615 -0.4602553102 0.2640445356
| 23> H -2.5097924435 -2.1891795612 0.0493037117
| 24> H -2.4012064613 -1.1151914401 -1.3607961733
| 25> H 1.75000799 -3.0387486466 -0.1355678835
| 26> H 3.2243879718 1.3150507233 0.1911654213
| 27> H 0.2708671354 3.0619473139 -0.3921983672
| 28> H -1.7696220622 1.8054581004 1.0699783737
| 29> H -3.4690396307 0.4650556269 -0.0304189347
| 30> *
| 31>
| 32>                          ****END OF INPUT****

CARTESIAN COORDINATES (ANGSTROEM)
---------------------------------
  C     -2.409418   -1.148514   -0.264908
  C     -1.063018   -0.612113    0.252048
  H     -1.082186   -0.589099    1.355335
  C     -0.762354    0.800080   -0.277216
  H     -0.777267    0.780721   -1.372751
  C      0.633234    1.234634    0.189383
  H      0.628372    1.342196    1.288819
  C      1.691187    0.183206   -0.171946
  H      1.828638    0.169304   -1.262173
  C      1.234991   -1.218334    0.261073
  H      1.261876   -1.258354    1.370568
  O     -0.070160   -1.515066   -0.188396
  O      2.086987   -2.143008   -0.298244
  O      2.901921    0.448645    0.484073
  O      1.023171    2.449930   -0.404262
  O     -1.734017    1.743885    0.102881
  O     -3.509065   -0.460255    0.264045
  H     -2.509792   -2.189180    0.049304
  H     -2.401206   -1.115191   -1.360796
  H      1.750008   -3.038749   -0.135568
  H      3.224388    1.315051    0.191165
  H      0.270867    3.061947   -0.392198
  H     -1.769622    1.805458    1.069978
  H     -3.469040    0.465056   -0.030419

 Total Charge           Charge          ....    0
 Multiplicity           Mult            ....    1
 Number of Electrons    NEL             ....   96
 Basis Dimension        Dim             ....  192

ORBITAL ENERGIES
----------------

  NO   OCC          E(Eh)            E(eV)
   0   2.0000     -18.788681      -511.2660
   1   2.0000     -18.778429      -510.9870
   2   2.0000     -18.761755      -510.5333
   3   2.0000     -18.758892      -510.4554
   4   2.0000     -18.749116      -510.1894
   5   2.0000     -18.746310      -510.1130
   6   2.0000      -9.989628      -271.8316
   7   2.0000      -9.956480      -270.9296
   8   2.0000      -9.951183      -270.7854
   9   2.0000      -9.949817      -270.7483
  10   2.0000      -9.942878      -270.5595
  11   2.0000      -9.934535      -270.3325
  12   2.0000      -0.988109       -26.8878
  13   2.0000      -0.968040       -26.3417
  14   2.0000      -0.941977       -25.6325
  15   2.0000      -0.924531       -25.1578
  16   2.0000      -0.921960       -25.0878
  17   2.0000      -0.914875       -24.8950
  18   2.0000      -0.711154       -19.3515
  19   2.0000      -0.695353       -18.9215
  20   2.0000      -0.622022       -16.9261
  21   2.0000      -0.594193       -16.1688
  22   2.0000      -0.565002       -15.3745
  23   2.0000      -0.539902       -14.6915
  24   2.0000      -0.499678       -13.5969
  25   2.0000      -0.496661       -13.5148
  26   2.0000      -0.488581       -13.2950
  27   2.0000      -0.468126       -12.7384
  28   2.0000      -0.456206       -12.4140
  29   2.0000      -0.439622       -11.9627
  30   2.0000      -0.425319       -11.5735
  31   2.0000      -0.402264       -10.9462
  32   2.0000      -0.390640       -10.6298
  33   2.0000      -0.378349       -10.2954
  34   2.0000      -0.371759       -10.1161
  35   2.0000      -0.358879        -9.7656
  36   2.0000      -0.324574        -8.8321
  37   2.0000      -0.317694        -8.6449
  38   2.0000      -0.310563        -8.4509
  39   2.0000      -0.304741        -8.2924
  40   2.0000      -0.292226        -7.9519
  41   2.0000      -0.282620        -7.6905
  42   2.0000      -0.260717        -7.0945
  43   2.0000      -0.247554        -6.7363
  44   2.0000      -0.237120        -6.4524
  45   2.0000      -0.224912        -6.1202
  46   2.0000      -0.215969        -5.8768
  47   2.0000      -0.210216        -5.7203
  48   0.0000      -0.001715        -0.0467
  49   0.0000       0.022364         0.6086
  50   0.0000       0.031633         0.8608
  51   0.0000       0.045529         1.2389
  52   0.0000       0.057813         1.5732

MULLIKEN ATOMIC CHARGES
-----------------------
   0 C :    0.102540
   1 C :   -0.015243
   2 H :    0.044861
   3 C :    0.024144
   4 H :    0.074480
   5 C :    0.065795
   6 H :    0.039026
   7 C :    0.051494
   8 H :    0.066284
   9 C :    0.198970
  10 H :    0.040236
  11 O :   -0.310443
  12 O :   -0.367990
  13 O :   -0.410870
  14 O :   -0.420377
  15 O :   -0.422946
  16 O :   -0.446956
  17 H :    0.092493
  18 H :    0.071299
  19 H :    0.306602
  20 H :    0.310078
  21 H :    0.305266
  22 H :    0.306668
  23 H :    0.294588
Sum of atomic charges:   -0.0000000

LOEWDIN ATOMIC CHARGES
----------------------
   0 C :   -0.119411
   1 C :   -0.079230
   2 H :    0.097295
   3 C :   -0.088909
   4 H :    0.122276
   5 C :   -0.085306
   6 H :    0.096121
   7 C :   -0.075143
   8 H :    0.113572
   9 C :    0.010114
  10 H :    0.082358
  11 O :   -0.151532
  12 O :   -0.284950
  13 O :   -0.312316
  14 O :   -0.325853
  15 O :   -0.301977
  16 O :   -0.340259
  17 H :    0.116830
  18 H :    0.100606
  19 H :    0.290639
  20 H :    0.291503
  21 H :    0.285020
  22 H :    0.287899
  23 H :    0.270655

  Mayer bond orders larger than 0.100000
B(  0-C ,  1-C ) :   1.0212 B(  0-C , 16-O ) :   1.0892 B(  0-C , 17-H ) :   0.9225
B(  0-C , 18-H ) :   0.9117 B(  1-C ,  2-H ) :   0.8725 B(  1-C ,  3-C ) :   0.9966
B(  1-C , 11-O ) :   0.9873 B(  3-C ,  4-H ) :   0.8634 B(  3-C ,  5-C ) :   1.0105
B(  3-C , 15-O ) :   0.9870 B(  5-C ,  6-H ) :   0.8647 B(  5-C ,  7-C ) :   1.0123
B(  5-C , 14-O ) :   1.0893 B(  7-C ,  8-H ) :   0.8676 B(  7-C ,  9-C ) :   0.9934
B(  7-C , 13-O ) :   1.0800 B(  9-C , 10-H ) :   0.8852 B(  9-C , 11-O ) :   1.0008
B(  9-C , 12-O ) :   1.2007 B( 12-O , 19-H ) :   0.8401 B( 13-O , 20-H ) :   0.8411
B( 14-O , 21-H ) :   0.8322 B( 15-O , 22-H ) :   0.8355 B( 16-O , 23-H ) :   0.8221

Dispersion correction           -0.023829387
FINAL SINGLE POINT ENERGY      -685.699869199771

DIPOLE MOMENT
-------------

Method             : SCF
Type of density    : Electron Density
Multiplicity       :   1
Irrep              :   0
Energy             :  -685.8304004330232146 Eh
Relativity type    :
Basis              : AO
                                X                 Y                 Z
Electronic contribution:      2.523046819      -0.125468667      -0.399078624
Nuclear contribution   :     -2.846341996       0.710604401       0.722985499
                        -----------------------------------------
Total Dipole Moment    :     -0.323295177       0.585135734       0.323906875
                        -----------------------------------------
Magnitude (a.u.)       :      0.742845383
Magnitude (Debye)      :      1.888162908

Rotational constants in cm-1:             0.043617             0.024492             0.016480
Rotational constants in MHz :          1307.614266           734.247810           494.043239

                             ****ORCA TERMINATED NORMALLY****
TOTAL RUN TIME: 0 days 0 hours 0 minutes 12 seconds 53 msec
