                         Program Version 6.0.0  -   RELEASE  -
|  1> ! wb97x-v def2-tzvp def2/J RIJCOSX DEFGRID2 scfconv7 GCP(DFT/TZ) printgap
|  2> %output
|  3>     printlevel normal
|  4> end
|  5> * xyz 0 1
|  6> C -2.60872543894125 -0.9794671355167577 -6.9163765605629695e-06
|  7> C -1.157063018262736 -0.5770804422754786 0.0010370663143238292
|  8> C -0.17686231487196455 -1.5737472190333792 0.0011398480504618866
|  9> C 1.1821524401904258 -1.2789620322899675 0.0004110957456820833
| 10> C 1.5773411217904865 0.0559538921181728 -4.267555771366707e-05
| 11> C 0.622797653124299 1.068229429726847 -0.0002482369586155508
| 12> C -0.7430697207121385 0.7688543780278408 1.622969411642631e-05
| 13> C -1.7364733910006 1.8992464066937433 -0.001002673317468661
| 14> O 2.907366963397866 0.43106848764234806 -0.000228773768402689
| 15> H -3.280346614501535 -0.12068655393234101 0.02300857621196089
| 16> H -2.850484042330678 -1.5676832263777751 -0.8924323522996114
| 17> H -2.839976466759615 -1.6074177890887966 0.8675362787293939
| 18> H -0.4871903563838228 -2.6158849955091634 0.0017702482299595294
| 19> H 1.9259610713694828 -2.0711392053224507 0.0005376108821980045
| 20> H 0.9518643738918621 2.103406099175314 -0.0006468824585858117
| 21> H -2.388894512638225 1.858719320083658 -0.8801291033229125
| 22> H -2.385715210378172 1.8631191018319342 0.8807013197443095
| 23> H -1.2231667961372814 2.8634767528609046 -0.00417646936180654
| 24> H 3.454251780770336 -0.3667135893468363 3.493518790401741e-05
| 25> *
| 26>
| 27>                          ****END OF INPUT****

CARTESIAN COORDINATES (ANGSTROEM)
---------------------------------
  C     -2.608725   -0.979467   -0.000007
  C     -1.157063   -0.577080    0.001037
  C     -0.176862   -1.573747    0.001140
  C      1.182152   -1.278962    0.000411
  C      1.577341    0.055954   -0.000043
  C      0.622798    1.068229   -0.000248
  C     -0.743070    0.768854    0.000016
  C     -1.736473    1.899246   -0.001003
  O      2.907367    0.431068   -0.000229
  H     -3.280347   -0.120687    0.023009
  H     -2.850484   -1.567683   -0.892432
  H     -2.839976   -1.607418    0.867536
  H     -0.487190   -2.615885    0.001770
  H      1.925961   -2.071139    0.000538
  H      0.951864    2.103406   -0.000647
  H     -2.388895    1.858719   -0.880129
  H     -2.385715    1.863119    0.880701
  H     -1.223167    2.863477   -0.004176
  H      3.454252   -0.366714    0.000035

 Total Charge           Charge          ....    0
 Multiplicity           Mult            ....    1
 Number of Electrons    NEL             ....   66
 Basis Dimension        Dim             ....  339

ORBITAL ENERGIES
----------------

  NO   OCC          E(Eh)            E(eV)
   0   2.0000     -21.698177      -590.4374
   1   2.0000     -12.107359      -329.4580
   2   2.0000     -12.059382      -328.1525
   3   2.0000     -12.050374      -327.9073
   4   2.0000     -12.048499      -327.8563
   5   2.0000     -12.046108      -327.7913
   6   2.0000     -12.042558      -327.6947
   7   2.0000     -12.040055      -327.6266
   8   2.0000     -12.039539      -327.6125
   9   2.0000      -1.709470       -46.5171
  10   2.0000      -1.385356       -37.6974
  11   2.0000      -1.299825       -35.3700
  12   2.0000      -1.286118       -34.9970
  13   2.0000      -1.213602       -33.0238
  14   2.0000      -1.180578       -32.1251
  15   2.0000      -1.129704       -30.7408
  16   2.0000      -1.100838       -29.9553
  17   2.0000      -1.037681       -28.2367
  18   2.0000      -1.002162       -27.2702
  19   2.0000      -0.944865       -25.7111
  20   2.0000      -0.941620       -25.6228
  21   2.0000      -0.930695       -25.3255
  22   2.0000      -0.889289       -24.1988
  23   2.0000      -0.869374       -23.6569
  24   2.0000      -0.844488       -22.9797
  25   2.0000      -0.837681       -22.7945
  26   2.0000      -0.829206       -22.5638
  27   2.0000      -0.825469       -22.4622
  28   2.0000      -0.810434       -22.0530
  29   2.0000      -0.796672       -21.6785
  30   2.0000      -0.751864       -20.4593
  31   2.0000      -0.634700       -17.2711
  32   2.0000      -0.626966       -17.0606
  33   0.0000      -0.242804        -6.6070
  34   0.0000      -0.236849        -6.4450
  35   0.0000      -0.144643        -3.9359
  36   0.0000      -0.074085        -2.0159
  37   0.0000      -0.067414        -1.8344

MULLIKEN ATOMIC CHARGES
-----------------------
   0 C :   -0.385394
   1 C :    0.059030
   2 C :   -0.193584
   3 C :   -0.212471
   4 C :    0.249215
   5 C :   -0.270953
   6 C :    0.153266
   7 C :   -0.401057
   8 O :   -0.395350
   9 H :    0.123215
  10 H :    0.124725
  11 H :    0.124411
  12 H :    0.114310
  13 H :    0.106176
  14 H :    0.111896
  15 H :    0.131259
  16 H :    0.130818
  17 H :    0.119715
  18 H :    0.310775
Sum of atomic charges:   -0.0000000

LOEWDIN ATOMIC CHARGES
----------------------
   0 C :   -0.254027
   1 C :   -0.156475
   2 C :   -0.111380
   3 C :   -0.152687
   4 C :   -0.261279
   5 C :   -0.101077
   6 C :   -0.138323
   7 C :   -0.252443
   8 O :    0.056555
   9 H :    0.123723
  10 H :    0.126745
  11 H :    0.126684
  12 H :    0.145264
  13 H :    0.138508
  14 H :    0.148546
  15 H :    0.126746
  16 H :    0.126674
  17 H :    0.124984
  18 H :    0.183264

  Mayer bond orders larger than 0.100000
B(  0-C ,  1-C ) :   0.8992 B(  0-C ,  9-H ) :   0.9998 B(  0-C , 10-H ) :   0.9809
B(  0-C , 11-H ) :   0.9825 B(  1-C ,  2-C ) :   1.4109 B(  1-C ,  6-C ) :   1.3643
B(  2-C ,  3-C ) :   1.4303 B(  2-C , 12-H ) :   0.9696 B(  3-C ,  4-C ) :   1.3573
B(  3-C , 13-H ) :   0.9616 B(  4-C ,  5-C ) :   1.4316 B(  4-C ,  8-O ) :   1.1387
B(  5-C ,  6-C ) :   1.4260 B(  5-C , 14-H ) :   0.9710 B(  6-C ,  7-C ) :   0.8938
B(  7-C , 15-H ) :   0.9845 B(  7-C , 16-H ) :   0.9844 B(  7-C , 17-H ) :   0.9901
B(  8-O , 18-H ) :   0.8925

FINAL SINGLE POINT ENERGY      -386.119885526523

DIPOLE MOMENT
-------------

Method             : SCF
Type of density    : Electron Density
Multiplicity       :   1
Irrep              :   0
Energy             :  -386.1311329555226166 Eh
Relativity type    :
Basis              : AO
                                X                 Y                 Z
Electronic contribution:      8.407924595      -0.802920870       0.003467449
Nuclear contribution   :     -8.578633754       0.337821465      -0.004193168
                        -----------------------------------------
Total Dipole Moment    :     -0.170709159      -0.465099405      -0.000725720
                        -----------------------------------------
Magnitude (a.u.)       :      0.495438796
Magnitude (Debye)      :      1.259305340

Rotational constants in cm-1:             0.098392             0.043467             0.030489
Rotational constants in MHz :          2949.704754          1303.119406           914.042774

                             ****ORCA TERMINATED NORMALLY****
TOTAL RUN TIME: 0 days 0 hours 3 minutes 3 seconds 778 msec
