                         Program Version 6.0.0  -   RELEASE  -
|  1> ! wb97x-v def2-tzvp def2/J RIJCOSX DEFGRID2 scfconv7 GCP(DFT/TZ) printgap
|  2> %output
|  3>     printlevel normal
|  4> end
|  5> %cpcm
|  6>     smd true
|  7>     smdsolvent "water"
|  8> end
|  9> * xyz 0 1
| 10> C -2.60872543894125 -0.9794671355167577 -6.9163765605629695e-06
| 11> C -1.157063018262736 -0.5770804422754786 0.0010370663143238292
| 12> C -0.17686231487196455 -1.5737472190333792 0.0011398480504618866
| 13> C 1.1821524401904258 -1.2789620322899675 0.0004110957456820833
| 14> C 1.5773411217904865 0.0559538921181728 -4.267555771366707e-05
| 15> C 0.622797653124299 1.068229429726847 -0.0002482369586155508
| 16> C -0.7430697207121385 0.7688543780278408 1.622969411642631e-05
| 17> C -1.7364733910006 1.8992464066937433 -0.001002673317468661
| 18> O 2.907366963397866 0.43106848764234806 -0.000228773768402689
| 19> H -3.280346614501535 -0.12068655393234101 0.02300857621196089
| 20> H -2.850484042330678 -1.5676832263777751 -0.8924323522996114
| 21> H -2.839976466759615 -1.6074177890887966 0.8675362787293939
| 22> H -0.4871903563838228 -2.6158849955091634 0.0017702482299595294
| 23> H 1.9259610713694828 -2.0711392053224507 0.0005376108821980045
| 24> H 0.9518643738918621 2.103406099175314 -0.0006468824585858117
| 25> H -2.388894512638225 1.858719320083658 -0.8801291033229125
| 26> H -2.385715210378172 1.8631191018319342 0.8807013197443095
| 27> H -1.2231667961372814 2.8634767528609046 -0.00417646936180654
| 28> H 3.454251780770336 -0.3667135893468363 3.493518790401741e-05
| 29> *
| 30>
| 31>                          ****END OF INPUT****

CARTESIAN COORDINATES (ANGSTROEM)
---------------------------------
  C     -2.608725   -0.979467   -0.000007
  C     -1.157063   -0.577080    0.001037
  C     -0.176862   -1.573747    0.001140
  C      1.182152   -1.278962    0.000411
  C      1.577341    0.055954   -0.000043
  C      0.622798    1.068229   -0.000248
  C     -0.743070    0.768854    0.000016
  C     -1.736473    1.899246   -0.001003
  O      2.907367    0.431068   -0.000229
  H     -3.280347   -0.120687    0.023009
  H     -2.850484   -1.567683   -0.892432
  H     -2.839976   -1.607418    0.867536
  H     -0.487190   -2.615885    0.001770
  H      1.925961   -2.071139    0.000538
  H      0.951864    2.103406   -0.000647
  H     -2.388895    1.858719   -0.880129
  H     -2.385715    1.863119    0.880701
  H     -1.223167    2.863477   -0.004176
  H      3.454252   -0.366714    0.000035

 Total Charge           Charge          ....    0
 Multiplicity           Mult            ....    1
 Number of Electrons    NEL             ....   66
 Basis Dimension        Dim             ....  339

ORBITAL ENERGIES
----------------

  NO   OCC          E(Eh)            E(eV)
   0   2.0000     -21.698242      -590.4392
   1   2.0000     -12.107743      -329.4684
   2   2.0000     -12.058607      -328.1314
   3   2.0000     -12.048562      -327.8580
   4   2.0000     -12.046258      -327.7953
   5   2.0000     -12.042703      -327.6986
   6   2.0000     -12.039647      -327.6154
   7   2.0000     -12.032868      -327.4310
   8   2.0000     -12.030861      -327.3764
   9   2.0000      -1.710053       -46.5329
  10   2.0000      -1.385428       -37.6994
  11   2.0000      -1.297913       -35.3180
  12   2.0000      -1.284842       -34.9623
  13   2.0000      -1.208738       -32.8914
  14   2.0000      -1.175759       -31.9940
  15   2.0000      -1.127903       -30.6918
  16   2.0000      -1.099020       -29.9059
  17   2.0000      -1.035757       -28.1844
  18   2.0000      -1.004243       -27.3268
  19   2.0000      -0.944944       -25.7132
  20   2.0000      -0.944886       -25.7117
  21   2.0000      -0.926127       -25.2012
  22   2.0000      -0.885019       -24.0826
  23   2.0000      -0.865317       -23.5465
  24   2.0000      -0.837704       -22.7951
  25   2.0000      -0.832389       -22.6504
  26   2.0000      -0.822371       -22.3779
  27   2.0000      -0.816767       -22.2254
  28   2.0000      -0.801626       -21.8134
  29   2.0000      -0.791101       -21.5269
  30   2.0000      -0.752078       -20.4651
  31   2.0000      -0.635744       -17.2995
  32   2.0000      -0.627522       -17.0757
  33   0.0000      -0.243409        -6.6235
  34   0.0000      -0.237225        -6.4552
  35   0.0000      -0.143685        -3.9099
  36   0.0000      -0.073362        -1.9963
  37   0.0000      -0.045285        -1.2323

MULLIKEN ATOMIC CHARGES
-----------------------
   0 C :   -0.411996
   1 C :    0.031860
   2 C :   -0.213987
   3 C :   -0.274696
   4 C :    0.268317
   5 C :   -0.320665
   6 C :    0.105846
   7 C :   -0.422478
   8 O :   -0.476931
   9 H :    0.146316
  10 H :    0.140416
  11 H :    0.140499
  12 H :    0.157463
  13 H :    0.166597
  14 H :    0.147264
  15 H :    0.148534
  16 H :    0.148357
  17 H :    0.142510
  18 H :    0.376775
Sum of atomic charges:   -0.0000000

LOEWDIN ATOMIC CHARGES
----------------------
   0 C :   -0.255342
   1 C :   -0.164221
   2 C :   -0.119454
   3 C :   -0.152414
   4 C :   -0.276037
   5 C :   -0.118035
   6 C :   -0.147488
   7 C :   -0.253891
   8 O :    0.029131
   9 H :    0.128873
  10 H :    0.130942
  11 H :    0.130907
  12 H :    0.155084
  13 H :    0.154518
  14 H :    0.155186
  15 H :    0.132075
  16 H :    0.132077
  17 H :    0.129541
  18 H :    0.208548

  Mayer bond orders larger than 0.100000
B(  0-C ,  1-C ) :   0.9154 B(  0-C ,  9-H ) :   0.9961 B(  0-C , 10-H ) :   0.9743
B(  0-C , 11-H ) :   0.9757 B(  1-C ,  2-C ) :   1.3804 B(  1-C ,  6-C ) :   1.3446
B(  2-C ,  3-C ) :   1.3832 B(  2-C , 12-H ) :   0.9768 B(  3-C ,  4-C ) :   1.3569
B(  3-C , 13-H ) :   0.9749 B(  4-C ,  5-C ) :   1.3970 B(  4-C ,  8-O ) :   1.0970
B(  5-C ,  6-C ) :   1.4295 B(  5-C , 14-H ) :   0.9787 B(  6-C ,  7-C ) :   0.9166
B(  7-C , 15-H ) :   0.9767 B(  7-C , 16-H ) :   0.9765 B(  7-C , 17-H ) :   0.9847
B(  8-O , 18-H ) :   0.8511

FINAL SINGLE POINT ENERGY      -386.128685824965

DIPOLE MOMENT
-------------

Method             : SCF
Type of density    : Electron Density
Multiplicity       :   1
Irrep              :   0
Energy             :  -386.1399332539651255 Eh
Relativity type    :
Basis              : AO
                                X                 Y                 Z
Electronic contribution:      8.318387723      -1.030516173       0.003383747
Nuclear contribution   :     -8.578633754       0.337821465      -0.004193168
                        -----------------------------------------
Total Dipole Moment    :     -0.260246031      -0.692694708      -0.000809421
                        -----------------------------------------
Magnitude (a.u.)       :      0.739969331
Magnitude (Debye)      :      1.880852565

Rotational constants in cm-1:             0.098392             0.043467             0.030489
Rotational constants in MHz :          2949.704754          1303.119406           914.042774

                             ****ORCA TERMINATED NORMALLY****
TOTAL RUN TIME: 0 days 0 hours 3 minutes 11 seconds 370 msec
