                         Program Version 6.0.0  -   RELEASE  -
|  1> ! r2scan-3c def2/J RI DEFGRID2 scfconv6 printgap
|  2> %output
|  3>     printlevel normal
|  4> end
|  5> * xyz 0 1
|  6> C -2.8131741538 1.401047525 -0.0963947854
|  7> C -2.3780633657 -0.0512997043 0.05018049
|  8> C -0.8902315022 -0.2896740332 0.044866764
|  9> C -0.4294404991 -1.6009881742 0.1547202555
| 10> C 0.9230209524 -1.8762828563 0.155490036
| 11> C 1.8489339525 -0.8522739714 0.0464596298
| 12> C 1.4025955605 0.4567544633 -0.0632237786
| 13> C 0.037205193 0.7315388523 -0.0630508567
| 14> O 2.25767322 1.5128189114 -0.1743949678
| 15> H -2.4338947528 2.0039138465 0.7251439251
| 16> H -3.8989987551 1.4597612007 -0.0888263434
| 17> H -2.4556972428 1.8191358205 -1.0342667564
| 18> H -2.8162628283 -0.6390357584 -0.7615573741
| 19> H -2.7805973195 -0.4519922247 0.9851162276
| 20> H -1.1431317676 -2.4071564128 0.2398991659
| 21> H 1.2665323653 -2.8963647113 0.240999975
| 22> H 2.9069195437 -1.0711205199 0.0465920934
| 23> H -0.2610279671 1.7632552085 -0.1499654327
| 24> H 3.1765517445 1.206222118 -0.1643198556
| 25> *
| 26>
| 27>                          ****END OF INPUT****

CARTESIAN COORDINATES (ANGSTROEM)
---------------------------------
  C     -2.813174    1.401048   -0.096395
  C     -2.378063   -0.051300    0.050180
  C     -0.890232   -0.289674    0.044867
  C     -0.429440   -1.600988    0.154720
  C      0.923021   -1.876283    0.155490
  C      1.848934   -0.852274    0.046460
  C      1.402596    0.456754   -0.063224
  C      0.037205    0.731539   -0.063051
  O      2.257673    1.512819   -0.174395
  H     -2.433895    2.003914    0.725144
  H     -3.898999    1.459761   -0.088826
  H     -2.455697    1.819136   -1.034267
  H     -2.816263   -0.639036   -0.761557
  H     -2.780597   -0.451992    0.985116
  H     -1.143132   -2.407156    0.239899
  H      1.266532   -2.896365    0.241000
  H      2.906920   -1.071121    0.046592
  H     -0.261028    1.763255   -0.149965
  H      3.176552    1.206222   -0.164320

 Total Charge           Charge          ....    0
 Multiplicity           Mult            ....    1
 Number of Electrons    NEL             ....   66
 Basis Dimension        Dim             ....  226

ORBITAL ENERGIES
----------------

  NO   OCC          E(Eh)            E(eV)
   0   2.0000     -18.983099      -516.5564
   1   2.0000     -10.093593      -274.6606
   2   2.0000     -10.041299      -273.2376
   3   2.0000     -10.034322      -273.0478
   4   2.0000     -10.033511      -273.0257
   5   2.0000     -10.029172      -272.9076
   6   2.0000     -10.023941      -272.7653
   7   2.0000     -10.020769      -272.6790
   8   2.0000     -10.020612      -272.6747
   9   2.0000      -1.026115       -27.9220
  10   2.0000      -0.823671       -22.4132
  11   2.0000      -0.755071       -20.5465
  12   2.0000      -0.709040       -19.2940
  13   2.0000      -0.691799       -18.8248
  14   2.0000      -0.610260       -16.6060
  15   2.0000      -0.579390       -15.7660
  16   2.0000      -0.557264       -15.1639
  17   2.0000      -0.495261       -13.4767
  18   2.0000      -0.465147       -12.6573
  19   2.0000      -0.440473       -11.9859
  20   2.0000      -0.423654       -11.5282
  21   2.0000      -0.401571       -10.9273
  22   2.0000      -0.397766       -10.8238
  23   2.0000      -0.377699       -10.2777
  24   2.0000      -0.364310        -9.9134
  25   2.0000      -0.345311        -9.3964
  26   2.0000      -0.331837        -9.0298
  27   2.0000      -0.330637        -8.9971
  28   2.0000      -0.313519        -8.5313
  29   2.0000      -0.298609        -8.1256
  30   2.0000      -0.298284        -8.1167
  31   2.0000      -0.228661        -6.2222
  32   2.0000      -0.200842        -5.4652
  33   0.0000      -0.025461        -0.6928
  34   0.0000      -0.015145        -0.4121
  35   0.0000       0.058911         1.6031
  36   0.0000       0.086420         2.3516
  37   0.0000       0.099574         2.7095

MULLIKEN ATOMIC CHARGES
-----------------------
   0 C :   -0.493064
   1 C :   -0.314463
   2 C :    0.221318
   3 C :   -0.249696
   4 C :   -0.131794
   5 C :   -0.341076
   6 C :    0.407663
   7 C :   -0.355315
   8 O :   -0.415454
   9 H :    0.156696
  10 H :    0.149675
  11 H :    0.158266
  12 H :    0.157842
  13 H :    0.158524
  14 H :    0.144427
  15 H :    0.144524
  16 H :    0.136676
  17 H :    0.155057
  18 H :    0.310194
Sum of atomic charges:    0.0000000

LOEWDIN ATOMIC CHARGES
----------------------
   0 C :   -0.420078
   1 C :   -0.285841
   2 C :   -0.077498
   3 C :   -0.188897
   4 C :   -0.149484
   5 C :   -0.184804
   6 C :    0.185839
   7 C :   -0.144855
   8 O :   -0.499740
   9 H :    0.153759
  10 H :    0.153153
  11 H :    0.154053
  12 H :    0.166693
  13 H :    0.166942
  14 H :    0.168701
  15 H :    0.167319
  16 H :    0.167347
  17 H :    0.183784
  18 H :    0.283608

  Mayer bond orders larger than 0.100000
B(  0-C ,  1-C ) :   0.8621 B(  0-C ,  9-H ) :   0.9828 B(  0-C , 10-H ) :   0.9684
B(  0-C , 11-H ) :   0.9856 B(  1-C ,  2-C ) :   0.8251 B(  1-C , 12-H ) :   0.9775
B(  1-C , 13-H ) :   0.9726 B(  2-C ,  3-C ) :   1.3434 B(  2-C ,  7-C ) :   1.4614
B(  3-C ,  4-C ) :   1.4691 B(  3-C , 14-H ) :   0.9608 B(  4-C ,  5-C ) :   1.4013
B(  4-C , 15-H ) :   0.9419 B(  5-C ,  6-C ) :   1.3556 B(  5-C , 16-H ) :   0.9367
B(  6-C ,  7-C ) :   1.4682 B(  6-C ,  8-O ) :   0.8905 B(  7-C ,  8-O ) :   0.1263
B(  7-C , 17-H ) :   0.9386 B(  8-O , 18-H ) :   0.8839

Dispersion correction           -0.006073713
FINAL SINGLE POINT ENERGY      -386.000642950343

DIPOLE MOMENT
-------------

Method             : SCF
Type of density    : Electron Density
Multiplicity       :   1
Irrep              :   0
Energy             :  -386.0013995672024407 Eh
Relativity type    :
Basis              : AO
                                X                 Y                 Z
Electronic contribution:      8.065115562      -1.028975286      -0.013072484
Nuclear contribution   :     -7.884316456       0.760401011       0.033831061
                        -----------------------------------------
Total Dipole Moment    :      0.180799106      -0.268574275       0.020758576
                        -----------------------------------------
Magnitude (a.u.)       :      0.324424685
Magnitude (Debye)      :      0.824622017

Rotational constants in cm-1:             0.091557             0.041941             0.029076
Rotational constants in MHz :          2744.818498          1257.373131           871.675869

                             ****ORCA TERMINATED NORMALLY****
TOTAL RUN TIME: 0 days 0 hours 0 minutes 29 seconds 734 msec
