                         Program Version 6.0.0  -   RELEASE  -
|  1> ! r2scan-3c def2/J RI DEFGRID2 scfconv6 printgap
|  2> %output
|  3>     printlevel normal
|  4> end
|  5> %cpcm
|  6>     smd true
|  7>     smdsolvent "water"
|  8> end
|  9> * xyz 0 1
| 10> C -2.8131741538 1.401047525 -0.0963947854
| 11> C -2.3780633657 -0.0512997043 0.05018049
| 12> C -0.8902315022 -0.2896740332 0.044866764
| 13> C -0.4294404991 -1.6009881742 0.1547202555
| 14> C 0.9230209524 -1.8762828563 0.155490036
| 15> C 1.8489339525 -0.8522739714 0.0464596298
| 16> C 1.4025955605 0.4567544633 -0.0632237786
| 17> C 0.037205193 0.7315388523 -0.0630508567
| 18> O 2.25767322 1.5128189114 -0.1743949678
| 19> H -2.4338947528 2.0039138465 0.7251439251
| 20> H -3.8989987551 1.4597612007 -0.0888263434
| 21> H -2.4556972428 1.8191358205 -1.0342667564
| 22> H -2.8162628283 -0.6390357584 -0.7615573741
| 23> H -2.7805973195 -0.4519922247 0.9851162276
| 24> H -1.1431317676 -2.4071564128 0.2398991659
| 25> H 1.2665323653 -2.8963647113 0.240999975
| 26> H 2.9069195437 -1.0711205199 0.0465920934
| 27> H -0.2610279671 1.7632552085 -0.1499654327
| 28> H 3.1765517445 1.206222118 -0.1643198556
| 29> *
| 30>
| 31>                          ****END OF INPUT****

CARTESIAN COORDINATES (ANGSTROEM)
---------------------------------
  C     -2.813174    1.401048   -0.096395
  C     -2.378063   -0.051300    0.050180
  C     -0.890232   -0.289674    0.044867
  C     -0.429440   -1.600988    0.154720
  C      0.923021   -1.876283    0.155490
  C      1.848934   -0.852274    0.046460
  C      1.402596    0.456754   -0.063224
  C      0.037205    0.731539   -0.063051
  O      2.257673    1.512819   -0.174395
  H     -2.433895    2.003914    0.725144
  H     -3.898999    1.459761   -0.088826
  H     -2.455697    1.819136   -1.034267
  H     -2.816263   -0.639036   -0.761557
  H     -2.780597   -0.451992    0.985116
  H     -1.143132   -2.407156    0.239899
  H      1.266532   -2.896365    0.241000
  H      2.906920   -1.071121    0.046592
  H     -0.261028    1.763255   -0.149965
  H      3.176552    1.206222   -0.164320

 Total Charge           Charge          ....    0
 Multiplicity           Mult            ....    1
 Number of Electrons    NEL             ....   66
 Basis Dimension        Dim             ....  226

ORBITAL ENERGIES
----------------

  NO   OCC          E(Eh)            E(eV)
   0   2.0000     -18.981790      -516.5208
   1   2.0000     -10.094990      -274.6986
   2   2.0000     -10.042240      -273.2632
   3   2.0000     -10.032705      -273.0038
   4   2.0000     -10.027081      -272.8507
   5   2.0000     -10.026609      -272.8379
   6   2.0000     -10.025214      -272.7999
   7   2.0000     -10.020672      -272.6764
   8   2.0000     -10.011679      -272.4316
   9   2.0000      -1.024808       -27.8864
  10   2.0000      -0.825081       -22.4516
  11   2.0000      -0.751378       -20.4460
  12   2.0000      -0.709926       -19.3181
  13   2.0000      -0.688262       -18.7286
  14   2.0000      -0.605907       -16.4876
  15   2.0000      -0.577009       -15.7012
  16   2.0000      -0.554464       -15.0877
  17   2.0000      -0.491158       -13.3651
  18   2.0000      -0.462616       -12.5884
  19   2.0000      -0.439559       -11.9610
  20   2.0000      -0.417206       -11.3527
  21   2.0000      -0.397931       -10.8283
  22   2.0000      -0.393429       -10.7058
  23   2.0000      -0.380874       -10.3641
  24   2.0000      -0.363355        -9.8874
  25   2.0000      -0.340058        -9.2535
  26   2.0000      -0.327686        -8.9168
  27   2.0000      -0.327208        -8.9038
  28   2.0000      -0.308463        -8.3937
  29   2.0000      -0.298648        -8.1266
  30   2.0000      -0.295693        -8.0462
  31   2.0000      -0.231856        -6.3091
  32   2.0000      -0.204310        -5.5596
  33   0.0000      -0.027755        -0.7552
  34   0.0000      -0.018275        -0.4973
  35   0.0000       0.080868         2.2005
  36   0.0000       0.094831         2.5805
  37   0.0000       0.107987         2.9385

MULLIKEN ATOMIC CHARGES
-----------------------
   0 C :   -0.516430
   1 C :   -0.308535
   2 C :    0.171024
   3 C :   -0.275866
   4 C :   -0.170787
   5 C :   -0.338103
   6 C :    0.349362
   7 C :   -0.376164
   8 O :   -0.460391
   9 H :    0.164427
  10 H :    0.163394
  11 H :    0.165411
  12 H :    0.174271
  13 H :    0.174652
  14 H :    0.173862
  15 H :    0.177262
  16 H :    0.183212
  17 H :    0.179629
  18 H :    0.369769
Sum of atomic charges:    0.0000000

LOEWDIN ATOMIC CHARGES
----------------------
   0 C :   -0.425090
   1 C :   -0.286331
   2 C :   -0.085613
   3 C :   -0.201758
   4 C :   -0.162674
   5 C :   -0.184684
   6 C :    0.172328
   7 C :   -0.161467
   8 O :   -0.517280
   9 H :    0.156062
  10 H :    0.157104
  11 H :    0.156126
  12 H :    0.172690
  13 H :    0.172887
  14 H :    0.178450
  15 H :    0.178286
  16 H :    0.184856
  17 H :    0.190761
  18 H :    0.305346

  Mayer bond orders larger than 0.100000
B(  0-C ,  1-C ) :   0.8540 B(  0-C ,  9-H ) :   0.9793 B(  0-C , 10-H ) :   0.9658
B(  0-C , 11-H ) :   0.9823 B(  1-C ,  2-C ) :   0.8348 B(  1-C , 12-H ) :   0.9742
B(  1-C , 13-H ) :   0.9690 B(  2-C ,  3-C ) :   1.3153 B(  2-C ,  7-C ) :   1.4432
B(  3-C ,  4-C ) :   1.4218 B(  3-C , 14-H ) :   0.9706 B(  4-C ,  5-C ) :   1.3520
B(  4-C , 15-H ) :   0.9584 B(  5-C ,  6-C ) :   1.3580 B(  5-C , 16-H ) :   0.9499
B(  6-C ,  7-C ) :   1.4185 B(  6-C ,  8-O ) :   0.9041 B(  7-C ,  8-O ) :   0.1135
B(  7-C , 17-H ) :   0.9404 B(  8-O , 18-H ) :   0.8521

Dispersion correction           -0.006073713
FINAL SINGLE POINT ENERGY      -386.009118719676

DIPOLE MOMENT
-------------

Method             : SCF
Type of density    : Electron Density
Multiplicity       :   1
Irrep              :   0
Energy             :  -386.0098753365351740 Eh
Relativity type    :
Basis              : AO
                                X                 Y                 Z
Electronic contribution:      8.185140928      -1.179429609      -0.001627826
Nuclear contribution   :     -7.884316456       0.760401011       0.033831061
                        -----------------------------------------
Total Dipole Moment    :      0.300824472      -0.419028598       0.032203235
                        -----------------------------------------
Magnitude (a.u.)       :      0.516833994
Magnitude (Debye)      :      1.313687613

Rotational constants in cm-1:             0.091557             0.041941             0.029076
Rotational constants in MHz :          2744.818498          1257.373131           871.675869

                             ****ORCA TERMINATED NORMALLY****
TOTAL RUN TIME: 0 days 0 hours 0 minutes 35 seconds 511 msec
