                         Program Version 6.0.0  -   RELEASE  -
|  1> ! pbe def2-sv(p) def2/J RI DEFGRID1 loosescf d4 GCP(DFT/SV(P)) printgap
|  2> %output
|  3>     printlevel normal
|  4> end
|  5> * xyz 0 1
|  6> C -2.2250787395 0.9536812126 0.0001610274
|  7> O -0.8140685602 0.7282705404 0.0006933306
|  8> C -0.362135513 -0.5238151601 -0.0003938178
|  9> O -1.0901453576 -1.501518525 -0.000814069
| 10> C 1.109416825 -0.6055414352 0.0003020979
| 11> C 1.9195662896 0.4342858616 -0.7416744494
| 12> C 1.9192837446 0.4349271242 0.7417414861
| 13> H -2.7525260355 0.0002321459 0.0484116706
| 14> H -2.4799660116 1.4822156451 -0.9169696998
| 15> H -2.4612895819 1.5658954367 0.8684924496
| 16> H 1.4593890715 -1.6287154523 0.0005800511
| 17> H 2.7948142403 0.0850070896 -1.265457774
| 18> H 1.3686814427 1.208899355 -1.2507256786
| 19> H 2.7943432484 0.0861601502 1.2661386871
| 20> H 1.3682541741 1.2100756712 1.2498221258
| 21> *
| 22>
| 23>                          ****END OF INPUT****

CARTESIAN COORDINATES (ANGSTROEM)
---------------------------------
  C     -2.225079    0.953681    0.000161
  O     -0.814069    0.728271    0.000693
  C     -0.362136   -0.523815   -0.000394
  O     -1.090145   -1.501519   -0.000814
  C      1.109417   -0.605541    0.000302
  C      1.919566    0.434286   -0.741674
  C      1.919284    0.434927    0.741741
  H     -2.752526    0.000232    0.048412
  H     -2.479966    1.482216   -0.916970
  H     -2.461290    1.565895    0.868492
  H      1.459389   -1.628715    0.000580
  H      2.794814    0.085007   -1.265458
  H      1.368681    1.208899   -1.250726
  H      2.794343    0.086160    1.266139
  H      1.368254    1.210076    1.249822

 Total Charge           Charge          ....    0
 Multiplicity           Mult            ....    1
 Number of Electrons    NEL             ....   54
 Basis Dimension        Dim             ....  114

ORBITAL ENERGIES
----------------

  NO   OCC          E(Eh)            E(eV)
   0   2.0000     -18.799145      -511.5508
   1   2.0000     -18.728322      -509.6235
   2   2.0000     -10.004096      -272.2253
   3   2.0000      -9.938836      -270.4495
   4   2.0000      -9.912040      -269.7203
   5   2.0000      -9.904025      -269.5022
   6   2.0000      -9.903973      -269.5008
   7   2.0000      -1.003065       -27.2948
   8   2.0000      -0.904441       -24.6111
   9   2.0000      -0.797013       -21.6878
  10   2.0000      -0.669947       -18.2302
  11   2.0000      -0.578767       -15.7490
  12   2.0000      -0.546005       -14.8575
  13   2.0000      -0.507295       -13.8042
  14   2.0000      -0.469425       -12.7737
  15   2.0000      -0.447037       -12.1645
  16   2.0000      -0.431829       -11.7507
  17   2.0000      -0.405827       -11.0431
  18   2.0000      -0.382317       -10.4034
  19   2.0000      -0.361118        -9.8265
  20   2.0000      -0.343774        -9.3546
  21   2.0000      -0.329953        -8.9785
  22   2.0000      -0.301981        -8.2173
  23   2.0000      -0.285111        -7.7583
  24   2.0000      -0.266886        -7.2623
  25   2.0000      -0.252207        -6.8629
  26   2.0000      -0.215056        -5.8520
  27   0.0000      -0.019064        -0.5188
  28   0.0000       0.042261         1.1500
  29   0.0000       0.047960         1.3051
  30   0.0000       0.070702         1.9239
  31   0.0000       0.086924         2.3653

MULLIKEN ATOMIC CHARGES
-----------------------
   0 C :   -0.129409
   1 O :   -0.258482
   2 C :    0.179058
   3 O :   -0.200250
   4 C :   -0.197027
   5 C :   -0.182689
   6 C :   -0.182510
   7 H :    0.136017
   8 H :    0.120734
   9 H :    0.120704
  10 H :    0.105754
  11 H :    0.119355
  12 H :    0.124685
  13 H :    0.119349
  14 H :    0.124711
Sum of atomic charges:    0.0000000

LOEWDIN ATOMIC CHARGES
----------------------
   0 C :   -0.208354
   1 O :   -0.079918
   2 C :    0.043319
   3 O :   -0.175360
   4 C :   -0.167808
   5 C :   -0.221217
   6 C :   -0.221235
   7 H :    0.125569
   8 H :    0.119204
   9 H :    0.119322
  10 H :    0.140345
  11 H :    0.131160
  12 H :    0.131891
  13 H :    0.131170
  14 H :    0.131912

  Mayer bond orders larger than 0.100000
B(  0-C ,  1-O ) :   0.9390 B(  0-C ,  7-H ) :   0.9272 B(  0-C ,  8-H ) :   0.9607
B(  0-C ,  9-H ) :   0.9608 B(  1-O ,  2-C ) :   1.2031 B(  2-C ,  3-O ) :   2.0693
B(  2-C ,  4-C ) :   1.0440 B(  4-C ,  5-C ) :   0.9569 B(  4-C ,  6-C ) :   0.9566
B(  4-C , 10-H ) :   0.9195 B(  5-C ,  6-C ) :   1.0889 B(  5-C , 11-H ) :   0.9274
B(  5-C , 12-H ) :   0.9256 B(  6-C , 13-H ) :   0.9274 B(  6-C , 14-H ) :   0.9256

Dispersion correction           -0.011070702
FINAL SINGLE POINT ENERGY      -345.028771538210

DIPOLE MOMENT
-------------

Method             : SCF
Type of density    : Electron Density
Multiplicity       :   1
Irrep              :   0
Energy             :  -345.0854890760030003 Eh
Relativity type    :
Basis              : AO
                                X                 Y                 Z
Electronic contribution:     -1.676826037      -2.952910189       0.000038450
Nuclear contribution   :      1.934107849       3.750380662       0.000271996
                        -----------------------------------------
Total Dipole Moment    :      0.257281813       0.797470473       0.000310447
                        -----------------------------------------
Magnitude (a.u.)       :      0.837945811
Magnitude (Debye)      :      2.129888987

Rotational constants in cm-1:             0.169858             0.065655             0.053756
Rotational constants in MHz :          5092.225278          1968.281161          1611.576734

                             ****ORCA TERMINATED NORMALLY****
TOTAL RUN TIME: 0 days 0 hours 0 minutes 6 seconds 929 msec
