                         Program Version 6.0.0  -   RELEASE  -
|  1> ! wb97x-v def2-tzvp def2/J RIJCOSX DEFGRID2 scfconv7 GCP(DFT/TZ) printgap
|  2> %output
|  3>     printlevel normal
|  4> end
|  5> * xyz 0 1
|  6> C -2.581839503520306 -0.6486182753989308 -0.3052175351587484
|  7> C -1.2076887064491773 -0.28689619897143076 0.2194426175651739
|  8> H -1.2205292952841658 -0.26917088710243975 1.3214098835393575
|  9> C -0.7160046853440113 1.0656450703080784 -0.30699433826056105
| 10> H -0.7475558491044875 1.0599308923215651 -1.4061621711132661
| 11> C 0.7171918395865006 1.316343090877172 0.15158380227239046
| 12> H 0.7114792629372971 1.4319167833873696 1.2482011828656379
| 13> C 1.6161792647994044 0.14667149001735355 -0.2061334236820726
| 14> H 1.7092286722992873 0.07274968583891654 -1.3006695556333048
| 15> C 1.0016257092060035 -1.1531802187106355 0.3097772207632126
| 16> H 0.9374762959625998 -1.1415603045640497 1.4102032887098437
| 17> O -0.31005401004565597 -1.3154843493984105 -0.23830122777278057
| 18> O 1.795219647880572 -2.217468287947197 -0.14263285022923025
| 19> O 2.8921734934747603 0.37416391180149833 0.39619824987119195
| 20> O 1.2573196233593393 2.49132231254762 -0.46062483019770545
| 21> O -1.5023146373118952 2.146249286780605 0.21155971417581582
| 22> O -3.0705285500280763 -1.8700209587490841 0.2613913685933657
| 23> H -2.546152452948138 -0.7137717028390107 -1.4024565619442106
| 24> H -3.29527121431189 0.13117031574967328 -0.02510058423637883
| 25> H 1.6210223347653938 -2.9860318263273684 0.4174137580849851
| 26> H 3.489140006648018 -0.31196001170646137 0.06957738556342154
| 27> H 0.6883342837475305 3.228995325827818 -0.20163238575448442
| 28> H -2.2849821555239815 2.24253289504712 -0.3447932150798222
| 29> H -2.4607487405488397 -2.5708403196516834 -0.004727882751176678
| 30> *
| 31>
| 32>                          ****END OF INPUT****

CARTESIAN COORDINATES (ANGSTROEM)
---------------------------------
  C     -2.581840   -0.648618   -0.305218
  C     -1.207689   -0.286896    0.219443
  H     -1.220529   -0.269171    1.321410
  C     -0.716005    1.065645   -0.306994
  H     -0.747556    1.059931   -1.406162
  C      0.717192    1.316343    0.151584
  H      0.711479    1.431917    1.248201
  C      1.616179    0.146671   -0.206133
  H      1.709229    0.072750   -1.300670
  C      1.001626   -1.153180    0.309777
  H      0.937476   -1.141560    1.410203
  O     -0.310054   -1.315484   -0.238301
  O      1.795220   -2.217468   -0.142633
  O      2.892173    0.374164    0.396198
  O      1.257320    2.491322   -0.460625
  O     -1.502315    2.146249    0.211560
  O     -3.070529   -1.870021    0.261391
  H     -2.546152   -0.713772   -1.402457
  H     -3.295271    0.131170   -0.025101
  H      1.621022   -2.986032    0.417414
  H      3.489140   -0.311960    0.069577
  H      0.688334    3.228995   -0.201632
  H     -2.284982    2.242533   -0.344793
  H     -2.460749   -2.570840   -0.004728

 Total Charge           Charge          ....    0
 Multiplicity           Mult            ....    1
 Number of Electrons    NEL             ....   96
 Basis Dimension        Dim             ....  444

ORBITAL ENERGIES
----------------

  NO   OCC          E(Eh)            E(eV)
   0   2.0000     -21.702631      -590.5586
   1   2.0000     -21.699034      -590.4607
   2   2.0000     -21.697682      -590.4239
   3   2.0000     -21.679057      -589.9171
   4   2.0000     -21.676025      -589.8346
   5   2.0000     -21.673017      -589.7528
   6   2.0000     -12.162396      -330.9556
   7   2.0000     -12.116218      -329.6991
   8   2.0000     -12.113819      -329.6338
   9   2.0000     -12.108739      -329.4955
  10   2.0000     -12.107044      -329.4494
  11   2.0000     -12.106764      -329.4418
  12   2.0000      -1.731687       -47.1216
  13   2.0000      -1.701941       -46.3122
  14   2.0000      -1.690406       -45.9983
  15   2.0000      -1.681279       -45.7499
  16   2.0000      -1.678210       -45.6664
  17   2.0000      -1.672625       -45.5144
  18   2.0000      -1.342240       -36.5242
  19   2.0000      -1.327967       -36.1358
  20   2.0000      -1.242520       -33.8107
  21   2.0000      -1.207476       -32.8571
  22   2.0000      -1.167468       -31.7684
  23   2.0000      -1.118266       -30.4296
  24   2.0000      -1.098515       -29.8921
  25   2.0000      -1.071850       -29.1665
  26   2.0000      -1.064158       -28.9572
  27   2.0000      -1.043654       -28.3993
  28   2.0000      -1.036629       -28.2081
  29   2.0000      -1.029210       -28.0062
  30   2.0000      -0.996033       -27.1034
  31   2.0000      -0.986489       -26.8437
  32   2.0000      -0.979996       -26.6670
  33   2.0000      -0.969928       -26.3931
  34   2.0000      -0.959575       -26.1114
  35   2.0000      -0.952503       -25.9189
  36   2.0000      -0.950720       -25.8704
  37   2.0000      -0.935326       -25.4515
  38   2.0000      -0.924460       -25.1558
  39   2.0000      -0.907909       -24.7055
  40   2.0000      -0.904977       -24.6257
  41   2.0000      -0.881219       -23.9792
  42   2.0000      -0.857960       -23.3463
  43   2.0000      -0.841645       -22.9023
  44   2.0000      -0.826928       -22.5019
  45   2.0000      -0.810117       -22.0444
  46   2.0000      -0.798988       -21.7416
  47   2.0000      -0.775587       -21.1048
  48   0.0000      -0.244538        -6.6542
  49   0.0000      -0.199218        -5.4210
  50   0.0000      -0.180802        -4.9199
  51   0.0000      -0.162583        -4.4241
  52   0.0000      -0.126268        -3.4359

MULLIKEN ATOMIC CHARGES
-----------------------
   0 C :   -0.026158
   1 C :    0.042498
   2 H :    0.083475
   3 C :   -0.018127
   4 H :    0.096936
   5 C :    0.105700
   6 H :    0.087748
   7 C :    0.090958
   8 H :    0.085361
   9 C :    0.063531
  10 H :    0.075960
  11 O :   -0.281117
  12 O :   -0.412218
  13 O :   -0.422246
  14 O :   -0.427274
  15 O :   -0.444744
  16 O :   -0.449528
  17 H :    0.100797
  18 H :    0.089826
  19 H :    0.316947
  20 H :    0.309282
  21 H :    0.308607
  22 H :    0.314172
  23 H :    0.309615
Sum of atomic charges:    0.0000000

LOEWDIN ATOMIC CHARGES
----------------------
   0 C :   -0.314105
   1 C :   -0.307684
   2 H :    0.144255
   3 C :   -0.306763
   4 H :    0.143447
   5 C :   -0.304459
   6 H :    0.147358
   7 C :   -0.306044
   8 H :    0.146915
   9 C :   -0.412320
  10 H :    0.124006
  11 O :    0.178755
  12 O :    0.013824
  13 O :   -0.002307
  14 O :   -0.005706
  15 O :   -0.010990
  16 O :   -0.048098
  17 H :    0.121903
  18 H :    0.128124
  19 H :    0.179022
  20 H :    0.174307
  21 H :    0.173409
  22 H :    0.171876
  23 H :    0.171274

  Mayer bond orders larger than 0.100000
B(  0-C ,  1-C ) :   0.9504 B(  0-C , 16-O ) :   1.0310 B(  0-C , 17-H ) :   0.9751
B(  0-C , 18-H ) :   0.9695 B(  1-C ,  2-H ) :   0.9618 B(  1-C ,  3-C ) :   0.9183
B(  1-C , 11-O ) :   0.9643 B(  3-C ,  4-H ) :   0.9649 B(  3-C ,  5-C ) :   0.9433
B(  3-C , 15-O ) :   1.0972 B(  5-C ,  6-H ) :   0.9745 B(  5-C ,  7-C ) :   0.9401
B(  5-C , 14-O ) :   1.0928 B(  7-C ,  8-H ) :   0.9685 B(  7-C ,  9-C ) :   0.9403
B(  7-C , 13-O ) :   1.1553 B(  9-C , 10-H ) :   0.9838 B(  9-C , 11-O ) :   1.0150
B(  9-C , 12-O ) :   1.2008 B( 12-O , 19-H ) :   0.8926 B( 13-O , 20-H ) :   0.8913
B( 14-O , 21-H ) :   0.8900 B( 15-O , 22-H ) :   0.8977 B( 16-O , 23-H ) :   0.8925

FINAL SINGLE POINT ENERGY      -687.246074138268

DIPOLE MOMENT
-------------

Method             : SCF
Type of density    : Electron Density
Multiplicity       :   1
Irrep              :   0
Energy             :  -687.2648081013679757 Eh
Relativity type    :
Basis              : AO
                                X                 Y                 Z
Electronic contribution:      2.689040160      -0.638329553       0.015650038
Nuclear contribution   :     -3.141437123       0.207784349      -0.114671288
                        -----------------------------------------
Total Dipole Moment    :     -0.452396963      -0.430545205      -0.099021250
                        -----------------------------------------
Magnitude (a.u.)       :      0.632326967
Magnitude (Debye)      :      1.607247421

Rotational constants in cm-1:             0.038811             0.025971             0.016296
Rotational constants in MHz :          1163.532786           778.603459           488.555365

                             ****ORCA TERMINATED NORMALLY****
TOTAL RUN TIME: 0 days 0 hours 4 minutes 47 seconds 708 msec
