                         Program Version 6.0.0  -   RELEASE  -
|  1> ! wb97x-v def2-tzvp def2/J RIJCOSX DEFGRID2 scfconv7 GCP(DFT/TZ) printgap
|  2> %output
|  3>     printlevel normal
|  4> end
|  5> %cpcm
|  6>     smd true
|  7>     smdsolvent "water"
|  8> end
|  9> * xyz 0 1
| 10> C -2.581839503520306 -0.6486182753989308 -0.3052175351587484
| 11> C -1.2076887064491773 -0.28689619897143076 0.2194426175651739
| 12> H -1.2205292952841658 -0.26917088710243975 1.3214098835393575
| 13> C -0.7160046853440113 1.0656450703080784 -0.30699433826056105
| 14> H -0.7475558491044875 1.0599308923215651 -1.4061621711132661
| 15> C 0.7171918395865006 1.316343090877172 0.15158380227239046
| 16> H 0.7114792629372971 1.4319167833873696 1.2482011828656379
| 17> C 1.6161792647994044 0.14667149001735355 -0.2061334236820726
| 18> H 1.7092286722992873 0.07274968583891654 -1.3006695556333048
| 19> C 1.0016257092060035 -1.1531802187106355 0.3097772207632126
| 20> H 0.9374762959625998 -1.1415603045640497 1.4102032887098437
| 21> O -0.31005401004565597 -1.3154843493984105 -0.23830122777278057
| 22> O 1.795219647880572 -2.217468287947197 -0.14263285022923025
| 23> O 2.8921734934747603 0.37416391180149833 0.39619824987119195
| 24> O 1.2573196233593393 2.49132231254762 -0.46062483019770545
| 25> O -1.5023146373118952 2.146249286780605 0.21155971417581582
| 26> O -3.0705285500280763 -1.8700209587490841 0.2613913685933657
| 27> H -2.546152452948138 -0.7137717028390107 -1.4024565619442106
| 28> H -3.29527121431189 0.13117031574967328 -0.02510058423637883
| 29> H 1.6210223347653938 -2.9860318263273684 0.4174137580849851
| 30> H 3.489140006648018 -0.31196001170646137 0.06957738556342154
| 31> H 0.6883342837475305 3.228995325827818 -0.20163238575448442
| 32> H -2.2849821555239815 2.24253289504712 -0.3447932150798222
| 33> H -2.4607487405488397 -2.5708403196516834 -0.004727882751176678
| 34> *
| 35>
| 36>                          ****END OF INPUT****

CARTESIAN COORDINATES (ANGSTROEM)
---------------------------------
  C     -2.581840   -0.648618   -0.305218
  C     -1.207689   -0.286896    0.219443
  H     -1.220529   -0.269171    1.321410
  C     -0.716005    1.065645   -0.306994
  H     -0.747556    1.059931   -1.406162
  C      0.717192    1.316343    0.151584
  H      0.711479    1.431917    1.248201
  C      1.616179    0.146671   -0.206133
  H      1.709229    0.072750   -1.300670
  C      1.001626   -1.153180    0.309777
  H      0.937476   -1.141560    1.410203
  O     -0.310054   -1.315484   -0.238301
  O      1.795220   -2.217468   -0.142633
  O      2.892173    0.374164    0.396198
  O      1.257320    2.491322   -0.460625
  O     -1.502315    2.146249    0.211560
  O     -3.070529   -1.870021    0.261391
  H     -2.546152   -0.713772   -1.402457
  H     -3.295271    0.131170   -0.025101
  H      1.621022   -2.986032    0.417414
  H      3.489140   -0.311960    0.069577
  H      0.688334    3.228995   -0.201632
  H     -2.284982    2.242533   -0.344793
  H     -2.460749   -2.570840   -0.004728

 Total Charge           Charge          ....    0
 Multiplicity           Mult            ....    1
 Number of Electrons    NEL             ....   96
 Basis Dimension        Dim             ....  444

ORBITAL ENERGIES
----------------

  NO   OCC          E(Eh)            E(eV)
   0   2.0000     -21.692340      -590.2786
   1   2.0000     -21.691533      -590.2566
   2   2.0000     -21.684338      -590.0608
   3   2.0000     -21.682564      -590.0126
   4   2.0000     -21.679814      -589.9377
   5   2.0000     -21.677625      -589.8782
   6   2.0000     -12.151598      -330.6618
   7   2.0000     -12.104198      -329.3720
   8   2.0000     -12.103579      -329.3551
   9   2.0000     -12.102551      -329.3272
  10   2.0000     -12.101296      -329.2930
  11   2.0000     -12.091753      -329.0333
  12   2.0000      -1.723587       -46.9012
  13   2.0000      -1.690547       -46.0021
  14   2.0000      -1.686952       -45.9043
  15   2.0000      -1.682132       -45.7731
  16   2.0000      -1.678253       -45.6676
  17   2.0000      -1.676060       -45.6079
  18   2.0000      -1.334171       -36.3046
  19   2.0000      -1.319612       -35.9085
  20   2.0000      -1.233108       -33.5546
  21   2.0000      -1.201000       -32.6809
  22   2.0000      -1.162325       -31.6285
  23   2.0000      -1.114967       -30.3398
  24   2.0000      -1.089275       -29.6407
  25   2.0000      -1.066107       -29.0103
  26   2.0000      -1.057840       -28.7853
  27   2.0000      -1.042237       -28.3607
  28   2.0000      -1.035232       -28.1701
  29   2.0000      -1.019846       -27.7514
  30   2.0000      -0.994631       -27.0653
  31   2.0000      -0.983762       -26.7695
  32   2.0000      -0.976858       -26.5816
  33   2.0000      -0.969841       -26.3907
  34   2.0000      -0.956923       -26.0392
  35   2.0000      -0.951198       -25.8834
  36   2.0000      -0.948722       -25.8160
  37   2.0000      -0.933498       -25.4018
  38   2.0000      -0.924099       -25.1460
  39   2.0000      -0.903927       -24.5971
  40   2.0000      -0.899563       -24.4784
  41   2.0000      -0.878798       -23.9133
  42   2.0000      -0.853434       -23.2231
  43   2.0000      -0.831414       -22.6239
  44   2.0000      -0.816956       -22.2305
  45   2.0000      -0.803908       -21.8754
  46   2.0000      -0.790028       -21.4977
  47   2.0000      -0.765743       -20.8369
  48   0.0000      -0.235547        -6.4096
  49   0.0000      -0.191159        -5.2017
  50   0.0000      -0.174365        -4.7447
  51   0.0000      -0.151331        -4.1179
  52   0.0000      -0.115348        -3.1388

MULLIKEN ATOMIC CHARGES
-----------------------
   0 C :   -0.017036
   1 C :    0.027340
   2 H :    0.101773
   3 C :    0.007323
   4 H :    0.116823
   5 C :    0.137305
   6 H :    0.106195
   7 C :    0.103322
   8 H :    0.104189
   9 C :    0.076368
  10 H :    0.108355
  11 O :   -0.331101
  12 O :   -0.490406
  13 O :   -0.523190
  14 O :   -0.528429
  15 O :   -0.530388
  16 O :   -0.548781
  17 H :    0.120483
  18 H :    0.129442
  19 H :    0.377876
  20 H :    0.362063
  21 H :    0.359107
  22 H :    0.373275
  23 H :    0.358091
Sum of atomic charges:    0.0000000

LOEWDIN ATOMIC CHARGES
----------------------
   0 C :   -0.308169
   1 C :   -0.301588
   2 H :    0.151495
   3 C :   -0.295585
   4 H :    0.153386
   5 C :   -0.305756
   6 H :    0.153753
   7 C :   -0.307621
   8 H :    0.151814
   9 C :   -0.404652
  10 H :    0.138041
  11 O :    0.161018
  12 O :   -0.010876
  13 O :   -0.040573
  14 O :   -0.046221
  15 O :   -0.034880
  16 O :   -0.087914
  17 H :    0.129760
  18 H :    0.138364
  19 H :    0.201691
  20 H :    0.192299
  21 H :    0.190099
  22 H :    0.195290
  23 H :    0.186825

  Mayer bond orders larger than 0.100000
B(  0-C ,  1-C ) :   0.9636 B(  0-C , 16-O ) :   0.9830 B(  0-C , 17-H ) :   0.9721
B(  0-C , 18-H ) :   0.9648 B(  1-C ,  2-H ) :   0.9525 B(  1-C ,  3-C ) :   0.9621
B(  1-C , 11-O ) :   0.9435 B(  3-C ,  4-H ) :   0.9637 B(  3-C ,  5-C ) :   0.9591
B(  3-C , 15-O ) :   1.0628 B(  5-C ,  6-H ) :   0.9567 B(  5-C ,  7-C ) :   0.9562
B(  5-C , 14-O ) :   1.0405 B(  7-C ,  8-H ) :   0.9580 B(  7-C ,  9-C ) :   0.9643
B(  7-C , 13-O ) :   1.0919 B(  9-C , 10-H ) :   0.9811 B(  9-C , 11-O ) :   1.0102
B(  9-C , 12-O ) :   1.1903 B( 12-O , 19-H ) :   0.8532 B( 13-O , 20-H ) :   0.8591
B( 14-O , 21-H ) :   0.8593 B( 15-O , 22-H ) :   0.8605 B( 16-O , 23-H ) :   0.8636

FINAL SINGLE POINT ENERGY      -687.288154729742

DIPOLE MOMENT
-------------

Method             : SCF
Type of density    : Electron Density
Multiplicity       :   1
Irrep              :   0
Energy             :  -687.3068886928422216 Eh
Relativity type    :
Basis              : AO
                                X                 Y                 Z
Electronic contribution:      2.382469911      -0.766844461       0.014542302
Nuclear contribution   :     -3.141437123       0.207784349      -0.114671288
                        -----------------------------------------
Total Dipole Moment    :     -0.758967212      -0.559060112      -0.100128986
                        -----------------------------------------
Magnitude (a.u.)       :      0.947947917
Magnitude (Debye)      :      2.409492119

Rotational constants in cm-1:             0.038811             0.025971             0.016296
Rotational constants in MHz :          1163.532786           778.603459           488.555365

                             ****ORCA TERMINATED NORMALLY****
TOTAL RUN TIME: 0 days 0 hours 5 minutes 25 seconds 279 msec
