                         Program Version 6.0.0  -   RELEASE  -
|  1> ! wb97x-v def2-tzvp def2/J RIJCOSX DEFGRID2 scfconv7 GCP(DFT/TZ) printgap
|  2> %output
|  3>     printlevel normal
|  4> end
|  5> * xyz 0 1
|  6> C 2.0240306502600167 -0.8224944791509822 -0.36121844724087415
|  7> O 1.1254780506812883 0.3322592220919327 -0.40021833347722746
|  8> S -0.39841463283790113 0.03249405510751634 0.10426006289341891
|  9> O -0.3767265110845858 -0.3286310840547772 1.5321051830512895
| 10> O -1.0380757491848507 -0.9191610154990064 -0.820094951849897
| 11> C -1.0557203584026238 1.6746671228295107 -0.12357976219652554
| 12> H 2.9736767060588725 -0.4401636085012164 -0.7325410900578633
| 13> H 1.653738391182861 -1.613884639265321 -1.0174952172456007
| 14> H 2.136732125701498 -1.180394736234867 0.6650552406457094
| 15> H -0.497903752128021 2.363625139035608 0.5134842280501163
| 16> H -0.9674905514957812 1.9404228632222353 -1.1787352242258289
| 17> H -2.105118275266728 1.6294899038999282 0.1786264745902001
| 18> *
| 19>
| 20>                          ****END OF INPUT****

CARTESIAN COORDINATES (ANGSTROEM)
---------------------------------
  C      2.024031   -0.822494   -0.361218
  O      1.125478    0.332259   -0.400218
  S     -0.398415    0.032494    0.104260
  O     -0.376727   -0.328631    1.532105
  O     -1.038076   -0.919161   -0.820095
  C     -1.055720    1.674667   -0.123580
  H      2.973677   -0.440164   -0.732541
  H      1.653738   -1.613885   -1.017495
  H      2.136732   -1.180395    0.665055
  H     -0.497904    2.363625    0.513484
  H     -0.967491    1.940423   -1.178735
  H     -2.105118    1.629490    0.178626

 Total Charge           Charge          ....    0
 Multiplicity           Mult            ....    1
 Number of Electrons    NEL             ....   58
 Basis Dimension        Dim             ....  228

ORBITAL ENERGIES
----------------

  NO   OCC          E(Eh)            E(eV)
   0   2.0000     -94.351822     -2567.4436
   1   2.0000     -21.735705      -591.4586
   2   2.0000     -21.672651      -589.7428
   3   2.0000     -21.672597      -589.7413
   4   2.0000     -12.119508      -329.7886
   5   2.0000     -12.104246      -329.3733
   6   2.0000      -9.829633      -267.4779
   7   2.0000      -7.811934      -212.5735
   8   2.0000      -7.809463      -212.5063
   9   2.0000      -7.808888      -212.4906
  10   2.0000      -1.771426       -48.2030
  11   2.0000      -1.706468       -46.4354
  12   2.0000      -1.676644       -45.6238
  13   2.0000      -1.334926       -36.3252
  14   2.0000      -1.246750       -33.9258
  15   2.0000      -1.172110       -31.8947
  16   2.0000      -1.083800       -29.4917
  17   2.0000      -1.061737       -28.8913
  18   2.0000      -1.025043       -27.8928
  19   2.0000      -0.990132       -26.9429
  20   2.0000      -0.979798       -26.6617
  21   2.0000      -0.926167       -25.2023
  22   2.0000      -0.909886       -24.7593
  23   2.0000      -0.896567       -24.3968
  24   2.0000      -0.885082       -24.0843
  25   2.0000      -0.876074       -23.8392
  26   2.0000      -0.870035       -23.6749
  27   2.0000      -0.849884       -23.1265
  28   2.0000      -0.841608       -22.9013
  29   0.0000      -0.360910        -9.8209
  30   0.0000      -0.281389        -7.6570
  31   0.0000      -0.222494        -6.0544
  32   0.0000      -0.220682        -6.0051
  33   0.0000      -0.177091        -4.8189

MULLIKEN ATOMIC CHARGES
-----------------------
   0 C :   -0.207898
   1 O :   -0.274928
   2 S :    0.816520
   3 O :   -0.447804
   4 O :   -0.447780
   5 C :   -0.349112
   6 H :    0.135976
   7 H :    0.148391
   8 H :    0.148304
   9 H :    0.158827
  10 H :    0.158793
  11 H :    0.160712
Sum of atomic charges:    0.0000000

LOEWDIN ATOMIC CHARGES
----------------------
   0 C :   -0.318456
   1 O :   -0.043823
   2 S :    0.655683
   3 O :   -0.310596
   4 O :   -0.310539
   5 C :   -0.393268
   6 H :    0.114263
   7 H :    0.110585
   8 H :    0.110557
   9 H :    0.127336
  10 H :    0.127376
  11 H :    0.130883

  Mayer bond orders larger than 0.100000
B(  0-C ,  1-O ) :   0.9045 B(  0-C ,  6-H ) :   0.9687 B(  0-C ,  7-H ) :   0.9713
B(  0-C ,  8-H ) :   0.9715 B(  1-O ,  2-S ) :   1.0554 B(  2-S ,  3-O ) :   1.8889
B(  2-S ,  4-O ) :   1.8894 B(  2-S ,  5-C ) :   0.9039 B(  5-C ,  9-H ) :   0.9487
B(  5-C , 10-H ) :   0.9487 B(  5-C , 11-H ) :   0.9502

FINAL SINGLE POINT ENERGY      -703.641777693899

DIPOLE MOMENT
-------------

Method             : SCF
Type of density    : Electron Density
Multiplicity       :   1
Irrep              :   0
Energy             :  -703.6512332006985844 Eh
Relativity type    :
Basis              : AO
                                X                 Y                 Z
Electronic contribution:     -2.483799076      -1.494653216       1.072427735
Nuclear contribution   :      3.134274737       2.551047234      -1.520201428
                        -----------------------------------------
Total Dipole Moment    :      0.650475661       1.056394018      -0.447773693
                        -----------------------------------------
Magnitude (a.u.)       :      1.318934489
Magnitude (Debye)      :      3.352465047

Rotational constants in cm-1:             0.146147             0.084417             0.081290
Rotational constants in MHz :          4381.375191          2530.756302          2436.998357

                             ****ORCA TERMINATED NORMALLY****
TOTAL RUN TIME: 0 days 0 hours 1 minutes 11 seconds 451 msec
