                         Program Version 6.0.0  -   RELEASE  -
|  1> ! wb97x-v def2-tzvp def2/J RIJCOSX DEFGRID2 scfconv7 GCP(DFT/TZ) printgap
|  2> %output
|  3>     printlevel normal
|  4> end
|  5> %cpcm
|  6>     smd true
|  7>     smdsolvent "water"
|  8> end
|  9> * xyz 0 1
| 10> C 2.0240306502600167 -0.8224944791509822 -0.36121844724087415
| 11> O 1.1254780506812883 0.3322592220919327 -0.40021833347722746
| 12> S -0.39841463283790113 0.03249405510751634 0.10426006289341891
| 13> O -0.3767265110845858 -0.3286310840547772 1.5321051830512895
| 14> O -1.0380757491848507 -0.9191610154990064 -0.820094951849897
| 15> C -1.0557203584026238 1.6746671228295107 -0.12357976219652554
| 16> H 2.9736767060588725 -0.4401636085012164 -0.7325410900578633
| 17> H 1.653738391182861 -1.613884639265321 -1.0174952172456007
| 18> H 2.136732125701498 -1.180394736234867 0.6650552406457094
| 19> H -0.497903752128021 2.363625139035608 0.5134842280501163
| 20> H -0.9674905514957812 1.9404228632222353 -1.1787352242258289
| 21> H -2.105118275266728 1.6294899038999282 0.1786264745902001
| 22> *
| 23>
| 24>                          ****END OF INPUT****

CARTESIAN COORDINATES (ANGSTROEM)
---------------------------------
  C      2.024031   -0.822494   -0.361218
  O      1.125478    0.332259   -0.400218
  S     -0.398415    0.032494    0.104260
  O     -0.376727   -0.328631    1.532105
  O     -1.038076   -0.919161   -0.820095
  C     -1.055720    1.674667   -0.123580
  H      2.973677   -0.440164   -0.732541
  H      1.653738   -1.613885   -1.017495
  H      2.136732   -1.180395    0.665055
  H     -0.497904    2.363625    0.513484
  H     -0.967491    1.940423   -1.178735
  H     -2.105118    1.629490    0.178626

 Total Charge           Charge          ....    0
 Multiplicity           Mult            ....    1
 Number of Electrons    NEL             ....   58
 Basis Dimension        Dim             ....  228

ORBITAL ENERGIES
----------------

  NO   OCC          E(Eh)            E(eV)
   0   2.0000     -94.361064     -2567.6951
   1   2.0000     -21.736219      -591.4726
   2   2.0000     -21.687778      -590.1544
   3   2.0000     -21.687711      -590.1526
   4   2.0000     -12.103644      -329.3569
   5   2.0000     -12.086453      -328.8891
   6   2.0000      -9.839047      -267.7341
   7   2.0000      -7.821160      -212.8246
   8   2.0000      -7.818674      -212.7569
   9   2.0000      -7.818616      -212.7553
  10   2.0000      -1.781524       -48.4777
  11   2.0000      -1.712570       -46.6014
  12   2.0000      -1.694086       -46.0984
  13   2.0000      -1.332585       -36.2615
  14   2.0000      -1.234861       -33.6023
  15   2.0000      -1.174638       -31.9635
  16   2.0000      -1.087721       -29.5984
  17   2.0000      -1.080126       -29.3917
  18   2.0000      -1.022611       -27.8266
  19   2.0000      -0.990993       -26.9663
  20   2.0000      -0.980896       -26.6915
  21   2.0000      -0.941661       -25.6239
  22   2.0000      -0.923926       -25.1413
  23   2.0000      -0.914255       -24.8782
  24   2.0000      -0.877288       -23.8722
  25   2.0000      -0.864141       -23.5145
  26   2.0000      -0.863272       -23.4908
  27   2.0000      -0.836744       -22.7690
  28   2.0000      -0.828679       -22.5495
  29   0.0000      -0.367314        -9.9951
  30   0.0000      -0.288529        -7.8513
  31   0.0000      -0.227974        -6.2035
  32   0.0000      -0.216768        -5.8985
  33   0.0000      -0.167934        -4.5697

MULLIKEN ATOMIC CHARGES
-----------------------
   0 C :   -0.230627
   1 O :   -0.284701
   2 S :    0.868895
   3 O :   -0.523811
   4 O :   -0.523651
   5 C :   -0.373365
   6 H :    0.168873
   7 H :    0.159606
   8 H :    0.159620
   9 H :    0.193212
  10 H :    0.193191
  11 H :    0.192758
Sum of atomic charges:    0.0000000

LOEWDIN ATOMIC CHARGES
----------------------
   0 C :   -0.313022
   1 O :   -0.044197
   2 S :    0.673977
   3 O :   -0.357958
   4 O :   -0.357819
   5 C :   -0.377227
   6 H :    0.125505
   7 H :    0.114120
   8 H :    0.114113
   9 H :    0.140118
  10 H :    0.140147
  11 H :    0.142243

  Mayer bond orders larger than 0.100000
B(  0-C ,  1-O ) :   0.8754 B(  0-C ,  6-H ) :   0.9618 B(  0-C ,  7-H ) :   0.9676
B(  0-C ,  8-H ) :   0.9678 B(  1-O ,  2-S ) :   1.0850 B(  2-S ,  3-O ) :   1.8177
B(  2-S ,  4-O ) :   1.8183 B(  2-S ,  5-C ) :   0.9296 B(  5-C ,  9-H ) :   0.9337
B(  5-C , 10-H ) :   0.9336 B(  5-C , 11-H ) :   0.9316

FINAL SINGLE POINT ENERGY      -703.657651221764

DIPOLE MOMENT
-------------

Method             : SCF
Type of density    : Electron Density
Multiplicity       :   1
Irrep              :   0
Energy             :  -703.6671067285642494 Eh
Relativity type    :
Basis              : AO
                                X                 Y                 Z
Electronic contribution:     -2.309877042      -1.100411253       0.924480693
Nuclear contribution   :      3.134274737       2.551047234      -1.520201428
                        -----------------------------------------
Total Dipole Moment    :      0.824397695       1.450635981      -0.595720735
                        -----------------------------------------
Magnitude (a.u.)       :      1.771682676
Magnitude (Debye)      :      4.503259481

Rotational constants in cm-1:             0.146147             0.084417             0.081290
Rotational constants in MHz :          4381.375191          2530.756302          2436.998357

                             ****ORCA TERMINATED NORMALLY****
TOTAL RUN TIME: 0 days 0 hours 1 minutes 15 seconds 915 msec
