                         Program Version 6.0.0  -   RELEASE  -
|  1> ! r2scan-3c def2/J RI DEFGRID2 scfconv6 printgap
|  2> %output
|  3>     printlevel normal
|  4> end
|  5> * xyz 0 1
|  6> C -2.5620866976 -0.8786508974 0.2577907052
|  7> C -1.1388560765 -0.4311676994 0.6181631338
|  8> H -1.0482031179 -0.3588101478 1.7128380399
|  9> C -0.8285319982 0.9476189186 0.0212967123
| 10> H -1.0502648428 0.928989939 -1.0557366796
| 11> C 0.6567774152 1.2822415444 0.2102096964
| 12> H 0.8414580279 1.4252212992 1.2899441903
| 13> C 1.5435434403 0.1362008883 -0.2988613914
| 14> H 1.4174706478 0.0277849163 -1.3812878211
| 15> C 1.1030879235 -1.1753527421 0.3690988839
| 16> H 1.2555031098 -1.0859175873 1.4692046467
| 17> O -0.2606199915 -1.4247286069 0.122099829
| 18> O 1.8347688918 -2.2197791497 -0.1523833894
| 19> O 2.9004470007 0.4308304911 -0.1000882126
| 20> O 0.9277037667 2.4802604277 -0.4761806967
| 21> O -1.6434032887 1.8826344069 0.6805450745
| 22> O -2.7307682319 -1.0515731436 -1.1236496517
| 23> H -3.2590111192 -0.0985728628 0.566470132
| 24> H -2.7858358028 -1.808157811 0.7948349977
| 25> H 1.4262477336 -3.0642480658 0.0964831561
| 26> H 3.144408792 0.294304565 0.8271192054
| 27> H 1.8873978508 2.5610969258 -0.5899327156
| 28> H -1.4465757382 2.7619979515 0.3239167432
| 29> H -2.0922441491 -1.7142796157 -1.4260580813
| 30> *
| 31>
| 32>                          ****END OF INPUT****

CARTESIAN COORDINATES (ANGSTROEM)
---------------------------------
  C     -2.562087   -0.878651    0.257791
  C     -1.138856   -0.431168    0.618163
  H     -1.048203   -0.358810    1.712838
  C     -0.828532    0.947619    0.021297
  H     -1.050265    0.928990   -1.055737
  C      0.656777    1.282242    0.210210
  H      0.841458    1.425221    1.289944
  C      1.543543    0.136201   -0.298861
  H      1.417471    0.027785   -1.381288
  C      1.103088   -1.175353    0.369099
  H      1.255503   -1.085918    1.469205
  O     -0.260620   -1.424729    0.122100
  O      1.834769   -2.219779   -0.152383
  O      2.900447    0.430830   -0.100088
  O      0.927704    2.480260   -0.476181
  O     -1.643403    1.882634    0.680545
  O     -2.730768   -1.051573   -1.123650
  H     -3.259011   -0.098573    0.566470
  H     -2.785836   -1.808158    0.794835
  H      1.426248   -3.064248    0.096483
  H      3.144409    0.294305    0.827119
  H      1.887398    2.561097   -0.589933
  H     -1.446576    2.761998    0.323917
  H     -2.092244   -1.714280   -1.426058

 Total Charge           Charge          ....    0
 Multiplicity           Mult            ....    1
 Number of Electrons    NEL             ....   96
 Basis Dimension        Dim             ....  318

ORBITAL ENERGIES
----------------

  NO   OCC          E(Eh)            E(eV)
   0   2.0000     -18.983352      -516.5633
   1   2.0000     -18.975816      -516.3582
   2   2.0000     -18.973858      -516.3049
   3   2.0000     -18.961777      -515.9762
   4   2.0000     -18.958427      -515.8850
   5   2.0000     -18.951370      -515.6930
   6   2.0000     -10.152579      -276.2657
   7   2.0000     -10.097836      -274.7761
   8   2.0000     -10.097275      -274.7608
   9   2.0000     -10.092765      -274.6381
  10   2.0000     -10.089599      -274.5520
  11   2.0000     -10.080588      -274.3068
  12   2.0000      -1.063134       -28.9293
  13   2.0000      -1.019665       -27.7465
  14   2.0000      -1.009306       -27.4646
  15   2.0000      -0.996590       -27.1186
  16   2.0000      -0.987531       -26.8721
  17   2.0000      -0.984047       -26.7773
  18   2.0000      -0.754535       -20.5319
  19   2.0000      -0.743092       -20.2206
  20   2.0000      -0.663174       -18.0459
  21   2.0000      -0.620705       -16.8903
  22   2.0000      -0.601484       -16.3672
  23   2.0000      -0.568039       -15.4571
  24   2.0000      -0.537094       -14.6151
  25   2.0000      -0.514231       -13.9929
  26   2.0000      -0.492239       -13.3945
  27   2.0000      -0.483987       -13.1700
  28   2.0000      -0.472434       -12.8556
  29   2.0000      -0.462025       -12.5724
  30   2.0000      -0.452608       -12.3161
  31   2.0000      -0.434260       -11.8168
  32   2.0000      -0.404059       -10.9950
  33   2.0000      -0.394675       -10.7396
  34   2.0000      -0.387930       -10.5561
  35   2.0000      -0.380672       -10.3586
  36   2.0000      -0.354582        -9.6487
  37   2.0000      -0.341726        -9.2988
  38   2.0000      -0.332524        -9.0484
  39   2.0000      -0.321889        -8.7591
  40   2.0000      -0.312710        -8.5093
  41   2.0000      -0.298917        -8.1339
  42   2.0000      -0.283991        -7.7278
  43   2.0000      -0.277747        -7.5579
  44   2.0000      -0.259786        -7.0691
  45   2.0000      -0.242019        -6.5857
  46   2.0000      -0.240857        -6.5541
  47   2.0000      -0.231279        -6.2934
  48   0.0000       0.024770         0.6740
  49   0.0000       0.044493         1.2107
  50   0.0000       0.060843         1.6556
  51   0.0000       0.063690         1.7331
  52   0.0000       0.076345         2.0775

MULLIKEN ATOMIC CHARGES
-----------------------
   0 C :   -0.245115
   1 C :    0.031214
   2 H :    0.164808
   3 C :   -0.066523
   4 H :    0.196119
   5 C :    0.036634
   6 H :    0.164550
   7 C :   -0.050211
   8 H :    0.181060
   9 C :   -0.099659
  10 H :    0.142532
  11 O :   -0.229104
  12 O :   -0.370238
  13 O :   -0.399959
  14 O :   -0.439043
  15 O :   -0.441694
  16 O :   -0.423022
  17 H :    0.160627
  18 H :    0.138400
  19 H :    0.311006
  20 H :    0.301150
  21 H :    0.312875
  22 H :    0.313854
  23 H :    0.309738
Sum of atomic charges:   -0.0000000

LOEWDIN ATOMIC CHARGES
----------------------
   0 C :    0.044330
   1 C :    0.115943
   2 H :    0.187425
   3 C :    0.112713
   4 H :    0.194316
   5 C :    0.096603
   6 H :    0.178892
   7 C :    0.111481
   8 H :    0.206732
   9 C :    0.295353
  10 H :    0.172217
  11 O :   -0.689166
  12 O :   -0.486574
  13 O :   -0.556430
  14 O :   -0.579557
  15 O :   -0.577105
  16 O :   -0.589499
  17 H :    0.197101
  18 H :    0.164586
  19 H :    0.285250
  20 H :    0.273797
  21 H :    0.283713
  22 H :    0.283358
  23 H :    0.274519

  Mayer bond orders larger than 0.100000
B(  0-C ,  1-C ) :   0.9454 B(  0-C , 16-O ) :   1.0303 B(  0-C , 17-H ) :   0.9613
B(  0-C , 18-H ) :   0.9815 B(  1-C ,  2-H ) :   0.9305 B(  1-C ,  3-C ) :   0.8619
B(  1-C , 11-O ) :   0.7637 B(  1-C , 16-O ) :  -0.1125 B(  3-C ,  4-H ) :   0.9990
B(  3-C ,  5-C ) :   0.8115 B(  3-C , 15-O ) :   0.8690 B(  5-C ,  6-H ) :   0.9718
B(  5-C ,  7-C ) :   0.8672 B(  5-C , 14-O ) :   0.8894 B(  7-C ,  8-H ) :   0.9561
B(  7-C ,  9-C ) :   0.8632 B(  7-C , 13-O ) :   1.0152 B(  9-C , 10-H ) :   1.0130
B(  9-C , 11-O ) :   0.9412 B(  9-C , 12-O ) :   1.0535 B( 12-O , 19-H ) :   0.8772
B( 13-O , 20-H ) :   0.8852 B( 14-O , 21-H ) :   0.8703 B( 15-O , 22-H ) :   0.8826
B( 16-O , 23-H ) :   0.8766

Dispersion correction           -0.008061199
FINAL SINGLE POINT ENERGY      -687.075816867529

DIPOLE MOMENT
-------------

Method             : SCF
Type of density    : Electron Density
Multiplicity       :   1
Irrep              :   0
Energy             :  -687.0871554310492684 Eh
Relativity type    :
Basis              : AO
                                X                 Y                 Z
Electronic contribution:      2.142631610      -0.293107321      -1.526036097
Nuclear contribution   :     -1.588710041      -0.121069546       2.449769373
                        -----------------------------------------
Total Dipole Moment    :      0.553921569      -0.414176867       0.923733276
                        -----------------------------------------
Magnitude (a.u.)       :      1.153973460
Magnitude (Debye)      :      2.933167433

Rotational constants in cm-1:             0.038953             0.027170             0.017840
Rotational constants in MHz :          1167.790753           814.545908           534.817854

                             ****ORCA TERMINATED NORMALLY****
TOTAL RUN TIME: 0 days 0 hours 0 minutes 48 seconds 271 msec
