                         Program Version 6.0.0  -   RELEASE  -
|  1> ! r2scan-3c def2/J RI DEFGRID2 scfconv6 printgap
|  2> %output
|  3>     printlevel normal
|  4> end
|  5> %cpcm
|  6>     smd true
|  7>     smdsolvent "water"
|  8> end
|  9> * xyz 0 1
| 10> C -2.5620866976 -0.8786508974 0.2577907052
| 11> C -1.1388560765 -0.4311676994 0.6181631338
| 12> H -1.0482031179 -0.3588101478 1.7128380399
| 13> C -0.8285319982 0.9476189186 0.0212967123
| 14> H -1.0502648428 0.928989939 -1.0557366796
| 15> C 0.6567774152 1.2822415444 0.2102096964
| 16> H 0.8414580279 1.4252212992 1.2899441903
| 17> C 1.5435434403 0.1362008883 -0.2988613914
| 18> H 1.4174706478 0.0277849163 -1.3812878211
| 19> C 1.1030879235 -1.1753527421 0.3690988839
| 20> H 1.2555031098 -1.0859175873 1.4692046467
| 21> O -0.2606199915 -1.4247286069 0.122099829
| 22> O 1.8347688918 -2.2197791497 -0.1523833894
| 23> O 2.9004470007 0.4308304911 -0.1000882126
| 24> O 0.9277037667 2.4802604277 -0.4761806967
| 25> O -1.6434032887 1.8826344069 0.6805450745
| 26> O -2.7307682319 -1.0515731436 -1.1236496517
| 27> H -3.2590111192 -0.0985728628 0.566470132
| 28> H -2.7858358028 -1.808157811 0.7948349977
| 29> H 1.4262477336 -3.0642480658 0.0964831561
| 30> H 3.144408792 0.294304565 0.8271192054
| 31> H 1.8873978508 2.5610969258 -0.5899327156
| 32> H -1.4465757382 2.7619979515 0.3239167432
| 33> H -2.0922441491 -1.7142796157 -1.4260580813
| 34> *
| 35>
| 36>                          ****END OF INPUT****

CARTESIAN COORDINATES (ANGSTROEM)
---------------------------------
  C     -2.562087   -0.878651    0.257791
  C     -1.138856   -0.431168    0.618163
  H     -1.048203   -0.358810    1.712838
  C     -0.828532    0.947619    0.021297
  H     -1.050265    0.928990   -1.055737
  C      0.656777    1.282242    0.210210
  H      0.841458    1.425221    1.289944
  C      1.543543    0.136201   -0.298861
  H      1.417471    0.027785   -1.381288
  C      1.103088   -1.175353    0.369099
  H      1.255503   -1.085918    1.469205
  O     -0.260620   -1.424729    0.122100
  O      1.834769   -2.219779   -0.152383
  O      2.900447    0.430830   -0.100088
  O      0.927704    2.480260   -0.476181
  O     -1.643403    1.882634    0.680545
  O     -2.730768   -1.051573   -1.123650
  H     -3.259011   -0.098573    0.566470
  H     -2.785836   -1.808158    0.794835
  H      1.426248   -3.064248    0.096483
  H      3.144409    0.294305    0.827119
  H      1.887398    2.561097   -0.589933
  H     -1.446576    2.761998    0.323917
  H     -2.092244   -1.714280   -1.426058

 Total Charge           Charge          ....    0
 Multiplicity           Mult            ....    1
 Number of Electrons    NEL             ....   96
 Basis Dimension        Dim             ....  318

ORBITAL ENERGIES
----------------

  NO   OCC          E(Eh)            E(eV)
   0   2.0000     -18.976286      -516.3710
   1   2.0000     -18.969047      -516.1740
   2   2.0000     -18.965057      -516.0654
   3   2.0000     -18.960362      -515.9377
   4   2.0000     -18.959011      -515.9009
   5   2.0000     -18.956602      -515.8354
   6   2.0000     -10.139148      -275.9002
   7   2.0000     -10.089809      -274.5577
   8   2.0000     -10.087800      -274.5030
   9   2.0000     -10.085487      -274.4400
  10   2.0000     -10.084055      -274.4011
  11   2.0000     -10.076429      -274.1936
  12   2.0000      -1.055357       -28.7177
  13   2.0000      -1.013802       -27.5870
  14   2.0000      -1.006278       -27.3822
  15   2.0000      -0.995631       -27.0925
  16   2.0000      -0.985170       -26.8078
  17   2.0000      -0.981518       -26.7085
  18   2.0000      -0.747930       -20.3522
  19   2.0000      -0.734889       -19.9973
  20   2.0000      -0.656998       -17.8778
  21   2.0000      -0.612226       -16.6595
  22   2.0000      -0.595738       -16.2109
  23   2.0000      -0.559396       -15.2219
  24   2.0000      -0.529085       -14.3971
  25   2.0000      -0.507217       -13.8021
  26   2.0000      -0.482265       -13.1231
  27   2.0000      -0.477320       -12.9885
  28   2.0000      -0.468107       -12.7378
  29   2.0000      -0.456545       -12.4232
  30   2.0000      -0.447943       -12.1891
  31   2.0000      -0.427538       -11.6339
  32   2.0000      -0.403709       -10.9855
  33   2.0000      -0.390933       -10.6378
  34   2.0000      -0.383665       -10.4401
  35   2.0000      -0.377669       -10.2769
  36   2.0000      -0.352352        -9.5880
  37   2.0000      -0.341075        -9.2811
  38   2.0000      -0.331881        -9.0310
  39   2.0000      -0.318508        -8.6671
  40   2.0000      -0.311087        -8.4651
  41   2.0000      -0.300058        -8.1650
  42   2.0000      -0.280360        -7.6290
  43   2.0000      -0.274394        -7.4666
  44   2.0000      -0.254121        -6.9150
  45   2.0000      -0.245867        -6.6904
  46   2.0000      -0.241583        -6.5738
  47   2.0000      -0.225498        -6.1361
  48   0.0000       0.039234         1.0676
  49   0.0000       0.064913         1.7664
  50   0.0000       0.071640         1.9494
  51   0.0000       0.087993         2.3944
  52   0.0000       0.093388         2.5412

MULLIKEN ATOMIC CHARGES
-----------------------
   0 C :   -0.244704
   1 C :    0.035322
   2 H :    0.192816
   3 C :   -0.066608
   4 H :    0.192351
   5 C :    0.023614
   6 H :    0.184552
   7 C :   -0.036624
   8 H :    0.194065
   9 C :   -0.075702
  10 H :    0.171988
  11 O :   -0.261851
  12 O :   -0.441291
  13 O :   -0.469590
  14 O :   -0.500023
  15 O :   -0.501716
  16 O :   -0.493298
  17 H :    0.166303
  18 H :    0.158956
  19 H :    0.360022
  20 H :    0.358210
  21 H :    0.348721
  22 H :    0.351878
  23 H :    0.352609
Sum of atomic charges:   -0.0000000

LOEWDIN ATOMIC CHARGES
----------------------
   0 C :    0.042705
   1 C :    0.119433
   2 H :    0.199346
   3 C :    0.110702
   4 H :    0.193893
   5 C :    0.102242
   6 H :    0.191199
   7 C :    0.111441
   8 H :    0.208121
   9 C :    0.301023
  10 H :    0.191319
  11 O :   -0.696562
  12 O :   -0.514697
  13 O :   -0.577392
  14 O :   -0.603638
  15 O :   -0.603303
  16 O :   -0.624394
  17 H :    0.197216
  18 H :    0.175123
  19 H :    0.303172
  20 H :    0.293598
  21 H :    0.295065
  22 H :    0.295838
  23 H :    0.288550

  Mayer bond orders larger than 0.100000
B(  0-C ,  1-C ) :   0.9455 B(  0-C , 16-O ) :   1.0080 B(  0-C , 17-H ) :   0.9629
B(  0-C , 18-H ) :   0.9706 B(  1-C ,  2-H ) :   0.9201 B(  1-C ,  3-C ) :   0.8807
B(  1-C , 11-O ) :   0.7673 B(  1-C , 16-O ) :  -0.1013 B(  3-C ,  4-H ) :   0.9835
B(  3-C ,  5-C ) :   0.8551 B(  3-C , 15-O ) :   0.8441 B(  5-C ,  6-H ) :   0.9605
B(  5-C ,  7-C ) :   0.8889 B(  5-C , 14-O ) :   0.8784 B(  7-C ,  8-H ) :   0.9575
B(  7-C ,  9-C ) :   0.8542 B(  7-C , 13-O ) :   1.0011 B(  9-C , 10-H ) :   0.9948
B(  9-C , 11-O ) :   0.9525 B(  9-C , 12-O ) :   1.0439 B( 12-O , 19-H ) :   0.8526
B( 13-O , 20-H ) :   0.8568 B( 14-O , 21-H ) :   0.8544 B( 15-O , 22-H ) :   0.8636
B( 16-O , 23-H ) :   0.8548

Dispersion correction           -0.008061199
FINAL SINGLE POINT ENERGY      -687.109875040081

DIPOLE MOMENT
-------------

Method             : SCF
Type of density    : Electron Density
Multiplicity       :   1
Irrep              :   0
Energy             :  -687.1212136036017455 Eh
Relativity type    :
Basis              : AO
                                X                 Y                 Z
Electronic contribution:      2.379401350      -0.469322352      -0.967691376
Nuclear contribution   :     -1.588710041      -0.121069546       2.449769373
                        -----------------------------------------
Total Dipole Moment    :      0.790691309      -0.590391899       1.482077997
                        -----------------------------------------
Magnitude (a.u.)       :      1.780536585
Magnitude (Debye)      :      4.525764330

Rotational constants in cm-1:             0.038953             0.027170             0.017840
Rotational constants in MHz :          1167.790753           814.545908           534.817854

                             ****ORCA TERMINATED NORMALLY****
TOTAL RUN TIME: 0 days 0 hours 0 minutes 57 seconds 523 msec
