                         Program Version 6.0.0  -   RELEASE  -
|  1> ! pbe def2-sv(p) def2/J RI DEFGRID1 loosescf d4 GCP(DFT/SV(P)) printgap
|  2> %output
|  3>     printlevel normal
|  4> end
|  5> * xyz 0 1
|  6> C -1.6912503539 -1.3553519237 -0.5627872945
|  7> C -1.1488843544 -0.4844358933 0.5810912322
|  8> H -1.9080595155 -0.4291071682 1.3681930058
|  9> C -0.8645355734 0.9621142421 0.1330062656
| 10> H -1.20457749 1.0844246385 -0.9073591091
| 11> C 0.6423993221 1.2723818727 0.2034169961
| 12> H 0.9345729117 1.3852707935 1.2534882653
| 13> C 1.4172049992 0.09864647 -0.4018653406
| 14> H 1.0374965075 -0.0994477513 -1.4162901088
| 15> C 1.1616076061 -1.1515289683 0.4648729702
| 16> H 1.9517473427 -1.2076168856 1.2297306731
| 17> O -0.0280664171 -1.0856554841 1.2118482939
| 18> O 1.2015680026 -2.2649310574 -0.3764786043
| 19> O 2.7821530272 0.4190441379 -0.4442530929
| 20> O 0.9294538335 2.504804679 -0.4013255079
| 21> O -1.5923134201 1.8320176075 0.9656511605
| 22> O -2.8508738161 -0.7458794712 -1.0778895975
| 23> H -1.9128533917 -2.3467810483 -0.1512103443
| 24> H -0.9267818257 -1.4596558781 -1.3436848247
| 25> H 1.1687635996 -3.081520246 0.1447094834
| 26> H 3.2678331328 -0.2796097345 -0.906565893
| 27> H 0.9265174862 2.4107157631 -1.3650602938
| 28> H -1.319861396 2.7428738135 0.7741817212
| 29> H -3.2685486397 -1.3434977082 -1.7144900785
| 30> *
| 31>
| 32>                          ****END OF INPUT****

CARTESIAN COORDINATES (ANGSTROEM)
---------------------------------
  C     -1.691250   -1.355352   -0.562787
  C     -1.148884   -0.484436    0.581091
  H     -1.908060   -0.429107    1.368193
  C     -0.864536    0.962114    0.133006
  H     -1.204577    1.084425   -0.907359
  C      0.642399    1.272382    0.203417
  H      0.934573    1.385271    1.253488
  C      1.417205    0.098646   -0.401865
  H      1.037497   -0.099448   -1.416290
  C      1.161608   -1.151529    0.464873
  H      1.951747   -1.207617    1.229731
  O     -0.028066   -1.085655    1.211848
  O      1.201568   -2.264931   -0.376479
  O      2.782153    0.419044   -0.444253
  O      0.929454    2.504805   -0.401326
  O     -1.592313    1.832018    0.965651
  O     -2.850874   -0.745879   -1.077890
  H     -1.912853   -2.346781   -0.151210
  H     -0.926782   -1.459656   -1.343685
  H      1.168764   -3.081520    0.144709
  H      3.267833   -0.279610   -0.906566
  H      0.926517    2.410716   -1.365060
  H     -1.319861    2.742874    0.774182
  H     -3.268549   -1.343498   -1.714490

 Total Charge           Charge          ....    0
 Multiplicity           Mult            ....    1
 Number of Electrons    NEL             ....   96
 Basis Dimension        Dim             ....  192

ORBITAL ENERGIES
----------------

  NO   OCC          E(Eh)            E(eV)
   0   2.0000     -18.769838      -510.7533
   1   2.0000     -18.767092      -510.6785
   2   2.0000     -18.755835      -510.3722
   3   2.0000     -18.751638      -510.2580
   4   2.0000     -18.751227      -510.2468
   5   2.0000     -18.737190      -509.8649
   6   2.0000      -9.986419      -271.7443
   7   2.0000      -9.946084      -270.6467
   8   2.0000      -9.938373      -270.4369
   9   2.0000      -9.937410      -270.4107
  10   2.0000      -9.931866      -270.2598
  11   2.0000      -9.929697      -270.2008
  12   2.0000      -0.981424       -26.7059
  13   2.0000      -0.942480       -25.6462
  14   2.0000      -0.930690       -25.3254
  15   2.0000      -0.924394       -25.1540
  16   2.0000      -0.915202       -24.9039
  17   2.0000      -0.907463       -24.6933
  18   2.0000      -0.700104       -19.0508
  19   2.0000      -0.691372       -18.8132
  20   2.0000      -0.618065       -16.8184
  21   2.0000      -0.580173       -15.7873
  22   2.0000      -0.566568       -15.4171
  23   2.0000      -0.524508       -14.2726
  24   2.0000      -0.511702       -13.9241
  25   2.0000      -0.474295       -12.9062
  26   2.0000      -0.466345       -12.6899
  27   2.0000      -0.450031       -12.2460
  28   2.0000      -0.439588       -11.9618
  29   2.0000      -0.437485       -11.9046
  30   2.0000      -0.426930       -11.6174
  31   2.0000      -0.396138       -10.7795
  32   2.0000      -0.384298       -10.4573
  33   2.0000      -0.368542       -10.0285
  34   2.0000      -0.359495        -9.7824
  35   2.0000      -0.343745        -9.3538
  36   2.0000      -0.329615        -8.9693
  37   2.0000      -0.313997        -8.5443
  38   2.0000      -0.299135        -8.1399
  39   2.0000      -0.288132        -7.8405
  40   2.0000      -0.275213        -7.4889
  41   2.0000      -0.262226        -7.1355
  42   2.0000      -0.257378        -7.0036
  43   2.0000      -0.238439        -6.4882
  44   2.0000      -0.230078        -6.2607
  45   2.0000      -0.218109        -5.9350
  46   2.0000      -0.214455        -5.8356
  47   2.0000      -0.200762        -5.4630
  48   0.0000       0.017736         0.4826
  49   0.0000       0.022036         0.5996
  50   0.0000       0.024287         0.6609
  51   0.0000       0.043813         1.1922
  52   0.0000       0.049996         1.3605

MULLIKEN ATOMIC CHARGES
-----------------------
   0 C :   -0.008629
   1 C :    0.050116
   2 H :    0.088826
   3 C :    0.076342
   4 H :    0.050837
   5 C :    0.073860
   6 H :    0.071465
   7 C :   -0.022195
   8 H :    0.052760
   9 C :    0.189260
  10 H :    0.065752
  11 O :   -0.306793
  12 O :   -0.397019
  13 O :   -0.398392
  14 O :   -0.410787
  15 O :   -0.415386
  16 O :   -0.427637
  17 H :    0.070433
  18 H :    0.088837
  19 H :    0.303361
  20 H :    0.304293
  21 H :    0.297263
  22 H :    0.299338
  23 H :    0.304095
Sum of atomic charges:    0.0000000

LOEWDIN ATOMIC CHARGES
----------------------
   0 C :   -0.144922
   1 C :   -0.053346
   2 H :    0.128992
   3 C :   -0.071991
   4 H :    0.099076
   5 C :   -0.074789
   6 H :    0.123651
   7 C :   -0.091268
   8 H :    0.099233
   9 C :   -0.012596
  10 H :    0.101745
  11 O :   -0.139590
  12 O :   -0.313119
  13 O :   -0.311381
  14 O :   -0.306570
  15 O :   -0.319212
  16 O :   -0.338911
  17 H :    0.098134
  18 H :    0.094993
  19 H :    0.286342
  20 H :    0.289367
  21 H :    0.284487
  22 H :    0.282673
  23 H :    0.289002

  Mayer bond orders larger than 0.100000
B(  0-C ,  1-C ) :   1.0532 B(  0-C , 16-O ) :   1.0725 B(  0-C , 17-H ) :   0.9114
B(  0-C , 18-H ) :   0.9022 B(  1-C ,  2-H ) :   0.8812 B(  1-C ,  3-C ) :   0.9844
B(  1-C , 11-O ) :   1.0233 B(  3-C ,  4-H ) :   0.8777 B(  3-C ,  5-C ) :   1.0152
B(  3-C , 15-O ) :   1.0748 B(  5-C ,  6-H ) :   0.8558 B(  5-C ,  7-C ) :   1.0066
B(  5-C , 14-O ) :   1.0550 B(  7-C ,  8-H ) :   0.8758 B(  7-C ,  9-C ) :   0.9917
B(  7-C , 13-O ) :   1.0958 B(  9-C , 10-H ) :   0.8898 B(  9-C , 11-O ) :   1.0622
B(  9-C , 12-O ) :   1.1131 B( 12-O , 19-H ) :   0.8401 B( 13-O , 20-H ) :   0.8461
B( 14-O , 21-H ) :   0.8477 B( 15-O , 22-H ) :   0.8386 B( 16-O , 23-H ) :   0.8498

Dispersion correction           -0.024515385
FINAL SINGLE POINT ENERGY      -685.687458824150

DIPOLE MOMENT
-------------

Method             : SCF
Type of density    : Electron Density
Multiplicity       :   1
Irrep              :   0
Energy             :  -685.8165777864256825 Eh
Relativity type    :
Basis              : AO
                                X                 Y                 Z
Electronic contribution:      1.431574951       1.223055456       1.757671901
Nuclear contribution   :     -1.169685147      -2.451944124      -2.848557532
                        -----------------------------------------
Total Dipole Moment    :      0.261889804      -1.228888667      -1.090885632
                        -----------------------------------------
Magnitude (a.u.)       :      1.663966672
Magnitude (Debye)      :      4.229467160

Rotational constants in cm-1:             0.036261             0.029356             0.019740
Rotational constants in MHz :          1087.077148           880.079984           591.791921

                             ****ORCA TERMINATED NORMALLY****
TOTAL RUN TIME: 0 days 0 hours 0 minutes 11 seconds 946 msec
