                         Program Version 6.0.0  -   RELEASE  -
|  1> ! r2scan-3c def2/J RI DEFGRID2 scfconv6 printgap
|  2> %output
|  3>     printlevel normal
|  4> end
|  5> * xyz 0 1
|  6> C 1.586986013 1.5182250812 1.339110108
|  7> C 0.2484496528 0.7801914921 1.4375494002
|  8> H -0.2198980623 1.1369088126 2.3581433784
|  9> C 0.2474157533 -0.7787271225 1.438531731
| 10> H -0.2199143858 -1.1338944563 2.3602487445
| 11> C 1.5850460042 -1.5184362969 1.338847022
| 12> O 2.3060461898 -1.2544463118 0.1584638857
| 13> S 3.3987217116 -0.0008170705 0.1989259807
| 14> O 3.9317239961 -0.0012332924 1.547374633
| 15> O 2.3079242452 1.2540853646 0.1586901962
| 16> C -0.7125333772 -1.1148851881 0.2623418421
| 17> C -0.069626778 -0.6720810882 -1.0376046875
| 18> C -0.0678882773 0.6686153811 -1.0389327311
| 19> C -0.70989636 1.1158339823 0.2599627191
| 20> C -1.7721029851 0.0018896098 0.4110633644
| 21> Cl -2.978098801 0.0018048575 -0.890899954
| 22> Cl -2.6304398594 0.0042971245 1.9439599745
| 23> Cl -1.3144547171 2.7612232417 0.2629607404
| 24> Cl 0.5062631905 1.7306691853 -2.220486791
| 25> Cl 0.5015336888 -1.7381202367 -2.2169762975
| 26> Cl -1.3209999171 -2.7586576248 0.2694574268
| 27> H 2.2129954081 1.2555181648 2.200585919
| 28> H 1.3936422452 2.5937323019 1.3559684773
| 29> H 2.2116133797 -1.257541548 2.2004071929
| 30> H 1.3900700541 -2.5936767317 1.3547566704
| 31> *
| 32>
| 33>                          ****END OF INPUT****

CARTESIAN COORDINATES (ANGSTROEM)
---------------------------------
  C      1.586986    1.518225    1.339110
  C      0.248450    0.780191    1.437549
  H     -0.219898    1.136909    2.358143
  C      0.247416   -0.778727    1.438532
  H     -0.219914   -1.133894    2.360249
  C      1.585046   -1.518436    1.338847
  O      2.306046   -1.254446    0.158464
  S      3.398722   -0.000817    0.198926
  O      3.931724   -0.001233    1.547375
  O      2.307924    1.254085    0.158690
  C     -0.712533   -1.114885    0.262342
  C     -0.069627   -0.672081   -1.037605
  C     -0.067888    0.668615   -1.038933
  C     -0.709896    1.115834    0.259963
  C     -1.772103    0.001890    0.411063
  Cl    -2.978099    0.001805   -0.890900
  Cl    -2.630440    0.004297    1.943960
  Cl    -1.314455    2.761223    0.262961
  Cl     0.506263    1.730669   -2.220487
  Cl     0.501534   -1.738120   -2.216976
  Cl    -1.321000   -2.758658    0.269457
  H      2.212995    1.255518    2.200586
  H      1.393642    2.593732    1.355968
  H      2.211613   -1.257542    2.200407
  H      1.390070   -2.593677    1.354757

 Total Charge           Charge          ....    0
 Multiplicity           Mult            ....    1
 Number of Electrons    NEL             ....  202
 Basis Dimension        Dim             ....  462

ORBITAL ENERGIES
----------------

  NO   OCC          E(Eh)            E(eV)
   0   2.0000    -101.246136     -2755.0474
   1   2.0000    -101.246111     -2755.0467
   2   2.0000    -101.245553     -2755.0315
   3   2.0000    -101.238160     -2754.8304
   4   2.0000    -101.238139     -2754.8298
   5   2.0000    -101.233513     -2754.7039
   6   2.0000     -88.755643     -2415.1638
   7   2.0000     -19.010907      -517.3131
   8   2.0000     -19.010862      -517.3119
   9   2.0000     -18.973947      -516.3073
  10   2.0000     -10.198360      -277.5115
  11   2.0000     -10.160174      -276.4724
  12   2.0000     -10.160160      -276.4720
  13   2.0000     -10.128017      -275.5974
  14   2.0000     -10.127333      -275.5787
  15   2.0000     -10.117973      -275.3241
  16   2.0000     -10.117961      -275.3237
  17   2.0000     -10.094546      -274.6866
  18   2.0000     -10.094443      -274.6838
  19   2.0000      -9.401787      -255.8356
  20   2.0000      -9.401633      -255.8314
  21   2.0000      -9.401609      -255.8308
  22   2.0000      -9.394019      -255.6243
  23   2.0000      -9.393995      -255.6236
  24   2.0000      -9.389389      -255.4983
  25   2.0000      -8.030456      -218.5198
  26   2.0000      -7.148425      -194.5185
  27   2.0000      -7.148251      -194.5138
  28   2.0000      -7.148227      -194.5131
  29   2.0000      -7.140628      -194.3064
  30   2.0000      -7.140605      -194.3057
  31   2.0000      -7.137782      -194.2289
  32   2.0000      -7.137757      -194.2282
  33   2.0000      -7.137615      -194.2244
  34   2.0000      -7.137536      -194.2222
  35   2.0000      -7.137188      -194.2128
  36   2.0000      -7.137164      -194.2121
  37   2.0000      -7.136399      -194.1913
  38   2.0000      -7.129940      -194.0155
  39   2.0000      -7.129916      -194.0149
  40   2.0000      -7.129755      -194.0105
  41   2.0000      -7.129732      -194.0099
  42   2.0000      -7.125109      -193.8841
  43   2.0000      -7.124935      -193.8793
  44   2.0000      -5.977825      -162.6649
  45   2.0000      -5.977185      -162.6475
  46   2.0000      -5.967922      -162.3954
  47   2.0000      -1.111587       -30.2478
  48   2.0000      -1.029528       -28.0149
  49   2.0000      -1.011111       -27.5137
  50   2.0000      -0.967009       -26.3136
  51   2.0000      -0.885904       -24.1067
  52   2.0000      -0.874378       -23.7930
  53   2.0000      -0.850411       -23.1409
  54   2.0000      -0.836305       -22.7570
  55   2.0000      -0.818321       -22.2677
  56   2.0000      -0.809797       -22.0357
  57   2.0000      -0.776684       -21.1347
  58   2.0000      -0.736946       -20.0533
  59   2.0000      -0.718310       -19.5462
  60   2.0000      -0.669643       -18.2219
  61   2.0000      -0.666615       -18.1395
  62   2.0000      -0.597760       -16.2659
  63   2.0000      -0.586822       -15.9682
  64   2.0000      -0.561325       -15.2744
  65   2.0000      -0.531835       -14.4720
  66   2.0000      -0.524344       -14.2681
  67   2.0000      -0.523285       -14.2393
  68   2.0000      -0.506292       -13.7769
  69   2.0000      -0.497618       -13.5409
  70   2.0000      -0.487854       -13.2752
  71   2.0000      -0.474377       -12.9085
  72   2.0000      -0.448142       -12.1946
  73   2.0000      -0.445710       -12.1284
  74   2.0000      -0.445379       -12.1194
  75   2.0000      -0.434355       -11.8194
  76   2.0000      -0.418843       -11.3973
  77   2.0000      -0.416478       -11.3329
  78   2.0000      -0.410144       -11.1606
  79   2.0000      -0.408635       -11.1195
  80   2.0000      -0.382508       -10.4086
  81   2.0000      -0.376016       -10.2319
  82   2.0000      -0.361270        -9.8306
  83   2.0000      -0.360786        -9.8175
  84   2.0000      -0.344649        -9.3784
  85   2.0000      -0.335374        -9.1260
  86   2.0000      -0.332255        -9.0411
  87   2.0000      -0.322435        -8.7739
  88   2.0000      -0.314050        -8.5457
  89   2.0000      -0.310208        -8.4412
  90   2.0000      -0.307881        -8.3779
  91   2.0000      -0.304887        -8.2964
  92   2.0000      -0.303062        -8.2467
  93   2.0000      -0.299096        -8.1388
  94   2.0000      -0.298239        -8.1155
  95   2.0000      -0.294059        -8.0017
  96   2.0000      -0.289476        -7.8770
  97   2.0000      -0.289413        -7.8753
  98   2.0000      -0.283035        -7.7018
  99   2.0000      -0.270656        -7.3649
 100   2.0000      -0.232452        -6.3254
 101   0.0000      -0.065299        -1.7769
 102   0.0000      -0.065147        -1.7727
 103   0.0000      -0.044506        -1.2111
 104   0.0000      -0.027703        -0.7538
 105   0.0000      -0.020614        -0.5609

MULLIKEN ATOMIC CHARGES
-----------------------
   0 C :   -0.288157
   1 C :   -0.146815
   2 H :    0.223197
   3 C :   -0.147434
   4 H :    0.223066
   5 C :   -0.288422
   6 O :   -0.241258
   7 S :    0.684415
   8 O :   -0.515720
   9 O :   -0.241450
  10 C :    0.217161
  11 C :   -0.091466
  12 C :   -0.091632
  13 C :    0.216719
  14 C :    0.116400
  15 Cl:   -0.069465
  16 Cl:   -0.071442
  17 Cl:   -0.090433
  18 Cl:   -0.032321
  19 Cl:   -0.032257
  20 Cl:   -0.090267
  21 H :    0.202387
  22 H :    0.176404
  23 H :    0.202315
  24 H :    0.176474
Sum of atomic charges:   -0.0000000

LOEWDIN ATOMIC CHARGES
----------------------
   0 C :    0.026174
   1 C :   -0.176065
   2 H :    0.194491
   3 C :   -0.176034
   4 H :    0.194469
   5 C :    0.026160
   6 O :   -0.700754
   7 S :    1.119233
   8 O :   -0.578243
   9 O :   -0.700628
  10 C :   -0.226348
  11 C :   -0.230901
  12 C :   -0.230991
  13 C :   -0.226209
  14 C :   -0.291234
  15 Cl:    0.169537
  16 Cl:    0.170679
  17 Cl:    0.169542
  18 Cl:    0.244865
  19 Cl:    0.244922
  20 Cl:    0.169606
  21 H :    0.203312
  22 H :    0.200572
  23 H :    0.203253
  24 H :    0.200593

  Mayer bond orders larger than 0.100000
B(  0-C ,  1-C ) :   0.8656 B(  0-C ,  9-O ) :   0.8858 B(  0-C , 21-H ) :   0.9659
B(  0-C , 22-H ) :   0.9485 B(  1-C ,  2-H ) :   0.9290 B(  1-C ,  3-C ) :   0.9118
B(  1-C , 13-C ) :   0.9663 B(  3-C ,  4-H ) :   0.9289 B(  3-C ,  5-C ) :   0.8657
B(  3-C , 10-C ) :   0.9674 B(  5-C ,  6-O ) :   0.8858 B(  5-C , 23-H ) :   0.9657
B(  5-C , 24-H ) :   0.9485 B(  6-O ,  7-S ) :   0.8423 B(  7-S ,  8-O ) :   1.6386
B(  7-S ,  9-O ) :   0.8426 B( 10-C , 11-C ) :   0.9842 B( 10-C , 14-C ) :   0.8596
B( 10-C , 20-Cl) :   0.9978 B( 11-C , 12-C ) :   1.6144 B( 11-C , 19-Cl) :   1.0856
B( 12-C , 13-C ) :   0.9843 B( 12-C , 18-Cl) :   1.0863 B( 13-C , 14-C ) :   0.8590
B( 13-C , 17-Cl) :   0.9980 B( 14-C , 15-Cl) :   1.0599 B( 14-C , 16-Cl) :   1.0205

Dispersion correction           -0.019469881
FINAL SINGLE POINT ENERGY     -3731.292559944495

DIPOLE MOMENT
-------------

Method             : SCF
Type of density    : Electron Density
Multiplicity       :   1
Irrep              :   0
Energy             : -3731.3036926046665940 Eh
Relativity type    :
Basis              : AO
                                X                 Y                 Z
Electronic contribution:    -15.776768341       0.000497949     -14.154679440
Nuclear contribution   :     16.090509998      -0.000650937      14.948504835
                        -----------------------------------------
Total Dipole Moment    :      0.313741656      -0.000152988       0.793825394
                        -----------------------------------------
Magnitude (a.u.)       :      0.853576363
Magnitude (Debye)      :      2.169618692

Rotational constants in cm-1:             0.010296             0.007272             0.006615
Rotational constants in MHz :           308.664222           218.009923           198.318687

                             ****ORCA TERMINATED NORMALLY****
TOTAL RUN TIME: 0 days 0 hours 1 minutes 23 seconds 559 msec
