                         Program Version 6.0.0  -   RELEASE  -
|  1> ! r2scan-3c def2/J RI DEFGRID2 scfconv6 printgap
|  2> %output
|  3>     printlevel normal
|  4> end
|  5> %cpcm
|  6>     smd true
|  7>     smdsolvent "water"
|  8> end
|  9> * xyz 0 1
| 10> C 1.586986013 1.5182250812 1.339110108
| 11> C 0.2484496528 0.7801914921 1.4375494002
| 12> H -0.2198980623 1.1369088126 2.3581433784
| 13> C 0.2474157533 -0.7787271225 1.438531731
| 14> H -0.2199143858 -1.1338944563 2.3602487445
| 15> C 1.5850460042 -1.5184362969 1.338847022
| 16> O 2.3060461898 -1.2544463118 0.1584638857
| 17> S 3.3987217116 -0.0008170705 0.1989259807
| 18> O 3.9317239961 -0.0012332924 1.547374633
| 19> O 2.3079242452 1.2540853646 0.1586901962
| 20> C -0.7125333772 -1.1148851881 0.2623418421
| 21> C -0.069626778 -0.6720810882 -1.0376046875
| 22> C -0.0678882773 0.6686153811 -1.0389327311
| 23> C -0.70989636 1.1158339823 0.2599627191
| 24> C -1.7721029851 0.0018896098 0.4110633644
| 25> Cl -2.978098801 0.0018048575 -0.890899954
| 26> Cl -2.6304398594 0.0042971245 1.9439599745
| 27> Cl -1.3144547171 2.7612232417 0.2629607404
| 28> Cl 0.5062631905 1.7306691853 -2.220486791
| 29> Cl 0.5015336888 -1.7381202367 -2.2169762975
| 30> Cl -1.3209999171 -2.7586576248 0.2694574268
| 31> H 2.2129954081 1.2555181648 2.200585919
| 32> H 1.3936422452 2.5937323019 1.3559684773
| 33> H 2.2116133797 -1.257541548 2.2004071929
| 34> H 1.3900700541 -2.5936767317 1.3547566704
| 35> *
| 36>
| 37>                          ****END OF INPUT****

CARTESIAN COORDINATES (ANGSTROEM)
---------------------------------
  C      1.586986    1.518225    1.339110
  C      0.248450    0.780191    1.437549
  H     -0.219898    1.136909    2.358143
  C      0.247416   -0.778727    1.438532
  H     -0.219914   -1.133894    2.360249
  C      1.585046   -1.518436    1.338847
  O      2.306046   -1.254446    0.158464
  S      3.398722   -0.000817    0.198926
  O      3.931724   -0.001233    1.547375
  O      2.307924    1.254085    0.158690
  C     -0.712533   -1.114885    0.262342
  C     -0.069627   -0.672081   -1.037605
  C     -0.067888    0.668615   -1.038933
  C     -0.709896    1.115834    0.259963
  C     -1.772103    0.001890    0.411063
  Cl    -2.978099    0.001805   -0.890900
  Cl    -2.630440    0.004297    1.943960
  Cl    -1.314455    2.761223    0.262961
  Cl     0.506263    1.730669   -2.220487
  Cl     0.501534   -1.738120   -2.216976
  Cl    -1.321000   -2.758658    0.269457
  H      2.212995    1.255518    2.200586
  H      1.393642    2.593732    1.355968
  H      2.211613   -1.257542    2.200407
  H      1.390070   -2.593677    1.354757

 Total Charge           Charge          ....    0
 Multiplicity           Mult            ....    1
 Number of Electrons    NEL             ....  202
 Basis Dimension        Dim             ....  462

ORBITAL ENERGIES
----------------

  NO   OCC          E(Eh)            E(eV)
   0   2.0000    -101.247863     -2755.0944
   1   2.0000    -101.247843     -2755.0939
   2   2.0000    -101.242982     -2754.9616
   3   2.0000    -101.236164     -2754.7761
   4   2.0000    -101.235946     -2754.7701
   5   2.0000    -101.235934     -2754.7698
   6   2.0000     -88.752397     -2415.0755
   7   2.0000     -19.005296      -517.1604
   8   2.0000     -19.005253      -517.1592
   9   2.0000     -18.973103      -516.2844
  10   2.0000     -10.196211      -277.4530
  11   2.0000     -10.155302      -276.3398
  12   2.0000     -10.155285      -276.3393
  13   2.0000     -10.126738      -275.5625
  14   2.0000     -10.126054      -275.5439
  15   2.0000     -10.100756      -274.8555
  16   2.0000     -10.100747      -274.8553
  17   2.0000     -10.079205      -274.2691
  18   2.0000     -10.079103      -274.2663
  19   2.0000      -9.403416      -255.8800
  20   2.0000      -9.403396      -255.8794
  21   2.0000      -9.399208      -255.7655
  22   2.0000      -9.392165      -255.5738
  23   2.0000      -9.391882      -255.5661
  24   2.0000      -9.391868      -255.5657
  25   2.0000      -8.027167      -218.4303
  26   2.0000      -7.149955      -194.5602
  27   2.0000      -7.149935      -194.5596
  28   2.0000      -7.145874      -194.4491
  29   2.0000      -7.139589      -194.2781
  30   2.0000      -7.139569      -194.2776
  31   2.0000      -7.139014      -194.2624
  32   2.0000      -7.138995      -194.2619
  33   2.0000      -7.138991      -194.2618
  34   2.0000      -7.138410      -194.2460
  35   2.0000      -7.138396      -194.2456
  36   2.0000      -7.135063      -194.1549
  37   2.0000      -7.134902      -194.1506
  38   2.0000      -7.127971      -193.9620
  39   2.0000      -7.127843      -193.9585
  40   2.0000      -7.127829      -193.9581
  41   2.0000      -7.127788      -193.9570
  42   2.0000      -7.127645      -193.9531
  43   2.0000      -7.127631      -193.9527
  44   2.0000      -5.974439      -162.5728
  45   2.0000      -5.973894      -162.5579
  46   2.0000      -5.964711      -162.3080
  47   2.0000      -1.107366       -30.1330
  48   2.0000      -1.022475       -27.8230
  49   2.0000      -1.008144       -27.4330
  50   2.0000      -0.963601       -26.2209
  51   2.0000      -0.885926       -24.1073
  52   2.0000      -0.872413       -23.7396
  53   2.0000      -0.847201       -23.0535
  54   2.0000      -0.836435       -22.7606
  55   2.0000      -0.813779       -22.1440
  56   2.0000      -0.808867       -22.0104
  57   2.0000      -0.769538       -20.9402
  58   2.0000      -0.724422       -19.7125
  59   2.0000      -0.711266       -19.3545
  60   2.0000      -0.665953       -18.1215
  61   2.0000      -0.660075       -17.9616
  62   2.0000      -0.587533       -15.9876
  63   2.0000      -0.577911       -15.7258
  64   2.0000      -0.556631       -15.1467
  65   2.0000      -0.527069       -14.3423
  66   2.0000      -0.515290       -14.0218
  67   2.0000      -0.515253       -14.0207
  68   2.0000      -0.502727       -13.6799
  69   2.0000      -0.489548       -13.3213
  70   2.0000      -0.482862       -13.1393
  71   2.0000      -0.469905       -12.7868
  72   2.0000      -0.444098       -12.0845
  73   2.0000      -0.443120       -12.0579
  74   2.0000      -0.432824       -11.7777
  75   2.0000      -0.429454       -11.6860
  76   2.0000      -0.414620       -11.2824
  77   2.0000      -0.412771       -11.2321
  78   2.0000      -0.402315       -10.9476
  79   2.0000      -0.401901       -10.9363
  80   2.0000      -0.380840       -10.3632
  81   2.0000      -0.364705        -9.9241
  82   2.0000      -0.356163        -9.6917
  83   2.0000      -0.353241        -9.6122
  84   2.0000      -0.335798        -9.1375
  85   2.0000      -0.333720        -9.0810
  86   2.0000      -0.331232        -9.0133
  87   2.0000      -0.321448        -8.7471
  88   2.0000      -0.310037        -8.4365
  89   2.0000      -0.309145        -8.4123
  90   2.0000      -0.308189        -8.3863
  91   2.0000      -0.302161        -8.2222
  92   2.0000      -0.300289        -8.1713
  93   2.0000      -0.296263        -8.0617
  94   2.0000      -0.295972        -8.0538
  95   2.0000      -0.292087        -7.9481
  96   2.0000      -0.289406        -7.8751
  97   2.0000      -0.288089        -7.8393
  98   2.0000      -0.280493        -7.6326
  99   2.0000      -0.263300        -7.1648
 100   2.0000      -0.231904        -6.3104
 101   0.0000      -0.063784        -1.7356
 102   0.0000      -0.063220        -1.7203
 103   0.0000      -0.040580        -1.1042
 104   0.0000      -0.027020        -0.7353
 105   0.0000      -0.015826        -0.4306

MULLIKEN ATOMIC CHARGES
-----------------------
   0 C :   -0.303356
   1 C :   -0.121499
   2 H :    0.260902
   3 C :   -0.122145
   4 H :    0.260809
   5 C :   -0.303557
   6 O :   -0.260247
   7 S :    0.687744
   8 O :   -0.550207
   9 O :   -0.260433
  10 C :    0.217804
  11 C :   -0.104374
  12 C :   -0.104612
  13 C :    0.217336
  14 C :    0.106263
  15 Cl:   -0.092201
  16 Cl:   -0.069717
  17 Cl:   -0.105910
  18 Cl:   -0.042852
  19 Cl:   -0.042777
  20 Cl:   -0.105739
  21 H :    0.220612
  22 H :    0.198789
  23 H :    0.220542
  24 H :    0.198826
Sum of atomic charges:    0.0000000

LOEWDIN ATOMIC CHARGES
----------------------
   0 C :    0.035554
   1 C :   -0.165054
   2 H :    0.207660
   3 C :   -0.165023
   4 H :    0.207658
   5 C :    0.035535
   6 O :   -0.708862
   7 S :    1.116307
   8 O :   -0.606037
   9 O :   -0.708742
  10 C :   -0.226276
  11 C :   -0.233025
  12 C :   -0.233126
  13 C :   -0.226143
  14 C :   -0.292785
  15 Cl:    0.152806
  16 Cl:    0.172203
  17 Cl:    0.160837
  18 Cl:    0.235669
  19 Cl:    0.235738
  20 Cl:    0.160916
  21 H :    0.212618
  22 H :    0.209503
  23 H :    0.212558
  24 H :    0.209509

  Mayer bond orders larger than 0.100000
B(  0-C ,  1-C ) :   0.8579 B(  0-C ,  9-O ) :   0.8723 B(  0-C , 21-H ) :   0.9536
B(  0-C , 22-H ) :   0.9419 B(  1-C ,  2-H ) :   0.9252 B(  1-C ,  3-C ) :   0.8726
B(  1-C , 13-C ) :   0.9611 B(  3-C ,  4-H ) :   0.9252 B(  3-C ,  5-C ) :   0.8580
B(  3-C , 10-C ) :   0.9623 B(  5-C ,  6-O ) :   0.8723 B(  5-C , 23-H ) :   0.9534
B(  5-C , 24-H ) :   0.9419 B(  6-O ,  7-S ) :   0.8555 B(  7-S ,  8-O ) :   1.6127
B(  7-S ,  9-O ) :   0.8558 B( 10-C , 11-C ) :   0.9730 B( 10-C , 14-C ) :   0.8603
B( 10-C , 20-Cl) :   0.9768 B( 11-C , 12-C ) :   1.6274 B( 11-C , 19-Cl) :   1.0788
B( 12-C , 13-C ) :   0.9732 B( 12-C , 18-Cl) :   1.0795 B( 13-C , 14-C ) :   0.8598
B( 13-C , 17-Cl) :   0.9771 B( 14-C , 15-Cl) :   1.0384 B( 14-C , 16-Cl) :   1.0413

Dispersion correction           -0.019469881
FINAL SINGLE POINT ENERGY     -3731.301531074560

DIPOLE MOMENT
-------------

Method             : SCF
Type of density    : Electron Density
Multiplicity       :   1
Irrep              :   0
Energy             : -3731.3126637347313590 Eh
Relativity type    :
Basis              : AO
                                X                 Y                 Z
Electronic contribution:    -15.681006223       0.000501051     -13.481594242
Nuclear contribution   :     16.090509998      -0.000650937      14.948504835
                        -----------------------------------------
Total Dipole Moment    :      0.409503775      -0.000149886       1.466910593
                        -----------------------------------------
Magnitude (a.u.)       :      1.522997062
Magnitude (Debye)      :      3.871150887

Rotational constants in cm-1:             0.010296             0.007272             0.006615
Rotational constants in MHz :           308.664222           218.009923           198.318687

                             ****ORCA TERMINATED NORMALLY****
TOTAL RUN TIME: 0 days 0 hours 1 minutes 57 seconds 650 msec
