                         Program Version 6.0.0  -   RELEASE  -
|  1> ! pbe def2-sv(p) def2/J RI DEFGRID1 loosescf d4 GCP(DFT/SV(P)) printgap
|  2> %output
|  3>     printlevel normal
|  4> end
|  5> * xyz 0 1
|  6> C -3.4487077118 0.5928656242 -0.0565388327
|  7> C -1.950048795 0.5165442558 -0.0419893328
|  8> C -1.18206723 1.4090658477 -0.6517097657
|  9> C 0.3136921482 1.3891954574 -0.6550339004
| 10> C 0.8567041906 0.0190470101 -0.2548974282
| 11> H 0.5798957311 -0.7014225189 -1.0354269556
| 12> C 0.1283257147 -0.4203240316 1.0211487629
| 13> C -1.3512671221 -0.6495823402 0.7142202928
| 14> H -1.8980616649 -0.7773645652 1.6649389132
| 15> O -1.4417022676 -1.8654135521 -0.0245577645
| 16> C 2.3561498694 -0.0426884853 -0.0969217279
| 17> C 3.1643694554 1.0011148827 -0.2004922473
| 18> C 2.9083272893 -1.4132203212 0.1798479236
| 19> H -3.8797559139 -0.2637593437 -0.5736829072
| 20> H -3.7796628116 1.4960873822 -0.5613469305
| 21> H -3.8348896134 0.5972681974 0.9621944739
| 22> H -1.6392099754 2.2405835354 -1.1725888087
| 23> H 0.6804534722 1.6669755445 -1.6454173454
| 24> H 0.6641199074 2.1475222323 0.052596431
| 25> H 0.5374844865 -1.3561920349 1.3993270109
| 26> H 0.2274212987 0.3479792754 1.788887529
| 27> H -2.3623695289 -2.0182162716 -0.2718166999
| 28> H 4.2306880504 0.8889311166 -0.0930407896
| 29> H 2.8206747058 2.0007385851 -0.3938468245
| 30> H 2.8511529792 -1.634794025 1.2450127848
| 31> H 2.3396950698 -2.1723825677 -0.3525100377
| 32> H 3.9514870324 -1.4748917459 -0.1185773978
| 33> *
| 34>
| 35>                          ****END OF INPUT****

CARTESIAN COORDINATES (ANGSTROEM)
---------------------------------
  C     -3.448708    0.592866   -0.056539
  C     -1.950049    0.516544   -0.041989
  C     -1.182067    1.409066   -0.651710
  C      0.313692    1.389195   -0.655034
  C      0.856704    0.019047   -0.254897
  H      0.579896   -0.701423   -1.035427
  C      0.128326   -0.420324    1.021149
  C     -1.351267   -0.649582    0.714220
  H     -1.898062   -0.777365    1.664939
  O     -1.441702   -1.865414   -0.024558
  C      2.356150   -0.042688   -0.096922
  C      3.164369    1.001115   -0.200492
  C      2.908327   -1.413220    0.179848
  H     -3.879756   -0.263759   -0.573683
  H     -3.779663    1.496087   -0.561347
  H     -3.834890    0.597268    0.962194
  H     -1.639210    2.240584   -1.172589
  H      0.680453    1.666976   -1.645417
  H      0.664120    2.147522    0.052596
  H      0.537484   -1.356192    1.399327
  H      0.227421    0.347979    1.788888
  H     -2.362370   -2.018216   -0.271817
  H      4.230688    0.888931   -0.093041
  H      2.820675    2.000739   -0.393847
  H      2.851153   -1.634794    1.245013
  H      2.339695   -2.172383   -0.352510
  H      3.951487   -1.474892   -0.118577

 Total Charge           Charge          ....    0
 Multiplicity           Mult            ....    1
 Number of Electrons    NEL             ....   84
 Basis Dimension        Dim             ....  186

ORBITAL ENERGIES
----------------

  NO   OCC          E(Eh)            E(eV)
   0   2.0000     -18.743438      -510.0349
   1   2.0000      -9.937562      -270.4148
   2   2.0000      -9.892866      -269.1986
   3   2.0000      -9.891639      -269.1652
   4   2.0000      -9.890669      -269.1388
   5   2.0000      -9.886190      -269.0169
   6   2.0000      -9.884333      -268.9664
   7   2.0000      -9.883961      -268.9562
   8   2.0000      -9.882707      -268.9221
   9   2.0000      -9.873512      -268.6719
  10   2.0000      -9.861636      -268.3487
  11   2.0000      -0.919498       -25.0208
  12   2.0000      -0.761900       -20.7324
  13   2.0000      -0.720388       -19.6027
  14   2.0000      -0.677036       -18.4231
  15   2.0000      -0.661293       -17.9947
  16   2.0000      -0.610503       -16.6126
  17   2.0000      -0.602662       -16.3993
  18   2.0000      -0.550193       -14.9715
  19   2.0000      -0.534598       -14.5471
  20   2.0000      -0.489011       -13.3067
  21   2.0000      -0.469027       -12.7629
  22   2.0000      -0.429580       -11.6895
  23   2.0000      -0.425425       -11.5764
  24   2.0000      -0.403014       -10.9666
  25   2.0000      -0.395870       -10.7722
  26   2.0000      -0.381058       -10.3691
  27   2.0000      -0.378776       -10.3070
  28   2.0000      -0.366459        -9.9719
  29   2.0000      -0.364167        -9.9095
  30   2.0000      -0.352990        -9.6053
  31   2.0000      -0.344728        -9.3805
  32   2.0000      -0.331346        -9.0164
  33   2.0000      -0.323978        -8.8159
  34   2.0000      -0.308789        -8.4026
  35   2.0000      -0.300064        -8.1652
  36   2.0000      -0.291489        -7.9318
  37   2.0000      -0.276170        -7.5150
  38   2.0000      -0.258494        -7.0340
  39   2.0000      -0.224415        -6.1066
  40   2.0000      -0.207716        -5.6522
  41   2.0000      -0.206360        -5.6153
  42   0.0000      -0.015285        -0.4159
  43   0.0000      -0.005140        -0.1399
  44   0.0000       0.020079         0.5464
  45   0.0000       0.050956         1.3866
  46   0.0000       0.062010         1.6874

MULLIKEN ATOMIC CHARGES
-----------------------
   0 C :   -0.215648
   1 C :   -0.089692
   2 C :   -0.166364
   3 C :   -0.056256
   4 C :   -0.176415
   5 H :    0.092239
   6 C :   -0.107908
   7 C :    0.105444
   8 H :    0.053954
   9 O :   -0.429214
  10 C :   -0.025268
  11 C :   -0.239239
  12 C :   -0.231203
  13 H :    0.093291
  14 H :    0.103262
  15 H :    0.105997
  16 H :    0.037736
  17 H :    0.092132
  18 H :    0.097728
  19 H :    0.085659
  20 H :    0.083544
  21 H :    0.296097
  22 H :    0.073590
  23 H :    0.085496
  24 H :    0.121774
  25 H :    0.109295
  26 H :    0.099970
Sum of atomic charges:    0.0000000

LOEWDIN ATOMIC CHARGES
----------------------
   0 C :   -0.324829
   1 C :   -0.090988
   2 C :   -0.132160
   3 C :   -0.212440
   4 C :   -0.131078
   5 H :    0.131282
   6 C :   -0.207517
   7 C :   -0.035925
   8 H :    0.098269
   9 O :   -0.329140
  10 C :   -0.049206
  11 C :   -0.275468
  12 C :   -0.324959
  13 H :    0.117670
  14 H :    0.126440
  15 H :    0.125908
  16 H :    0.115532
  17 H :    0.126976
  18 H :    0.128979
  19 H :    0.122655
  20 H :    0.122954
  21 H :    0.281581
  22 H :    0.115912
  23 H :    0.116221
  24 H :    0.131264
  25 H :    0.126732
  26 H :    0.125335

  Mayer bond orders larger than 0.100000
B(  0-C ,  1-C ) :   1.1099 B(  0-C , 13-H ) :   0.9285 B(  0-C , 14-H ) :   0.9418
B(  0-C , 15-H ) :   0.9322 B(  1-C ,  2-C ) :   1.9258 B(  1-C ,  7-C ) :   0.9835
B(  2-C ,  3-C ) :   1.0497 B(  2-C , 16-H ) :   0.9242 B(  3-C ,  4-C ) :   1.1200
B(  3-C , 17-H ) :   0.8947 B(  3-C , 18-H ) :   0.8701 B(  4-C ,  5-H ) :   0.8656
B(  4-C ,  6-C ) :   1.0647 B(  4-C , 10-C ) :   1.0107 B(  6-C ,  7-C ) :   1.0853
B(  6-C , 19-H ) :   0.8936 B(  6-C , 20-H ) :   0.9113 B(  7-C ,  8-H ) :   0.8934
B(  7-C ,  9-O ) :   1.0356 B(  9-O , 21-H ) :   0.8480 B( 10-C , 11-C ) :   2.0522
B( 10-C , 12-C ) :   1.1076 B( 11-C , 22-H ) :   0.9000 B( 11-C , 23-H ) :   0.8941
B( 12-C , 24-H ) :   0.9269 B( 12-C , 25-H ) :   0.9358 B( 12-C , 26-H ) :   0.9368

Dispersion correction           -0.028316755
FINAL SINGLE POINT ENERGY      -464.791956681748

DIPOLE MOMENT
-------------

Method             : SCF
Type of density    : Electron Density
Multiplicity       :   1
Irrep              :   0
Energy             :  -464.8822078697803590 Eh
Relativity type    :
Basis              : AO
                                X                 Y                 Z
Electronic contribution:     -1.997645260      -0.792113208      -0.742625190
Nuclear contribution   :      1.375666912       0.898367492       0.839015742
                        -----------------------------------------
Total Dipole Moment    :     -0.621978349       0.106254284       0.096390552
                        -----------------------------------------
Magnitude (a.u.)       :      0.638308842
Magnitude (Debye)      :      1.622452138

Rotational constants in cm-1:             0.071178             0.023849             0.019220
Rotational constants in MHz :          2133.857879           714.987307           576.198576

                             ****ORCA TERMINATED NORMALLY****
TOTAL RUN TIME: 0 days 0 hours 0 minutes 12 seconds 316 msec
