                         Program Version 6.0.0  -   RELEASE  -
|  1> ! wb97x-v def2-tzvp def2/J RIJCOSX DEFGRID2 scfconv7 GCP(DFT/TZ) printgap
|  2> %output
|  3>     printlevel normal
|  4> end
|  5> * xyz 0 1
|  6> C -3.3721515310408137 -0.15646725888159319 -0.04826092404738004
|  7> C -2.1893456549776578 0.7966610780491676 0.06250282039743957
|  8> C -0.8179795109227724 0.16044237004177786 0.005458058662443028
|  9> C -0.6246842555852171 -1.2140899162130891 -0.150139232702179
| 10> C 0.6671506779269826 -1.741823426699985 -0.19517569471957377
| 11> C 1.7818527583551544 -0.921427806558511 -0.08625534968814058
| 12> C 1.5877581165061205 0.45175477293756733 0.06957229911934347
| 13> C 0.30574779676311037 0.9887818979618265 0.11461117459304732
| 14> O 2.7132831710293006 1.2429794407626287 0.17680796554645842
| 15> H -3.3730837520533656 -0.8938694080424228 0.7609117700316035
| 16> H -3.368157656268213 -0.6974293192470719 -1.0000810691176187
| 17> H -4.309286737088285 0.4046781449380645 0.011267437828389789
| 18> H -2.263293197464871 1.3616062203141095 1.000606986435436
| 19> H -2.249918340742823 1.5477942851286486 -0.7355514015714599
| 20> H -1.4743653413448439 -1.881357101071115 -0.23701040169675378
| 21> H 0.8055406861942817 -2.812072330855898 -0.31617721688379324
| 22> H 2.788440823091967 -1.324884665638541 -0.11947827142837404
| 23> H 0.17940095153576563 2.0627457632680275 0.23569066990597604
| 24> H 2.437118385749389 2.164113906834578 0.28370132312333013
| 25> *
| 26>
| 27>                          ****END OF INPUT****

CARTESIAN COORDINATES (ANGSTROEM)
---------------------------------
  C     -3.372152   -0.156467   -0.048261
  C     -2.189346    0.796661    0.062503
  C     -0.817980    0.160442    0.005458
  C     -0.624684   -1.214090   -0.150139
  C      0.667151   -1.741823   -0.195176
  C      1.781853   -0.921428   -0.086255
  C      1.587758    0.451755    0.069572
  C      0.305748    0.988782    0.114611
  O      2.713283    1.242979    0.176808
  H     -3.373084   -0.893869    0.760912
  H     -3.368158   -0.697429   -1.000081
  H     -4.309287    0.404678    0.011267
  H     -2.263293    1.361606    1.000607
  H     -2.249918    1.547794   -0.735551
  H     -1.474365   -1.881357   -0.237010
  H      0.805541   -2.812072   -0.316177
  H      2.788441   -1.324885   -0.119478
  H      0.179401    2.062746    0.235691
  H      2.437118    2.164114    0.283701

 Total Charge           Charge          ....    0
 Multiplicity           Mult            ....    1
 Number of Electrons    NEL             ....   66
 Basis Dimension        Dim             ....  339

ORBITAL ENERGIES
----------------

  NO   OCC          E(Eh)            E(eV)
   0   2.0000     -21.701061      -590.5159
   1   2.0000     -12.111877      -329.5809
   2   2.0000     -12.062704      -328.2429
   3   2.0000     -12.052670      -327.9698
   4   2.0000     -12.052127      -327.9551
   5   2.0000     -12.046351      -327.7979
   6   2.0000     -12.042147      -327.6835
   7   2.0000     -12.039887      -327.6220
   8   2.0000     -12.039517      -327.6119
   9   2.0000      -1.712995       -46.6130
  10   2.0000      -1.385301       -37.6960
  11   2.0000      -1.307464       -35.5779
  12   2.0000      -1.274369       -34.6774
  13   2.0000      -1.244942       -33.8766
  14   2.0000      -1.151696       -31.3393
  15   2.0000      -1.139437       -31.0056
  16   2.0000      -1.085403       -29.5353
  17   2.0000      -1.047997       -28.5174
  18   2.0000      -0.996111       -27.1056
  19   2.0000      -0.948331       -25.8054
  20   2.0000      -0.944568       -25.7030
  21   2.0000      -0.939678       -25.5699
  22   2.0000      -0.899345       -24.4724
  23   2.0000      -0.877624       -23.8814
  24   2.0000      -0.875726       -23.8297
  25   2.0000      -0.837364       -22.7858
  26   2.0000      -0.821703       -22.3597
  27   2.0000      -0.820222       -22.3194
  28   2.0000      -0.787686       -21.4340
  29   2.0000      -0.786004       -21.3883
  30   2.0000      -0.754674       -20.5357
  31   2.0000      -0.637979       -17.3603
  32   2.0000      -0.630520       -17.1573
  33   0.0000      -0.241253        -6.5648
  34   0.0000      -0.239161        -6.5079
  35   0.0000      -0.146215        -3.9787
  36   0.0000      -0.070746        -1.9251
  37   0.0000      -0.069568        -1.8930

MULLIKEN ATOMIC CHARGES
-----------------------
   0 C :   -0.367257
   1 C :   -0.154132
   2 C :    0.134077
   3 C :   -0.236024
   4 C :   -0.086278
   5 C :   -0.230335
   6 C :    0.289213
   7 C :   -0.300056
   8 O :   -0.392854
   9 H :    0.118164
  10 H :    0.117871
  11 H :    0.121173
  12 H :    0.104485
  13 H :    0.104545
  14 H :    0.125527
  15 H :    0.115913
  16 H :    0.121612
  17 H :    0.103278
  18 H :    0.311079
Sum of atomic charges:   -0.0000000

LOEWDIN ATOMIC CHARGES
----------------------
   0 C :   -0.302677
   1 C :   -0.242091
   2 C :   -0.138402
   3 C :   -0.137901
   4 C :   -0.132168
   5 C :   -0.128171
   6 C :   -0.257557
   7 C :   -0.122871
   8 O :    0.060456
   9 H :    0.119049
  10 H :    0.118887
  11 H :    0.118685
  12 H :    0.143071
  13 H :    0.143092
  14 H :    0.144045
  15 H :    0.142794
  16 H :    0.146364
  17 H :    0.141700
  18 H :    0.183693

  Mayer bond orders larger than 0.100000
B(  0-C ,  1-C ) :   0.9993 B(  0-C ,  9-H ) :   0.9797 B(  0-C , 10-H ) :   0.9795
B(  0-C , 11-H ) :   0.9815 B(  1-C ,  2-C ) :   0.9406 B(  1-C , 12-H ) :   0.9656
B(  1-C , 13-H ) :   0.9642 B(  2-C ,  3-C ) :   1.3929 B(  2-C ,  7-C ) :   1.3742
B(  3-C ,  4-C ) :   1.4316 B(  3-C , 14-H ) :   0.9619 B(  4-C ,  5-C ) :   1.4594
B(  4-C , 15-H ) :   0.9756 B(  5-C ,  6-C ) :   1.3935 B(  5-C , 16-H ) :   0.9738
B(  6-C ,  7-C ) :   1.3890 B(  6-C ,  8-O ) :   1.1445 B(  7-C , 17-H ) :   0.9570
B(  8-O , 18-H ) :   0.8919

FINAL SINGLE POINT ENERGY      -386.117766712914

DIPOLE MOMENT
-------------

Method             : SCF
Type of density    : Electron Density
Multiplicity       :   1
Irrep              :   0
Energy             :  -386.1288925562139411 Eh
Relativity type    :
Basis              : AO
                                X                 Y                 Z
Electronic contribution:      9.618281130       0.513448218       0.152897776
Nuclear contribution   :    -10.158571037      -0.058751460      -0.104553804
                        -----------------------------------------
Total Dipole Moment    :     -0.540289908       0.454696758       0.048343972
                        -----------------------------------------
Magnitude (a.u.)       :      0.707813157
Magnitude (Debye)      :      1.799118067

Rotational constants in cm-1:             0.118266             0.035616             0.027653
Rotational constants in MHz :          3545.521673          1067.730836           829.008488

                             ****ORCA TERMINATED NORMALLY****
TOTAL RUN TIME: 0 days 0 hours 3 minutes 48 seconds 220 msec
