                         Program Version 6.0.0  -   RELEASE  -
|  1> ! wb97x-v def2-tzvp def2/J RIJCOSX DEFGRID2 scfconv7 GCP(DFT/TZ) printgap
|  2> %output
|  3>     printlevel normal
|  4> end
|  5> %cpcm
|  6>     smd true
|  7>     smdsolvent "water"
|  8> end
|  9> * xyz 0 1
| 10> C -3.3721515310408137 -0.15646725888159319 -0.04826092404738004
| 11> C -2.1893456549776578 0.7966610780491676 0.06250282039743957
| 12> C -0.8179795109227724 0.16044237004177786 0.005458058662443028
| 13> C -0.6246842555852171 -1.2140899162130891 -0.150139232702179
| 14> C 0.6671506779269826 -1.741823426699985 -0.19517569471957377
| 15> C 1.7818527583551544 -0.921427806558511 -0.08625534968814058
| 16> C 1.5877581165061205 0.45175477293756733 0.06957229911934347
| 17> C 0.30574779676311037 0.9887818979618265 0.11461117459304732
| 18> O 2.7132831710293006 1.2429794407626287 0.17680796554645842
| 19> H -3.3730837520533656 -0.8938694080424228 0.7609117700316035
| 20> H -3.368157656268213 -0.6974293192470719 -1.0000810691176187
| 21> H -4.309286737088285 0.4046781449380645 0.011267437828389789
| 22> H -2.263293197464871 1.3616062203141095 1.000606986435436
| 23> H -2.249918340742823 1.5477942851286486 -0.7355514015714599
| 24> H -1.4743653413448439 -1.881357101071115 -0.23701040169675378
| 25> H 0.8055406861942817 -2.812072330855898 -0.31617721688379324
| 26> H 2.788440823091967 -1.324884665638541 -0.11947827142837404
| 27> H 0.17940095153576563 2.0627457632680275 0.23569066990597604
| 28> H 2.437118385749389 2.164113906834578 0.28370132312333013
| 29> *
| 30>
| 31>                          ****END OF INPUT****

CARTESIAN COORDINATES (ANGSTROEM)
---------------------------------
  C     -3.372152   -0.156467   -0.048261
  C     -2.189346    0.796661    0.062503
  C     -0.817980    0.160442    0.005458
  C     -0.624684   -1.214090   -0.150139
  C      0.667151   -1.741823   -0.195176
  C      1.781853   -0.921428   -0.086255
  C      1.587758    0.451755    0.069572
  C      0.305748    0.988782    0.114611
  O      2.713283    1.242979    0.176808
  H     -3.373084   -0.893869    0.760912
  H     -3.368158   -0.697429   -1.000081
  H     -4.309287    0.404678    0.011267
  H     -2.263293    1.361606    1.000607
  H     -2.249918    1.547794   -0.735551
  H     -1.474365   -1.881357   -0.237010
  H      0.805541   -2.812072   -0.316177
  H      2.788441   -1.324885   -0.119478
  H      0.179401    2.062746    0.235691
  H      2.437118    2.164114    0.283701

 Total Charge           Charge          ....    0
 Multiplicity           Mult            ....    1
 Number of Electrons    NEL             ....   66
 Basis Dimension        Dim             ....  339

ORBITAL ENERGIES
----------------

  NO   OCC          E(Eh)            E(eV)
   0   2.0000     -21.700160      -590.4914
   1   2.0000     -12.111919      -329.5821
   2   2.0000     -12.060591      -328.1854
   3   2.0000     -12.051091      -327.9268
   4   2.0000     -12.042407      -327.6906
   5   2.0000     -12.042085      -327.6818
   6   2.0000     -12.041554      -327.6673
   7   2.0000     -12.037865      -327.5670
   8   2.0000     -12.027605      -327.2878
   9   2.0000      -1.712532       -46.6004
  10   2.0000      -1.385070       -37.6897
  11   2.0000      -1.303650       -35.4741
  12   2.0000      -1.273567       -34.6555
  13   2.0000      -1.238391       -33.6983
  14   2.0000      -1.150580       -31.3089
  15   2.0000      -1.133476       -30.8435
  16   2.0000      -1.081566       -29.4309
  17   2.0000      -1.045561       -28.4512
  18   2.0000      -0.997083       -27.1320
  19   2.0000      -0.946672       -25.7602
  20   2.0000      -0.944928       -25.7128
  21   2.0000      -0.939452       -25.5638
  22   2.0000      -0.893416       -24.3111
  23   2.0000      -0.873049       -23.7569
  24   2.0000      -0.864892       -23.5349
  25   2.0000      -0.831386       -22.6232
  26   2.0000      -0.816482       -22.2176
  27   2.0000      -0.812513       -22.1096
  28   2.0000      -0.780186       -21.2299
  29   2.0000      -0.776210       -21.1217
  30   2.0000      -0.752071       -20.4649
  31   2.0000      -0.638119       -17.3641
  32   2.0000      -0.631853       -17.1936
  33   0.0000      -0.242259        -6.5922
  34   0.0000      -0.239186        -6.5086
  35   0.0000      -0.144552        -3.9335
  36   0.0000      -0.070240        -1.9113
  37   0.0000      -0.041168        -1.1202

MULLIKEN ATOMIC CHARGES
-----------------------
   0 C :   -0.399615
   1 C :   -0.151877
   2 C :    0.124862
   3 C :   -0.285307
   4 C :   -0.136976
   5 C :   -0.289312
   6 C :    0.297363
   7 C :   -0.346346
   8 O :   -0.472662
   9 H :    0.127789
  10 H :    0.127701
  11 H :    0.138427
  12 H :    0.122519
  13 H :    0.122397
  14 H :    0.165513
  15 H :    0.159694
  16 H :    0.155434
  17 H :    0.163595
  18 H :    0.376803
Sum of atomic charges:   -0.0000000

LOEWDIN ATOMIC CHARGES
----------------------
   0 C :   -0.306461
   1 C :   -0.240266
   2 C :   -0.144741
   3 C :   -0.148749
   4 C :   -0.145522
   5 C :   -0.147140
   6 C :   -0.270556
   7 C :   -0.116225
   8 O :    0.034330
   9 H :    0.120855
  10 H :    0.120776
  11 H :    0.121734
  12 H :    0.148618
  13 H :    0.148596
  14 H :    0.152298
  15 H :    0.152053
  16 H :    0.152398
  17 H :    0.158843
  18 H :    0.209158

  Mayer bond orders larger than 0.100000
B(  0-C ,  1-C ) :   0.9957 B(  0-C ,  9-H ) :   0.9766 B(  0-C , 10-H ) :   0.9763
B(  0-C , 11-H ) :   0.9782 B(  1-C ,  2-C ) :   0.9539 B(  1-C , 12-H ) :   0.9621
B(  1-C , 13-H ) :   0.9604 B(  2-C ,  3-C ) :   1.3542 B(  2-C ,  7-C ) :   1.3238
B(  3-C ,  4-C ) :   1.4168 B(  3-C , 14-H ) :   0.9695 B(  4-C ,  5-C ) :   1.4480
B(  4-C , 15-H ) :   0.9781 B(  5-C ,  6-C ) :   1.3593 B(  5-C , 16-H ) :   0.9807
B(  6-C ,  7-C ) :   1.3963 B(  6-C ,  8-O ) :   1.1040 B(  7-C , 17-H ) :   0.9758
B(  8-O , 18-H ) :   0.8505

FINAL SINGLE POINT ENERGY      -386.126656177134

DIPOLE MOMENT
-------------

Method             : SCF
Type of density    : Electron Density
Multiplicity       :   1
Irrep              :   0
Energy             :  -386.1377820204342015 Eh
Relativity type    :
Basis              : AO
                                X                 Y                 Z
Electronic contribution:      9.383103776       0.769094521       0.180066711
Nuclear contribution   :    -10.158571037      -0.058751460      -0.104553804
                        -----------------------------------------
Total Dipole Moment    :     -0.775467261       0.710343061       0.075512908
                        -----------------------------------------
Magnitude (a.u.)       :      1.054342894
Magnitude (Debye)      :      2.679926658

Rotational constants in cm-1:             0.118266             0.035616             0.027653
Rotational constants in MHz :          3545.521673          1067.730836           829.008488

                             ****ORCA TERMINATED NORMALLY****
TOTAL RUN TIME: 0 days 0 hours 3 minutes 54 seconds 168 msec
