                         Program Version 6.0.0  -   RELEASE  -
|  1> ! r2scan-3c def2/J RI DEFGRID2 scfconv6 printgap
|  2> %output
|  3>     printlevel normal
|  4> end
|  5> * xyz 0 1
|  6> C -0.9208759196 1.3817440402 -0.4485578365
|  7> C -0.4735496958 9.614e-06 -2.46762e-05
|  8> C -0.9206127752 -1.0794374197 -0.972321464
|  9> C -0.9207211611 -0.3024699821 1.4208778619
| 10> Cl 1.3613975148 6.39586e-05 8.256e-06
| 11> H -0.5510309008 1.5994002388 -1.4472119504
| 12> H -2.0071561852 1.4196730659 -0.4612362132
| 13> H -0.5515564367 2.1443695984 0.2322413854
| 14> H -0.5503109903 -2.0530131479 -0.6616498129
| 15> H -2.0068803496 -1.1098381508 -0.9986357503
| 16> H -0.5515557862 -0.8708798051 -1.9732108139
| 17> H -2.0070075431 -0.3103564906 1.4602211654
| 18> H -0.5506971724 0.4536065239 2.1085635428
| 19> H -0.5514240452 -1.2733794155 1.7409392421
| 20> *
| 21>
| 22>                          ****END OF INPUT****

CARTESIAN COORDINATES (ANGSTROEM)
---------------------------------
  C     -0.920876    1.381744   -0.448558
  C     -0.473550    0.000010   -0.000025
  C     -0.920613   -1.079437   -0.972321
  C     -0.920721   -0.302470    1.420878
  Cl     1.361398    0.000064    0.000008
  H     -0.551031    1.599400   -1.447212
  H     -2.007156    1.419673   -0.461236
  H     -0.551556    2.144370    0.232241
  H     -0.550311   -2.053013   -0.661650
  H     -2.006880   -1.109838   -0.998636
  H     -0.551556   -0.870880   -1.973211
  H     -2.007008   -0.310356    1.460221
  H     -0.550697    0.453607    2.108564
  H     -0.551424   -1.273379    1.740939

 Total Charge           Charge          ....    0
 Multiplicity           Mult            ....    1
 Number of Electrons    NEL             ....   50
 Basis Dimension        Dim             ....  148

ORBITAL ENERGIES
----------------

  NO   OCC          E(Eh)            E(eV)
   0   2.0000    -101.188461     -2753.4780
   1   2.0000     -10.107604      -275.0419
   2   2.0000     -10.031771      -272.9784
   3   2.0000     -10.031767      -272.9783
   4   2.0000     -10.031756      -272.9780
   5   2.0000      -9.344707      -254.2824
   6   2.0000      -7.090589      -192.9447
   7   2.0000      -7.080937      -192.6821
   8   2.0000      -7.080937      -192.6821
   9   2.0000      -0.833192       -22.6723
  10   2.0000      -0.726718       -19.7750
  11   2.0000      -0.671143       -18.2627
  12   2.0000      -0.671139       -18.2626
  13   2.0000      -0.522155       -14.2086
  14   2.0000      -0.442752       -12.0479
  15   2.0000      -0.426289       -11.5999
  16   2.0000      -0.426280       -11.5997
  17   2.0000      -0.376515       -10.2455
  18   2.0000      -0.376508       -10.2453
  19   2.0000      -0.346949        -9.4410
  20   2.0000      -0.326065        -8.8727
  21   2.0000      -0.326044        -8.8721
  22   2.0000      -0.325640        -8.8611
  23   2.0000      -0.259780        -7.0690
  24   2.0000      -0.259775        -7.0688
  25   0.0000       0.002352         0.0640
  26   0.0000       0.078137         2.1262
  27   0.0000       0.126252         3.4355
  28   0.0000       0.128965         3.5093
  29   0.0000       0.128971         3.5095

MULLIKEN ATOMIC CHARGES
-----------------------
   0 C :   -0.455652
   1 C :    0.200241
   2 C :   -0.455633
   3 C :   -0.455752
   4 Cl:   -0.235494
   5 H :    0.160748
   6 H :    0.145969
   7 H :    0.160729
   8 H :    0.160750
   9 H :    0.145933
  10 H :    0.160705
  11 H :    0.145981
  12 H :    0.160741
  13 H :    0.160733
Sum of atomic charges:    0.0000000

LOEWDIN ATOMIC CHARGES
----------------------
   0 C :   -0.416674
   1 C :   -0.231097
   2 C :   -0.416683
   3 C :   -0.416694
   4 Cl:    0.021467
   5 H :    0.163556
   6 H :    0.159446
   7 H :    0.163563
   8 H :    0.163559
   9 H :    0.159436
  10 H :    0.163556
  11 H :    0.159445
  12 H :    0.163560
  13 H :    0.163562

  Mayer bond orders larger than 0.100000
B(  0-C ,  1-C ) :   0.9324 B(  0-C ,  5-H ) :   0.9678 B(  0-C ,  6-H ) :   0.9653
B(  0-C ,  7-H ) :   0.9679 B(  1-C ,  2-C ) :   0.9323 B(  1-C ,  3-C ) :   0.9325
B(  1-C ,  4-Cl) :   0.8874 B(  2-C ,  8-H ) :   0.9679 B(  2-C ,  9-H ) :   0.9653
B(  2-C , 10-H ) :   0.9679 B(  3-C , 11-H ) :   0.9653 B(  3-C , 12-H ) :   0.9678
B(  3-C , 13-H ) :   0.9679

Dispersion correction           -0.003577334
FINAL SINGLE POINT ENERGY      -617.980430853654

DIPOLE MOMENT
-------------

Method             : SCF
Type of density    : Electron Density
Multiplicity       :   1
Irrep              :   0
Energy             :  -617.9852607030122726 Eh
Relativity type    :
Basis              : AO
                                X                 Y                 Z
Electronic contribution:      9.641150849       0.000469636       0.000015696
Nuclear contribution   :    -10.578128998      -0.000477607       0.000008428
                        -----------------------------------------
Total Dipole Moment    :     -0.936978149      -0.000007971       0.000024125
                        -----------------------------------------
Magnitude (a.u.)       :      0.936978149
Magnitude (Debye)      :      2.381609185

Rotational constants in cm-1:             0.151977             0.100090             0.100086
Rotational constants in MHz :          4556.147130          3000.614398          3000.503463

                             ****ORCA TERMINATED NORMALLY****
TOTAL RUN TIME: 0 days 0 hours 0 minutes 16 seconds 357 msec
