                         Program Version 6.0.0  -   RELEASE  -
|  1> ! r2scan-3c def2/J RI DEFGRID2 scfconv6 printgap
|  2> %output
|  3>     printlevel normal
|  4> end
|  5> %cpcm
|  6>     smd true
|  7>     smdsolvent "water"
|  8> end
|  9> * xyz 0 1
| 10> C -0.9208759196 1.3817440402 -0.4485578365
| 11> C -0.4735496958 9.614e-06 -2.46762e-05
| 12> C -0.9206127752 -1.0794374197 -0.972321464
| 13> C -0.9207211611 -0.3024699821 1.4208778619
| 14> Cl 1.3613975148 6.39586e-05 8.256e-06
| 15> H -0.5510309008 1.5994002388 -1.4472119504
| 16> H -2.0071561852 1.4196730659 -0.4612362132
| 17> H -0.5515564367 2.1443695984 0.2322413854
| 18> H -0.5503109903 -2.0530131479 -0.6616498129
| 19> H -2.0068803496 -1.1098381508 -0.9986357503
| 20> H -0.5515557862 -0.8708798051 -1.9732108139
| 21> H -2.0070075431 -0.3103564906 1.4602211654
| 22> H -0.5506971724 0.4536065239 2.1085635428
| 23> H -0.5514240452 -1.2733794155 1.7409392421
| 24> *
| 25>
| 26>                          ****END OF INPUT****

CARTESIAN COORDINATES (ANGSTROEM)
---------------------------------
  C     -0.920876    1.381744   -0.448558
  C     -0.473550    0.000010   -0.000025
  C     -0.920613   -1.079437   -0.972321
  C     -0.920721   -0.302470    1.420878
  Cl     1.361398    0.000064    0.000008
  H     -0.551031    1.599400   -1.447212
  H     -2.007156    1.419673   -0.461236
  H     -0.551556    2.144370    0.232241
  H     -0.550311   -2.053013   -0.661650
  H     -2.006880   -1.109838   -0.998636
  H     -0.551556   -0.870880   -1.973211
  H     -2.007008   -0.310356    1.460221
  H     -0.550697    0.453607    2.108564
  H     -0.551424   -1.273379    1.740939

 Total Charge           Charge          ....    0
 Multiplicity           Mult            ....    1
 Number of Electrons    NEL             ....   50
 Basis Dimension        Dim             ....  148

ORBITAL ENERGIES
----------------

  NO   OCC          E(Eh)            E(eV)
   0   2.0000    -101.190606     -2753.5364
   1   2.0000     -10.099932      -274.8331
   2   2.0000     -10.018005      -272.6038
   3   2.0000     -10.017990      -272.6034
   4   2.0000     -10.017983      -272.6032
   5   2.0000      -9.347220      -254.3508
   6   2.0000      -7.092716      -193.0026
   7   2.0000      -7.083611      -192.7548
   8   2.0000      -7.083610      -192.7548
   9   2.0000      -0.827797       -22.5255
  10   2.0000      -0.722574       -19.6622
  11   2.0000      -0.658288       -17.9129
  12   2.0000      -0.658275       -17.9126
  13   2.0000      -0.512503       -13.9459
  14   2.0000      -0.432797       -11.7770
  15   2.0000      -0.414206       -11.2711
  16   2.0000      -0.414199       -11.2709
  17   2.0000      -0.363181        -9.8827
  18   2.0000      -0.363160        -9.8821
  19   2.0000      -0.333371        -9.0715
  20   2.0000      -0.319131        -8.6840
  21   2.0000      -0.314293        -8.5523
  22   2.0000      -0.314264        -8.5516
  23   2.0000      -0.262185        -7.1344
  24   2.0000      -0.262173        -7.1341
  25   0.0000       0.005020         0.1366
  26   0.0000       0.093112         2.5337
  27   0.0000       0.137715         3.7474
  28   0.0000       0.141528         3.8512
  29   0.0000       0.141542         3.8515

MULLIKEN ATOMIC CHARGES
-----------------------
   0 C :   -0.501373
   1 C :    0.246872
   2 C :   -0.501099
   3 C :   -0.501496
   4 Cl:   -0.288969
   5 H :    0.171307
   6 H :    0.172581
   7 H :    0.171482
   8 H :    0.171347
   9 H :    0.172532
  10 H :    0.171372
  11 H :    0.172625
  12 H :    0.171525
  13 H :    0.171292
Sum of atomic charges:    0.0000000

LOEWDIN ATOMIC CHARGES
----------------------
   0 C :   -0.421469
   1 C :   -0.222774
   2 C :   -0.421503
   3 C :   -0.421507
   4 Cl:   -0.013152
   5 H :    0.164988
   6 H :    0.170069
   7 H :    0.165079
   8 H :    0.165019
   9 H :    0.170041
  10 H :    0.165052
  11 H :    0.170073
  12 H :    0.165092
  13 H :    0.164990

  Mayer bond orders larger than 0.100000
B(  0-C ,  1-C ) :   0.9279 B(  0-C ,  5-H ) :   0.9654 B(  0-C ,  6-H ) :   0.9595
B(  0-C ,  7-H ) :   0.9655 B(  1-C ,  2-C ) :   0.9283 B(  1-C ,  3-C ) :   0.9280
B(  1-C ,  4-Cl) :   0.8207 B(  2-C ,  8-H ) :   0.9654 B(  2-C ,  9-H ) :   0.9595
B(  2-C , 10-H ) :   0.9654 B(  3-C , 11-H ) :   0.9595 B(  3-C , 12-H ) :   0.9655
B(  3-C , 13-H ) :   0.9654

Dispersion correction           -0.003577334
FINAL SINGLE POINT ENERGY      -617.981849413602

DIPOLE MOMENT
-------------

Method             : SCF
Type of density    : Electron Density
Multiplicity       :   1
Irrep              :   0
Energy             :  -617.9866792629608199 Eh
Relativity type    :
Basis              : AO
                                X                 Y                 Z
Electronic contribution:      9.282347916       0.001297768       0.000532494
Nuclear contribution   :    -10.578128998      -0.000477607       0.000008428
                        -----------------------------------------
Total Dipole Moment    :     -1.295781082       0.000820161       0.000540922
                        -----------------------------------------
Magnitude (a.u.)       :      1.295781455
Magnitude (Debye)      :      3.293614710

Rotational constants in cm-1:             0.151977             0.100090             0.100086
Rotational constants in MHz :          4556.147130          3000.614398          3000.503463

                             ****ORCA TERMINATED NORMALLY****
TOTAL RUN TIME: 0 days 0 hours 0 minutes 20 seconds 903 msec
