                         Program Version 6.0.0  -   RELEASE  -
|  1> ! pbe def2-sv(p) def2/J RI DEFGRID1 loosescf d4 GCP(DFT/SV(P)) printgap
|  2> %output
|  3>     printlevel normal
|  4> end
|  5> * xyz 0 1
|  6> C -2.7691918321 -0.7774138026 -0.0001652761
|  7> O -1.7937705075 0.2446592839 0.0001285529
|  8> C -0.4657681319 -0.1191472068 7.05467e-05
|  9> C 0.0140541899 -1.4168890576 8.30934e-05
| 10> C 1.3821534592 -1.6509731817 2.43933e-05
| 11> C 2.2716902286 -0.595186278 -5.71448e-05
| 12> C 1.8005170989 0.7080016666 -6.68202e-05
| 13> C 0.4388694284 0.956588265 3.2429e-06
| 14> O -0.0110386855 2.2419712985 1.1477e-06
| 15> H -2.6866492339 -1.3998900179 -0.8947192534
| 16> H -3.7259228686 -0.2600851922 -0.0001874284
| 17> H -2.6868752419 -1.4002120281 0.8941837623
| 18> H -0.6663429452 -2.2528267317 0.0001412246
| 19> H 1.7430020138 -2.6673988995 3.77503e-05
| 20> H 3.3345382273 -0.7773942715 -0.0001190885
| 21> H 2.4740255123 1.5499106149 -0.0001361734
| 22> H -0.981950341 2.2346680479 2.69424e-05
| 23> *
| 24>
| 25>                          ****END OF INPUT****

CARTESIAN COORDINATES (ANGSTROEM)
---------------------------------
  C     -2.769192   -0.777414   -0.000165
  O     -1.793771    0.244659    0.000129
  C     -0.465768   -0.119147    0.000071
  C      0.014054   -1.416889    0.000083
  C      1.382153   -1.650973    0.000024
  C      2.271690   -0.595186   -0.000057
  C      1.800517    0.708002   -0.000067
  C      0.438869    0.956588    0.000003
  O     -0.011039    2.241971    0.000001
  H     -2.686649   -1.399890   -0.894719
  H     -3.725923   -0.260085   -0.000187
  H     -2.686875   -1.400212    0.894184
  H     -0.666343   -2.252827    0.000141
  H      1.743002   -2.667399    0.000038
  H      3.334538   -0.777394   -0.000119
  H      2.474026    1.549911   -0.000136
  H     -0.981950    2.234668    0.000027

 Total Charge           Charge          ....    0
 Multiplicity           Mult            ....    1
 Number of Electrons    NEL             ....   66
 Basis Dimension        Dim             ....  142

ORBITAL ENERGIES
----------------

  NO   OCC          E(Eh)            E(eV)
   0   2.0000     -18.797770      -511.5133
   1   2.0000     -18.773512      -510.8532
   2   2.0000      -9.949050      -270.7274
   3   2.0000      -9.947732      -270.6916
   4   2.0000      -9.945414      -270.6285
   5   2.0000      -9.890315      -269.1291
   6   2.0000      -9.883268      -268.9374
   7   2.0000      -9.883000      -268.9301
   8   2.0000      -9.882045      -268.9041
   9   2.0000      -0.980048       -26.6685
  10   2.0000      -0.948212       -25.8022
  11   2.0000      -0.767167       -20.8757
  12   2.0000      -0.683142       -18.5892
  13   2.0000      -0.665441       -18.1076
  14   2.0000      -0.628070       -17.0907
  15   2.0000      -0.546525       -14.8717
  16   2.0000      -0.542023       -14.7492
  17   2.0000      -0.502304       -13.6684
  18   2.0000      -0.468649       -12.7526
  19   2.0000      -0.435340       -11.8462
  20   2.0000      -0.428333       -11.6555
  21   2.0000      -0.408440       -11.1142
  22   2.0000      -0.396361       -10.7855
  23   2.0000      -0.377134       -10.2624
  24   2.0000      -0.363085        -9.8800
  25   2.0000      -0.336235        -9.1494
  26   2.0000      -0.331930        -9.0323
  27   2.0000      -0.298895        -8.1333
  28   2.0000      -0.298326        -8.1179
  29   2.0000      -0.291331        -7.9275
  30   2.0000      -0.282329        -7.6826
  31   2.0000      -0.211099        -5.7443
  32   2.0000      -0.178453        -4.8560
  33   0.0000      -0.021732        -0.5914
  34   0.0000      -0.012391        -0.3372
  35   0.0000       0.032432         0.8825
  36   0.0000       0.040909         1.1132
  37   0.0000       0.064338         1.7507

MULLIKEN ATOMIC CHARGES
-----------------------
   0 C :   -0.110217
   1 O :   -0.312646
   2 C :    0.203559
   3 C :   -0.210530
   4 C :   -0.052386
   5 C :   -0.040055
   6 C :   -0.162922
   7 C :    0.171157
   8 O :   -0.334015
   9 H :    0.115311
  10 H :    0.125175
  11 H :    0.115316
  12 H :    0.035838
  13 H :    0.045854
  14 H :    0.048765
  15 H :    0.043190
  16 H :    0.318607
Sum of atomic charges:   -0.0000000

LOEWDIN ATOMIC CHARGES
----------------------
   0 C :   -0.199512
   1 O :   -0.113281
   2 C :   -0.004369
   3 C :   -0.171332
   4 C :   -0.143443
   5 C :   -0.134177
   6 C :   -0.149170
   7 C :    0.010074
   8 O :   -0.237153
   9 H :    0.111840
  10 H :    0.122376
  11 H :    0.111838
  12 H :    0.125927
  13 H :    0.121752
  14 H :    0.123205
  15 H :    0.131379
  16 H :    0.294050

  Mayer bond orders larger than 0.100000
B(  0-C ,  1-O ) :   0.9808 B(  0-C ,  9-H ) :   0.9426 B(  0-C , 10-H ) :   0.9589
B(  0-C , 11-H ) :   0.9426 B(  1-O ,  2-C ) :   1.0882 B(  2-C ,  3-C ) :   1.3215
B(  2-C ,  7-C ) :   1.2808 B(  3-C ,  4-C ) :   1.3189 B(  3-C , 12-H ) :   0.9675
B(  4-C ,  5-C ) :   1.3827 B(  4-C , 13-H ) :   0.9666 B(  5-C ,  6-C ) :   1.3280
B(  5-C , 14-H ) :   0.9697 B(  6-C ,  7-C ) :   1.4030 B(  6-C , 15-H ) :   0.9688
B(  7-C ,  8-O ) :   1.2475 B(  8-O , 16-H ) :   0.8219

Dispersion correction           -0.016783781
FINAL SINGLE POINT ENERGY      -421.094127921584

DIPOLE MOMENT
-------------

Method             : SCF
Type of density    : Electron Density
Multiplicity       :   1
Irrep              :   0
Energy             :  -421.1536768071259758 Eh
Relativity type    :
Basis              : AO
                                X                 Y                 Z
Electronic contribution:      2.099123347       4.111556516       0.000604752
Nuclear contribution   :     -3.025292172      -4.628899591      -0.000722594
                        -----------------------------------------
Total Dipole Moment    :     -0.926168825      -0.517343075      -0.000117842
                        -----------------------------------------
Magnitude (a.u.)       :      1.060864065
Magnitude (Debye)      :      2.696502159

Rotational constants in cm-1:             0.087387             0.051967             0.032792
Rotational constants in MHz :          2619.796593          1557.921853           983.084206

                             ****ORCA TERMINATED NORMALLY****
TOTAL RUN TIME: 0 days 0 hours 0 minutes 9 seconds 90 msec
