                         Program Version 6.0.0  -   RELEASE  -
|  1> ! wb97x-v def2-tzvp def2/J RIJCOSX DEFGRID2 scfconv7 GCP(DFT/TZ) printgap
|  2> %output
|  3>     printlevel normal
|  4> end
|  5> * xyz 0 1
|  6> C -1.4465125034971593 -0.09120710676205675 -9.985115458690361e-05
|  7> C 0.05060526540281676 0.06857438414675815 -0.000157295359843737
|  8> O 0.6005443009541945 1.1838891977372712 0.000284163086918165
|  9> N 0.7604671535596973 -1.0754655894413385 -0.00013258767854484608
| 10> H -1.7688418452418517 -0.6568422891149156 -0.8803295978068041
| 11> H -1.7689460455840322 -0.6485484329027448 0.8854152734469827
| 12> H -1.9216802524840793 0.8894743882524636 -0.0045119202927801595
| 13> H 1.768988240771502 -1.0407306420313442 0.0005161341480124265
| 14> H 0.2988180370167834 -1.9715948161506145 -0.00043439501478084383
| 15> *
| 16>
| 17>                          ****END OF INPUT****

CARTESIAN COORDINATES (ANGSTROEM)
---------------------------------
  C     -1.446513   -0.091207   -0.000100
  C      0.050605    0.068574   -0.000157
  O      0.600544    1.183889    0.000284
  N      0.760467   -1.075466   -0.000133
  H     -1.768842   -0.656842   -0.880330
  H     -1.768946   -0.648548    0.885415
  H     -1.921680    0.889474   -0.004512
  H      1.768988   -1.040731    0.000516
  H      0.298818   -1.971595   -0.000434

 Total Charge           Charge          ....    0
 Multiplicity           Mult            ....    1
 Number of Electrons    NEL             ....   32
 Basis Dimension        Dim             ....  154

ORBITAL ENERGIES
----------------

  NO   OCC          E(Eh)            E(eV)
   0   2.0000     -21.629164      -588.5595
   1   2.0000     -16.553093      -450.4326
   2   2.0000     -12.153235      -330.7063
   3   2.0000     -12.055468      -328.0460
   4   2.0000      -1.676942       -45.6319
   5   2.0000      -1.507580       -41.0233
   6   2.0000      -1.256498       -34.1911
   7   2.0000      -1.128342       -30.7038
   8   2.0000      -1.046913       -28.4879
   9   2.0000      -1.021651       -27.8005
  10   2.0000      -0.929655       -25.2972
  11   2.0000      -0.908528       -24.7223
  12   2.0000      -0.840934       -22.8830
  13   2.0000      -0.831102       -22.6154
  14   2.0000      -0.816965       -22.2307
  15   2.0000      -0.789285       -21.4775
  16   0.0000      -0.274383        -7.4663
  17   0.0000      -0.070568        -1.9203
  18   0.0000      -0.037473        -1.0197
  19   0.0000      -0.029880        -0.8131
  20   0.0000       0.011365         0.3093

MULLIKEN ATOMIC CHARGES
-----------------------
   0 C :   -0.350242
   1 C :    0.281807
   2 O :   -0.390903
   3 N :   -0.421652
   4 H :    0.125264
   5 H :    0.125539
   6 H :    0.141649
   7 H :    0.248564
   8 H :    0.239974
Sum of atomic charges:    0.0000000

LOEWDIN ATOMIC CHARGES
----------------------
   0 C :   -0.263665
   1 C :   -0.491586
   2 O :    0.019925
   3 N :    0.002620
   4 H :    0.129270
   5 H :    0.129450
   6 H :    0.135175
   7 H :    0.171392
   8 H :    0.167418

  Mayer bond orders larger than 0.100000
B(  0-C ,  1-C ) :   0.9662 B(  0-C ,  4-H ) :   0.9557 B(  0-C ,  5-H ) :   0.9554
B(  0-C ,  6-H ) :   0.9804 B(  1-C ,  2-O ) :   2.1000 B(  1-C ,  3-N ) :   1.2194
B(  3-N ,  7-H ) :   0.9046 B(  3-N ,  8-H ) :   0.9198

FINAL SINGLE POINT ENERGY      -209.229730580966

DIPOLE MOMENT
-------------

Method             : SCF
Type of density    : Electron Density
Multiplicity       :   1
Irrep              :   0
Energy             :  -209.2352695210661579 Eh
Relativity type    :
Basis              : AO
                                X                 Y                 Z
Electronic contribution:      2.753959465       1.610900637      -0.000442264
Nuclear contribution   :     -3.174884599      -3.216631824       0.000597599
                        -----------------------------------------
Total Dipole Moment    :     -0.420925134      -1.605731187       0.000155335
                        -----------------------------------------
Magnitude (a.u.)       :      1.659985131
Magnitude (Debye)      :      4.219346887

Rotational constants in cm-1:             0.358629             0.312803             0.172448
Rotational constants in MHz :         10751.431501          9377.592706          5169.849707

                             ****ORCA TERMINATED NORMALLY****
TOTAL RUN TIME: 0 days 0 hours 0 minutes 39 seconds 290 msec
