                         Program Version 6.0.0  -   RELEASE  -
|  1> ! wb97x-v def2-tzvp def2/J RIJCOSX DEFGRID2 scfconv7 GCP(DFT/TZ) printgap
|  2> %output
|  3>     printlevel normal
|  4> end
|  5> %cpcm
|  6>     smd true
|  7>     smdsolvent "water"
|  8> end
|  9> * xyz 0 1
| 10> C -1.4465125034971593 -0.09120710676205675 -9.985115458690361e-05
| 11> C 0.05060526540281676 0.06857438414675815 -0.000157295359843737
| 12> O 0.6005443009541945 1.1838891977372712 0.000284163086918165
| 13> N 0.7604671535596973 -1.0754655894413385 -0.00013258767854484608
| 14> H -1.7688418452418517 -0.6568422891149156 -0.8803295978068041
| 15> H -1.7689460455840322 -0.6485484329027448 0.8854152734469827
| 16> H -1.9216802524840793 0.8894743882524636 -0.0045119202927801595
| 17> H 1.768988240771502 -1.0407306420313442 0.0005161341480124265
| 18> H 0.2988180370167834 -1.9715948161506145 -0.00043439501478084383
| 19> *
| 20>
| 21>                          ****END OF INPUT****

CARTESIAN COORDINATES (ANGSTROEM)
---------------------------------
  C     -1.446513   -0.091207   -0.000100
  C      0.050605    0.068574   -0.000157
  O      0.600544    1.183889    0.000284
  N      0.760467   -1.075466   -0.000133
  H     -1.768842   -0.656842   -0.880330
  H     -1.768946   -0.648548    0.885415
  H     -1.921680    0.889474   -0.004512
  H      1.768988   -1.040731    0.000516
  H      0.298818   -1.971595   -0.000434

 Total Charge           Charge          ....    0
 Multiplicity           Mult            ....    1
 Number of Electrons    NEL             ....   32
 Basis Dimension        Dim             ....  154

ORBITAL ENERGIES
----------------

  NO   OCC          E(Eh)            E(eV)
   0   2.0000     -21.645175      -588.9952
   1   2.0000     -16.543293      -450.1659
   2   2.0000     -12.160475      -330.9034
   3   2.0000     -12.041844      -327.6752
   4   2.0000      -1.695958       -46.1494
   5   2.0000      -1.499654       -40.8077
   6   2.0000      -1.247821       -33.9549
   7   2.0000      -1.124144       -30.5895
   8   2.0000      -1.051241       -28.6057
   9   2.0000      -1.020763       -27.7764
  10   2.0000      -0.933555       -25.4033
  11   2.0000      -0.921396       -25.0725
  12   2.0000      -0.832312       -22.6484
  13   2.0000      -0.825193       -22.4547
  14   2.0000      -0.823966       -22.4213
  15   2.0000      -0.783932       -21.3319
  16   0.0000      -0.274387        -7.4664
  17   0.0000      -0.055188        -1.5017
  18   0.0000      -0.018204        -0.4954
  19   0.0000      -0.012651        -0.3443
  20   0.0000       0.028830         0.7845

MULLIKEN ATOMIC CHARGES
-----------------------
   0 C :   -0.366916
   1 C :    0.320401
   2 O :   -0.557834
   3 N :   -0.436143
   4 H :    0.158176
   5 H :    0.158281
   6 H :    0.138868
   7 H :    0.285774
   8 H :    0.299393
Sum of atomic charges:   -0.0000000

LOEWDIN ATOMIC CHARGES
----------------------
   0 C :   -0.257140
   1 C :   -0.483871
   2 O :   -0.082623
   3 N :    0.030708
   4 H :    0.142226
   5 H :    0.142344
   6 H :    0.132695
   7 H :    0.184571
   8 H :    0.191088

  Mayer bond orders larger than 0.100000
B(  0-C ,  1-C ) :   0.9876 B(  0-C ,  4-H ) :   0.9448 B(  0-C ,  5-H ) :   0.9446
B(  0-C ,  6-H ) :   0.9744 B(  1-C ,  2-O ) :   1.9108 B(  1-C ,  3-N ) :   1.3170
B(  3-N ,  7-H ) :   0.8858 B(  3-N ,  8-H ) :   0.8921

FINAL SINGLE POINT ENERGY      -209.247019944981

DIPOLE MOMENT
-------------

Method             : SCF
Type of density    : Electron Density
Multiplicity       :   1
Irrep              :   0
Energy             :  -209.2525588850809015 Eh
Relativity type    :
Basis              : AO
                                X                 Y                 Z
Electronic contribution:      2.575857692       0.940742644      -0.000415314
Nuclear contribution   :     -3.174884599      -3.216631824       0.000597599
                        -----------------------------------------
Total Dipole Moment    :     -0.599026907      -2.275889180       0.000182286
                        -----------------------------------------
Magnitude (a.u.)       :      2.353402819
Magnitude (Debye)      :      5.981874578

Rotational constants in cm-1:             0.358629             0.312803             0.172448
Rotational constants in MHz :         10751.431501          9377.592706          5169.849707

                             ****ORCA TERMINATED NORMALLY****
TOTAL RUN TIME: 0 days 0 hours 0 minutes 39 seconds 816 msec
