                         Program Version 6.0.0  -   RELEASE  -
|  1> ! wb97x-v def2-tzvp def2/J RIJCOSX DEFGRID2 scfconv7 GCP(DFT/TZ) printgap
|  2> %output
|  3>     printlevel normal
|  4> end
|  5> * xyz 0 1
|  6> C -3.610985117198551 -1.4899522384119221 0.042747575598945035
|  7> C -4.733992069470805 -0.6124993367521924 0.5413461436150419
|  8> C -4.638101265692486 0.7068587262166364 0.7473541643443016
|  9> C -3.417490991507347 1.5400243004164076 0.4390463817200295
| 10> C -2.4923908305222287 0.7079750852284264 -0.42608102544951487
| 11> H -2.9357777082215595 0.6050193362271133 -1.4306716110317248
| 12> C -2.3226813062743688 -0.7002456904348549 0.14726976029486588
| 13> H -2.0475526095725973 -0.592690881948081 1.2099840946961165
| 14> C -1.0706993771085764 -1.1983905424812302 -0.5087805553922243
| 15> O -0.7086792924398644 -2.3265108037120026 -0.7423679092213445
| 16> N -0.30793394305937805 -0.023118298266626227 -0.8049863114965851
| 17> C -1.0877011290339333 1.1675668808210051 -0.689391268979915
| 18> O -0.6599686841187835 2.2866180473116873 -0.8467243879233695
| 19> S 1.3003189043433039 -0.054406248417596115 -1.370775977333001
| 20> C 2.2391936887336485 -0.01491867605648401 0.2086699651664418
| 21> Cl 3.9432891873082565 -0.08287854640857859 -0.3532824705485602
| 22> Cl 1.9612285945795527 1.4821428219633908 1.1554108064870832
| 23> Cl 1.87971744536834 -1.418448290532764 1.2672865325068259
| 24> H -3.793473074527623 -1.799279825075493 -0.9954490778029199
| 25> H -3.5612803880848474 -2.40584210525886 0.6407207122159938
| 26> H -5.673589835197177 -1.1131598537867724 0.7631760578891275
| 27> H -5.497354687090504 1.2414714613019648 1.1456590140670015
| 28> H -3.7151392423112397 2.459682762869031 -0.07523884486542913
| 29> H -2.91202963484342 1.8436724122517674 1.365907115511164
| 30> *
| 31>
| 32>                          ****END OF INPUT****

CARTESIAN COORDINATES (ANGSTROEM)
---------------------------------
  C     -3.610985   -1.489952    0.042748
  C     -4.733992   -0.612499    0.541346
  C     -4.638101    0.706859    0.747354
  C     -3.417491    1.540024    0.439046
  C     -2.492391    0.707975   -0.426081
  H     -2.935778    0.605019   -1.430672
  C     -2.322681   -0.700246    0.147270
  H     -2.047553   -0.592691    1.209984
  C     -1.070699   -1.198391   -0.508781
  O     -0.708679   -2.326511   -0.742368
  N     -0.307934   -0.023118   -0.804986
  C     -1.087701    1.167567   -0.689391
  O     -0.659969    2.286618   -0.846724
  S      1.300319   -0.054406   -1.370776
  C      2.239194   -0.014919    0.208670
  Cl     3.943289   -0.082879   -0.353282
  Cl     1.961229    1.482143    1.155411
  Cl     1.879717   -1.418448    1.267287
  H     -3.793473   -1.799280   -0.995449
  H     -3.561280   -2.405842    0.640721
  H     -5.673590   -1.113160    0.763176
  H     -5.497355    1.241471    1.145659
  H     -3.715139    2.459683   -0.075239
  H     -2.912030    1.843672    1.365907

 Total Charge           Charge          ....    0
 Multiplicity           Mult            ....    1
 Number of Electrons    NEL             ....  152
 Basis Dimension        Dim             ....  568

ORBITAL ENERGIES
----------------

  NO   OCC          E(Eh)            E(eV)
   0   2.0000    -107.176594     -2916.4234
   1   2.0000    -107.169604     -2916.2332
   2   2.0000    -107.168111     -2916.1926
   3   2.0000     -94.199481     -2563.2982
   4   2.0000     -21.684675      -590.0700
   5   2.0000     -21.683016      -590.0249
   6   2.0000     -16.613334      -452.0718
   7   2.0000     -12.271369      -333.9209
   8   2.0000     -12.190347      -331.7162
   9   2.0000     -12.189613      -331.6962
  10   2.0000     -12.094849      -329.1176
  11   2.0000     -12.093587      -329.0832
  12   2.0000     -12.077071      -328.6338
  13   2.0000     -12.076717      -328.6242
  14   2.0000     -12.070407      -328.4525
  15   2.0000     -12.067891      -328.3840
  16   2.0000     -11.329800      -308.2995
  17   2.0000     -11.322924      -308.1124
  18   2.0000     -11.321406      -308.0711
  19   2.0000      -9.706667      -264.1318
  20   2.0000      -9.121472      -248.2079
  21   2.0000      -9.118405      -248.1244
  22   2.0000      -9.118258      -248.1204
  23   2.0000      -9.114718      -248.0241
  24   2.0000      -9.112747      -247.9704
  25   2.0000      -9.111348      -247.9324
  26   2.0000      -9.111230      -247.9292
  27   2.0000      -9.109703      -247.8876
  28   2.0000      -9.109566      -247.8839
  29   2.0000      -7.684923      -209.1174
  30   2.0000      -7.682944      -209.0635
  31   2.0000      -7.681106      -209.0135
  32   2.0000      -1.746467       -47.5238
  33   2.0000      -1.742633       -47.4195
  34   2.0000      -1.570689       -42.7406
  35   2.0000      -1.492398       -40.6102
  36   2.0000      -1.413936       -38.4751
  37   2.0000      -1.407604       -38.3029
  38   2.0000      -1.405169       -38.2366
  39   2.0000      -1.336091       -36.3569
  40   2.0000      -1.302293       -35.4372
  41   2.0000      -1.284449       -34.9516
  42   2.0000      -1.235058       -33.6076
  43   2.0000      -1.183833       -32.2137
  44   2.0000      -1.141861       -31.0716
  45   2.0000      -1.137981       -30.9660
  46   2.0000      -1.105353       -30.0782
  47   2.0000      -1.069320       -29.0977
  48   2.0000      -1.044057       -28.4102
  49   2.0000      -1.020673       -27.7739
  50   2.0000      -1.000733       -27.2313
  51   2.0000      -0.989959       -26.9382
  52   2.0000      -0.964914       -26.2566
  53   2.0000      -0.960437       -26.1348
  54   2.0000      -0.953441       -25.9444
  55   2.0000      -0.940579       -25.5945
  56   2.0000      -0.935504       -25.4564
  57   2.0000      -0.917803       -24.9747
  58   2.0000      -0.903756       -24.5925
  59   2.0000      -0.896553       -24.3964
  60   2.0000      -0.892079       -24.2747
  61   2.0000      -0.871782       -23.7224
  62   2.0000      -0.866831       -23.5877
  63   2.0000      -0.847695       -23.0670
  64   2.0000      -0.839633       -22.8476
  65   2.0000      -0.831320       -22.6214
  66   2.0000      -0.830636       -22.6027
  67   2.0000      -0.816508       -22.2183
  68   2.0000      -0.812122       -22.0990
  69   2.0000      -0.810754       -22.0617
  70   2.0000      -0.807132       -21.9632
  71   2.0000      -0.802181       -21.8284
  72   2.0000      -0.801787       -21.8177
  73   2.0000      -0.783899       -21.3310
  74   2.0000      -0.711811       -19.3694
  75   2.0000      -0.666533       -18.1373
  76   0.0000      -0.381520       -10.3817
  77   0.0000      -0.348190        -9.4747
  78   0.0000      -0.337786        -9.1916
  79   0.0000      -0.307505        -8.3676
  80   0.0000      -0.293835        -7.9956

MULLIKEN ATOMIC CHARGES
-----------------------
   0 C :   -0.140070
   1 C :   -0.184323
   2 C :   -0.185498
   3 C :   -0.142957
   4 C :   -0.005129
   5 H :    0.115854
   6 C :    0.001526
   7 H :    0.115443
   8 C :    0.095049
   9 O :   -0.260852
  10 N :   -0.086903
  11 C :    0.120478
  12 O :   -0.269042
  13 S :    0.112378
  14 C :    0.085782
  15 Cl:   -0.037515
  16 Cl:   -0.032937
  17 Cl:   -0.036936
  18 H :    0.115268
  19 H :    0.127546
  20 H :    0.124422
  21 H :    0.124386
  22 H :    0.128332
  23 H :    0.115701
Sum of atomic charges:    0.0000000

LOEWDIN ATOMIC CHARGES
----------------------
   0 C :   -0.205448
   1 C :   -0.158477
   2 C :   -0.158589
   3 C :   -0.205252
   4 C :   -0.174749
   5 H :    0.184884
   6 C :   -0.176604
   7 H :    0.185163
   8 C :   -0.379937
   9 O :    0.132405
  10 N :    0.007985
  11 C :   -0.379211
  12 O :    0.128944
  13 S :    0.564822
  14 C :   -1.264902
  15 Cl:    0.340625
  16 Cl:    0.337816
  17 Cl:    0.337943
  18 H :    0.149921
  19 H :    0.149520
  20 H :    0.141704
  21 H :    0.141757
  22 H :    0.149687
  23 H :    0.149991

  Mayer bond orders larger than 0.100000
B(  0-C ,  1-C ) :   0.9876 B(  0-C ,  6-C ) :   1.0106 B(  0-C , 18-H ) :   0.9443
B(  0-C , 19-H ) :   0.9690 B(  1-C ,  2-C ) :   1.9438 B(  1-C , 20-H ) :   0.9703
B(  2-C ,  3-C ) :   0.9884 B(  2-C , 21-H ) :   0.9702 B(  3-C ,  4-C ) :   1.0121
B(  3-C , 22-H ) :   0.9684 B(  3-C , 23-H ) :   0.9450 B(  4-C ,  5-H ) :   0.9254
B(  4-C ,  6-C ) :   0.9643 B(  4-C , 11-C ) :   0.9105 B(  6-C ,  7-H ) :   0.9200
B(  6-C ,  8-C ) :   0.9145 B(  8-C ,  9-O ) :   2.2444 B(  8-C , 10-N ) :   1.0451
B( 10-N , 11-C ) :   1.0654 B( 10-N , 13-S ) :   1.0227 B( 11-C , 12-O ) :   2.2305
B( 13-S , 14-C ) :   1.0640 B( 14-C , 15-Cl) :   1.1055 B( 14-C , 16-Cl) :   1.1438
B( 14-C , 17-Cl) :   1.1319

FINAL SINGLE POINT ENERGY     -2331.586904514854

DIPOLE MOMENT
-------------

Method             : SCF
Type of density    : Electron Density
Multiplicity       :   1
Irrep              :   0
Energy             : -2331.6021113957540365 Eh
Relativity type    :
Basis              : AO
                                X                 Y                 Z
Electronic contribution:     37.434626011      -0.261361257       0.690654624
Nuclear contribution   :    -38.864467587       0.272363028      -0.320178782
                        -----------------------------------------
Total Dipole Moment    :     -1.429841576       0.011001771       0.370475841
                        -----------------------------------------
Magnitude (a.u.)       :      1.477098616
Magnitude (Debye)      :      3.754486308

Rotational constants in cm-1:             0.024629             0.007354             0.006705
Rotational constants in MHz :           738.355268           220.465255           201.020017

                             ****ORCA TERMINATED NORMALLY****
TOTAL RUN TIME: 0 days 0 hours 9 minutes 44 seconds 383 msec
