                         Program Version 6.0.0  -   RELEASE  -
|  1> ! wb97x-v def2-tzvp def2/J RIJCOSX DEFGRID2 scfconv7 GCP(DFT/TZ) printgap
|  2> %output
|  3>     printlevel normal
|  4> end
|  5> %cpcm
|  6>     smd true
|  7>     smdsolvent "water"
|  8> end
|  9> * xyz 0 1
| 10> C -3.610985117198551 -1.4899522384119221 0.042747575598945035
| 11> C -4.733992069470805 -0.6124993367521924 0.5413461436150419
| 12> C -4.638101265692486 0.7068587262166364 0.7473541643443016
| 13> C -3.417490991507347 1.5400243004164076 0.4390463817200295
| 14> C -2.4923908305222287 0.7079750852284264 -0.42608102544951487
| 15> H -2.9357777082215595 0.6050193362271133 -1.4306716110317248
| 16> C -2.3226813062743688 -0.7002456904348549 0.14726976029486588
| 17> H -2.0475526095725973 -0.592690881948081 1.2099840946961165
| 18> C -1.0706993771085764 -1.1983905424812302 -0.5087805553922243
| 19> O -0.7086792924398644 -2.3265108037120026 -0.7423679092213445
| 20> N -0.30793394305937805 -0.023118298266626227 -0.8049863114965851
| 21> C -1.0877011290339333 1.1675668808210051 -0.689391268979915
| 22> O -0.6599686841187835 2.2866180473116873 -0.8467243879233695
| 23> S 1.3003189043433039 -0.054406248417596115 -1.370775977333001
| 24> C 2.2391936887336485 -0.01491867605648401 0.2086699651664418
| 25> Cl 3.9432891873082565 -0.08287854640857859 -0.3532824705485602
| 26> Cl 1.9612285945795527 1.4821428219633908 1.1554108064870832
| 27> Cl 1.87971744536834 -1.418448290532764 1.2672865325068259
| 28> H -3.793473074527623 -1.799279825075493 -0.9954490778029199
| 29> H -3.5612803880848474 -2.40584210525886 0.6407207122159938
| 30> H -5.673589835197177 -1.1131598537867724 0.7631760578891275
| 31> H -5.497354687090504 1.2414714613019648 1.1456590140670015
| 32> H -3.7151392423112397 2.459682762869031 -0.07523884486542913
| 33> H -2.91202963484342 1.8436724122517674 1.365907115511164
| 34> *
| 35>
| 36>                          ****END OF INPUT****

CARTESIAN COORDINATES (ANGSTROEM)
---------------------------------
  C     -3.610985   -1.489952    0.042748
  C     -4.733992   -0.612499    0.541346
  C     -4.638101    0.706859    0.747354
  C     -3.417491    1.540024    0.439046
  C     -2.492391    0.707975   -0.426081
  H     -2.935778    0.605019   -1.430672
  C     -2.322681   -0.700246    0.147270
  H     -2.047553   -0.592691    1.209984
  C     -1.070699   -1.198391   -0.508781
  O     -0.708679   -2.326511   -0.742368
  N     -0.307934   -0.023118   -0.804986
  C     -1.087701    1.167567   -0.689391
  O     -0.659969    2.286618   -0.846724
  S      1.300319   -0.054406   -1.370776
  C      2.239194   -0.014919    0.208670
  Cl     3.943289   -0.082879   -0.353282
  Cl     1.961229    1.482143    1.155411
  Cl     1.879717   -1.418448    1.267287
  H     -3.793473   -1.799280   -0.995449
  H     -3.561280   -2.405842    0.640721
  H     -5.673590   -1.113160    0.763176
  H     -5.497355    1.241471    1.145659
  H     -3.715139    2.459683   -0.075239
  H     -2.912030    1.843672    1.365907

 Total Charge           Charge          ....    0
 Multiplicity           Mult            ....    1
 Number of Electrons    NEL             ....  152
 Basis Dimension        Dim             ....  568

ORBITAL ENERGIES
----------------

  NO   OCC          E(Eh)            E(eV)
   0   2.0000    -107.182093     -2916.5730
   1   2.0000    -107.175448     -2916.3922
   2   2.0000    -107.174602     -2916.3692
   3   2.0000     -94.204996     -2563.4483
   4   2.0000     -21.690073      -590.2169
   5   2.0000     -21.688294      -590.1685
   6   2.0000     -16.614888      -452.1141
   7   2.0000     -12.276275      -334.0544
   8   2.0000     -12.193297      -331.7965
   9   2.0000     -12.192429      -331.7729
  10   2.0000     -12.075666      -328.5956
  11   2.0000     -12.074537      -328.5649
  12   2.0000     -12.053910      -328.0036
  13   2.0000     -12.053588      -327.9948
  14   2.0000     -12.049360      -327.8797
  15   2.0000     -12.046857      -327.8116
  16   2.0000     -11.335266      -308.4483
  17   2.0000     -11.328756      -308.2711
  18   2.0000     -11.327887      -308.2475
  19   2.0000      -9.712112      -264.2800
  20   2.0000      -9.126949      -248.3569
  21   2.0000      -9.123893      -248.2738
  22   2.0000      -9.123721      -248.2691
  23   2.0000      -9.120666      -248.1859
  24   2.0000      -9.119023      -248.1412
  25   2.0000      -9.117210      -248.0919
  26   2.0000      -9.117184      -248.0912
  27   2.0000      -9.116147      -248.0630
  28   2.0000      -9.115973      -248.0582
  29   2.0000      -7.690339      -209.2648
  30   2.0000      -7.688419      -209.2125
  31   2.0000      -7.686606      -209.1632
  32   2.0000      -1.753490       -47.7149
  33   2.0000      -1.749909       -47.6174
  34   2.0000      -1.570498       -42.7354
  35   2.0000      -1.497999       -40.7626
  36   2.0000      -1.419571       -38.6285
  37   2.0000      -1.413811       -38.4717
  38   2.0000      -1.388879       -37.7933
  39   2.0000      -1.326020       -36.0829
  40   2.0000      -1.284948       -34.9652
  41   2.0000      -1.276613       -34.7384
  42   2.0000      -1.228596       -33.4318
  43   2.0000      -1.175669       -31.9916
  44   2.0000      -1.134659       -30.8756
  45   2.0000      -1.127860       -30.6906
  46   2.0000      -1.114833       -30.3362
  47   2.0000      -1.078196       -29.3392
  48   2.0000      -1.040449       -28.3120
  49   2.0000      -1.002647       -27.2834
  50   2.0000      -0.999606       -27.2007
  51   2.0000      -0.983617       -26.7656
  52   2.0000      -0.967023       -26.3140
  53   2.0000      -0.966263       -26.2934
  54   2.0000      -0.952042       -25.9064
  55   2.0000      -0.946251       -25.7488
  56   2.0000      -0.927507       -25.2387
  57   2.0000      -0.905540       -24.6410
  58   2.0000      -0.895845       -24.3772
  59   2.0000      -0.885975       -24.1086
  60   2.0000      -0.873178       -23.7604
  61   2.0000      -0.864012       -23.5110
  62   2.0000      -0.858429       -23.3590
  63   2.0000      -0.845674       -23.0120
  64   2.0000      -0.837045       -22.7771
  65   2.0000      -0.836507       -22.7625
  66   2.0000      -0.822176       -22.3725
  67   2.0000      -0.817496       -22.2452
  68   2.0000      -0.816861       -22.2279
  69   2.0000      -0.808280       -21.9944
  70   2.0000      -0.797137       -21.6912
  71   2.0000      -0.790084       -21.4993
  72   2.0000      -0.786545       -21.4030
  73   2.0000      -0.779619       -21.2145
  74   2.0000      -0.717672       -19.5289
  75   2.0000      -0.646226       -17.5847
  76   0.0000      -0.386588       -10.5196
  77   0.0000      -0.345087        -9.3903
  78   0.0000      -0.339247        -9.2314
  79   0.0000      -0.304250        -8.2791
  80   0.0000      -0.299163        -8.1406

MULLIKEN ATOMIC CHARGES
-----------------------
   0 C :   -0.147770
   1 C :   -0.245335
   2 C :   -0.245946
   3 C :   -0.147618
   4 C :    0.019358
   5 H :    0.150206
   6 C :    0.024583
   7 H :    0.147151
   8 C :    0.161929
   9 O :   -0.371822
  10 N :   -0.069954
  11 C :    0.188422
  12 O :   -0.380379
  13 S :    0.089950
  14 C :    0.081645
  15 Cl:   -0.034076
  16 Cl:   -0.037100
  17 Cl:   -0.038702
  18 H :    0.133187
  19 H :    0.139379
  20 H :    0.155355
  21 H :    0.155361
  22 H :    0.139016
  23 H :    0.133161
Sum of atomic charges:    0.0000000

LOEWDIN ATOMIC CHARGES
----------------------
   0 C :   -0.203500
   1 C :   -0.165548
   2 C :   -0.165629
   3 C :   -0.203263
   4 C :   -0.163748
   5 H :    0.200096
   6 C :   -0.165943
   7 H :    0.199441
   8 C :   -0.352979
   9 O :    0.074091
  10 N :    0.016489
  11 C :   -0.351149
  12 O :    0.070458
  13 S :    0.554089
  14 C :   -1.267092
  15 Cl:    0.341433
  16 Cl:    0.335330
  17 Cl:    0.337417
  18 H :    0.155155
  19 H :    0.152537
  20 H :    0.147310
  21 H :    0.147370
  22 H :    0.152489
  23 H :    0.155146

  Mayer bond orders larger than 0.100000
B(  0-C ,  1-C ) :   0.9895 B(  0-C ,  6-C ) :   0.9978 B(  0-C , 18-H ) :   0.9399
B(  0-C , 19-H ) :   0.9591 B(  1-C ,  2-C ) :   1.9397 B(  1-C , 20-H ) :   0.9699
B(  2-C ,  3-C ) :   0.9905 B(  2-C , 21-H ) :   0.9697 B(  3-C ,  4-C ) :   0.9965
B(  3-C , 22-H ) :   0.9584 B(  3-C , 23-H ) :   0.9406 B(  4-C ,  5-H ) :   0.9105
B(  4-C ,  6-C ) :   0.9626 B(  4-C , 11-C ) :   0.9245 B(  6-C ,  7-H ) :   0.9071
B(  6-C ,  8-C ) :   0.9284 B(  8-C ,  9-O ) :   2.1282 B(  8-C , 10-N ) :   1.0588
B( 10-N , 11-C ) :   1.0756 B( 10-N , 13-S ) :   1.0091 B( 11-C , 12-O ) :   2.1150
B( 13-S , 14-C ) :   1.0612 B( 14-C , 15-Cl) :   1.1099 B( 14-C , 16-Cl) :   1.1397
B( 14-C , 17-Cl) :   1.1312

FINAL SINGLE POINT ENERGY     -2331.601287828263

DIPOLE MOMENT
-------------

Method             : SCF
Type of density    : Electron Density
Multiplicity       :   1
Irrep              :   0
Energy             : -2331.6164947091633621 Eh
Relativity type    :
Basis              : AO
                                X                 Y                 Z
Electronic contribution:     36.944917915      -0.260738173       0.852902953
Nuclear contribution   :    -38.864467587       0.272363028      -0.320178782
                        -----------------------------------------
Total Dipole Moment    :     -1.919549672       0.011624855       0.532724170
                        -----------------------------------------
Magnitude (a.u.)       :      1.992134815
Magnitude (Debye)      :      5.063604289

Rotational constants in cm-1:             0.024629             0.007354             0.006705
Rotational constants in MHz :           738.355268           220.465255           201.020017

                             ****ORCA TERMINATED NORMALLY****
TOTAL RUN TIME: 0 days 0 hours 10 minutes 3 seconds 579 msec
