                         Program Version 6.0.0  -   RELEASE  -
|  1> ! r2scan-3c def2/J RI DEFGRID2 scfconv6 printgap
|  2> %output
|  3>     printlevel normal
|  4> end
|  5> * xyz 0 1
|  6> C -3.4196462333 -0.011198496 0.1722674957
|  7> O -2.2125048123 0.2115125649 -0.5627020575
|  8> C -1.0484406316 -0.0718447946 0.0194001599
|  9> O -0.9662234886 -0.5104582884 1.1466502282
| 10> C 0.0955649309 0.2520988993 -0.9139646211
| 11> C 1.0111933293 -0.9605729036 -1.1351708565
| 12> C 1.8304788943 -1.2994524229 0.10613049
| 13> C 2.6472061671 -0.0911713054 0.5521391858
| 14> C 1.715013995 1.0764489387 0.8586598124
| 15> C 0.9037181432 1.4457221952 -0.378718722
| 16> H -3.8054093229 -1.0017429377 -0.0676668757
| 17> H -4.1182369184 0.7574727159 -0.1460820794
| 18> H -3.220813823 0.0552059749 1.2425019378
| 19> H -0.3637968086 0.5346204468 -1.8663122833
| 20> H 0.4096606134 -1.8222478836 -1.4322405864
| 21> H 1.6876869661 -0.7202620212 -1.9577490947
| 22> H 1.1590643347 -1.5970763439 0.9133699332
| 23> H 2.4898497726 -2.140746822 -0.1143442289
| 24> H 3.229494029 -0.3442056029 1.4393394849
| 25> H 3.3426770007 0.1941902616 -0.2405485564
| 26> H 1.0387236874 0.792022756 1.6671884927
| 27> H 2.2904211067 1.9436755656 1.1871703332
| 28> H 0.2268641825 2.2725602806 -0.1530118471
| 29> H 1.5824176843 1.7699065153 -1.1699218684
| 30> *
| 31>
| 32>                          ****END OF INPUT****

CARTESIAN COORDINATES (ANGSTROEM)
---------------------------------
  C     -3.419646   -0.011198    0.172267
  O     -2.212505    0.211513   -0.562702
  C     -1.048441   -0.071845    0.019400
  O     -0.966223   -0.510458    1.146650
  C      0.095565    0.252099   -0.913965
  C      1.011193   -0.960573   -1.135171
  C      1.830479   -1.299452    0.106130
  C      2.647206   -0.091171    0.552139
  C      1.715014    1.076449    0.858660
  C      0.903718    1.445722   -0.378719
  H     -3.805409   -1.001743   -0.067667
  H     -4.118237    0.757473   -0.146082
  H     -3.220814    0.055206    1.242502
  H     -0.363797    0.534620   -1.866312
  H      0.409661   -1.822248   -1.432241
  H      1.687687   -0.720262   -1.957749
  H      1.159064   -1.597076    0.913370
  H      2.489850   -2.140747   -0.114344
  H      3.229494   -0.344206    1.439339
  H      3.342677    0.194190   -0.240549
  H      1.038724    0.792023    1.667188
  H      2.290421    1.943676    1.187170
  H      0.226864    2.272560   -0.153012
  H      1.582418    1.769907   -1.169922

 Total Charge           Charge          ....    0
 Multiplicity           Mult            ....    1
 Number of Electrons    NEL             ....   78
 Basis Dimension        Dim             ....  270

ORBITAL ENERGIES
----------------

  NO   OCC          E(Eh)            E(eV)
   0   2.0000     -18.998373      -516.9720
   1   2.0000     -18.930566      -515.1269
   2   2.0000     -10.151360      -276.2325
   3   2.0000     -10.084785      -274.4209
   4   2.0000     -10.045295      -273.3464
   5   2.0000     -10.031714      -272.9768
   6   2.0000     -10.030131      -272.9337
   7   2.0000     -10.017158      -272.5807
   8   2.0000     -10.016316      -272.5578
   9   2.0000     -10.014608      -272.5113
  10   2.0000      -1.072265       -29.1778
  11   2.0000      -0.978027       -26.6135
  12   2.0000      -0.805076       -21.9072
  13   2.0000      -0.733180       -19.9508
  14   2.0000      -0.708681       -19.2842
  15   2.0000      -0.690012       -18.7762
  16   2.0000      -0.592953       -16.1351
  17   2.0000      -0.574148       -15.6234
  18   2.0000      -0.539760       -14.6876
  19   2.0000      -0.517735       -14.0883
  20   2.0000      -0.457454       -12.4480
  21   2.0000      -0.453676       -12.3451
  22   2.0000      -0.451751       -12.2928
  23   2.0000      -0.433017       -11.7830
  24   2.0000      -0.412293       -11.2191
  25   2.0000      -0.408275       -11.1097
  26   2.0000      -0.393396       -10.7048
  27   2.0000      -0.366626        -9.9764
  28   2.0000      -0.347174        -9.4471
  29   2.0000      -0.346513        -9.4291
  30   2.0000      -0.342388        -9.3168
  31   2.0000      -0.337147        -9.1742
  32   2.0000      -0.313695        -8.5361
  33   2.0000      -0.309538        -8.4230
  34   2.0000      -0.294875        -8.0240
  35   2.0000      -0.273633        -7.4459
  36   2.0000      -0.267712        -7.2848
  37   2.0000      -0.267300        -7.2736
  38   2.0000      -0.230360        -6.2684
  39   0.0000      -0.015558        -0.4234
  40   0.0000       0.063409         1.7255
  41   0.0000       0.084216         2.2916
  42   0.0000       0.102737         2.7956
  43   0.0000       0.112500         3.0613

MULLIKEN ATOMIC CHARGES
-----------------------
   0 C :   -0.307306
   1 O :   -0.182879
   2 C :    0.279070
   3 O :   -0.437020
   4 C :    0.069120
   5 C :   -0.378508
   6 C :   -0.276105
   7 C :   -0.336741
   8 C :   -0.271396
   9 C :   -0.376901
  10 H :    0.150730
  11 H :    0.149055
  12 H :    0.180017
  13 H :    0.171754
  14 H :    0.143581
  15 H :    0.160901
  16 H :    0.188764
  17 H :    0.144860
  18 H :    0.150044
  19 H :    0.144422
  20 H :    0.182966
  21 H :    0.146212
  22 H :    0.144598
  23 H :    0.160762
Sum of atomic charges:   -0.0000000

LOEWDIN ATOMIC CHARGES
----------------------
   0 C :   -0.047033
   1 O :   -0.606572
   2 C :    0.364910
   3 O :   -0.449994
   4 C :   -0.155655
   5 C :   -0.271263
   6 C :   -0.299020
   7 C :   -0.299579
   8 C :   -0.298576
   9 C :   -0.269074
  10 H :    0.172372
  11 H :    0.175027
  12 H :    0.188322
  13 H :    0.185116
  14 H :    0.162808
  15 H :    0.160292
  16 H :    0.176803
  17 H :    0.152777
  18 H :    0.155943
  19 H :    0.151266
  20 H :    0.174474
  21 H :    0.153248
  22 H :    0.162681
  23 H :    0.160728

  Mayer bond orders larger than 0.100000
B(  0-C ,  1-O ) :   0.8424 B(  0-C , 10-H ) :   0.9603 B(  0-C , 11-H ) :   0.9695
B(  0-C , 12-H ) :   0.9667 B(  1-O ,  2-C ) :   1.0787 B(  2-C ,  3-O ) :   1.8098
B(  2-C ,  4-C ) :   0.9263 B(  4-C ,  5-C ) :   0.9081 B(  4-C ,  9-C ) :   0.9011
B(  4-C , 13-H ) :   0.9296 B(  5-C ,  6-C ) :   0.9044 B(  5-C , 14-H ) :   0.9446
B(  5-C , 15-H ) :   0.9875 B(  6-C ,  7-C ) :   0.9043 B(  6-C , 16-H ) :   0.9815
B(  6-C , 17-H ) :   0.9382 B(  7-C ,  8-C ) :   0.9048 B(  7-C , 18-H ) :   0.9458
B(  7-C , 19-H ) :   1.0123 B(  8-C ,  9-C ) :   0.9122 B(  8-C , 20-H ) :   0.9802
B(  8-C , 21-H ) :   0.9380 B(  9-C , 22-H ) :   0.9416 B(  9-C , 23-H ) :   0.9843

Dispersion correction           -0.007822890
FINAL SINGLE POINT ENERGY      -463.633063729092

DIPOLE MOMENT
-------------

Method             : SCF
Type of density    : Electron Density
Multiplicity       :   1
Irrep              :   0
Energy             :  -463.6387335624605157 Eh
Relativity type    :
Basis              : AO
                                X                 Y                 Z
Electronic contribution:     -5.832027599      -0.405599127       0.129477090
Nuclear contribution   :      5.533654642       0.646067421      -0.646471111
                        -----------------------------------------
Total Dipole Moment    :     -0.298372958       0.240468294      -0.516994021
                        -----------------------------------------
Magnitude (a.u.)       :      0.643532626
Magnitude (Debye)      :      1.635729941

Rotational constants in cm-1:             0.089868             0.028206             0.027367
Rotational constants in MHz :          2694.160859           845.604018           820.448512

                             ****ORCA TERMINATED NORMALLY****
TOTAL RUN TIME: 0 days 0 hours 0 minutes 33 seconds 194 msec
