                         Program Version 6.0.0  -   RELEASE  -
|  1> ! r2scan-3c def2/J RI DEFGRID2 scfconv6 printgap
|  2> %output
|  3>     printlevel normal
|  4> end
|  5> %cpcm
|  6>     smd true
|  7>     smdsolvent "water"
|  8> end
|  9> * xyz 0 1
| 10> C -3.4196462333 -0.011198496 0.1722674957
| 11> O -2.2125048123 0.2115125649 -0.5627020575
| 12> C -1.0484406316 -0.0718447946 0.0194001599
| 13> O -0.9662234886 -0.5104582884 1.1466502282
| 14> C 0.0955649309 0.2520988993 -0.9139646211
| 15> C 1.0111933293 -0.9605729036 -1.1351708565
| 16> C 1.8304788943 -1.2994524229 0.10613049
| 17> C 2.6472061671 -0.0911713054 0.5521391858
| 18> C 1.715013995 1.0764489387 0.8586598124
| 19> C 0.9037181432 1.4457221952 -0.378718722
| 20> H -3.8054093229 -1.0017429377 -0.0676668757
| 21> H -4.1182369184 0.7574727159 -0.1460820794
| 22> H -3.220813823 0.0552059749 1.2425019378
| 23> H -0.3637968086 0.5346204468 -1.8663122833
| 24> H 0.4096606134 -1.8222478836 -1.4322405864
| 25> H 1.6876869661 -0.7202620212 -1.9577490947
| 26> H 1.1590643347 -1.5970763439 0.9133699332
| 27> H 2.4898497726 -2.140746822 -0.1143442289
| 28> H 3.229494029 -0.3442056029 1.4393394849
| 29> H 3.3426770007 0.1941902616 -0.2405485564
| 30> H 1.0387236874 0.792022756 1.6671884927
| 31> H 2.2904211067 1.9436755656 1.1871703332
| 32> H 0.2268641825 2.2725602806 -0.1530118471
| 33> H 1.5824176843 1.7699065153 -1.1699218684
| 34> *
| 35>
| 36>                          ****END OF INPUT****

CARTESIAN COORDINATES (ANGSTROEM)
---------------------------------
  C     -3.419646   -0.011198    0.172267
  O     -2.212505    0.211513   -0.562702
  C     -1.048441   -0.071845    0.019400
  O     -0.966223   -0.510458    1.146650
  C      0.095565    0.252099   -0.913965
  C      1.011193   -0.960573   -1.135171
  C      1.830479   -1.299452    0.106130
  C      2.647206   -0.091171    0.552139
  C      1.715014    1.076449    0.858660
  C      0.903718    1.445722   -0.378719
  H     -3.805409   -1.001743   -0.067667
  H     -4.118237    0.757473   -0.146082
  H     -3.220814    0.055206    1.242502
  H     -0.363797    0.534620   -1.866312
  H      0.409661   -1.822248   -1.432241
  H      1.687687   -0.720262   -1.957749
  H      1.159064   -1.597076    0.913370
  H      2.489850   -2.140747   -0.114344
  H      3.229494   -0.344206    1.439339
  H      3.342677    0.194190   -0.240549
  H      1.038724    0.792023    1.667188
  H      2.290421    1.943676    1.187170
  H      0.226864    2.272560   -0.153012
  H      1.582418    1.769907   -1.169922

 Total Charge           Charge          ....    0
 Multiplicity           Mult            ....    1
 Number of Electrons    NEL             ....   78
 Basis Dimension        Dim             ....  270

ORBITAL ENERGIES
----------------

  NO   OCC          E(Eh)            E(eV)
   0   2.0000     -19.002103      -517.0735
   1   2.0000     -18.941826      -515.4333
   2   2.0000     -10.158743      -276.4335
   3   2.0000     -10.074224      -274.1336
   4   2.0000     -10.041082      -273.2317
   5   2.0000     -10.024662      -272.7849
   6   2.0000     -10.023446      -272.7518
   7   2.0000     -10.013739      -272.4877
   8   2.0000     -10.013051      -272.4690
   9   2.0000     -10.012793      -272.4619
  10   2.0000      -1.077123       -29.3100
  11   2.0000      -0.987492       -26.8710
  12   2.0000      -0.801107       -21.7992
  13   2.0000      -0.730280       -19.8719
  14   2.0000      -0.704068       -19.1587
  15   2.0000      -0.684518       -18.6267
  16   2.0000      -0.587995       -16.0002
  17   2.0000      -0.569796       -15.5049
  18   2.0000      -0.536567       -14.6007
  19   2.0000      -0.516961       -14.0672
  20   2.0000      -0.462684       -12.5903
  21   2.0000      -0.452815       -12.3217
  22   2.0000      -0.449046       -12.2192
  23   2.0000      -0.432547       -11.7702
  24   2.0000      -0.406920       -11.0729
  25   2.0000      -0.405710       -11.0399
  26   2.0000      -0.391391       -10.6503
  27   2.0000      -0.364509        -9.9188
  28   2.0000      -0.342792        -9.3278
  29   2.0000      -0.341517        -9.2931
  30   2.0000      -0.338282        -9.2051
  31   2.0000      -0.335137        -9.1196
  32   2.0000      -0.314784        -8.5657
  33   2.0000      -0.306456        -8.3391
  34   2.0000      -0.294726        -8.0199
  35   2.0000      -0.278126        -7.5682
  36   2.0000      -0.263056        -7.1581
  37   2.0000      -0.262590        -7.1454
  38   2.0000      -0.238882        -6.5003
  39   0.0000      -0.021171        -0.5761
  40   0.0000       0.068283         1.8581
  41   0.0000       0.092821         2.5258
  42   0.0000       0.109748         2.9864
  43   0.0000       0.117107         3.1866

MULLIKEN ATOMIC CHARGES
-----------------------
   0 C :   -0.330305
   1 O :   -0.202806
   2 C :    0.306363
   3 O :   -0.502091
   4 C :    0.076523
   5 C :   -0.393728
   6 C :   -0.292456
   7 C :   -0.345414
   8 C :   -0.290068
   9 C :   -0.386111
  10 H :    0.177691
  11 H :    0.175043
  12 H :    0.180553
  13 H :    0.183729
  14 H :    0.158322
  15 H :    0.177897
  16 H :    0.171891
  17 H :    0.156160
  18 H :    0.158204
  19 H :    0.157053
  20 H :    0.169207
  21 H :    0.157879
  22 H :    0.158470
  23 H :    0.177993
Sum of atomic charges:   -0.0000000

LOEWDIN ATOMIC CHARGES
----------------------
   0 C :   -0.043533
   1 O :   -0.612005
   2 C :    0.372962
   3 O :   -0.499619
   4 C :   -0.152151
   5 C :   -0.271262
   6 C :   -0.301993
   7 C :   -0.303050
   8 C :   -0.301049
   9 C :   -0.268479
  10 H :    0.182097
  11 H :    0.186419
  12 H :    0.188550
  13 H :    0.191101
  14 H :    0.166786
  15 H :    0.167465
  16 H :    0.168618
  17 H :    0.156401
  18 H :    0.156786
  19 H :    0.156688
  20 H :    0.167356
  21 H :    0.157156
  22 H :    0.166863
  23 H :    0.167891

  Mayer bond orders larger than 0.100000
B(  0-C ,  1-O ) :   0.8284 B(  0-C , 10-H ) :   0.9525 B(  0-C , 11-H ) :   0.9596
B(  0-C , 12-H ) :   0.9628 B(  1-O ,  2-C ) :   1.0910 B(  2-C ,  3-O ) :   1.7626
B(  2-C ,  4-C ) :   0.9299 B(  4-C ,  5-C ) :   0.8999 B(  4-C ,  9-C ) :   0.8972
B(  4-C , 13-H ) :   0.9217 B(  5-C ,  6-C ) :   0.9009 B(  5-C , 14-H ) :   0.9451
B(  5-C , 15-H ) :   0.9804 B(  6-C ,  7-C ) :   0.9017 B(  6-C , 16-H ) :   0.9889
B(  6-C , 17-H ) :   0.9360 B(  7-C ,  8-C ) :   0.9021 B(  7-C , 18-H ) :   0.9481
B(  7-C , 19-H ) :   1.0052 B(  8-C ,  9-C ) :   0.9068 B(  8-C , 20-H ) :   0.9876
B(  8-C , 21-H ) :   0.9356 B(  9-C , 22-H ) :   0.9402 B(  9-C , 23-H ) :   0.9779

Dispersion correction           -0.007822890
FINAL SINGLE POINT ENERGY      -463.636150629970

DIPOLE MOMENT
-------------

Method             : SCF
Type of density    : Electron Density
Multiplicity       :   1
Irrep              :   0
Energy             :  -463.6418204633389450 Eh
Relativity type    :
Basis              : AO
                                X                 Y                 Z
Electronic contribution:     -5.861928436      -0.256506908      -0.228650850
Nuclear contribution   :      5.533654642       0.646067421      -0.646471111
                        -----------------------------------------
Total Dipole Moment    :     -0.328273794       0.389560513      -0.875121961
                        -----------------------------------------
Magnitude (a.u.)       :      1.012600377
Magnitude (Debye)      :      2.573825612

Rotational constants in cm-1:             0.089868             0.028206             0.027367
Rotational constants in MHz :          2694.160859           845.604018           820.448512

                             ****ORCA TERMINATED NORMALLY****
TOTAL RUN TIME: 0 days 0 hours 0 minutes 44 seconds 191 msec
