                         Program Version 6.0.0  -   RELEASE  -
|  1> ! wb97x-v def2-tzvp def2/J RIJCOSX DEFGRID2 scfconv7 GCP(DFT/TZ) printgap
|  2> %output
|  3>     printlevel normal
|  4> end
|  5> * xyz 0 1
|  6> C -2.596117350771268 0.0014862586807226094 0.003672195541694575
|  7> C -1.8960018782799053 1.193058108700992 0.17565943582696047
|  8> C -0.5051824309824013 1.1962697664138786 0.15977167657897623
|  9> C 0.197415893833572 -0.0005078298426696627 -0.02097439313093972
| 10> C -0.5117868358160417 -1.1951834149697018 -0.18243010644425436
| 11> C -1.9010989056392993 -1.1927196749232958 -0.17775847936737774
| 12> C 1.6903778947596055 -0.06590048416152838 -0.019845312494800937
| 13> O 2.286358366294762 -1.1198494181296994 0.2661226534570355
| 14> N 2.3530123352495984 1.0614635149909526 -0.3380180492315816
| 15> H -3.6813081544327506 0.0029941986421969857 0.01504143645667893
| 16> H -2.4334232505433135 2.123309016893318 0.3285524495132592
| 17> H 0.020240956674069964 2.1327986842950986 0.3160776272299304
| 18> H 0.03554729042397371 -2.1214480028042217 -0.3203431169611458
| 19> H -2.4428642350522076 -2.1231282200569206 -0.3137530675397817
| 20> H 1.8778593709433968 1.8847545049718495 -0.6709777390490103
| 21> H 3.3617516571376846 1.04098287289824 -0.35795857393076286
| 22> *
| 23>
| 24>                          ****END OF INPUT****

CARTESIAN COORDINATES (ANGSTROEM)
---------------------------------
  C     -2.596117    0.001486    0.003672
  C     -1.896002    1.193058    0.175659
  C     -0.505182    1.196270    0.159772
  C      0.197416   -0.000508   -0.020974
  C     -0.511787   -1.195183   -0.182430
  C     -1.901099   -1.192720   -0.177758
  C      1.690378   -0.065900   -0.019845
  O      2.286358   -1.119849    0.266123
  N      2.353012    1.061464   -0.338018
  H     -3.681308    0.002994    0.015041
  H     -2.433423    2.123309    0.328552
  H      0.020241    2.132799    0.316078
  H      0.035547   -2.121448   -0.320343
  H     -2.442864   -2.123128   -0.313753
  H      1.877859    1.884755   -0.670978
  H      3.361752    1.040983   -0.357959

 Total Charge           Charge          ....    0
 Multiplicity           Mult            ....    1
 Number of Electrons    NEL             ....   64
 Basis Dimension        Dim             ....  321

ORBITAL ENERGIES
----------------

  NO   OCC          E(Eh)            E(eV)
   0   2.0000     -21.632163      -588.6411
   1   2.0000     -16.555515      -450.4985
   2   2.0000     -12.156288      -330.7894
   3   2.0000     -12.071741      -328.4888
   4   2.0000     -12.069726      -328.4339
   5   2.0000     -12.065769      -328.3263
   6   2.0000     -12.063571      -328.2665
   7   2.0000     -12.061647      -328.2141
   8   2.0000     -12.059632      -328.1593
   9   2.0000      -1.680735       -45.7351
  10   2.0000      -1.510386       -41.0997
  11   2.0000      -1.396853       -38.0103
  12   2.0000      -1.299186       -35.3527
  13   2.0000      -1.286426       -35.0054
  14   2.0000      -1.178437       -32.0669
  15   2.0000      -1.120927       -30.5020
  16   2.0000      -1.111687       -30.2505
  17   2.0000      -1.053441       -28.6656
  18   2.0000      -1.035563       -28.1791
  19   2.0000      -0.980988       -26.6940
  20   2.0000      -0.962198       -26.1827
  21   2.0000      -0.951003       -25.8781
  22   2.0000      -0.908668       -24.7261
  23   2.0000      -0.901557       -24.5326
  24   2.0000      -0.887091       -24.1390
  25   2.0000      -0.850278       -23.1373
  26   2.0000      -0.822597       -22.3840
  27   2.0000      -0.819150       -22.2902
  28   2.0000      -0.794161       -21.6102
  29   2.0000      -0.782317       -21.2879
  30   2.0000      -0.657648       -17.8955
  31   2.0000      -0.650240       -17.6939
  32   0.0000      -0.317022        -8.6266
  33   0.0000      -0.246649        -6.7116
  34   0.0000      -0.211190        -5.7468
  35   0.0000      -0.087785        -2.3888
  36   0.0000      -0.075627        -2.0579

MULLIKEN ATOMIC CHARGES
-----------------------
   0 C :   -0.124898
   1 C :   -0.116826
   2 C :   -0.205888
   3 C :    0.144878
   4 C :   -0.192551
   5 C :   -0.082329
   6 C :    0.246416
   7 O :   -0.385578
   8 N :   -0.411570
   9 H :    0.123578
  10 H :    0.121350
  11 H :    0.117345
  12 H :    0.152682
  13 H :    0.124752
  14 H :    0.240830
  15 H :    0.247807
Sum of atomic charges:    0.0000000

LOEWDIN ATOMIC CHARGES
----------------------
   0 C :   -0.127541
   1 C :   -0.137869
   2 C :   -0.110231
   3 C :   -0.118527
   4 C :   -0.074722
   5 C :   -0.130983
   6 C :   -0.419616
   7 O :    0.032295
   8 N :    0.018394
   9 H :    0.143342
  10 H :    0.143131
  11 H :    0.141058
  12 H :    0.157181
  13 H :    0.144226
  14 H :    0.166304
  15 H :    0.173558

  Mayer bond orders larger than 0.100000
B(  0-C ,  1-C ) :   1.4354 B(  0-C ,  5-C ) :   1.4097 B(  0-C ,  9-H ) :   0.9710
B(  1-C ,  2-C ) :   1.4777 B(  1-C , 10-H ) :   0.9707 B(  2-C ,  3-C ) :   1.3599
B(  2-C , 11-H ) :   0.9458 B(  3-C ,  4-C ) :   1.4265 B(  3-C ,  6-C ) :   0.9058
B(  3-C ,  7-O ) :  -0.1072 B(  4-C ,  5-C ) :   1.4282 B(  4-C , 12-H ) :   0.9530
B(  5-C , 13-H ) :   0.9750 B(  6-C ,  7-O ) :   2.1012 B(  6-C ,  8-N ) :   1.2791
B(  8-N , 14-H ) :   0.9166 B(  8-N , 15-H ) :   0.9030

FINAL SINGLE POINT ENERGY      -400.977314364715

DIPOLE MOMENT
-------------

Method             : SCF
Type of density    : Electron Density
Multiplicity       :   1
Irrep              :   0
Energy             :  -400.9857048505151624 Eh
Relativity type    :
Basis              : AO
                                X                 Y                 Z
Electronic contribution:      2.387351517      -1.448165073       0.359012683
Nuclear contribution   :     -3.009412260       2.793852074      -0.817887277
                        -----------------------------------------
Total Dipole Moment    :     -0.622060743       1.345687001      -0.458874594
                        -----------------------------------------
Magnitude (a.u.)       :      1.551901725
Magnitude (Debye)      :      3.944620701

Rotational constants in cm-1:             0.127313             0.040576             0.031353
Rotational constants in MHz :          3816.740592          1216.438130           939.925317

                             ****ORCA TERMINATED NORMALLY****
TOTAL RUN TIME: 0 days 0 hours 3 minutes 14 seconds 627 msec
