                         Program Version 6.0.0  -   RELEASE  -
|  1> ! wb97x-v def2-tzvp def2/J RIJCOSX DEFGRID2 scfconv7 GCP(DFT/TZ) printgap
|  2> %output
|  3>     printlevel normal
|  4> end
|  5> %cpcm
|  6>     smd true
|  7>     smdsolvent "water"
|  8> end
|  9> * xyz 0 1
| 10> C -2.596117350771268 0.0014862586807226094 0.003672195541694575
| 11> C -1.8960018782799053 1.193058108700992 0.17565943582696047
| 12> C -0.5051824309824013 1.1962697664138786 0.15977167657897623
| 13> C 0.197415893833572 -0.0005078298426696627 -0.02097439313093972
| 14> C -0.5117868358160417 -1.1951834149697018 -0.18243010644425436
| 15> C -1.9010989056392993 -1.1927196749232958 -0.17775847936737774
| 16> C 1.6903778947596055 -0.06590048416152838 -0.019845312494800937
| 17> O 2.286358366294762 -1.1198494181296994 0.2661226534570355
| 18> N 2.3530123352495984 1.0614635149909526 -0.3380180492315816
| 19> H -3.6813081544327506 0.0029941986421969857 0.01504143645667893
| 20> H -2.4334232505433135 2.123309016893318 0.3285524495132592
| 21> H 0.020240956674069964 2.1327986842950986 0.3160776272299304
| 22> H 0.03554729042397371 -2.1214480028042217 -0.3203431169611458
| 23> H -2.4428642350522076 -2.1231282200569206 -0.3137530675397817
| 24> H 1.8778593709433968 1.8847545049718495 -0.6709777390490103
| 25> H 3.3617516571376846 1.04098287289824 -0.35795857393076286
| 26> *
| 27>
| 28>                          ****END OF INPUT****

CARTESIAN COORDINATES (ANGSTROEM)
---------------------------------
  C     -2.596117    0.001486    0.003672
  C     -1.896002    1.193058    0.175659
  C     -0.505182    1.196270    0.159772
  C      0.197416   -0.000508   -0.020974
  C     -0.511787   -1.195183   -0.182430
  C     -1.901099   -1.192720   -0.177758
  C      1.690378   -0.065900   -0.019845
  O      2.286358   -1.119849    0.266123
  N      2.353012    1.061464   -0.338018
  H     -3.681308    0.002994    0.015041
  H     -2.433423    2.123309    0.328552
  H      0.020241    2.132799    0.316078
  H      0.035547   -2.121448   -0.320343
  H     -2.442864   -2.123128   -0.313753
  H      1.877859    1.884755   -0.670978
  H      3.361752    1.040983   -0.357959

 Total Charge           Charge          ....    0
 Multiplicity           Mult            ....    1
 Number of Electrons    NEL             ....   64
 Basis Dimension        Dim             ....  321

ORBITAL ENERGIES
----------------

  NO   OCC          E(Eh)            E(eV)
   0   2.0000     -21.648648      -589.0896
   1   2.0000     -16.548581      -450.3098
   2   2.0000     -12.166460      -331.0662
   3   2.0000     -12.069068      -328.4160
   4   2.0000     -12.062073      -328.2257
   5   2.0000     -12.058991      -328.1418
   6   2.0000     -12.058222      -328.1209
   7   2.0000     -12.055030      -328.0341
   8   2.0000     -12.054076      -328.0081
   9   2.0000      -1.700232       -46.2657
  10   2.0000      -1.505462       -40.9657
  11   2.0000      -1.392865       -37.9018
  12   2.0000      -1.295682       -35.2573
  13   2.0000      -1.280994       -34.8576
  14   2.0000      -1.177043       -32.0290
  15   2.0000      -1.115432       -30.3524
  16   2.0000      -1.108682       -30.1688
  17   2.0000      -1.052719       -28.6459
  18   2.0000      -1.043256       -28.3884
  19   2.0000      -0.979032       -26.6408
  20   2.0000      -0.957270       -26.0486
  21   2.0000      -0.946839       -25.7648
  22   2.0000      -0.919852       -25.0305
  23   2.0000      -0.902761       -24.5654
  24   2.0000      -0.879668       -23.9370
  25   2.0000      -0.858414       -23.3586
  26   2.0000      -0.822726       -22.3875
  27   2.0000      -0.811712       -22.0878
  28   2.0000      -0.796687       -21.6789
  29   2.0000      -0.778099       -21.1732
  30   2.0000      -0.654629       -17.8134
  31   2.0000      -0.646054       -17.5800
  32   0.0000      -0.317803        -8.6479
  33   0.0000      -0.241862        -6.5814
  34   0.0000      -0.210621        -5.7313
  35   0.0000      -0.079391        -2.1603
  36   0.0000      -0.070994        -1.9319

MULLIKEN ATOMIC CHARGES
-----------------------
   0 C :   -0.158213
   1 C :   -0.148595
   2 C :   -0.228890
   3 C :    0.149675
   4 C :   -0.228209
   5 C :   -0.139327
   6 C :    0.290656
   7 O :   -0.538008
   8 N :   -0.419402
   9 H :    0.166396
  10 H :    0.166132
  11 H :    0.168604
  12 H :    0.163568
  13 H :    0.165562
  14 H :    0.301781
  15 H :    0.288270
Sum of atomic charges:    0.0000000

LOEWDIN ATOMIC CHARGES
----------------------
   0 C :   -0.128067
   1 C :   -0.138312
   2 C :   -0.098650
   3 C :   -0.130410
   4 C :   -0.093503
   5 C :   -0.137866
   6 C :   -0.416122
   7 O :   -0.060805
   8 N :    0.048743
   9 H :    0.154048
  10 H :    0.154262
  11 H :    0.157963
  12 H :    0.156735
  13 H :    0.153882
  14 H :    0.189659
  15 H :    0.188443

  Mayer bond orders larger than 0.100000
B(  0-C ,  1-C ) :   1.4048 B(  0-C ,  5-C ) :   1.3959 B(  0-C ,  9-H ) :   0.9719
B(  1-C ,  2-C ) :   1.4484 B(  1-C , 10-H ) :   0.9731 B(  2-C ,  3-C ) :   1.3497
B(  2-C , 11-H ) :   0.9571 B(  3-C ,  4-C ) :   1.3575 B(  3-C ,  6-C ) :   0.9189
B(  3-C ,  7-O ) :  -0.1174 B(  4-C ,  5-C ) :   1.4373 B(  4-C , 12-H ) :   0.9632
B(  5-C , 13-H ) :   0.9755 B(  6-C ,  7-O ) :   1.9458 B(  6-C ,  8-N ) :   1.3795
B(  8-N , 14-H ) :   0.8891 B(  8-N , 15-H ) :   0.8823

FINAL SINGLE POINT ENERGY      -400.995113817822

DIPOLE MOMENT
-------------

Method             : SCF
Type of density    : Electron Density
Multiplicity       :   1
Irrep              :   0
Energy             :  -401.0035043036223783 Eh
Relativity type    :
Basis              : AO
                                X                 Y                 Z
Electronic contribution:      2.090553606      -0.708673685       0.166227721
Nuclear contribution   :     -3.009412260       2.793852074      -0.817887277
                        -----------------------------------------
Total Dipole Moment    :     -0.918858654       2.085178389      -0.651659556
                        -----------------------------------------
Magnitude (a.u.)       :      2.370006396
Magnitude (Debye)      :      6.024077518

Rotational constants in cm-1:             0.127313             0.040576             0.031353
Rotational constants in MHz :          3816.740592          1216.438130           939.925317

                             ****ORCA TERMINATED NORMALLY****
TOTAL RUN TIME: 0 days 0 hours 3 minutes 17 seconds 542 msec
