                         Program Version 6.0.0  -   RELEASE  -
|  1> ! wb97x-v def2-tzvp def2/J RIJCOSX DEFGRID2 scfconv7 GCP(DFT/TZ) printgap
|  2> %output
|  3>     printlevel normal
|  4> end
|  5> * xyz 0 1
|  6> C -2.594140412482401 -0.6123671117934198 -0.2957829075784896
|  7> C -1.21648861161678 -0.26769246041419514 0.23314656600816636
|  8> H -1.2390858380462468 -0.22314478007470426 1.3341473317411483
|  9> C -0.6980629819644089 1.059556823636666 -0.31944974888527666
| 10> H -0.7149500837207433 1.0212019383788618 -1.420435878092226
| 11> C 0.7337414441058767 1.2862663231079008 0.14721035855252992
| 12> H 0.7289686047547698 1.4206141090350024 1.2403262684946865
| 13> C 1.6099484896816676 0.08883691560875148 -0.19267761675373818
| 14> H 1.6901481048163804 -0.009397030770216913 -1.2872559008882558
| 15> C 0.9772860545971501 -1.189494685151927 0.3595628469182972
| 16> H 0.9239124639689663 -1.1561613860742264 1.4577637098291238
| 17> O -0.3392149020737266 -1.327812222172041 -0.18662149851196527
| 18> O 1.7104483163531956 -2.3382156190147128 0.025955301853450817
| 19> O 2.8939196210512685 0.3201576865223223 0.39139063726412754
| 20> O 1.2004759068371817 2.481885887840754 -0.49054982845068223
| 21> O -1.5580247391524116 2.0984213183483047 0.15665104194862667
| 22> O -3.10747714422387 -1.813861831566917 0.29084824481844507
| 23> H -2.5501676349926115 -0.6998316017607564 -1.3911489064338056
| 24> H -3.2931746385712173 0.18585897213575248 -0.03684324564385335
| 25> H 1.8968194379176098 -2.3142282311980056 -0.9252428389608985
| 26> H 3.494699770709085 -0.35761581502798107 0.05451727180619914
| 27> H 2.024598745981729 2.741948201075867 -0.05902567025199823
| 28> H -1.1678288432386863 2.9379846106595147 -0.1232742085604609
| 29> H -2.505465364406637 -2.529604660595326 0.047697546300516286
| 30> *
| 31>
| 32>                          ****END OF INPUT****

CARTESIAN COORDINATES (ANGSTROEM)
---------------------------------
  C     -2.594140   -0.612367   -0.295783
  C     -1.216489   -0.267692    0.233147
  H     -1.239086   -0.223145    1.334147
  C     -0.698063    1.059557   -0.319450
  H     -0.714950    1.021202   -1.420436
  C      0.733741    1.286266    0.147210
  H      0.728969    1.420614    1.240326
  C      1.609948    0.088837   -0.192678
  H      1.690148   -0.009397   -1.287256
  C      0.977286   -1.189495    0.359563
  H      0.923912   -1.156161    1.457764
  O     -0.339215   -1.327812   -0.186621
  O      1.710448   -2.338216    0.025955
  O      2.893920    0.320158    0.391391
  O      1.200476    2.481886   -0.490550
  O     -1.558025    2.098421    0.156651
  O     -3.107477   -1.813862    0.290848
  H     -2.550168   -0.699832   -1.391149
  H     -3.293175    0.185859   -0.036843
  H      1.896819   -2.314228   -0.925243
  H      3.494700   -0.357616    0.054517
  H      2.024599    2.741948   -0.059026
  H     -1.167829    2.937985   -0.123274
  H     -2.505465   -2.529605    0.047698

 Total Charge           Charge          ....    0
 Multiplicity           Mult            ....    1
 Number of Electrons    NEL             ....   96
 Basis Dimension        Dim             ....  444

ORBITAL ENERGIES
----------------

  NO   OCC          E(Eh)            E(eV)
   0   2.0000     -21.704362      -590.6057
   1   2.0000     -21.698781      -590.4538
   2   2.0000     -21.697169      -590.4100
   3   2.0000     -21.693066      -590.2983
   4   2.0000     -21.683929      -590.0497
   5   2.0000     -21.667805      -589.6110
   6   2.0000     -12.164827      -331.0218
   7   2.0000     -12.120716      -329.8215
   8   2.0000     -12.117841      -329.7432
   9   2.0000     -12.113716      -329.6310
  10   2.0000     -12.110894      -329.5542
  11   2.0000     -12.093095      -329.0698
  12   2.0000      -1.732597       -47.1464
  13   2.0000      -1.702999       -46.3409
  14   2.0000      -1.695764       -46.1441
  15   2.0000      -1.689783       -45.9813
  16   2.0000      -1.684207       -45.8296
  17   2.0000      -1.667549       -45.3763
  18   2.0000      -1.346130       -36.6301
  19   2.0000      -1.328267       -36.1440
  20   2.0000      -1.237690       -33.6792
  21   2.0000      -1.211313       -32.9615
  22   2.0000      -1.171799       -31.8863
  23   2.0000      -1.133579       -30.8463
  24   2.0000      -1.099973       -29.9318
  25   2.0000      -1.071436       -29.1553
  26   2.0000      -1.058252       -28.7965
  27   2.0000      -1.045016       -28.4363
  28   2.0000      -1.040888       -28.3240
  29   2.0000      -1.016191       -27.6520
  30   2.0000      -1.006735       -27.3947
  31   2.0000      -0.998880       -27.1809
  32   2.0000      -0.979817       -26.6622
  33   2.0000      -0.977992       -26.6125
  34   2.0000      -0.963088       -26.2070
  35   2.0000      -0.951299       -25.8862
  36   2.0000      -0.943504       -25.6741
  37   2.0000      -0.934185       -25.4205
  38   2.0000      -0.932128       -25.3645
  39   2.0000      -0.910406       -24.7734
  40   2.0000      -0.908185       -24.7130
  41   2.0000      -0.897125       -24.4120
  42   2.0000      -0.851790       -23.1784
  43   2.0000      -0.834028       -22.6950
  44   2.0000      -0.828497       -22.5445
  45   2.0000      -0.814211       -22.1558
  46   2.0000      -0.800373       -21.7792
  47   2.0000      -0.775727       -21.1086
  48   0.0000      -0.247022        -6.7218
  49   0.0000      -0.205318        -5.5870
  50   0.0000      -0.186662        -5.0793
  51   0.0000      -0.155354        -4.2274
  52   0.0000      -0.125428        -3.4131

MULLIKEN ATOMIC CHARGES
-----------------------
   0 C :   -0.011156
   1 C :    0.035717
   2 H :    0.083215
   3 C :    0.090930
   4 H :    0.076698
   5 C :    0.035727
   6 H :    0.099003
   7 C :    0.002494
   8 H :    0.080537
   9 C :    0.101332
  10 H :    0.091753
  11 O :   -0.273728
  12 O :   -0.404663
  13 O :   -0.432164
  14 O :   -0.456781
  15 O :   -0.445207
  16 O :   -0.450765
  17 H :    0.085591
  18 H :    0.123809
  19 H :    0.305786
  20 H :    0.313074
  21 H :    0.321718
  22 H :    0.317802
  23 H :    0.309277
Sum of atomic charges:   -0.0000000

LOEWDIN ATOMIC CHARGES
----------------------
   0 C :   -0.306376
   1 C :   -0.297947
   2 H :    0.146096
   3 C :   -0.301098
   4 H :    0.143423
   5 C :   -0.311056
   6 H :    0.147629
   7 C :   -0.326665
   8 H :    0.139680
   9 C :   -0.406115
  10 H :    0.136237
  11 O :    0.179275
  12 O :    0.011225
  13 O :   -0.012021
  14 O :   -0.017343
  15 O :   -0.008812
  16 O :   -0.049609
  17 H :    0.120040
  18 H :    0.137289
  19 H :    0.175961
  20 H :    0.174426
  21 H :    0.177902
  22 H :    0.177536
  23 H :    0.170324

  Mayer bond orders larger than 0.100000
B(  0-C ,  1-C ) :   0.9866 B(  0-C , 16-O ) :   1.0225 B(  0-C , 17-H ) :   0.9684
B(  0-C , 18-H ) :   0.9647 B(  1-C ,  2-H ) :   0.9550 B(  1-C ,  3-C ) :   0.9468
B(  1-C , 11-O ) :   0.9588 B(  3-C ,  4-H ) :   0.9530 B(  3-C ,  5-C ) :   0.9525
B(  3-C , 15-O ) :   1.0816 B(  5-C ,  6-H ) :   0.9784 B(  5-C ,  7-C ) :   0.9579
B(  5-C , 14-O ) :   1.0825 B(  7-C ,  8-H ) :   0.9490 B(  7-C ,  9-C ) :   0.9635
B(  7-C , 13-O ) :   1.1029 B(  9-C , 10-H ) :   0.9754 B(  9-C , 11-O ) :   1.0319
B(  9-C , 12-O ) :   1.1217 B( 12-O , 19-H ) :   0.8890 B( 13-O , 20-H ) :   0.8904
B( 14-O , 21-H ) :   0.8880 B( 15-O , 22-H ) :   0.8836 B( 16-O , 23-H ) :   0.8931

FINAL SINGLE POINT ENERGY      -687.250435544543

DIPOLE MOMENT
-------------

Method             : SCF
Type of density    : Electron Density
Multiplicity       :   1
Irrep              :   0
Energy             :  -687.2691946816432846 Eh
Relativity type    :
Basis              : AO
                                X                 Y                 Z
Electronic contribution:      1.833657390      -0.872112413       0.409222993
Nuclear contribution   :     -0.518295514       1.189205577      -1.104736811
                        -----------------------------------------
Total Dipole Moment    :      1.315361876       0.317093164      -0.695513818
                        -----------------------------------------
Magnitude (a.u.)       :      1.521336390
Magnitude (Debye)      :      3.866929793

Rotational constants in cm-1:             0.038742             0.026045             0.016312
Rotational constants in MHz :          1161.451717           780.814888           489.035017

                             ****ORCA TERMINATED NORMALLY****
TOTAL RUN TIME: 0 days 0 hours 4 minutes 45 seconds 131 msec
