                         Program Version 6.0.0  -   RELEASE  -
|  1> ! wb97x-v def2-tzvp def2/J RIJCOSX DEFGRID2 scfconv7 GCP(DFT/TZ) printgap
|  2> %output
|  3>     printlevel normal
|  4> end
|  5> %cpcm
|  6>     smd true
|  7>     smdsolvent "water"
|  8> end
|  9> * xyz 0 1
| 10> C -2.594140412482401 -0.6123671117934198 -0.2957829075784896
| 11> C -1.21648861161678 -0.26769246041419514 0.23314656600816636
| 12> H -1.2390858380462468 -0.22314478007470426 1.3341473317411483
| 13> C -0.6980629819644089 1.059556823636666 -0.31944974888527666
| 14> H -0.7149500837207433 1.0212019383788618 -1.420435878092226
| 15> C 0.7337414441058767 1.2862663231079008 0.14721035855252992
| 16> H 0.7289686047547698 1.4206141090350024 1.2403262684946865
| 17> C 1.6099484896816676 0.08883691560875148 -0.19267761675373818
| 18> H 1.6901481048163804 -0.009397030770216913 -1.2872559008882558
| 19> C 0.9772860545971501 -1.189494685151927 0.3595628469182972
| 20> H 0.9239124639689663 -1.1561613860742264 1.4577637098291238
| 21> O -0.3392149020737266 -1.327812222172041 -0.18662149851196527
| 22> O 1.7104483163531956 -2.3382156190147128 0.025955301853450817
| 23> O 2.8939196210512685 0.3201576865223223 0.39139063726412754
| 24> O 1.2004759068371817 2.481885887840754 -0.49054982845068223
| 25> O -1.5580247391524116 2.0984213183483047 0.15665104194862667
| 26> O -3.10747714422387 -1.813861831566917 0.29084824481844507
| 27> H -2.5501676349926115 -0.6998316017607564 -1.3911489064338056
| 28> H -3.2931746385712173 0.18585897213575248 -0.03684324564385335
| 29> H 1.8968194379176098 -2.3142282311980056 -0.9252428389608985
| 30> H 3.494699770709085 -0.35761581502798107 0.05451727180619914
| 31> H 2.024598745981729 2.741948201075867 -0.05902567025199823
| 32> H -1.1678288432386863 2.9379846106595147 -0.1232742085604609
| 33> H -2.505465364406637 -2.529604660595326 0.047697546300516286
| 34> *
| 35>
| 36>                          ****END OF INPUT****

CARTESIAN COORDINATES (ANGSTROEM)
---------------------------------
  C     -2.594140   -0.612367   -0.295783
  C     -1.216489   -0.267692    0.233147
  H     -1.239086   -0.223145    1.334147
  C     -0.698063    1.059557   -0.319450
  H     -0.714950    1.021202   -1.420436
  C      0.733741    1.286266    0.147210
  H      0.728969    1.420614    1.240326
  C      1.609948    0.088837   -0.192678
  H      1.690148   -0.009397   -1.287256
  C      0.977286   -1.189495    0.359563
  H      0.923912   -1.156161    1.457764
  O     -0.339215   -1.327812   -0.186621
  O      1.710448   -2.338216    0.025955
  O      2.893920    0.320158    0.391391
  O      1.200476    2.481886   -0.490550
  O     -1.558025    2.098421    0.156651
  O     -3.107477   -1.813862    0.290848
  H     -2.550168   -0.699832   -1.391149
  H     -3.293175    0.185859   -0.036843
  H      1.896819   -2.314228   -0.925243
  H      3.494700   -0.357616    0.054517
  H      2.024599    2.741948   -0.059026
  H     -1.167829    2.937985   -0.123274
  H     -2.505465   -2.529605    0.047698

 Total Charge           Charge          ....    0
 Multiplicity           Mult            ....    1
 Number of Electrons    NEL             ....   96
 Basis Dimension        Dim             ....  444

ORBITAL ENERGIES
----------------

  NO   OCC          E(Eh)            E(eV)
   0   2.0000     -21.692678      -590.2878
   1   2.0000     -21.692298      -590.2774
   2   2.0000     -21.684325      -590.0605
   3   2.0000     -21.682640      -590.0146
   4   2.0000     -21.681924      -589.9952
   5   2.0000     -21.677249      -589.8679
   6   2.0000     -12.151829      -330.6681
   7   2.0000     -12.104656      -329.3844
   8   2.0000     -12.103969      -329.3657
   9   2.0000     -12.103170      -329.3440
  10   2.0000     -12.102204      -329.3177
  11   2.0000     -12.091115      -329.0160
  12   2.0000      -1.723842       -46.9081
  13   2.0000      -1.691234       -46.0208
  14   2.0000      -1.687402       -45.9165
  15   2.0000      -1.681992       -45.7693
  16   2.0000      -1.679093       -45.6905
  17   2.0000      -1.675820       -45.6014
  18   2.0000      -1.334851       -36.3231
  19   2.0000      -1.318760       -35.8853
  20   2.0000      -1.231229       -33.5035
  21   2.0000      -1.201012       -32.6812
  22   2.0000      -1.166622       -31.7454
  23   2.0000      -1.126532       -30.6545
  24   2.0000      -1.089207       -29.6388
  25   2.0000      -1.059826       -28.8393
  26   2.0000      -1.052509       -28.6402
  27   2.0000      -1.040470       -28.3126
  28   2.0000      -1.037093       -28.2207
  29   2.0000      -1.008153       -27.4332
  30   2.0000      -1.000997       -27.2385
  31   2.0000      -0.992588       -27.0097
  32   2.0000      -0.973764       -26.4975
  33   2.0000      -0.971918       -26.4472
  34   2.0000      -0.963174       -26.2093
  35   2.0000      -0.946978       -25.7686
  36   2.0000      -0.946398       -25.7528
  37   2.0000      -0.925814       -25.1927
  38   2.0000      -0.925342       -25.1798
  39   2.0000      -0.909793       -24.7567
  40   2.0000      -0.900164       -24.4947
  41   2.0000      -0.889495       -24.2044
  42   2.0000      -0.844735       -22.9864
  43   2.0000      -0.831132       -22.6162
  44   2.0000      -0.820448       -22.3255
  45   2.0000      -0.804428       -21.8896
  46   2.0000      -0.789653       -21.4875
  47   2.0000      -0.766096       -20.8465
  48   0.0000      -0.236455        -6.4343
  49   0.0000      -0.194011        -5.2793
  50   0.0000      -0.175632        -4.7792
  51   0.0000      -0.150164        -4.0862
  52   0.0000      -0.117063        -3.1855

MULLIKEN ATOMIC CHARGES
-----------------------
   0 C :   -0.013301
   1 C :    0.056944
   2 H :    0.102306
   3 C :    0.073861
   4 H :    0.103870
   5 C :    0.096254
   6 H :    0.109556
   7 C :    0.011665
   8 H :    0.114064
   9 C :    0.112119
  10 H :    0.120028
  11 O :   -0.331449
  12 O :   -0.494895
  13 O :   -0.521070
  14 O :   -0.531453
  15 O :   -0.528094
  16 O :   -0.549349
  17 H :    0.118943
  18 H :    0.130082
  19 H :    0.370728
  20 H :    0.365283
  21 H :    0.365620
  22 H :    0.360556
  23 H :    0.357733
Sum of atomic charges:   -0.0000000

LOEWDIN ATOMIC CHARGES
----------------------
   0 C :   -0.307109
   1 C :   -0.295805
   2 H :    0.152944
   3 C :   -0.296180
   4 H :    0.151963
   5 C :   -0.305362
   6 H :    0.154500
   7 C :   -0.314324
   8 H :    0.152908
   9 C :   -0.404374
  10 H :    0.143362
  11 O :    0.162306
  12 O :   -0.018999
  13 O :   -0.038643
  14 O :   -0.042301
  15 O :   -0.039149
  16 O :   -0.088059
  17 H :    0.129507
  18 H :    0.136956
  19 H :    0.201478
  20 H :    0.193786
  21 H :    0.192770
  22 H :    0.191374
  23 H :    0.186451

  Mayer bond orders larger than 0.100000
B(  0-C ,  1-C ) :   0.9708 B(  0-C , 16-O ) :   0.9829 B(  0-C , 17-H ) :   0.9706
B(  0-C , 18-H ) :   0.9661 B(  1-C ,  2-H ) :   0.9479 B(  1-C ,  3-C ) :   0.9730
B(  1-C , 11-O ) :   0.9480 B(  3-C ,  4-H ) :   0.9497 B(  3-C ,  5-C ) :   0.9749
B(  3-C , 15-O ) :   1.0408 B(  5-C ,  6-H ) :   0.9579 B(  5-C ,  7-C ) :   0.9722
B(  5-C , 14-O ) :   1.0489 B(  7-C ,  8-H ) :   0.9568 B(  7-C ,  9-C ) :   0.9764
B(  7-C , 13-O ) :   1.0732 B(  9-C , 10-H ) :   0.9722 B(  9-C , 11-O ) :   1.0020
B(  9-C , 12-O ) :   1.1165 B( 12-O , 19-H ) :   0.8489 B( 13-O , 20-H ) :   0.8589
B( 14-O , 21-H ) :   0.8597 B( 15-O , 22-H ) :   0.8566 B( 16-O , 23-H ) :   0.8634

FINAL SINGLE POINT ENERGY      -687.288130232500

DIPOLE MOMENT
-------------

Method             : SCF
Type of density    : Electron Density
Multiplicity       :   1
Irrep              :   0
Energy             :  -687.3068893696004125 Eh
Relativity type    :
Basis              : AO
                                X                 Y                 Z
Electronic contribution:      2.277482894      -0.815596005       0.119648289
Nuclear contribution   :     -0.518295514       1.189205577      -1.104736811
                        -----------------------------------------
Total Dipole Moment    :      1.759187380       0.373609572      -0.985088522
                        -----------------------------------------
Magnitude (a.u.)       :      2.050542305
Magnitude (Debye)      :      5.212064331

Rotational constants in cm-1:             0.038742             0.026045             0.016312
Rotational constants in MHz :          1161.451717           780.814888           489.035017

                             ****ORCA TERMINATED NORMALLY****
TOTAL RUN TIME: 0 days 0 hours 5 minutes 22 seconds 172 msec
