                         Program Version 6.0.0  -   RELEASE  -
|  1> ! r2scan-3c def2/J RI DEFGRID2 scfconv6 printgap
|  2> %output
|  3>     printlevel normal
|  4> end
|  5> * xyz 0 1
|  6> C -2.7803769296 -0.4049101295 9.83343e-05
|  7> O -1.789832347 0.6049846651 -6.99184e-05
|  8> C -0.4751022935 0.2331649601 -3.78217e-05
|  9> C -0.0196225684 -1.07993525 -7.4525e-05
| 10> C 1.3429103132 -1.3335754195 -1.6251e-06
| 11> C 2.2569666235 -0.2968745001 4.98375e-05
| 12> C 1.8018650416 1.0132086755 2.65559e-05
| 13> C 0.4485567715 1.2794864389 -7.2899e-06
| 14> H -2.7083567369 -1.029020232 0.8947478908
| 15> H -2.7086098833 -1.0291104292 -0.8945160341
| 16> H -3.7297620818 0.1258296232 0.0002204318
| 17> H -0.7101929791 -1.9078336975 -0.000104299
| 18> H 1.6861161567 -2.3572200564 -2.254e-05
| 19> H 3.3155472787 -0.5046121923 7.16014e-05
| 20> H 2.5055458312 1.8315460891 5.71667e-05
| 21> H 0.0740249806 2.291059147 1.85164e-05
| 22> *
| 23>
| 24>                          ****END OF INPUT****

CARTESIAN COORDINATES (ANGSTROEM)
---------------------------------
  C     -2.780377   -0.404910    0.000098
  O     -1.789832    0.604985   -0.000070
  C     -0.475102    0.233165   -0.000038
  C     -0.019623   -1.079935   -0.000075
  C      1.342910   -1.333575   -0.000002
  C      2.256967   -0.296875    0.000050
  C      1.801865    1.013209    0.000027
  C      0.448557    1.279486   -0.000007
  H     -2.708357   -1.029020    0.894748
  H     -2.708610   -1.029110   -0.894516
  H     -3.729762    0.125830    0.000220
  H     -0.710193   -1.907834   -0.000104
  H      1.686116   -2.357220   -0.000023
  H      3.315547   -0.504612    0.000072
  H      2.505546    1.831546    0.000057
  H      0.074025    2.291059    0.000019

 Total Charge           Charge          ....    0
 Multiplicity           Mult            ....    1
 Number of Electrons    NEL             ....   58
 Basis Dimension        Dim             ....  197

ORBITAL ENERGIES
----------------

  NO   OCC          E(Eh)            E(eV)
   0   2.0000     -18.984795      -516.6025
   1   2.0000     -10.093826      -274.6670
   2   2.0000     -10.086960      -274.4801
   3   2.0000     -10.034998      -273.0662
   4   2.0000     -10.033694      -273.0307
   5   2.0000     -10.032479      -272.9976
   6   2.0000     -10.028386      -272.8863
   7   2.0000     -10.025644      -272.8116
   8   2.0000      -1.031939       -28.0805
   9   2.0000      -0.821804       -22.3624
  10   2.0000      -0.725959       -19.7543
  11   2.0000      -0.716182       -19.4883
  12   2.0000      -0.663558       -18.0563
  13   2.0000      -0.578769       -15.7491
  14   2.0000      -0.560137       -15.2421
  15   2.0000      -0.507159       -13.8005
  16   2.0000      -0.454837       -12.3768
  17   2.0000      -0.447591       -12.1796
  18   2.0000      -0.437938       -11.9169
  19   2.0000      -0.414805       -11.2874
  20   2.0000      -0.392334       -10.6760
  21   2.0000      -0.383279       -10.4295
  22   2.0000      -0.353759        -9.6263
  23   2.0000      -0.334750        -9.1090
  24   2.0000      -0.324817        -8.8387
  25   2.0000      -0.294873        -8.0239
  26   2.0000      -0.294638        -8.0175
  27   2.0000      -0.236835        -6.4446
  28   2.0000      -0.202431        -5.5084
  29   0.0000      -0.030743        -0.8366
  30   0.0000      -0.015128        -0.4117
  31   0.0000       0.066849         1.8191
  32   0.0000       0.087469         2.3802
  33   0.0000       0.104525         2.8443

MULLIKEN ATOMIC CHARGES
-----------------------
   0 C :   -0.333859
   1 O :   -0.191025
   2 C :    0.338467
   3 C :   -0.274472
   4 C :   -0.151721
   5 C :   -0.179455
   6 C :   -0.116228
   7 C :   -0.296616
   8 H :    0.152551
   9 H :    0.152547
  10 H :    0.154168
  11 H :    0.148083
  12 H :    0.145372
  13 H :    0.146407
  14 H :    0.148016
  15 H :    0.157764
Sum of atomic charges:    0.0000000

LOEWDIN ATOMIC CHARGES
----------------------
   0 C :   -0.056446
   1 O :   -0.684665
   2 C :    0.188809
   3 C :   -0.176737
   4 C :   -0.154517
   5 C :   -0.191435
   6 C :   -0.155279
   7 C :   -0.134693
   8 H :    0.164518
   9 H :    0.164513
  10 H :    0.180180
  11 H :    0.174211
  12 H :    0.167186
  13 H :    0.166092
  14 H :    0.167847
  15 H :    0.180413

  Mayer bond orders larger than 0.100000
B(  0-C ,  1-O ) :   0.8613 B(  0-C ,  8-H ) :   0.9635 B(  0-C ,  9-H ) :   0.9635
B(  0-C , 10-H ) :   0.9678 B(  1-O ,  2-C ) :   1.0256 B(  2-C ,  3-C ) :   1.3869
B(  2-C ,  7-C ) :   1.4103 B(  3-C ,  4-C ) :   1.3969 B(  3-C , 11-H ) :   0.9261
B(  4-C ,  5-C ) :   1.4507 B(  4-C , 12-H ) :   0.9502 B(  5-C ,  6-C ) :   1.3950
B(  5-C , 13-H ) :   0.9472 B(  6-C ,  7-C ) :   1.4055 B(  6-C , 14-H ) :   0.9471
B(  7-C , 15-H ) :   0.9438

Dispersion correction           -0.004827535
FINAL SINGLE POINT ENERGY      -346.681064435951

DIPOLE MOMENT
-------------

Method             : SCF
Type of density    : Electron Density
Multiplicity       :   1
Irrep              :   0
Energy             :  -346.6830653230854864 Eh
Relativity type    :
Basis              : AO
                                X                 Y                 Z
Electronic contribution:      1.828954110       2.003388876      -0.000358468
Nuclear contribution   :     -2.161554964      -2.410910574       0.000442469
                        -----------------------------------------
Total Dipole Moment    :     -0.332600854      -0.407521698       0.000084001
                        -----------------------------------------
Magnitude (a.u.)       :      0.526020218
Magnitude (Debye)      :      1.337037137

Rotational constants in cm-1:             0.170517             0.052306             0.040337
Rotational constants in MHz :          5111.976591          1568.091123          1209.260563

                             ****ORCA TERMINATED NORMALLY****
TOTAL RUN TIME: 0 days 0 hours 0 minutes 22 seconds 104 msec
