                         Program Version 6.0.0  -   RELEASE  -
|  1> ! r2scan-3c def2/J RI DEFGRID2 scfconv6 printgap
|  2> %output
|  3>     printlevel normal
|  4> end
|  5> %cpcm
|  6>     smd true
|  7>     smdsolvent "water"
|  8> end
|  9> * xyz 0 1
| 10> C -2.7803769296 -0.4049101295 9.83343e-05
| 11> O -1.789832347 0.6049846651 -6.99184e-05
| 12> C -0.4751022935 0.2331649601 -3.78217e-05
| 13> C -0.0196225684 -1.07993525 -7.4525e-05
| 14> C 1.3429103132 -1.3335754195 -1.6251e-06
| 15> C 2.2569666235 -0.2968745001 4.98375e-05
| 16> C 1.8018650416 1.0132086755 2.65559e-05
| 17> C 0.4485567715 1.2794864389 -7.2899e-06
| 18> H -2.7083567369 -1.029020232 0.8947478908
| 19> H -2.7086098833 -1.0291104292 -0.8945160341
| 20> H -3.7297620818 0.1258296232 0.0002204318
| 21> H -0.7101929791 -1.9078336975 -0.000104299
| 22> H 1.6861161567 -2.3572200564 -2.254e-05
| 23> H 3.3155472787 -0.5046121923 7.16014e-05
| 24> H 2.5055458312 1.8315460891 5.71667e-05
| 25> H 0.0740249806 2.291059147 1.85164e-05
| 26> *
| 27>
| 28>                          ****END OF INPUT****

CARTESIAN COORDINATES (ANGSTROEM)
---------------------------------
  C     -2.780377   -0.404910    0.000098
  O     -1.789832    0.604985   -0.000070
  C     -0.475102    0.233165   -0.000038
  C     -0.019623   -1.079935   -0.000075
  C      1.342910   -1.333575   -0.000002
  C      2.256967   -0.296875    0.000050
  C      1.801865    1.013209    0.000027
  C      0.448557    1.279486   -0.000007
  H     -2.708357   -1.029020    0.894748
  H     -2.708610   -1.029110   -0.894516
  H     -3.729762    0.125830    0.000220
  H     -0.710193   -1.907834   -0.000104
  H      1.686116   -2.357220   -0.000023
  H      3.315547   -0.504612    0.000072
  H      2.505546    1.831546    0.000057
  H      0.074025    2.291059    0.000019

 Total Charge           Charge          ....    0
 Multiplicity           Mult            ....    1
 Number of Electrons    NEL             ....   58
 Basis Dimension        Dim             ....  197

ORBITAL ENERGIES
----------------

  NO   OCC          E(Eh)            E(eV)
   0   2.0000     -18.987562      -516.6778
   1   2.0000     -10.096710      -274.7454
   2   2.0000     -10.072540      -274.0877
   3   2.0000     -10.035205      -273.0718
   4   2.0000     -10.035045      -273.0675
   5   2.0000     -10.032031      -272.9854
   6   2.0000     -10.030962      -272.9564
   7   2.0000     -10.026611      -272.8379
   8   2.0000      -1.033883       -28.1334
   9   2.0000      -0.824864       -22.4457
  10   2.0000      -0.725942       -19.7539
  11   2.0000      -0.717383       -19.5210
  12   2.0000      -0.658165       -17.9096
  13   2.0000      -0.579078       -15.7575
  14   2.0000      -0.558012       -15.1843
  15   2.0000      -0.504200       -13.7200
  16   2.0000      -0.452838       -12.3224
  17   2.0000      -0.446854       -12.1595
  18   2.0000      -0.432126       -11.7588
  19   2.0000      -0.410948       -11.1825
  20   2.0000      -0.390667       -10.6306
  21   2.0000      -0.378880       -10.3098
  22   2.0000      -0.355083        -9.6623
  23   2.0000      -0.332987        -9.0610
  24   2.0000      -0.322626        -8.7791
  25   2.0000      -0.295860        -8.0508
  26   2.0000      -0.294671        -8.0184
  27   2.0000      -0.241712        -6.5773
  28   2.0000      -0.206839        -5.6284
  29   0.0000      -0.034765        -0.9460
  30   0.0000      -0.019603        -0.5334
  31   0.0000       0.072587         1.9752
  32   0.0000       0.096784         2.6336
  33   0.0000       0.116608         3.1731

MULLIKEN ATOMIC CHARGES
-----------------------
   0 C :   -0.339437
   1 O :   -0.232631
   2 C :    0.323442
   3 C :   -0.275581
   4 C :   -0.193821
   5 C :   -0.217511
   6 C :   -0.157585
   7 C :   -0.334891
   8 H :    0.171219
   9 H :    0.171219
  10 H :    0.172713
  11 H :    0.186998
  12 H :    0.179708
  13 H :    0.178887
  14 H :    0.182076
  15 H :    0.185195
Sum of atomic charges:    0.0000000

LOEWDIN ATOMIC CHARGES
----------------------
   0 C :   -0.052018
   1 O :   -0.711195
   2 C :    0.176459
   3 C :   -0.176620
   4 C :   -0.163731
   5 C :   -0.204463
   6 C :   -0.165844
   7 C :   -0.150092
   8 H :    0.174206
   9 H :    0.174203
  10 H :    0.187212
  11 H :    0.189004
  12 H :    0.178929
  13 H :    0.176351
  14 H :    0.179078
  15 H :    0.188522

  Mayer bond orders larger than 0.100000
B(  0-C ,  1-O ) :   0.8540 B(  0-C ,  8-H ) :   0.9559 B(  0-C ,  9-H ) :   0.9559
B(  0-C , 10-H ) :   0.9599 B(  1-O ,  2-C ) :   1.0073 B(  2-C ,  3-C ) :   1.3665
B(  2-C ,  7-C ) :   1.3557 B(  3-C ,  4-C ) :   1.3642 B(  3-C , 11-H ) :   0.9317
B(  4-C ,  5-C ) :   1.4045 B(  4-C , 12-H ) :   0.9614 B(  5-C ,  6-C ) :   1.3583
B(  5-C , 13-H ) :   0.9560 B(  6-C ,  7-C ) :   1.3872 B(  6-C , 14-H ) :   0.9525
B(  7-C , 15-H ) :   0.9517

Dispersion correction           -0.004827535
FINAL SINGLE POINT ENERGY      -346.684768186625

DIPOLE MOMENT
-------------

Method             : SCF
Type of density    : Electron Density
Multiplicity       :   1
Irrep              :   0
Energy             :  -346.6867690737595353 Eh
Relativity type    :
Basis              : AO
                                X                 Y                 Z
Electronic contribution:      1.759085064       1.760728045      -0.000329511
Nuclear contribution   :     -2.161554964      -2.410910574       0.000442469
                        -----------------------------------------
Total Dipole Moment    :     -0.402469900      -0.650182528       0.000112958
                        -----------------------------------------
Magnitude (a.u.)       :      0.764669440
Magnitude (Debye)      :      1.943635254

Rotational constants in cm-1:             0.170517             0.052306             0.040337
Rotational constants in MHz :          5111.976591          1568.091123          1209.260563

                             ****ORCA TERMINATED NORMALLY****
TOTAL RUN TIME: 0 days 0 hours 0 minutes 25 seconds 546 msec
