                         Program Version 6.0.0  -   RELEASE  -
|  1> ! pbe def2-sv(p) def2/J RI DEFGRID1 loosescf d4 GCP(DFT/SV(P)) printgap
|  2> %output
|  3>     printlevel normal
|  4> end
|  5> * xyz 0 1
|  6> C 1.7164429314 0.4461205995 0.6064168711
|  7> C 0.8969128703 0.3470204944 -0.6767817113
|  8> C -0.5662612534 -0.0846544045 -0.4729840834
|  9> H -1.0518319854 -0.0944769791 -1.4568962152
| 10> C -1.3378219328 0.8578961036 0.450018428
| 11> O -0.6642595222 -1.4296932432 -0.0350858101
| 12> H 1.731394915 -0.5041661634 1.1349257476
| 13> H 1.3212898084 1.2128644756 1.2670162405
| 14> H 2.7429291829 0.7076267308 0.3618693407
| 15> H 1.3642935237 -0.3807796221 -1.3438851002
| 16> H 0.8946757349 1.3133222645 -1.1830499988
| 17> H -0.9296724707 0.8313554979 1.4571166194
| 18> H -1.2827998064 1.8743914226 0.0721928337
| 19> H -2.3807654235 0.5538953115 0.49353068
| 20> H -0.3172565663 -1.4851938767 0.8662462298
| 21> *
| 22>
| 23>                          ****END OF INPUT****

CARTESIAN COORDINATES (ANGSTROEM)
---------------------------------
  C      1.716443    0.446121    0.606417
  C      0.896913    0.347020   -0.676782
  C     -0.566261   -0.084654   -0.472984
  H     -1.051832   -0.094477   -1.456896
  C     -1.337822    0.857896    0.450018
  O     -0.664260   -1.429693   -0.035086
  H      1.731395   -0.504166    1.134926
  H      1.321290    1.212864    1.267016
  H      2.742929    0.707627    0.361869
  H      1.364294   -0.380780   -1.343885
  H      0.894676    1.313322   -1.183050
  H     -0.929672    0.831355    1.457117
  H     -1.282800    1.874391    0.072193
  H     -2.380765    0.553895    0.493531
  H     -0.317257   -1.485194    0.866246

 Total Charge           Charge          ....    0
 Multiplicity           Mult            ....    1
 Number of Electrons    NEL             ....   42
 Basis Dimension        Dim             ....   90

ORBITAL ENERGIES
----------------

  NO   OCC          E(Eh)            E(eV)
   0   2.0000     -18.736737      -509.8525
   1   2.0000      -9.933785      -270.3120
   2   2.0000      -9.882284      -268.9106
   3   2.0000      -9.880242      -268.8551
   4   2.0000      -9.875239      -268.7189
   5   2.0000      -0.914581       -24.8870
   6   2.0000      -0.705840       -19.2069
   7   2.0000      -0.649140       -17.6640
   8   2.0000      -0.581132       -15.8134
   9   2.0000      -0.516882       -14.0651
  10   2.0000      -0.433472       -11.7954
  11   2.0000      -0.418298       -11.3825
  12   2.0000      -0.397020       -10.8035
  13   2.0000      -0.378647       -10.3035
  14   2.0000      -0.346261        -9.4222
  15   2.0000      -0.343197        -9.3389
  16   2.0000      -0.317612        -8.6427
  17   2.0000      -0.304846        -8.2953
  18   2.0000      -0.294286        -8.0079
  19   2.0000      -0.263689        -7.1754
  20   2.0000      -0.210142        -5.7183
  21   0.0000       0.022552         0.6137
  22   0.0000       0.053600         1.4585
  23   0.0000       0.071264         1.9392
  24   0.0000       0.084202         2.2912
  25   0.0000       0.093965         2.5569

MULLIKEN ATOMIC CHARGES
-----------------------
   0 C :   -0.313476
   1 C :   -0.152239
   2 C :    0.024071
   3 H :    0.071588
   4 C :   -0.273433
   5 O :   -0.432766
   6 H :    0.088382
   7 H :    0.109320
   8 H :    0.110490
   9 H :    0.091931
  10 H :    0.080828
  11 H :    0.093894
  12 H :    0.097769
  13 H :    0.111997
  14 H :    0.291644
Sum of atomic charges:   -0.0000000

LOEWDIN ATOMIC CHARGES
----------------------
   0 C :   -0.348695
   1 C :   -0.248138
   2 C :   -0.059396
   3 H :    0.112278
   4 C :   -0.354579
   5 O :   -0.330894
   6 H :    0.110180
   7 H :    0.117825
   8 H :    0.125238
   9 H :    0.119967
  10 H :    0.117606
  11 H :    0.114327
  12 H :    0.123276
  13 H :    0.124312
  14 H :    0.276692

  Mayer bond orders larger than 0.100000
B(  0-C ,  1-C ) :   1.1389 B(  0-C ,  6-H ) :   0.9473 B(  0-C ,  7-H ) :   0.9499
B(  0-C ,  8-H ) :   0.9510 B(  1-C ,  2-C ) :   1.0624 B(  1-C ,  9-H ) :   0.9212
B(  1-C , 10-H ) :   0.9147 B(  2-C ,  3-H ) :   0.9072 B(  2-C ,  4-C ) :   1.1109
B(  2-C ,  5-O ) :   1.0405 B(  4-C , 11-H ) :   0.9380 B(  4-C , 12-H ) :   0.9410
B(  4-C , 13-H ) :   0.9458 B(  5-O , 14-H ) :   0.8507

Dispersion correction           -0.009834251
FINAL SINGLE POINT ENERGY      -233.092124494959

DIPOLE MOMENT
-------------

Method             : SCF
Type of density    : Electron Density
Multiplicity       :   1
Irrep              :   0
Energy             :  -233.1516550301942630 Eh
Relativity type    :
Basis              : AO
                                X                 Y                 Z
Electronic contribution:     -1.711442829      -3.314066523      -1.231924666
Nuclear contribution   :      1.953008601       3.758461542       1.565348605
                        -----------------------------------------
Total Dipole Moment    :      0.241565773       0.444395018       0.333423939
                        -----------------------------------------
Magnitude (a.u.)       :      0.605815548
Magnitude (Debye)      :      1.539860748

Rotational constants in cm-1:             0.214225             0.128383             0.105409
Rotational constants in MHz :          6422.310638          3848.813513          3160.081589

                             ****ORCA TERMINATED NORMALLY****
TOTAL RUN TIME: 0 days 0 hours 0 minutes 5 seconds 331 msec
