                         Program Version 6.0.0  -   RELEASE  -
|  1> ! r2scan-3c def2/J RI DEFGRID2 scfconv6 printgap
|  2> %output
|  3>     printlevel normal
|  4> end
|  5> * xyz 0 1
|  6> C -2.7621544881 0.0961920995 -0.6544814111
|  7> O -1.3337843185 -0.0847247789 -0.7360396606
|  8> C -0.6302414271 0.169013817 0.3236724136
|  9> O -1.0053630855 0.5450652954 1.4002122309
| 10> C 0.8766538818 -0.0902557614 0.0164293278
| 11> F 1.3173660364 0.6931804445 -0.9773742707
| 12> F 1.6452625747 0.1446208246 1.0804987612
| 13> F 1.0908662834 -1.3577943198 -0.3612657341
| 14> H -3.1672388366 -0.5328262326 0.1370726177
| 15> H -3.1408415239 -0.1978978064 -1.6279451067
| 16> H -2.9871590411 1.1400568155 -0.4399585501
| 17> *
| 18>
| 19>                          ****END OF INPUT****

CARTESIAN COORDINATES (ANGSTROEM)
---------------------------------
  C     -2.762154    0.096192   -0.654481
  O     -1.333784   -0.084725   -0.736040
  C     -0.630241    0.169014    0.323672
  O     -1.005363    0.545065    1.400212
  C      0.876654   -0.090256    0.016429
  F      1.317366    0.693180   -0.977374
  F      1.645263    0.144621    1.080499
  F      1.090866   -1.357794   -0.361266
  H     -3.167239   -0.532826    0.137073
  H     -3.140842   -0.197898   -1.627945
  H     -2.987159    1.140057   -0.439959

 Total Charge           Charge          ....    0
 Multiplicity           Mult            ....    1
 Number of Electrons    NEL             ....   64
 Basis Dimension        Dim             ....  192

ORBITAL ENERGIES
----------------

  NO   OCC          E(Eh)            E(eV)
   0   2.0000     -24.530203      -667.5008
   1   2.0000     -24.530164      -667.4997
   2   2.0000     -24.528051      -667.4422
   3   2.0000     -19.041700      -518.1510
   4   2.0000     -18.973030      -516.2824
   5   2.0000     -10.298896      -280.2472
   6   2.0000     -10.197311      -277.4829
   7   2.0000     -10.117180      -275.3025
   8   2.0000      -1.289826       -35.0979
   9   2.0000      -1.199279       -32.6340
  10   2.0000      -1.198871       -32.6229
  11   2.0000      -1.119606       -30.4660
  12   2.0000      -1.025141       -27.8955
  13   2.0000      -0.760744       -20.7009
  14   2.0000      -0.690431       -18.7876
  15   2.0000      -0.604973       -16.4622
  16   2.0000      -0.569625       -15.5003
  17   2.0000      -0.568788       -15.4775
  18   2.0000      -0.551737       -15.0135
  19   2.0000      -0.487301       -13.2601
  20   2.0000      -0.472851       -12.8669
  21   2.0000      -0.450491       -12.2585
  22   2.0000      -0.438092       -11.9211
  23   2.0000      -0.437312       -11.8999
  24   2.0000      -0.409955       -11.1554
  25   2.0000      -0.401011       -10.9121
  26   2.0000      -0.390099       -10.6151
  27   2.0000      -0.388446       -10.5702
  28   2.0000      -0.377413       -10.2699
  29   2.0000      -0.354136        -9.6365
  30   2.0000      -0.313311        -8.5256
  31   2.0000      -0.278060        -7.5664
  32   0.0000      -0.064661        -1.7595
  33   0.0000       0.036144         0.9835
  34   0.0000       0.067313         1.8317
  35   0.0000       0.110678         3.0117
  36   0.0000       0.128156         3.4873

MULLIKEN ATOMIC CHARGES
-----------------------
   0 C :   -0.274095
   1 O :   -0.158965
   2 C :    0.356341
   3 O :   -0.376320
   4 C :    0.525411
   5 F :   -0.197102
   6 F :   -0.180077
   7 F :   -0.197002
   8 H :    0.169367
   9 H :    0.163974
  10 H :    0.168467
Sum of atomic charges:    0.0000000

LOEWDIN ATOMIC CHARGES
----------------------
   0 C :   -0.025564
   1 O :   -0.548712
   2 C :    0.363066
   3 O :   -0.349885
   4 C :    0.562138
   5 F :   -0.187886
   6 F :   -0.173831
   7 F :   -0.187570
   8 H :    0.182329
   9 H :    0.184127
  10 H :    0.181789

  Mayer bond orders larger than 0.100000
B(  0-C ,  1-O ) :   0.8268 B(  0-C ,  8-H ) :   0.9582 B(  0-C ,  9-H ) :   0.9671
B(  0-C , 10-H ) :   0.9577 B(  1-O ,  2-C ) :   1.1336 B(  2-C ,  3-O ) :   1.8420
B(  2-C ,  4-C ) :   0.9684 B(  4-C ,  5-F ) :   1.0225 B(  4-C ,  6-F ) :   1.0544
B(  4-C ,  7-F ) :   1.0233

Dispersion correction           -0.002401791
FINAL SINGLE POINT ENERGY      -566.065346087348

DIPOLE MOMENT
-------------

Method             : SCF
Type of density    : Electron Density
Multiplicity       :   1
Irrep              :   0
Energy             :  -566.0758406635725350 Eh
Relativity type    :
Basis              : AO
                                X                 Y                 Z
Electronic contribution:     11.349612685      -0.953768251       0.899127904
Nuclear contribution   :    -12.510867717       0.872625549      -1.562460735
                        -----------------------------------------
Total Dipole Moment    :     -1.161255032      -0.081142702      -0.663332830
                        -----------------------------------------
Magnitude (a.u.)       :      1.339816342
Magnitude (Debye)      :      3.405542499

Rotational constants in cm-1:             0.120257             0.050242             0.043852
Rotational constants in MHz :          3605.225767          1506.204754          1314.650771

                             ****ORCA TERMINATED NORMALLY****
TOTAL RUN TIME: 0 days 0 hours 0 minutes 17 seconds 636 msec
