                         Program Version 6.0.0  -   RELEASE  -
|  1> ! r2scan-3c def2/J RI DEFGRID2 scfconv6 printgap
|  2> %output
|  3>     printlevel normal
|  4> end
|  5> %cpcm
|  6>     smd true
|  7>     smdsolvent "water"
|  8> end
|  9> * xyz 0 1
| 10> C -2.7621544881 0.0961920995 -0.6544814111
| 11> O -1.3337843185 -0.0847247789 -0.7360396606
| 12> C -0.6302414271 0.169013817 0.3236724136
| 13> O -1.0053630855 0.5450652954 1.4002122309
| 14> C 0.8766538818 -0.0902557614 0.0164293278
| 15> F 1.3173660364 0.6931804445 -0.9773742707
| 16> F 1.6452625747 0.1446208246 1.0804987612
| 17> F 1.0908662834 -1.3577943198 -0.3612657341
| 18> H -3.1672388366 -0.5328262326 0.1370726177
| 19> H -3.1408415239 -0.1978978064 -1.6279451067
| 20> H -2.9871590411 1.1400568155 -0.4399585501
| 21> *
| 22>
| 23>                          ****END OF INPUT****

CARTESIAN COORDINATES (ANGSTROEM)
---------------------------------
  C     -2.762154    0.096192   -0.654481
  O     -1.333784   -0.084725   -0.736040
  C     -0.630241    0.169014    0.323672
  O     -1.005363    0.545065    1.400212
  C      0.876654   -0.090256    0.016429
  F      1.317366    0.693180   -0.977374
  F      1.645263    0.144621    1.080499
  F      1.090866   -1.357794   -0.361266
  H     -3.167239   -0.532826    0.137073
  H     -3.140842   -0.197898   -1.627945
  H     -2.987159    1.140057   -0.439959

 Total Charge           Charge          ....    0
 Multiplicity           Mult            ....    1
 Number of Electrons    NEL             ....   64
 Basis Dimension        Dim             ....  192

ORBITAL ENERGIES
----------------

  NO   OCC          E(Eh)            E(eV)
   0   2.0000     -24.536122      -667.6618
   1   2.0000     -24.535111      -667.6343
   2   2.0000     -24.535044      -667.6325
   3   2.0000     -19.034036      -517.9424
   4   2.0000     -18.975607      -516.3525
   5   2.0000     -10.302283      -280.3394
   6   2.0000     -10.198137      -277.5054
   7   2.0000     -10.089371      -274.5457
   8   2.0000      -1.295217       -35.2446
   9   2.0000      -1.205735       -32.8097
  10   2.0000      -1.203825       -32.7577
  11   2.0000      -1.112981       -30.2858
  12   2.0000      -1.025358       -27.9014
  13   2.0000      -0.750734       -20.4285
  14   2.0000      -0.685292       -18.6477
  15   2.0000      -0.602606       -16.3977
  16   2.0000      -0.574416       -15.6307
  17   2.0000      -0.573259       -15.5992
  18   2.0000      -0.541796       -14.7430
  19   2.0000      -0.475182       -12.9304
  20   2.0000      -0.473737       -12.8910
  21   2.0000      -0.446618       -12.1531
  22   2.0000      -0.442549       -12.0424
  23   2.0000      -0.441693       -12.0191
  24   2.0000      -0.407047       -11.0763
  25   2.0000      -0.406813       -11.0700
  26   2.0000      -0.383809       -10.4440
  27   2.0000      -0.382727       -10.4145
  28   2.0000      -0.382222       -10.4008
  29   2.0000      -0.343893        -9.3578
  30   2.0000      -0.304563        -8.2876
  31   2.0000      -0.283273        -7.7082
  32   0.0000      -0.063663        -1.7324
  33   0.0000       0.054942         1.4951
  34   0.0000       0.077198         2.1007
  35   0.0000       0.121546         3.3074
  36   0.0000       0.128817         3.5053

MULLIKEN ATOMIC CHARGES
-----------------------
   0 C :   -0.312475
   1 O :   -0.158583
   2 C :    0.407598
   3 O :   -0.436800
   4 C :    0.515716
   5 F :   -0.198090
   6 F :   -0.190890
   7 F :   -0.197921
   8 H :    0.190252
   9 H :    0.190264
  10 H :    0.190929
Sum of atomic charges:    0.0000000

LOEWDIN ATOMIC CHARGES
----------------------
   0 C :   -0.019008
   1 O :   -0.541470
   2 C :    0.373900
   3 O :   -0.393227
   4 C :    0.562825
   5 F :   -0.189143
   6 F :   -0.181399
   7 F :   -0.188777
   8 H :    0.190395
   9 H :    0.195581
  10 H :    0.190323

  Mayer bond orders larger than 0.100000
B(  0-C ,  1-O ) :   0.8068 B(  0-C ,  8-H ) :   0.9505 B(  0-C ,  9-H ) :   0.9564
B(  0-C , 10-H ) :   0.9497 B(  1-O ,  2-C ) :   1.1739 B(  2-C ,  3-O ) :   1.7940
B(  2-C ,  4-C ) :   0.9729 B(  4-C ,  5-F ) :   1.0248 B(  4-C ,  6-F ) :   1.0446
B(  4-C ,  7-F ) :   1.0257

Dispersion correction           -0.002401791
FINAL SINGLE POINT ENERGY      -566.066854444890

DIPOLE MOMENT
-------------

Method             : SCF
Type of density    : Electron Density
Multiplicity       :   1
Irrep              :   0
Energy             :  -566.0773490211150829 Eh
Relativity type    :
Basis              : AO
                                X                 Y                 Z
Electronic contribution:     11.106047192      -1.001798734       0.659068387
Nuclear contribution   :    -12.510867717       0.872625549      -1.562460735
                        -----------------------------------------
Total Dipole Moment    :     -1.404820526      -0.129173186      -0.903392348
                        -----------------------------------------
Magnitude (a.u.)       :      1.675208690
Magnitude (Debye)      :      4.258042098

Rotational constants in cm-1:             0.120257             0.050242             0.043852
Rotational constants in MHz :          3605.225767          1506.204754          1314.650771

                             ****ORCA TERMINATED NORMALLY****
TOTAL RUN TIME: 0 days 0 hours 0 minutes 21 seconds 803 msec
