                         Program Version 6.0.0  -   RELEASE  -
|  1> ! pbe def2-sv(p) def2/J RI DEFGRID1 loosescf d4 GCP(DFT/SV(P)) printgap
|  2> %output
|  3>     printlevel normal
|  4> end
|  5> * xyz 0 1
|  6> C -2.3936017455 -1.1476613903 -0.3490439487
|  7> C -1.0676060754 -0.6305357153 0.2337576093
|  8> H -1.1137302377 -0.6317846455 1.3360722481
|  9> C -0.7759184953 0.8066309732 -0.2319310996
| 10> H -0.8100577373 0.8361172757 -1.3327302723
| 11> C 0.6307496137 1.2386803331 0.212776778
| 12> H 0.6338520156 1.3098623174 1.3142788512
| 13> C 1.6660986077 0.1938330135 -0.2264580138
| 14> H 1.7003507746 0.1745174403 -1.3210300362
| 15> C 1.2270788943 -1.1961650229 0.2940761559
| 16> H 1.2056434653 -1.1812035832 1.39768545
| 17> O -0.0586884093 -1.5170603245 -0.2029060799
| 18> O 2.0938990538 -2.2060323464 -0.0501609918
| 19> O 2.9699265813 0.5036484054 0.1757013706
| 20> O 0.9760330332 2.4804845805 -0.3448526726
| 21> O -1.6833567599 1.7301731487 0.3162317913
| 22> O -3.5001702615 -0.4040748915 0.0968409432
| 23> H -2.4869385296 -2.2102569233 -0.1081003537
| 24> H -2.3629367042 -1.0441311202 -1.4360938374
| 25> H 2.1285518717 -2.3025983687 -1.0147392767
| 26> H 3.0059247772 0.6333391829 1.1343999085
| 27> H 0.2617451185 3.1073786119 -0.152507397
| 28> H -2.5880685197 1.4221772242 0.1281212343
| 29> H -3.7370286409 -0.6721670589 0.9961357064
| 30> *
| 31>
| 32>                          ****END OF INPUT****

CARTESIAN COORDINATES (ANGSTROEM)
---------------------------------
  C     -2.393602   -1.147661   -0.349044
  C     -1.067606   -0.630536    0.233758
  H     -1.113730   -0.631785    1.336072
  C     -0.775918    0.806631   -0.231931
  H     -0.810058    0.836117   -1.332730
  C      0.630750    1.238680    0.212777
  H      0.633852    1.309862    1.314279
  C      1.666099    0.193833   -0.226458
  H      1.700351    0.174517   -1.321030
  C      1.227079   -1.196165    0.294076
  H      1.205643   -1.181204    1.397685
  O     -0.058688   -1.517060   -0.202906
  O      2.093899   -2.206032   -0.050161
  O      2.969927    0.503648    0.175701
  O      0.976033    2.480485   -0.344853
  O     -1.683357    1.730173    0.316232
  O     -3.500170   -0.404075    0.096841
  H     -2.486939   -2.210257   -0.108100
  H     -2.362937   -1.044131   -1.436094
  H      2.128552   -2.302598   -1.014739
  H      3.005925    0.633339    1.134400
  H      0.261745    3.107379   -0.152507
  H     -2.588069    1.422177    0.128121
  H     -3.737029   -0.672167    0.996136

 Total Charge           Charge          ....    0
 Multiplicity           Mult            ....    1
 Number of Electrons    NEL             ....   96
 Basis Dimension        Dim             ....  192

ORBITAL ENERGIES
----------------

  NO   OCC          E(Eh)            E(eV)
   0   2.0000     -18.785277      -511.1734
   1   2.0000     -18.776240      -510.9275
   2   2.0000     -18.758799      -510.4529
   3   2.0000     -18.752172      -510.2725
   4   2.0000     -18.746202      -510.1101
   5   2.0000     -18.743314      -510.0315
   6   2.0000      -9.987394      -271.7708
   7   2.0000      -9.950920      -270.7783
   8   2.0000      -9.950557      -270.7684
   9   2.0000      -9.942720      -270.5552
  10   2.0000      -9.941237      -270.5148
  11   2.0000      -9.939063      -270.4556
  12   2.0000      -0.985302       -26.8114
  13   2.0000      -0.959116       -26.0989
  14   2.0000      -0.939041       -25.5526
  15   2.0000      -0.929441       -25.2914
  16   2.0000      -0.916661       -24.9436
  17   2.0000      -0.909323       -24.7439
  18   2.0000      -0.703984       -19.1564
  19   2.0000      -0.694495       -18.8982
  20   2.0000      -0.622834       -16.9482
  21   2.0000      -0.584814       -15.9136
  22   2.0000      -0.567732       -15.4488
  23   2.0000      -0.543067       -14.7776
  24   2.0000      -0.505552       -13.7568
  25   2.0000      -0.493675       -13.4336
  26   2.0000      -0.483171       -13.1478
  27   2.0000      -0.471673       -12.8349
  28   2.0000      -0.439844       -11.9688
  29   2.0000      -0.430125       -11.7043
  30   2.0000      -0.426293       -11.6000
  31   2.0000      -0.402748       -10.9593
  32   2.0000      -0.396281       -10.7833
  33   2.0000      -0.385500       -10.4900
  34   2.0000      -0.359346        -9.7783
  35   2.0000      -0.348820        -9.4919
  36   2.0000      -0.332330        -9.0432
  37   2.0000      -0.311321        -8.4715
  38   2.0000      -0.306578        -8.3424
  39   2.0000      -0.299019        -8.1367
  40   2.0000      -0.297460        -8.0943
  41   2.0000      -0.273823        -7.4511
  42   2.0000      -0.253865        -6.9080
  43   2.0000      -0.246002        -6.6941
  44   2.0000      -0.240008        -6.5309
  45   2.0000      -0.224148        -6.0994
  46   2.0000      -0.217979        -5.9315
  47   2.0000      -0.198859        -5.4112
  48   0.0000       0.000775         0.0211
  49   0.0000       0.023433         0.6376
  50   0.0000       0.030161         0.8207
  51   0.0000       0.038544         1.0488
  52   0.0000       0.058441         1.5903

MULLIKEN ATOMIC CHARGES
-----------------------
   0 C :    0.070285
   1 C :   -0.012579
   2 H :    0.043478
   3 C :    0.029604
   4 H :    0.053456
   5 C :    0.077167
   6 H :    0.033740
   7 C :    0.062756
   8 H :    0.054917
   9 C :    0.181184
  10 H :    0.034498
  11 O :   -0.303669
  12 O :   -0.362220
  13 O :   -0.397028
  14 O :   -0.404987
  15 O :   -0.436642
  16 O :   -0.436874
  17 H :    0.100095
  18 H :    0.090914
  19 H :    0.304211
  20 H :    0.296432
  21 H :    0.306199
  22 H :    0.303210
  23 H :    0.311855
Sum of atomic charges:    0.0000000

LOEWDIN ATOMIC CHARGES
----------------------
   0 C :   -0.126152
   1 C :   -0.080935
   2 H :    0.096054
   3 C :   -0.080256
   4 H :    0.103297
   5 C :   -0.074698
   6 H :    0.094371
   7 C :   -0.089310
   8 H :    0.117295
   9 C :   -0.005924
  10 H :    0.090400
  11 O :   -0.156273
  12 O :   -0.279117
  13 O :   -0.299893
  14 O :   -0.316486
  15 O :   -0.333701
  16 O :   -0.318985
  17 H :    0.109868
  18 H :    0.119217
  19 H :    0.290552
  20 H :    0.285243
  21 H :    0.287117
  22 H :    0.274409
  23 H :    0.293906

  Mayer bond orders larger than 0.100000
B(  0-C ,  1-C ) :   1.0244 B(  0-C , 16-O ) :   1.0371 B(  0-C , 17-H ) :   0.9246
B(  0-C , 18-H ) :   0.9142 B(  1-C ,  2-H ) :   0.8733 B(  1-C ,  3-C ) :   0.9932
B(  1-C , 11-O ) :   0.9969 B(  3-C ,  4-H ) :   0.8710 B(  3-C ,  5-C ) :   1.0091
B(  3-C , 15-O ) :   1.0798 B(  5-C ,  6-H ) :   0.8695 B(  5-C ,  7-C ) :   0.9963
B(  5-C , 14-O ) :   1.1115 B(  7-C ,  8-H ) :   0.8572 B(  7-C ,  9-C ) :   0.9596
B(  7-C , 13-O ) :   1.0671 B(  9-C , 10-H ) :   0.8752 B(  9-C , 11-O ) :   0.9834
B(  9-C , 12-O ) :   1.1765 B( 12-O , 19-H ) :   0.8425 B( 13-O , 20-H ) :   0.8490
B( 14-O , 21-H ) :   0.8375 B( 15-O , 22-H ) :   0.8029 B( 16-O , 22-H ) :   0.1091
B( 16-O , 23-H ) :   0.8429

Dispersion correction           -0.023825951
FINAL SINGLE POINT ENERGY      -685.698520619311

DIPOLE MOMENT
-------------

Method             : SCF
Type of density    : Electron Density
Multiplicity       :   1
Irrep              :   0
Energy             :  -685.8287585266311908 Eh
Relativity type    :
Basis              : AO
                                X                 Y                 Z
Electronic contribution:      2.675487001       0.119603081      -0.333156279
Nuclear contribution   :     -3.893496891      -0.515504064       0.883144384
                        -----------------------------------------
Total Dipole Moment    :     -1.218009890      -0.395900982       0.549988105
                        -----------------------------------------
Magnitude (a.u.)       :      1.393833776
Magnitude (Debye)      :      3.542843904

Rotational constants in cm-1:             0.043813             0.024386             0.016407
Rotational constants in MHz :          1313.475446           731.082624           491.878594

                             ****ORCA TERMINATED NORMALLY****
TOTAL RUN TIME: 0 days 0 hours 0 minutes 11 seconds 862 msec
