                         Program Version 6.0.0  -   RELEASE  -
|  1> ! wb97x-v def2-tzvp def2/J RIJCOSX DEFGRID2 scfconv7 GCP(DFT/TZ) printgap
|  2> %output
|  3>     printlevel normal
|  4> end
|  5> * xyz 0 1
|  6> C -1.0015312025397918 -1.599340137499754 0.007710121260180011
|  7> S -0.48036503194441754 0.11304245352908797 0.06267958807913687
|  8> O -0.4643109792974817 0.6113419137691767 1.4394776871096104
|  9> O -1.1374476852329882 0.8918593692165587 -0.988525219607913
| 10> Cl 1.5653034211642547 -0.08494552059684286 -0.5264050698106832
| 11> H -0.39569280401366663 -2.162067872406952 0.7206127754465019
| 12> H -2.0568378029379955 -1.5899485575029328 0.30194522928102663
| 13> H -0.8780014105643993 -1.9584474385059303 -1.0158123446452445
| 14> *
| 15>
| 16>                          ****END OF INPUT****

CARTESIAN COORDINATES (ANGSTROEM)
---------------------------------
  C     -1.001531   -1.599340    0.007710
  S     -0.480365    0.113042    0.062680
  O     -0.464311    0.611342    1.439478
  O     -1.137448    0.891859   -0.988525
  Cl     1.565303   -0.084946   -0.526405
  H     -0.395693   -2.162068    0.720613
  H     -2.056838   -1.589949    0.301945
  H     -0.878001   -1.958447   -1.015812

 Total Charge           Charge          ....    0
 Multiplicity           Mult            ....    1
 Number of Electrons    NEL             ....   58
 Basis Dimension        Dim             ....  185

ORBITAL ENERGIES
----------------

  NO   OCC          E(Eh)            E(eV)
   0   2.0000    -107.165130     -2916.1115
   1   2.0000     -94.374222     -2568.0531
   2   2.0000     -21.706809      -590.6723
   3   2.0000     -21.706770      -590.6712
   4   2.0000     -12.129249      -330.0537
   5   2.0000     -11.318466      -307.9911
   6   2.0000      -9.853993      -268.1408
   7   2.0000      -9.109531      -247.8829
   8   2.0000      -9.106854      -247.8101
   9   2.0000      -9.106794      -247.8085
  10   2.0000      -7.836454      -213.2407
  11   2.0000      -7.832988      -213.1464
  12   2.0000      -7.832561      -213.1348
  13   2.0000      -1.779700       -48.4281
  14   2.0000      -1.711963       -46.5849
  15   2.0000      -1.414397       -38.4877
  16   2.0000      -1.327933       -36.1349
  17   2.0000      -1.195931       -32.5429
  18   2.0000      -1.085097       -29.5270
  19   2.0000      -1.043152       -28.3856
  20   2.0000      -1.027045       -27.9473
  21   2.0000      -0.939753       -25.5720
  22   2.0000      -0.930181       -25.3115
  23   2.0000      -0.923648       -25.1337
  24   2.0000      -0.905887       -24.6504
  25   2.0000      -0.901804       -24.5393
  26   2.0000      -0.857607       -23.3367
  27   2.0000      -0.814202       -22.1556
  28   2.0000      -0.813034       -22.1238
  29   0.0000      -0.456051       -12.4098
  30   0.0000      -0.321367        -8.7449
  31   0.0000      -0.247842        -6.7441
  32   0.0000      -0.242143        -6.5891
  33   0.0000      -0.035472        -0.9652

MULLIKEN ATOMIC CHARGES
-----------------------
   0 C :   -0.338528
   1 S :    0.778098
   2 O :   -0.389702
   3 O :   -0.389638
   4 Cl:   -0.168122
   5 H :    0.170759
   6 H :    0.166350
   7 H :    0.170782
Sum of atomic charges:   -0.0000000

LOEWDIN ATOMIC CHARGES
----------------------
   0 C :   -0.411182
   1 S :    0.569513
   2 O :   -0.278565
   3 O :   -0.278304
   4 Cl:    0.005158
   5 H :    0.129831
   6 H :    0.133679
   7 H :    0.129870

  Mayer bond orders larger than 0.100000
B(  0-C ,  1-S ) :   0.8762 B(  0-C ,  5-H ) :   0.9427 B(  0-C ,  6-H ) :   0.9377
B(  0-C ,  7-H ) :   0.9427 B(  1-S ,  2-O ) :   1.9050 B(  1-S ,  3-O ) :   1.9052
B(  1-S ,  4-Cl) :   0.9398

FINAL SINGLE POINT ENERGY     -1048.644028741244

DIPOLE MOMENT
-------------

Method             : SCF
Type of density    : Electron Density
Multiplicity       :   1
Irrep              :   0
Energy             : -1048.6499213220438378 Eh
Relativity type    :
Basis              : AO
                                X                 Y                 Z
Electronic contribution:      4.911980296       3.593226666      -0.940921963
Nuclear contribution   :     -5.223554939      -5.220546027       0.837817892
                        -----------------------------------------
Total Dipole Moment    :     -0.311574643      -1.627319361      -0.103104070
                        -----------------------------------------
Magnitude (a.u.)       :      1.660083585
Magnitude (Debye)      :      4.219597137

Rotational constants in cm-1:             0.147453             0.086340             0.082867
Rotational constants in MHz :          4420.528555          2588.421741          2484.279276

                             ****ORCA TERMINATED NORMALLY****
TOTAL RUN TIME: 0 days 0 hours 0 minutes 49 seconds 278 msec
