                         Program Version 6.0.0  -   RELEASE  -
|  1> ! wb97x-v def2-tzvp def2/J RIJCOSX DEFGRID2 scfconv7 GCP(DFT/TZ) printgap
|  2> %output
|  3>     printlevel normal
|  4> end
|  5> %cpcm
|  6>     smd true
|  7>     smdsolvent "water"
|  8> end
|  9> * xyz 0 1
| 10> C -1.0015312025397918 -1.599340137499754 0.007710121260180011
| 11> S -0.48036503194441754 0.11304245352908797 0.06267958807913687
| 12> O -0.4643109792974817 0.6113419137691767 1.4394776871096104
| 13> O -1.1374476852329882 0.8918593692165587 -0.988525219607913
| 14> Cl 1.5653034211642547 -0.08494552059684286 -0.5264050698106832
| 15> H -0.39569280401366663 -2.162067872406952 0.7206127754465019
| 16> H -2.0568378029379955 -1.5899485575029328 0.30194522928102663
| 17> H -0.8780014105643993 -1.9584474385059303 -1.0158123446452445
| 18> *
| 19>
| 20>                          ****END OF INPUT****

CARTESIAN COORDINATES (ANGSTROEM)
---------------------------------
  C     -1.001531   -1.599340    0.007710
  S     -0.480365    0.113042    0.062680
  O     -0.464311    0.611342    1.439478
  O     -1.137448    0.891859   -0.988525
  Cl     1.565303   -0.084946   -0.526405
  H     -0.395693   -2.162068    0.720613
  H     -2.056838   -1.589949    0.301945
  H     -0.878001   -1.958447   -1.015812

 Total Charge           Charge          ....    0
 Multiplicity           Mult            ....    1
 Number of Electrons    NEL             ....   58
 Basis Dimension        Dim             ....  185

ORBITAL ENERGIES
----------------

  NO   OCC          E(Eh)            E(eV)
   0   2.0000    -107.166405     -2916.1461
   1   2.0000     -94.376143     -2568.1054
   2   2.0000     -21.712679      -590.8320
   3   2.0000     -21.712630      -590.8307
   4   2.0000     -12.101165      -329.2894
   5   2.0000     -11.319747      -308.0260
   6   2.0000      -9.856091      -268.1979
   7   2.0000      -9.110817      -247.9179
   8   2.0000      -9.108122      -247.8446
   9   2.0000      -9.108094      -247.8438
  10   2.0000      -7.838464      -213.2955
  11   2.0000      -7.834964      -213.2002
  12   2.0000      -7.834680      -213.1925
  13   2.0000      -1.786860       -48.6229
  14   2.0000      -1.720056       -46.8051
  15   2.0000      -1.415141       -38.5079
  16   2.0000      -1.315356       -35.7927
  17   2.0000      -1.190238       -32.3880
  18   2.0000      -1.095816       -29.8187
  19   2.0000      -1.046120       -28.4664
  20   2.0000      -1.023889       -27.8614
  21   2.0000      -0.946139       -25.7458
  22   2.0000      -0.939031       -25.5523
  23   2.0000      -0.928337       -25.2613
  24   2.0000      -0.878211       -23.8973
  25   2.0000      -0.875720       -23.8295
  26   2.0000      -0.855994       -23.2928
  27   2.0000      -0.815976       -22.2038
  28   2.0000      -0.813086       -22.1252
  29   0.0000      -0.456420       -12.4198
  30   0.0000      -0.320687        -8.7263
  31   0.0000      -0.245538        -6.6814
  32   0.0000      -0.232521        -6.3272
  33   0.0000      -0.003701        -0.1007

MULLIKEN ATOMIC CHARGES
-----------------------
   0 C :   -0.353036
   1 S :    0.815501
   2 O :   -0.453040
   3 O :   -0.453139
   4 Cl:   -0.172748
   5 H :    0.205139
   6 H :    0.206115
   7 H :    0.205209
Sum of atomic charges:   -0.0000000

LOEWDIN ATOMIC CHARGES
----------------------
   0 C :   -0.386764
   1 S :    0.586241
   2 O :   -0.319667
   3 O :   -0.319487
   4 Cl:    0.002958
   5 H :    0.143760
   6 H :    0.149167
   7 H :    0.143792

  Mayer bond orders larger than 0.100000
B(  0-C ,  1-S ) :   0.8952 B(  0-C ,  5-H ) :   0.9252 B(  0-C ,  6-H ) :   0.9178
B(  0-C ,  7-H ) :   0.9252 B(  1-S ,  2-O ) :   1.8538 B(  1-S ,  3-O ) :   1.8538
B(  1-S ,  4-Cl) :   0.9513

FINAL SINGLE POINT ENERGY     -1048.657392511840

DIPOLE MOMENT
-------------

Method             : SCF
Type of density    : Electron Density
Multiplicity       :   1
Irrep              :   0
Energy             : -1048.6632850926400806 Eh
Relativity type    :
Basis              : AO
                                X                 Y                 Z
Electronic contribution:      4.832464187       3.027859183      -0.984272427
Nuclear contribution   :     -5.223554939      -5.220546027       0.837817892
                        -----------------------------------------
Total Dipole Moment    :     -0.391090753      -2.192686844      -0.146454535
                        -----------------------------------------
Magnitude (a.u.)       :      2.232101365
Magnitude (Debye)      :      5.673550785

Rotational constants in cm-1:             0.147453             0.086340             0.082867
Rotational constants in MHz :          4420.528555          2588.421741          2484.279276

                             ****ORCA TERMINATED NORMALLY****
TOTAL RUN TIME: 0 days 0 hours 0 minutes 50 seconds 269 msec
