                         Program Version 6.0.0  -   RELEASE  -
|  1> ! wb97x-v def2-tzvp def2/J RIJCOSX DEFGRID2 scfconv7 GCP(DFT/TZ) printgap
|  2> %output
|  3>     printlevel normal
|  4> end
|  5> * xyz 0 1
|  6> C -3.100790858838765 0.40245769497370076 0.0787313047427836
|  7> C -1.637896648292363 0.054869446883092234 0.04028277383336562
|  8> C -1.204791650478935 -1.2690372100009037 -0.03153205104415527
|  9> C 0.15382025655838186 -1.576045415376687 -0.08801327987179891
| 10> C 1.0952262844827023 -0.5526985371883765 -0.07294745728858598
| 11> C 0.7004836172457842 0.7908727129564694 0.004035995078235058
| 12> C -0.6656597398205797 1.0622615454769229 0.05907030593920373
| 13> C 1.7286523109495797 1.8825844403831744 0.026609900444757435
| 14> O 2.4521072671014568 -0.8055306680765157 -0.13130156656818007
| 15> H -3.7133101733170153 -0.4880987017022822 0.24217769977898476
| 16> H -3.3187613796020616 1.1200277357355473 0.8764595606003976
| 17> H -3.4234046701638627 0.8615522666314396 -0.8632051455440775
| 18> H -1.932599776503916 -2.0757126283497724 -0.04389537018494861
| 19> H 0.4851115872330665 -2.6100809705520853 -0.14350271743944928
| 20> H -0.9821405400933314 2.101586653819894 0.11877673267448248
| 21> H 1.2478683462956786 2.861367285797557 0.09961616444031693
| 22> H 2.4118710649621344 1.7697493019242558 0.8766788022991384
| 23> H 2.34590649751668 1.868502807617245 -0.8794928549899438
| 24> H 2.5878783549279007 -1.7611015804314967 -0.19582460589048903
| 25> *
| 26>
| 27>                          ****END OF INPUT****

CARTESIAN COORDINATES (ANGSTROEM)
---------------------------------
  C     -3.100791    0.402458    0.078731
  C     -1.637897    0.054869    0.040283
  C     -1.204792   -1.269037   -0.031532
  C      0.153820   -1.576045   -0.088013
  C      1.095226   -0.552699   -0.072947
  C      0.700484    0.790873    0.004036
  C     -0.665660    1.062262    0.059070
  C      1.728652    1.882584    0.026610
  O      2.452107   -0.805531   -0.131302
  H     -3.713310   -0.488099    0.242178
  H     -3.318761    1.120028    0.876460
  H     -3.423405    0.861552   -0.863205
  H     -1.932600   -2.075713   -0.043895
  H      0.485112   -2.610081   -0.143503
  H     -0.982141    2.101587    0.118777
  H      1.247868    2.861367    0.099616
  H      2.411871    1.769749    0.876679
  H      2.345906    1.868503   -0.879493
  H      2.587878   -1.761102   -0.195825

 Total Charge           Charge          ....    0
 Multiplicity           Mult            ....    1
 Number of Electrons    NEL             ....   66
 Basis Dimension        Dim             ....  339

ORBITAL ENERGIES
----------------

  NO   OCC          E(Eh)            E(eV)
   0   2.0000     -21.700077      -590.4891
   1   2.0000     -12.105225      -329.3999
   2   2.0000     -12.053361      -327.9886
   3   2.0000     -12.050600      -327.9135
   4   2.0000     -12.048635      -327.8600
   5   2.0000     -12.046184      -327.7933
   6   2.0000     -12.044107      -327.7368
   7   2.0000     -12.039895      -327.6222
   8   2.0000     -12.037265      -327.5506
   9   2.0000      -1.711725       -46.5784
  10   2.0000      -1.385053       -37.6892
  11   2.0000      -1.302462       -35.4418
  12   2.0000      -1.283572       -34.9278
  13   2.0000      -1.199336       -32.6356
  14   2.0000      -1.190415       -32.3928
  15   2.0000      -1.136704       -30.9313
  16   2.0000      -1.087574       -29.5944
  17   2.0000      -1.048972       -28.5440
  18   2.0000      -1.002107       -27.2687
  19   2.0000      -0.944235       -25.6939
  20   2.0000      -0.942950       -25.6590
  21   2.0000      -0.923736       -25.1361
  22   2.0000      -0.891693       -24.2642
  23   2.0000      -0.868133       -23.6231
  24   2.0000      -0.838226       -22.8093
  25   2.0000      -0.835908       -22.7462
  26   2.0000      -0.826803       -22.4984
  27   2.0000      -0.825535       -22.4639
  28   2.0000      -0.805362       -21.9150
  29   2.0000      -0.796229       -21.6665
  30   2.0000      -0.750142       -20.4124
  31   2.0000      -0.635062       -17.2809
  32   2.0000      -0.625855       -17.0304
  33   0.0000      -0.241924        -6.5831
  34   0.0000      -0.236902        -6.4464
  35   0.0000      -0.145455        -3.9580
  36   0.0000      -0.073458        -1.9989
  37   0.0000      -0.069170        -1.8822

MULLIKEN ATOMIC CHARGES
-----------------------
   0 C :   -0.366290
   1 C :    0.163725
   2 C :   -0.215133
   3 C :   -0.184232
   4 C :    0.174614
   5 C :    0.088570
   6 C :   -0.270332
   7 C :   -0.337091
   8 O :   -0.396887
   9 H :    0.113988
  10 H :    0.119828
  11 H :    0.121577
  12 H :    0.110520
  13 H :    0.100696
  14 H :    0.109171
  15 H :    0.110840
  16 H :    0.123462
  17 H :    0.123012
  18 H :    0.309962
Sum of atomic charges:   -0.0000000

LOEWDIN ATOMIC CHARGES
----------------------
   0 C :   -0.255421
   1 C :   -0.181669
   2 C :   -0.122743
   3 C :   -0.146807
   4 C :   -0.234750
   5 C :   -0.151412
   6 C :   -0.087783
   7 C :   -0.248397
   8 O :    0.062489
   9 H :    0.123206
  10 H :    0.124814
  11 H :    0.125595
  12 H :    0.142643
  13 H :    0.138901
  14 H :    0.146300
  15 H :    0.122707
  16 H :    0.129235
  17 H :    0.129181
  18 H :    0.183909

  Mayer bond orders larger than 0.100000
B(  0-C ,  1-C ) :   0.9125 B(  0-C ,  9-H ) :   0.9966 B(  0-C , 10-H ) :   0.9852
B(  0-C , 11-H ) :   0.9703 B(  1-C ,  2-C ) :   1.4316 B(  1-C ,  6-C ) :   1.3796
B(  2-C ,  3-C ) :   1.4164 B(  2-C , 12-H ) :   0.9618 B(  3-C ,  4-C ) :   1.4061
B(  3-C , 13-H ) :   0.9657 B(  4-C ,  5-C ) :   1.3457 B(  4-C ,  8-O ) :   1.1762
B(  5-C ,  6-C ) :   1.4520 B(  5-C ,  7-C ) :   0.9489 B(  6-C , 14-H ) :   0.9690
B(  7-C , 15-H ) :   0.9957 B(  7-C , 16-H ) :   0.9669 B(  7-C , 17-H ) :   0.9666
B(  8-O , 18-H ) :   0.8902

FINAL SINGLE POINT ENERGY      -386.122489040489

DIPOLE MOMENT
-------------

Method             : SCF
Type of density    : Electron Density
Multiplicity       :   1
Irrep              :   0
Energy             :  -386.1336239129892647 Eh
Relativity type    :
Basis              : AO
                                X                 Y                 Z
Electronic contribution:      3.825584123      -3.755184496      -0.250811757
Nuclear contribution   :     -3.967045770       3.384114705       0.220188183
                        -----------------------------------------
Total Dipole Moment    :     -0.141461646      -0.371069791      -0.030623574
                        -----------------------------------------
Magnitude (a.u.)       :      0.398298871
Magnitude (Debye)      :      1.012395274

Rotational constants in cm-1:             0.100168             0.043437             0.030643
Rotational constants in MHz :          3002.972350          1302.193917           918.660775

                             ****ORCA TERMINATED NORMALLY****
TOTAL RUN TIME: 0 days 0 hours 3 minutes 40 seconds 164 msec
