                         Program Version 6.0.0  -   RELEASE  -
|  1> ! wb97x-v def2-tzvp def2/J RIJCOSX DEFGRID2 scfconv7 GCP(DFT/TZ) printgap
|  2> %output
|  3>     printlevel normal
|  4> end
|  5> %cpcm
|  6>     smd true
|  7>     smdsolvent "water"
|  8> end
|  9> * xyz 0 1
| 10> C -3.100790858838765 0.40245769497370076 0.0787313047427836
| 11> C -1.637896648292363 0.054869446883092234 0.04028277383336562
| 12> C -1.204791650478935 -1.2690372100009037 -0.03153205104415527
| 13> C 0.15382025655838186 -1.576045415376687 -0.08801327987179891
| 14> C 1.0952262844827023 -0.5526985371883765 -0.07294745728858598
| 15> C 0.7004836172457842 0.7908727129564694 0.004035995078235058
| 16> C -0.6656597398205797 1.0622615454769229 0.05907030593920373
| 17> C 1.7286523109495797 1.8825844403831744 0.026609900444757435
| 18> O 2.4521072671014568 -0.8055306680765157 -0.13130156656818007
| 19> H -3.7133101733170153 -0.4880987017022822 0.24217769977898476
| 20> H -3.3187613796020616 1.1200277357355473 0.8764595606003976
| 21> H -3.4234046701638627 0.8615522666314396 -0.8632051455440775
| 22> H -1.932599776503916 -2.0757126283497724 -0.04389537018494861
| 23> H 0.4851115872330665 -2.6100809705520853 -0.14350271743944928
| 24> H -0.9821405400933314 2.101586653819894 0.11877673267448248
| 25> H 1.2478683462956786 2.861367285797557 0.09961616444031693
| 26> H 2.4118710649621344 1.7697493019242558 0.8766788022991384
| 27> H 2.34590649751668 1.868502807617245 -0.8794928549899438
| 28> H 2.5878783549279007 -1.7611015804314967 -0.19582460589048903
| 29> *
| 30>
| 31>                          ****END OF INPUT****

CARTESIAN COORDINATES (ANGSTROEM)
---------------------------------
  C     -3.100791    0.402458    0.078731
  C     -1.637897    0.054869    0.040283
  C     -1.204792   -1.269037   -0.031532
  C      0.153820   -1.576045   -0.088013
  C      1.095226   -0.552699   -0.072947
  C      0.700484    0.790873    0.004036
  C     -0.665660    1.062262    0.059070
  C      1.728652    1.882584    0.026610
  O      2.452107   -0.805531   -0.131302
  H     -3.713310   -0.488099    0.242178
  H     -3.318761    1.120028    0.876460
  H     -3.423405    0.861552   -0.863205
  H     -1.932600   -2.075713   -0.043895
  H      0.485112   -2.610081   -0.143503
  H     -0.982141    2.101587    0.118777
  H      1.247868    2.861367    0.099616
  H      2.411871    1.769749    0.876679
  H      2.345906    1.868503   -0.879493
  H      2.587878   -1.761102   -0.195825

 Total Charge           Charge          ....    0
 Multiplicity           Mult            ....    1
 Number of Electrons    NEL             ....   66
 Basis Dimension        Dim             ....  339

ORBITAL ENERGIES
----------------

  NO   OCC          E(Eh)            E(eV)
   0   2.0000     -21.698415      -590.4439
   1   2.0000     -12.105080      -329.3960
   2   2.0000     -12.054266      -328.0133
   3   2.0000     -12.050177      -327.9020
   4   2.0000     -12.045551      -327.7761
   5   2.0000     -12.043491      -327.7201
   6   2.0000     -12.042597      -327.6957
   7   2.0000     -12.034729      -327.4816
   8   2.0000     -12.032074      -327.4094
   9   2.0000      -1.710461       -46.5440
  10   2.0000      -1.385533       -37.7023
  11   2.0000      -1.301971       -35.4284
  12   2.0000      -1.282266       -34.8922
  13   2.0000      -1.196056       -32.5463
  14   2.0000      -1.189080       -32.3565
  15   2.0000      -1.134191       -30.8629
  16   2.0000      -1.086316       -29.5602
  17   2.0000      -1.047450       -28.5026
  18   2.0000      -1.003227       -27.2992
  19   2.0000      -0.945207       -25.7204
  20   2.0000      -0.943070       -25.6623
  21   2.0000      -0.919569       -25.0227
  22   2.0000      -0.887909       -24.1612
  23   2.0000      -0.865479       -23.5509
  24   2.0000      -0.834646       -22.7119
  25   2.0000      -0.832712       -22.6592
  26   2.0000      -0.823467       -22.4077
  27   2.0000      -0.820378       -22.3236
  28   2.0000      -0.802095       -21.8261
  29   2.0000      -0.791559       -21.5394
  30   2.0000      -0.750627       -20.4256
  31   2.0000      -0.635717       -17.2987
  32   2.0000      -0.627444       -17.0736
  33   0.0000      -0.243042        -6.6135
  34   0.0000      -0.237335        -6.4582
  35   0.0000      -0.143647        -3.9088
  36   0.0000      -0.073026        -1.9871
  37   0.0000      -0.045122        -1.2278

MULLIKEN ATOMIC CHARGES
-----------------------
   0 C :   -0.395768
   1 C :    0.131159
   2 C :   -0.246724
   3 C :   -0.240417
   4 C :    0.182060
   5 C :    0.072979
   6 C :   -0.313730
   7 C :   -0.396668
   8 O :   -0.475736
   9 H :    0.139458
  10 H :    0.138563
  11 H :    0.137385
  12 H :    0.156851
  13 H :    0.163332
  14 H :    0.152874
  15 H :    0.141984
  16 H :    0.138875
  17 H :    0.139025
  18 H :    0.374498
Sum of atomic charges:   -0.0000000

LOEWDIN ATOMIC CHARGES
----------------------
   0 C :   -0.258245
   1 C :   -0.192437
   2 C :   -0.133236
   3 C :   -0.145232
   4 C :   -0.245580
   5 C :   -0.163902
   6 C :   -0.097364
   7 C :   -0.255345
   8 O :    0.038564
   9 H :    0.128639
  10 H :    0.129306
  11 H :    0.129751
  12 H :    0.152544
  13 H :    0.155376
  14 H :    0.156213
  15 H :    0.130619
  16 H :    0.130778
  17 H :    0.130912
  18 H :    0.208638

  Mayer bond orders larger than 0.100000
B(  0-C ,  1-C ) :   0.9287 B(  0-C ,  9-H ) :   0.9919 B(  0-C , 10-H ) :   0.9790
B(  0-C , 11-H ) :   0.9650 B(  1-C ,  2-C ) :   1.4002 B(  1-C ,  6-C ) :   1.3620
B(  2-C ,  3-C ) :   1.3734 B(  2-C , 12-H ) :   0.9703 B(  3-C ,  4-C ) :   1.4120
B(  3-C , 13-H ) :   0.9752 B(  4-C ,  5-C ) :   1.3327 B(  4-C ,  8-O ) :   1.1343
B(  5-C ,  6-C ) :   1.4390 B(  5-C ,  7-C ) :   0.9398 B(  6-C , 14-H ) :   0.9780
B(  7-C , 15-H ) :   0.9892 B(  7-C , 16-H ) :   0.9675 B(  7-C , 17-H ) :   0.9670
B(  8-O , 18-H ) :   0.8501

FINAL SINGLE POINT ENERGY      -386.130566750681

DIPOLE MOMENT
-------------

Method             : SCF
Type of density    : Electron Density
Multiplicity       :   1
Irrep              :   0
Energy             :  -386.1417016231807793 Eh
Relativity type    :
Basis              : AO
                                X                 Y                 Z
Electronic contribution:      3.714787038      -3.919378422      -0.262392832
Nuclear contribution   :     -3.967045770       3.384114705       0.220188183
                        -----------------------------------------
Total Dipole Moment    :     -0.252258732      -0.535263717      -0.042204649
                        -----------------------------------------
Magnitude (a.u.)       :      0.593230939
Magnitude (Debye)      :      1.507873214

Rotational constants in cm-1:             0.100168             0.043437             0.030643
Rotational constants in MHz :          3002.972350          1302.193917           918.660775

                             ****ORCA TERMINATED NORMALLY****
TOTAL RUN TIME: 0 days 0 hours 3 minutes 55 seconds 29 msec
