                         Program Version 6.0.0  -   RELEASE  -
|  1> ! r2scan-3c def2/J RI DEFGRID2 scfconv6 printgap
|  2> %output
|  3>     printlevel normal
|  4> end
|  5> * xyz 0 1
|  6> C -2.3428519525 4.35649e-05 0.000611246
|  7> C -1.6500306606 -1.1991457615 0.0003576888
|  8> C -0.2649739167 -1.2070542185 -0.0005919668
|  9> C 0.4120497473 -1.4162e-05 -0.0011707862
| 10> C -0.2649932048 1.2070066792 -0.0004164629
| 11> C -1.6499846079 1.1991378141 -0.0003087739
| 12> Cl 2.157011794 9.1349e-06 0.0003877016
| 13> H -3.4214129435 0.0001068053 0.0003946485
| 14> H -2.1847711937 -2.1358183179 -0.0001808614
| 15> H 0.2835461936 -2.1352215636 0.0005775279
| 16> H 0.2834940353 2.1351557263 -3.3819e-06
| 17> H -2.1846360032 2.1357668583 0.0036764244
| 18> *
| 19>
| 20>                          ****END OF INPUT****

CARTESIAN COORDINATES (ANGSTROEM)
---------------------------------
  C     -2.342852    0.000044    0.000611
  C     -1.650031   -1.199146    0.000358
  C     -0.264974   -1.207054   -0.000592
  C      0.412050   -0.000014   -0.001171
  C     -0.264993    1.207007   -0.000416
  C     -1.649985    1.199138   -0.000309
  Cl     2.157012    0.000009    0.000388
  H     -3.421413    0.000107    0.000395
  H     -2.184771   -2.135818   -0.000181
  H      0.283546   -2.135222    0.000578
  H      0.283494    2.135156   -0.000003
  H     -2.184636    2.135767    0.003676

 Total Charge           Charge          ....    0
 Multiplicity           Mult            ....    1
 Number of Electrons    NEL             ....   58
 Basis Dimension        Dim             ....  166

ORBITAL ENERGIES
----------------

  NO   OCC          E(Eh)            E(eV)
   0   2.0000    -101.219435     -2754.3208
   1   2.0000     -10.103464      -274.9292
   2   2.0000     -10.050960      -273.5005
   3   2.0000     -10.050943      -273.5001
   4   2.0000     -10.050120      -273.4777
   5   2.0000     -10.050089      -273.4768
   6   2.0000     -10.045803      -273.3602
   7   2.0000      -9.375266      -255.1140
   8   2.0000      -7.121436      -193.7841
   9   2.0000      -7.111559      -193.5153
  10   2.0000      -7.111115      -193.5033
  11   2.0000      -0.864140       -23.5144
  12   2.0000      -0.807665       -21.9777
  13   2.0000      -0.734054       -19.9746
  14   2.0000      -0.707040       -19.2395
  15   2.0000      -0.594239       -16.1701
  16   2.0000      -0.575804       -15.6684
  17   2.0000      -0.502237       -13.6666
  18   2.0000      -0.443531       -12.0691
  19   2.0000      -0.442328       -12.0364
  20   2.0000      -0.407651       -11.0928
  21   2.0000      -0.407631       -11.0922
  22   2.0000      -0.377341       -10.2680
  23   2.0000      -0.336965        -9.1693
  24   2.0000      -0.334382        -9.0990
  25   2.0000      -0.313572        -8.5327
  26   2.0000      -0.286107        -7.7854
  27   2.0000      -0.252772        -6.8783
  28   2.0000      -0.232465        -6.3257
  29   0.0000      -0.046730        -1.2716
  30   0.0000      -0.043906        -1.1948
  31   0.0000       0.009526         0.2592
  32   0.0000       0.099437         2.7058
  33   0.0000       0.106850         2.9075

MULLIKEN ATOMIC CHARGES
-----------------------
   0 C :   -0.161498
   1 C :   -0.117903
   2 C :   -0.212639
   3 C :    0.200435
   4 C :   -0.212615
   5 C :   -0.117873
   6 Cl:   -0.157066
   7 H :    0.150288
   8 H :    0.151753
   9 H :    0.162694
  10 H :    0.162686
  11 H :    0.151737
Sum of atomic charges:   -0.0000000

LOEWDIN ATOMIC CHARGES
----------------------
   0 C :   -0.168025
   1 C :   -0.152923
   2 C :   -0.173667
   3 C :   -0.162028
   4 C :   -0.173663
   5 C :   -0.152926
   6 Cl:    0.116531
   7 H :    0.169142
   8 H :    0.170589
   9 H :    0.178200
  10 H :    0.178193
  11 H :    0.170578

  Mayer bond orders larger than 0.100000
B(  0-C ,  1-C ) :   1.4246 B(  0-C ,  5-C ) :   1.4246 B(  0-C ,  7-H ) :   0.9464
B(  1-C ,  2-C ) :   1.4075 B(  1-C ,  8-H ) :   0.9473 B(  2-C ,  3-C ) :   1.4013
B(  2-C ,  9-H ) :   0.9430 B(  3-C ,  4-C ) :   1.4013 B(  3-C ,  6-Cl) :   0.8998
B(  4-C ,  5-C ) :   1.4075 B(  4-C , 10-H ) :   0.9430 B(  5-C , 11-H ) :   0.9473

Dispersion correction           -0.003998907
FINAL SINGLE POINT ENERGY      -691.760525640374

DIPOLE MOMENT
-------------

Method             : SCF
Type of density    : Electron Density
Multiplicity       :   1
Irrep              :   0
Energy             :  -691.7602414661106422 Eh
Relativity type    :
Basis              : AO
                                X                 Y                 Z
Electronic contribution:      8.968656020       0.000040873      -0.002388917
Nuclear contribution   :     -9.672283253      -0.000022104       0.003667982
                        -----------------------------------------
Total Dipole Moment    :     -0.703627232       0.000018770       0.001279066
                        -----------------------------------------
Magnitude (a.u.)       :      0.703628395
Magnitude (Debye)      :      1.788481247

Rotational constants in cm-1:             0.191722             0.052420             0.041165
Rotational constants in MHz :          5747.672663          1571.499645          1234.083220

                             ****ORCA TERMINATED NORMALLY****
TOTAL RUN TIME: 0 days 0 hours 0 minutes 15 seconds 390 msec
