                         Program Version 6.0.0  -   RELEASE  -
|  1> ! r2scan-3c def2/J RI DEFGRID2 scfconv6 printgap
|  2> %output
|  3>     printlevel normal
|  4> end
|  5> %cpcm
|  6>     smd true
|  7>     smdsolvent "water"
|  8> end
|  9> * xyz 0 1
| 10> C -2.3428519525 4.35649e-05 0.000611246
| 11> C -1.6500306606 -1.1991457615 0.0003576888
| 12> C -0.2649739167 -1.2070542185 -0.0005919668
| 13> C 0.4120497473 -1.4162e-05 -0.0011707862
| 14> C -0.2649932048 1.2070066792 -0.0004164629
| 15> C -1.6499846079 1.1991378141 -0.0003087739
| 16> Cl 2.157011794 9.1349e-06 0.0003877016
| 17> H -3.4214129435 0.0001068053 0.0003946485
| 18> H -2.1847711937 -2.1358183179 -0.0001808614
| 19> H 0.2835461936 -2.1352215636 0.0005775279
| 20> H 0.2834940353 2.1351557263 -3.3819e-06
| 21> H -2.1846360032 2.1357668583 0.0036764244
| 22> *
| 23>
| 24>                          ****END OF INPUT****

CARTESIAN COORDINATES (ANGSTROEM)
---------------------------------
  C     -2.342852    0.000044    0.000611
  C     -1.650031   -1.199146    0.000358
  C     -0.264974   -1.207054   -0.000592
  C      0.412050   -0.000014   -0.001171
  C     -0.264993    1.207007   -0.000416
  C     -1.649985    1.199138   -0.000309
  Cl     2.157012    0.000009    0.000388
  H     -3.421413    0.000107    0.000395
  H     -2.184771   -2.135818   -0.000181
  H      0.283546   -2.135222    0.000578
  H      0.283494    2.135156   -0.000003
  H     -2.184636    2.135767    0.003676

 Total Charge           Charge          ....    0
 Multiplicity           Mult            ....    1
 Number of Electrons    NEL             ....   58
 Basis Dimension        Dim             ....  166

ORBITAL ENERGIES
----------------

  NO   OCC          E(Eh)            E(eV)
   0   2.0000    -101.222606     -2754.4071
   1   2.0000     -10.101086      -274.8645
   2   2.0000     -10.045323      -273.3471
   3   2.0000     -10.045307      -273.3467
   4   2.0000     -10.042420      -273.2681
   5   2.0000     -10.042390      -273.2673
   6   2.0000     -10.037999      -273.1478
   7   2.0000      -9.378629      -255.2055
   8   2.0000      -7.124633      -193.8711
   9   2.0000      -7.115001      -193.6090
  10   2.0000      -7.114526      -193.5961
  11   2.0000      -0.862944       -23.4819
  12   2.0000      -0.806114       -21.9355
  13   2.0000      -0.727919       -19.8077
  14   2.0000      -0.703244       -19.1362
  15   2.0000      -0.587363       -15.9829
  16   2.0000      -0.569429       -15.4949
  17   2.0000      -0.495029       -13.4704
  18   2.0000      -0.437949       -11.9172
  19   2.0000      -0.434592       -11.8259
  20   2.0000      -0.402117       -10.9422
  21   2.0000      -0.398503       -10.8438
  22   2.0000      -0.377046       -10.2599
  23   2.0000      -0.329227        -8.9587
  24   2.0000      -0.325606        -8.8602
  25   2.0000      -0.314797        -8.5661
  26   2.0000      -0.288839        -7.8597
  27   2.0000      -0.249190        -6.7808
  28   2.0000      -0.231917        -6.3108
  29   0.0000      -0.042549        -1.1578
  30   0.0000      -0.040979        -1.1151
  31   0.0000       0.009619         0.2617
  32   0.0000       0.108155         2.9431
  33   0.0000       0.111504         3.0342

MULLIKEN ATOMIC CHARGES
-----------------------
   0 C :   -0.190456
   1 C :   -0.156366
   2 C :   -0.230484
   3 C :    0.188314
   4 C :   -0.230452
   5 C :   -0.156329
   6 Cl:   -0.176108
   7 H :    0.185280
   8 H :    0.188412
   9 H :    0.194904
  10 H :    0.194893
  11 H :    0.188394
Sum of atomic charges:   -0.0000000

LOEWDIN ATOMIC CHARGES
----------------------
   0 C :   -0.171849
   1 C :   -0.157084
   2 C :   -0.179870
   3 C :   -0.176661
   4 C :   -0.179863
   5 C :   -0.157081
   6 Cl:    0.099309
   7 H :    0.180697
   8 H :    0.182887
   9 H :    0.188324
  10 H :    0.188316
  11 H :    0.182873

  Mayer bond orders larger than 0.100000
B(  0-C ,  1-C ) :   1.3931 B(  0-C ,  5-C ) :   1.3931 B(  0-C ,  7-H ) :   0.9506
B(  1-C ,  2-C ) :   1.3968 B(  1-C ,  8-H ) :   0.9498 B(  2-C ,  3-C ) :   1.3599
B(  2-C ,  9-H ) :   0.9436 B(  3-C ,  4-C ) :   1.3599 B(  3-C ,  6-Cl) :   0.8901
B(  4-C ,  5-C ) :   1.3968 B(  4-C , 10-H ) :   0.9436 B(  5-C , 11-H ) :   0.9498

Dispersion correction           -0.003998907
FINAL SINGLE POINT ENERGY      -691.762704521103

DIPOLE MOMENT
-------------

Method             : SCF
Type of density    : Electron Density
Multiplicity       :   1
Irrep              :   0
Energy             :  -691.7624203468393489 Eh
Relativity type    :
Basis              : AO
                                X                 Y                 Z
Electronic contribution:      8.711395602       0.000056843      -0.001915260
Nuclear contribution   :     -9.672283253      -0.000022104       0.003667982
                        -----------------------------------------
Total Dipole Moment    :     -0.960887650       0.000034739       0.001752722
                        -----------------------------------------
Magnitude (a.u.)       :      0.960889249
Magnitude (Debye)      :      2.442386372

Rotational constants in cm-1:             0.191722             0.052420             0.041165
Rotational constants in MHz :          5747.672663          1571.499645          1234.083220

                             ****ORCA TERMINATED NORMALLY****
TOTAL RUN TIME: 0 days 0 hours 0 minutes 17 seconds 938 msec
