                         Program Version 6.0.0  -   RELEASE  -
|  1> ! r2scan-3c def2/J RI DEFGRID2 scfconv6 printgap
|  2> %output
|  3>     printlevel normal
|  4> end
|  5> * xyz 0 1
|  6> C -0.1784047771 -2.3303647229 -0.0138945423
|  7> C 0.5002731964 -1.0060606694 -0.004779656
|  8> C 1.8929319401 -0.9594533771 -0.0044409234
|  9> C 2.5893831977 0.2337318877 0.0024431772
| 10> C 1.9050395035 1.4435192917 0.0080413987
| 11> C 0.5297561014 1.4366633259 0.0070228442
| 12> C -0.1765843232 0.227665998 0.0013738885
| 13> N -1.5927231296 0.3218077074 0.0016105754
| 14> O -2.1018405887 1.4384092562 -0.0274145112
| 15> O -2.2730468943 -0.6933528024 0.0308469108
| 16> H -0.8072471386 -2.4456828581 0.8678010626
| 17> H -0.8405695621 -2.4193346216 -0.8738781193
| 18> H 0.5553081763 -3.1303819764 -0.0396556696
| 19> H 2.4372981076 -1.8907609337 -0.0095656472
| 20> H 3.6677934328 0.2246910498 0.0033704978
| 21> H 2.4410528839 2.3781775583 0.0135604552
| 22> H -0.0343031822 2.3563706895 0.0119532424
| 23> *
| 24>
| 25>                          ****END OF INPUT****

CARTESIAN COORDINATES (ANGSTROEM)
---------------------------------
  C     -0.178405   -2.330365   -0.013895
  C      0.500273   -1.006061   -0.004780
  C      1.892932   -0.959453   -0.004441
  C      2.589383    0.233732    0.002443
  C      1.905040    1.443519    0.008041
  C      0.529756    1.436663    0.007023
  C     -0.176584    0.227666    0.001374
  N     -1.592723    0.321808    0.001611
  O     -2.101841    1.438409   -0.027415
  O     -2.273047   -0.693353    0.030847
  H     -0.807247   -2.445683    0.867801
  H     -0.840570   -2.419335   -0.873878
  H      0.555308   -3.130382   -0.039656
  H      2.437298   -1.890761   -0.009566
  H      3.667793    0.224691    0.003370
  H      2.441053    2.378178    0.013560
  H     -0.034303    2.356371    0.011953

 Total Charge           Charge          ....    0
 Multiplicity           Mult            ....    1
 Number of Electrons    NEL             ....   72
 Basis Dimension        Dim             ....  240

ORBITAL ENERGIES
----------------

  NO   OCC          E(Eh)            E(eV)
   0   2.0000     -18.976123      -516.3665
   1   2.0000     -18.973793      -516.3031
   2   2.0000     -14.389083      -391.5469
   3   2.0000     -10.102483      -274.9025
   4   2.0000     -10.084316      -274.4082
   5   2.0000     -10.066903      -273.9344
   6   2.0000     -10.065351      -273.8921
   7   2.0000     -10.060507      -273.7603
   8   2.0000     -10.060250      -273.7533
   9   2.0000     -10.038862      -273.1713
  10   2.0000      -1.195931       -32.5429
  11   2.0000      -1.013798       -27.5869
  12   2.0000      -0.868762       -23.6402
  13   2.0000      -0.788575       -21.4582
  14   2.0000      -0.768280       -20.9060
  15   2.0000      -0.698010       -18.9938
  16   2.0000      -0.658264       -17.9123
  17   2.0000      -0.594162       -16.1680
  18   2.0000      -0.567725       -15.4486
  19   2.0000      -0.520918       -14.1749
  20   2.0000      -0.507513       -13.8101
  21   2.0000      -0.484158       -13.1746
  22   2.0000      -0.476878       -12.9765
  23   2.0000      -0.453014       -12.3271
  24   2.0000      -0.430690       -11.7197
  25   2.0000      -0.406133       -11.0514
  26   2.0000      -0.405894       -11.0449
  27   2.0000      -0.375047       -10.2055
  28   2.0000      -0.358199        -9.7471
  29   2.0000      -0.351808        -9.5732
  30   2.0000      -0.339406        -9.2357
  31   2.0000      -0.284563        -7.7434
  32   2.0000      -0.275492        -7.4965
  33   2.0000      -0.268217        -7.2986
  34   2.0000      -0.256725        -6.9858
  35   2.0000      -0.247160        -6.7256
  36   0.0000      -0.121437        -3.3045
  37   0.0000      -0.054795        -1.4911
  38   0.0000      -0.031233        -0.8499
  39   0.0000       0.067910         1.8479
  40   0.0000       0.076459         2.0806

MULLIKEN ATOMIC CHARGES
-----------------------
   0 C :   -0.528870
   1 C :    0.032905
   2 C :   -0.191160
   3 C :   -0.109639
   4 C :   -0.138743
   5 C :   -0.176098
   6 C :    0.057415
   7 N :    0.352873
   8 O :   -0.231716
   9 O :   -0.225251
  10 H :    0.185159
  11 H :    0.183817
  12 H :    0.141911
  13 H :    0.153365
  14 H :    0.151151
  15 H :    0.153944
  16 H :    0.188935
Sum of atomic charges:   -0.0000000

LOEWDIN ATOMIC CHARGES
----------------------
   0 C :   -0.357613
   1 C :   -0.012899
   2 C :   -0.156352
   3 C :   -0.125312
   4 C :   -0.159824
   5 C :   -0.062998
   6 C :    0.196269
   7 N :   -0.492385
   8 O :   -0.039201
   9 O :   -0.037533
  10 H :    0.185536
  11 H :    0.185423
  12 H :    0.154122
  13 H :    0.173726
  14 H :    0.171834
  15 H :    0.173145
  16 H :    0.204063

  Mayer bond orders larger than 0.100000
B(  0-C ,  1-C ) :   0.8773 B(  0-C , 10-H ) :   0.9570 B(  0-C , 11-H ) :   0.9590
B(  0-C , 12-H ) :   0.9805 B(  1-C ,  2-C ) :   1.3441 B(  1-C ,  6-C ) :   1.4226
B(  2-C ,  3-C ) :   1.4383 B(  2-C , 13-H ) :   0.9320 B(  3-C ,  4-C ) :   1.3681
B(  3-C , 14-H ) :   0.9458 B(  4-C ,  5-C ) :   1.3529 B(  4-C , 15-H ) :   0.9564
B(  5-C ,  6-C ) :   1.3634 B(  5-C , 16-H ) :   0.9339 B(  6-C ,  7-N ) :   0.9915
B(  7-N ,  8-O ) :   1.8235 B(  7-N ,  9-O ) :   1.7702 B(  8-O ,  9-O ) :   0.2346

Dispersion correction           -0.006026830
FINAL SINGLE POINT ENERGY      -475.970812612668

DIPOLE MOMENT
-------------

Method             : SCF
Type of density    : Electron Density
Multiplicity       :   1
Irrep              :   0
Energy             :  -475.9759043149961144 Eh
Relativity type    :
Basis              : AO
                                X                 Y                 Z
Electronic contribution:     -5.127236799       4.275163119       0.026054445
Nuclear contribution   :      6.887073928      -4.609496808      -0.024721357
                        -----------------------------------------
Total Dipole Moment    :      1.759837129      -0.334333689       0.001333088
                        -----------------------------------------
Magnitude (a.u.)       :      1.791314465
Magnitude (Debye)      :      4.553159524

Rotational constants in cm-1:             0.076589             0.043008             0.027683
Rotational constants in MHz :          2296.094792          1289.342682           829.925294

                             ****ORCA TERMINATED NORMALLY****
TOTAL RUN TIME: 0 days 0 hours 0 minutes 32 seconds 85 msec
