                         Program Version 6.0.0  -   RELEASE  -
|  1> ! r2scan-3c def2/J RI DEFGRID2 scfconv6 printgap
|  2> %output
|  3>     printlevel normal
|  4> end
|  5> %cpcm
|  6>     smd true
|  7>     smdsolvent "water"
|  8> end
|  9> * xyz 0 1
| 10> C -0.1784047771 -2.3303647229 -0.0138945423
| 11> C 0.5002731964 -1.0060606694 -0.004779656
| 12> C 1.8929319401 -0.9594533771 -0.0044409234
| 13> C 2.5893831977 0.2337318877 0.0024431772
| 14> C 1.9050395035 1.4435192917 0.0080413987
| 15> C 0.5297561014 1.4366633259 0.0070228442
| 16> C -0.1765843232 0.227665998 0.0013738885
| 17> N -1.5927231296 0.3218077074 0.0016105754
| 18> O -2.1018405887 1.4384092562 -0.0274145112
| 19> O -2.2730468943 -0.6933528024 0.0308469108
| 20> H -0.8072471386 -2.4456828581 0.8678010626
| 21> H -0.8405695621 -2.4193346216 -0.8738781193
| 22> H 0.5553081763 -3.1303819764 -0.0396556696
| 23> H 2.4372981076 -1.8907609337 -0.0095656472
| 24> H 3.6677934328 0.2246910498 0.0033704978
| 25> H 2.4410528839 2.3781775583 0.0135604552
| 26> H -0.0343031822 2.3563706895 0.0119532424
| 27> *
| 28>
| 29>                          ****END OF INPUT****

CARTESIAN COORDINATES (ANGSTROEM)
---------------------------------
  C     -0.178405   -2.330365   -0.013895
  C      0.500273   -1.006061   -0.004780
  C      1.892932   -0.959453   -0.004441
  C      2.589383    0.233732    0.002443
  C      1.905040    1.443519    0.008041
  C      0.529756    1.436663    0.007023
  C     -0.176584    0.227666    0.001374
  N     -1.592723    0.321808    0.001611
  O     -2.101841    1.438409   -0.027415
  O     -2.273047   -0.693353    0.030847
  H     -0.807247   -2.445683    0.867801
  H     -0.840570   -2.419335   -0.873878
  H      0.555308   -3.130382   -0.039656
  H      2.437298   -1.890761   -0.009566
  H      3.667793    0.224691    0.003370
  H      2.441053    2.378178    0.013560
  H     -0.034303    2.356371    0.011953

 Total Charge           Charge          ....    0
 Multiplicity           Mult            ....    1
 Number of Electrons    NEL             ....   72
 Basis Dimension        Dim             ....  240

ORBITAL ENERGIES
----------------

  NO   OCC          E(Eh)            E(eV)
   0   2.0000     -18.988261      -516.6968
   1   2.0000     -18.986264      -516.6425
   2   2.0000     -14.400566      -391.8593
   3   2.0000     -10.097304      -274.7616
   4   2.0000     -10.074977      -274.1540
   5   2.0000     -10.055848      -273.6335
   6   2.0000     -10.052362      -273.5387
   7   2.0000     -10.046300      -273.3737
   8   2.0000     -10.045285      -273.3461
   9   2.0000     -10.025266      -272.8013
  10   2.0000      -1.208006       -32.8715
  11   2.0000      -1.026549       -27.9338
  12   2.0000      -0.861272       -23.4364
  13   2.0000      -0.783616       -21.3233
  14   2.0000      -0.756930       -20.5971
  15   2.0000      -0.689091       -18.7511
  16   2.0000      -0.648799       -17.6547
  17   2.0000      -0.583323       -15.8730
  18   2.0000      -0.565466       -15.3871
  19   2.0000      -0.522909       -14.2291
  20   2.0000      -0.516637       -14.0584
  21   2.0000      -0.494050       -13.4438
  22   2.0000      -0.465138       -12.6571
  23   2.0000      -0.446889       -12.1605
  24   2.0000      -0.416512       -11.3339
  25   2.0000      -0.395028       -10.7493
  26   2.0000      -0.391945       -10.6654
  27   2.0000      -0.360813        -9.8182
  28   2.0000      -0.348258        -9.4766
  29   2.0000      -0.339569        -9.2402
  30   2.0000      -0.325580        -8.8595
  31   2.0000      -0.298864        -8.1325
  32   2.0000      -0.289030        -7.8649
  33   2.0000      -0.261954        -7.1281
  34   2.0000      -0.260462        -7.0875
  35   2.0000      -0.246189        -6.6991
  36   0.0000      -0.126629        -3.4458
  37   0.0000      -0.043692        -1.1889
  38   0.0000      -0.026106        -0.7104
  39   0.0000       0.083416         2.2699
  40   0.0000       0.089073         2.4238

MULLIKEN ATOMIC CHARGES
-----------------------
   0 C :   -0.574237
   1 C :    0.039182
   2 C :   -0.210558
   3 C :   -0.119869
   4 C :   -0.178792
   5 C :   -0.202379
   6 C :    0.088191
   7 N :    0.401558
   8 O :   -0.302631
   9 O :   -0.275759
  10 H :    0.194577
  11 H :    0.193488
  12 H :    0.171046
  13 H :    0.190379
  14 H :    0.189205
  15 H :    0.190214
  16 H :    0.206385
Sum of atomic charges:   -0.0000000

LOEWDIN ATOMIC CHARGES
----------------------
   0 C :   -0.360425
   1 C :   -0.006513
   2 C :   -0.153783
   3 C :   -0.114090
   4 C :   -0.158181
   5 C :   -0.065659
   6 C :    0.195820
   7 N :   -0.491997
   8 O :   -0.082548
   9 O :   -0.068834
  10 H :    0.186845
  11 H :    0.186835
  12 H :    0.165174
  13 H :    0.187568
  14 H :    0.185583
  15 H :    0.185843
  16 H :    0.208361

  Mayer bond orders larger than 0.100000
B(  0-C ,  1-C ) :   0.8690 B(  0-C , 10-H ) :   0.9581 B(  0-C , 11-H ) :   0.9602
B(  0-C , 12-H ) :   0.9694 B(  1-C ,  2-C ) :   1.3403 B(  1-C ,  6-C ) :   1.3623
B(  2-C ,  3-C ) :   1.4126 B(  2-C , 13-H ) :   0.9374 B(  3-C ,  4-C ) :   1.3391
B(  3-C , 14-H ) :   0.9487 B(  4-C ,  5-C ) :   1.3516 B(  4-C , 15-H ) :   0.9593
B(  5-C ,  6-C ) :   1.2774 B(  5-C , 16-H ) :   0.9463 B(  6-C ,  7-N ) :   1.0271
B(  7-N ,  8-O ) :   1.7572 B(  7-N ,  9-O ) :   1.7273 B(  8-O ,  9-O ) :   0.2174

Dispersion correction           -0.006026830
FINAL SINGLE POINT ENERGY      -475.975436013465

DIPOLE MOMENT
-------------

Method             : SCF
Type of density    : Electron Density
Multiplicity       :   1
Irrep              :   0
Energy             :  -475.9805277157934711 Eh
Relativity type    :
Basis              : AO
                                X                 Y                 Z
Electronic contribution:     -4.313678063       4.112070365       0.025753083
Nuclear contribution   :      6.887073928      -4.609496808      -0.024721357
                        -----------------------------------------
Total Dipole Moment    :      2.573395865      -0.497426443       0.001031726
                        -----------------------------------------
Magnitude (a.u.)       :      2.621030409
Magnitude (Debye)      :      6.662129852

Rotational constants in cm-1:             0.076589             0.043008             0.027683
Rotational constants in MHz :          2296.094792          1289.342682           829.925294

                             ****ORCA TERMINATED NORMALLY****
TOTAL RUN TIME: 0 days 0 hours 0 minutes 44 seconds 7 msec
