                         Program Version 6.0.0  -   RELEASE  -
|  1> ! pbe def2-sv(p) def2/J RI DEFGRID1 loosescf d4 GCP(DFT/SV(P)) printgap
|  2> %output
|  3>     printlevel normal
|  4> end
|  5> * xyz 0 1
|  6> C 2.4661997832 0.0106760404 0.0720377174
|  7> C 0.96445376 0.029840211 0.3435135034
|  8> C 0.2749858445 1.1634441126 -0.4144881169
|  9> C -1.1836681076 1.3114426224 0.0361029324
| 10> C -1.7917273803 -0.0418744332 0.426047429
| 11> C -1.1625264509 -1.1599955631 -0.3973577039
| 12> C 0.3228417749 -1.3117872047 -0.0466357218
| 13> H 2.9294806336 0.9326431811 0.4162413267
| 14> H 2.9348905043 -0.8238542559 0.5887481349
| 15> H 2.6583548716 -0.0924335371 -0.9940514339
| 16> H 0.8142632797 0.200208846 1.4150032947
| 17> H 0.8075700173 2.1017698069 -0.2495880955
| 18> H 0.3192988288 0.9464318636 -1.4835029941
| 19> H -1.2396838176 1.9892480663 0.8899467839
| 20> H -1.7635542198 1.758136717 -0.7736480321
| 21> H -1.614927956 -0.2423260254 1.4844554501
| 22> H -2.8718809272 -0.0209832347 0.2724392605
| 23> H -1.682652633 -2.1018499704 -0.2147673079
| 24> H -1.276650991 -0.922902478 -1.4566382187
| 25> H 0.4371748929 -2.0144747628 0.781149162
| 26> H 0.852507578 -1.7304184908 -0.9048297917
| 27> *
| 28>
| 29>                          ****END OF INPUT****

CARTESIAN COORDINATES (ANGSTROEM)
---------------------------------
  C      2.466200    0.010676    0.072038
  C      0.964454    0.029840    0.343514
  C      0.274986    1.163444   -0.414488
  C     -1.183668    1.311443    0.036103
  C     -1.791727   -0.041874    0.426047
  C     -1.162526   -1.159996   -0.397358
  C      0.322842   -1.311787   -0.046636
  H      2.929481    0.932643    0.416241
  H      2.934891   -0.823854    0.588748
  H      2.658355   -0.092434   -0.994051
  H      0.814263    0.200209    1.415003
  H      0.807570    2.101770   -0.249588
  H      0.319299    0.946432   -1.483503
  H     -1.239684    1.989248    0.889947
  H     -1.763554    1.758137   -0.773648
  H     -1.614928   -0.242326    1.484455
  H     -2.871881   -0.020983    0.272439
  H     -1.682653   -2.101850   -0.214767
  H     -1.276651   -0.922902   -1.456638
  H      0.437175   -2.014475    0.781149
  H      0.852508   -1.730418   -0.904830

 Total Charge           Charge          ....    0
 Multiplicity           Mult            ....    1
 Number of Electrons    NEL             ....   56
 Basis Dimension        Dim             ....  126

ORBITAL ENERGIES
----------------

  NO   OCC          E(Eh)            E(eV)
   0   2.0000      -9.886140      -269.0155
   1   2.0000      -9.876238      -268.7461
   2   2.0000      -9.876020      -268.7402
   3   2.0000      -9.875932      -268.7378
   4   2.0000      -9.875258      -268.7194
   5   2.0000      -9.874629      -268.7023
   6   2.0000      -9.868883      -268.5460
   7   2.0000      -0.752902       -20.4875
   8   2.0000      -0.681307       -18.5393
   9   2.0000      -0.657559       -17.8931
  10   2.0000      -0.597700       -16.2642
  11   2.0000      -0.541427       -14.7330
  12   2.0000      -0.524190       -14.2639
  13   2.0000      -0.461183       -12.5494
  14   2.0000      -0.436688       -11.8829
  15   2.0000      -0.415159       -11.2970
  16   2.0000      -0.393274       -10.7015
  17   2.0000      -0.365355        -9.9418
  18   2.0000      -0.359194        -9.7742
  19   2.0000      -0.335790        -9.1373
  20   2.0000      -0.324329        -8.8254
  21   2.0000      -0.315349        -8.5811
  22   2.0000      -0.309475        -8.4213
  23   2.0000      -0.300775        -8.1845
  24   2.0000      -0.296410        -8.0657
  25   2.0000      -0.256374        -6.9763
  26   2.0000      -0.253384        -6.8949
  27   2.0000      -0.251099        -6.8327
  28   0.0000       0.030368         0.8264
  29   0.0000       0.048880         1.3301
  30   0.0000       0.060368         1.6427
  31   0.0000       0.073169         1.9910
  32   0.0000       0.095639         2.6025

MULLIKEN ATOMIC CHARGES
-----------------------
   0 C :   -0.215018
   1 C :   -0.201377
   2 C :   -0.125450
   3 C :   -0.142138
   4 C :   -0.158503
   5 C :   -0.146285
   6 C :   -0.126437
   7 H :    0.093757
   8 H :    0.096743
   9 H :    0.090571
  10 H :    0.065233
  11 H :    0.078852
  12 H :    0.068266
  13 H :    0.078656
  14 H :    0.078055
  15 H :    0.076067
  16 H :    0.083224
  17 H :    0.081925
  18 H :    0.073817
  19 H :    0.077208
  20 H :    0.072835
Sum of atomic charges:    0.0000000

LOEWDIN ATOMIC CHARGES
----------------------
   0 C :   -0.326708
   1 C :   -0.154592
   2 C :   -0.221004
   3 C :   -0.228568
   4 C :   -0.229899
   5 C :   -0.229012
   6 C :   -0.219631
   7 H :    0.115359
   8 H :    0.116825
   9 H :    0.114971
  10 H :    0.113086
  11 H :    0.115229
  12 H :    0.113222
  13 H :    0.115227
  14 H :    0.115283
  15 H :    0.113411
  16 H :    0.116453
  17 H :    0.116451
  18 H :    0.113757
  19 H :    0.115570
  20 H :    0.114569

  Mayer bond orders larger than 0.100000
B(  0-C ,  1-C ) :   1.1214 B(  0-C ,  7-H ) :   0.9488 B(  0-C ,  8-H ) :   0.9510
B(  0-C ,  9-H ) :   0.9453 B(  1-C ,  2-C ) :   1.1501 B(  1-C ,  6-C ) :   1.0952
B(  1-C , 10-H ) :   0.8876 B(  2-C ,  3-C ) :   1.1464 B(  2-C , 11-H ) :   0.9224
B(  2-C , 12-H ) :   0.8974 B(  3-C ,  4-C ) :   1.1398 B(  3-C , 13-H ) :   0.9205
B(  3-C , 14-H ) :   0.9200 B(  4-C ,  5-C ) :   1.1858 B(  4-C , 15-H ) :   0.9113
B(  4-C , 16-H ) :   0.9228 B(  5-C ,  6-C ) :   1.1473 B(  5-C , 17-H ) :   0.9211
B(  5-C , 18-H ) :   0.9071 B(  6-C , 19-H ) :   0.9155 B(  6-C , 20-H ) :   0.9157

Dispersion correction           -0.018442025
FINAL SINGLE POINT ENERGY      -274.481921528270

DIPOLE MOMENT
-------------

Method             : SCF
Type of density    : Electron Density
Multiplicity       :   1
Irrep              :   0
Energy             :  -274.5531504913990375 Eh
Relativity type    :
Basis              : AO
                                X                 Y                 Z
Electronic contribution:     -1.249873810       0.019509656       0.240960491
Nuclear contribution   :      1.223542912      -0.019517801      -0.214879171
                        -----------------------------------------
Total Dipole Moment    :     -0.026330898      -0.000008145       0.026081320
                        -----------------------------------------
Magnitude (a.u.)       :      0.037061456
Magnitude (Debye)      :      0.094202734

Rotational constants in cm-1:             0.139243             0.074660             0.055220
Rotational constants in MHz :          4174.404238          2238.239547          1655.439802

                             ****ORCA TERMINATED NORMALLY****
TOTAL RUN TIME: 0 days 0 hours 0 minutes 9 seconds 19 msec
