                         Program Version 6.0.0  -   RELEASE  -
|  1> ! pbe def2-sv(p) def2/J RI DEFGRID1 loosescf d4 GCP(DFT/SV(P)) printgap
|  2> %output
|  3>     printlevel normal
|  4> end
|  5> * xyz 0 1
|  6> C -2.3844716054 -1.1757299158 -0.2730955246
|  7> C -1.0642035961 -0.6094022195 0.2614801339
|  8> H -1.1072806746 -0.5540499906 1.3611504699
|  9> C -0.7782802649 0.8031769524 -0.2794547204
| 10> H -0.8002403879 0.7613281574 -1.3834484872
| 11> C 0.6222311627 1.2373522527 0.1708940168
| 12> H 0.6146981924 1.3574709756 1.2611696735
| 13> C 1.6752693632 0.1776631556 -0.1984454308
| 14> H 1.7812154781 0.117871803 -1.2935246149
| 15> C 1.2400980048 -1.2078895025 0.2945745164
| 16> H 1.2676952546 -1.203711329 1.4036598101
| 17> O -0.0653230713 -1.5220483949 -0.1442701242
| 18> O 2.0906656572 -2.1527588116 -0.2327830508
| 19> O 2.9082849149 0.4855920927 0.3954239346
| 20> O 1.0070013198 2.4915908315 -0.332457798
| 21> O -1.6997737444 1.7514609385 0.1903860139
| 22> O -3.4516982063 -0.3852522119 0.1955543831
| 23> H -2.4678909877 -2.2103155505 0.0766497215
| 24> H -2.3414041631 -1.1769207256 -1.3690595248
| 25> H 1.7745351178 -3.0424962673 -0.0071669946
| 26> H 3.083970074 1.4297534973 0.2473441857
| 27> H 0.758745153 2.5664789179 -1.265230362
| 28> H -2.584984026 1.34478439 0.2096083766
| 29> H -4.2911636748 -0.7697707322 -0.0951873808
| 30> *
| 31>
| 32>                          ****END OF INPUT****

CARTESIAN COORDINATES (ANGSTROEM)
---------------------------------
  C     -2.384472   -1.175730   -0.273096
  C     -1.064204   -0.609402    0.261480
  H     -1.107281   -0.554050    1.361150
  C     -0.778280    0.803177   -0.279455
  H     -0.800240    0.761328   -1.383448
  C      0.622231    1.237352    0.170894
  H      0.614698    1.357471    1.261170
  C      1.675269    0.177663   -0.198445
  H      1.781215    0.117872   -1.293525
  C      1.240098   -1.207890    0.294575
  H      1.267695   -1.203711    1.403660
  O     -0.065323   -1.522048   -0.144270
  O      2.090666   -2.152759   -0.232783
  O      2.908285    0.485592    0.395424
  O      1.007001    2.491591   -0.332458
  O     -1.699774    1.751461    0.190386
  O     -3.451698   -0.385252    0.195554
  H     -2.467891   -2.210316    0.076650
  H     -2.341404   -1.176921   -1.369060
  H      1.774535   -3.042496   -0.007167
  H      3.083970    1.429753    0.247344
  H      0.758745    2.566479   -1.265230
  H     -2.584984    1.344784    0.209608
  H     -4.291164   -0.769771   -0.095187

 Total Charge           Charge          ....    0
 Multiplicity           Mult            ....    1
 Number of Electrons    NEL             ....   96
 Basis Dimension        Dim             ....  192

ORBITAL ENERGIES
----------------

  NO   OCC          E(Eh)            E(eV)
   0   2.0000     -18.786368      -511.2031
   1   2.0000     -18.775572      -510.9093
   2   2.0000     -18.755736      -510.3695
   3   2.0000     -18.753098      -510.2977
   4   2.0000     -18.738681      -509.9054
   5   2.0000     -18.736253      -509.8394
   6   2.0000      -9.984637      -271.6958
   7   2.0000      -9.952573      -270.8233
   8   2.0000      -9.951932      -270.8058
   9   2.0000      -9.942029      -270.5364
  10   2.0000      -9.937033      -270.4004
  11   2.0000      -9.931964      -270.2625
  12   2.0000      -0.984008       -26.7762
  13   2.0000      -0.958549       -26.0834
  14   2.0000      -0.939964       -25.5777
  15   2.0000      -0.922302       -25.0971
  16   2.0000      -0.910844       -24.7853
  17   2.0000      -0.906728       -24.6733
  18   2.0000      -0.704367       -19.1668
  19   2.0000      -0.693020       -18.8580
  20   2.0000      -0.626206       -17.0399
  21   2.0000      -0.575015       -15.6470
  22   2.0000      -0.561045       -15.2668
  23   2.0000      -0.532358       -14.4862
  24   2.0000      -0.511177       -13.9098
  25   2.0000      -0.489150       -13.3104
  26   2.0000      -0.475759       -12.9461
  27   2.0000      -0.463327       -12.6078
  28   2.0000      -0.448830       -12.2133
  29   2.0000      -0.436969       -11.8905
  30   2.0000      -0.414500       -11.2791
  31   2.0000      -0.406524       -11.0621
  32   2.0000      -0.394837       -10.7441
  33   2.0000      -0.384890       -10.4734
  34   2.0000      -0.357430        -9.7262
  35   2.0000      -0.344817        -9.3829
  36   2.0000      -0.329856        -8.9758
  37   2.0000      -0.318923        -8.6783
  38   2.0000      -0.302622        -8.2348
  39   2.0000      -0.294519        -8.0143
  40   2.0000      -0.282189        -7.6788
  41   2.0000      -0.268026        -7.2934
  42   2.0000      -0.247994        -6.7483
  43   2.0000      -0.243891        -6.6366
  44   2.0000      -0.234149        -6.3715
  45   2.0000      -0.222658        -6.0588
  46   2.0000      -0.213981        -5.8227
  47   2.0000      -0.199012        -5.4154
  48   0.0000      -0.001319        -0.0359
  49   0.0000       0.022465         0.6113
  50   0.0000       0.036406         0.9907
  51   0.0000       0.045985         1.2513
  52   0.0000       0.058591         1.5943

MULLIKEN ATOMIC CHARGES
-----------------------
   0 C :    0.075492
   1 C :   -0.029789
   2 H :    0.066904
   3 C :    0.049487
   4 H :    0.029079
   5 C :    0.077547
   6 H :    0.064178
   7 C :    0.055139
   8 H :    0.042039
   9 C :    0.199791
  10 H :    0.038958
  11 O :   -0.316433
  12 O :   -0.365425
  13 O :   -0.412513
  14 O :   -0.412357
  15 O :   -0.417354
  16 O :   -0.442986
  17 H :    0.089798
  18 H :    0.078343
  19 H :    0.303305
  20 H :    0.302426
  21 H :    0.301904
  22 H :    0.303634
  23 H :    0.318832
Sum of atomic charges:   -0.0000000

LOEWDIN ATOMIC CHARGES
----------------------
   0 C :   -0.123063
   1 C :   -0.067288
   2 H :    0.108016
   3 C :   -0.076728
   4 H :    0.090962
   5 C :   -0.077606
   6 H :    0.119461
   7 C :   -0.085780
   8 H :    0.099915
   9 C :    0.008696
  10 H :    0.083344
  11 O :   -0.154589
  12 O :   -0.284907
  13 O :   -0.317059
  14 O :   -0.307247
  15 O :   -0.327166
  16 O :   -0.329170
  17 H :    0.106805
  18 H :    0.103303
  19 H :    0.288324
  20 H :    0.283173
  21 H :    0.287410
  22 H :    0.273285
  23 H :    0.297909

  Mayer bond orders larger than 0.100000
B(  0-C ,  1-C ) :   1.0555 B(  0-C , 16-O ) :   1.0480 B(  0-C , 17-H ) :   0.9180
B(  0-C , 18-H ) :   0.9074 B(  1-C ,  2-H ) :   0.8783 B(  1-C ,  3-C ) :   1.0122
B(  1-C , 11-O ) :   0.9969 B(  3-C ,  4-H ) :   0.8589 B(  3-C ,  5-C ) :   1.0047
B(  3-C , 15-O ) :   1.1152 B(  5-C ,  6-H ) :   0.8658 B(  5-C ,  7-C ) :   0.9962
B(  5-C , 14-O ) :   1.0484 B(  7-C ,  8-H ) :   0.8601 B(  7-C ,  9-C ) :   0.9865
B(  7-C , 13-O ) :   1.0857 B(  9-C , 10-H ) :   0.8861 B(  9-C , 11-O ) :   0.9940
B(  9-C , 12-O ) :   1.2003 B( 12-O , 19-H ) :   0.8412 B( 13-O , 20-H ) :   0.8322
B( 14-O , 21-H ) :   0.8463 B( 15-O , 22-H ) :   0.8046 B( 16-O , 22-H ) :   0.1059
B( 16-O , 23-H ) :   0.8401

Dispersion correction           -0.023756943
FINAL SINGLE POINT ENERGY      -685.697109066909

DIPOLE MOMENT
-------------

Method             : SCF
Type of density    : Electron Density
Multiplicity       :   1
Irrep              :   0
Energy             :  -685.8275502675650159 Eh
Relativity type    :
Basis              : AO
                                X                 Y                 Z
Electronic contribution:      2.520121429       0.382827991       0.241197435
Nuclear contribution   :     -4.033796765      -1.284373041      -0.800165765
                        -----------------------------------------
Total Dipole Moment    :     -1.513675336      -0.901545051      -0.558968330
                        -----------------------------------------
Magnitude (a.u.)       :      1.848362003
Magnitude (Debye)      :      4.698162844

Rotational constants in cm-1:             0.043707             0.024585             0.016469
Rotational constants in MHz :          1310.289457           737.045225           493.713957

                             ****ORCA TERMINATED NORMALLY****
TOTAL RUN TIME: 0 days 0 hours 0 minutes 11 seconds 493 msec
