                         Program Version 6.0.0  -   RELEASE  -
|  1> ! pbe def2-sv(p) def2/J RI DEFGRID1 loosescf d4 GCP(DFT/SV(P)) printgap
|  2> %output
|  3>     printlevel normal
|  4> end
|  5> * xyz 0 1
|  6> C -1.8974844754 0.0397404364 0.4514521558
|  7> C -0.8732988554 -0.1672235173 -0.6664507478
|  8> C 0.5320762678 -0.072708104 -0.1066500027
|  9> O 1.1934731303 -1.0622225166 0.1958447729
| 10> N 0.9962696205 1.1720807579 0.0585190751
| 11> H -2.9039354824 -0.0712162697 0.0574806396
| 12> H -1.7484085436 -0.6998861625 1.2349240355
| 13> H -1.8011649506 1.0295068997 0.8895518408
| 14> H -1.0121922275 0.5804188586 -1.446947315
| 15> H -0.9982763786 -1.1606810365 -1.097637873
| 16> H 0.441681921 1.9736692062 -0.1864111889
| 17> H 1.9100380982 1.3070770056 0.4599246865
| 18> *
| 19>
| 20>                          ****END OF INPUT****

CARTESIAN COORDINATES (ANGSTROEM)
---------------------------------
  C     -1.897484    0.039740    0.451452
  C     -0.873299   -0.167224   -0.666451
  C      0.532076   -0.072708   -0.106650
  O      1.193473   -1.062223    0.195845
  N      0.996270    1.172081    0.058519
  H     -2.903935   -0.071216    0.057481
  H     -1.748409   -0.699886    1.234924
  H     -1.801165    1.029507    0.889552
  H     -1.012192    0.580419   -1.446947
  H     -0.998276   -1.160681   -1.097638
  H      0.441682    1.973669   -0.186411
  H      1.910038    1.307077    0.459925

 Total Charge           Charge          ....    0
 Multiplicity           Mult            ....    1
 Number of Electrons    NEL             ....   40
 Basis Dimension        Dim             ....   84

ORBITAL ENERGIES
----------------

  NO   OCC          E(Eh)            E(eV)
   0   2.0000     -18.700936      -508.8783
   1   2.0000     -14.009999      -381.2315
   2   2.0000      -9.974284      -271.4141
   3   2.0000      -9.891731      -269.1677
   4   2.0000      -9.886363      -269.0216
   5   2.0000      -0.919469       -25.0200
   6   2.0000      -0.817299       -22.2398
   7   2.0000      -0.700122       -19.0513
   8   2.0000      -0.584534       -15.9060
   9   2.0000      -0.526285       -14.3209
  10   2.0000      -0.492012       -13.3883
  11   2.0000      -0.426259       -11.5991
  12   2.0000      -0.395407       -10.7596
  13   2.0000      -0.375506       -10.2180
  14   2.0000      -0.346663        -9.4332
  15   2.0000      -0.320820        -8.7300
  16   2.0000      -0.314316        -8.5530
  17   2.0000      -0.310735        -8.4555
  18   2.0000      -0.223618        -6.0850
  19   2.0000      -0.187240        -5.0951
  20   0.0000       0.000866         0.0236
  21   0.0000       0.020202         0.5497
  22   0.0000       0.068563         1.8657
  23   0.0000       0.075317         2.0495
  24   0.0000       0.089739         2.4419

MULLIKEN ATOMIC CHARGES
-----------------------
   0 C :   -0.286489
   1 C :   -0.190113
   2 C :    0.028844
   3 O :   -0.222718
   4 N :   -0.307877
   5 H :    0.115074
   6 H :    0.119885
   7 H :    0.093873
   8 H :    0.088721
   9 H :    0.104065
  10 H :    0.225451
  11 H :    0.231286
Sum of atomic charges:   -0.0000000

LOEWDIN ATOMIC CHARGES
----------------------
   0 C :   -0.333009
   1 C :   -0.255585
   2 C :    0.010341
   3 O :   -0.213148
   4 N :   -0.291421
   5 H :    0.122981
   6 H :    0.128408
   7 H :    0.112970
   8 H :    0.118813
   9 H :    0.135305
  10 H :    0.230884
  11 H :    0.233458

  Mayer bond orders larger than 0.100000
B(  0-C ,  1-C ) :   1.1386 B(  0-C ,  5-H ) :   0.9517 B(  0-C ,  6-H ) :   0.9516
B(  0-C ,  7-H ) :   0.9561 B(  1-C ,  2-C ) :   1.0062 B(  1-C ,  8-H ) :   0.9134
B(  1-C ,  9-H ) :   0.9085 B(  2-C ,  3-O ) :   2.1088 B(  2-C ,  4-N ) :   1.2670
B(  4-N , 10-H ) :   0.8703 B(  4-N , 11-H ) :   0.8675

Dispersion correction           -0.007550264
FINAL SINGLE POINT ENERGY      -247.971997118273

DIPOLE MOMENT
-------------

Method             : SCF
Type of density    : Electron Density
Multiplicity       :   1
Irrep              :   0
Energy             :  -248.0176843647944338 Eh
Relativity type    :
Basis              : AO
                                X                 Y                 Z
Electronic contribution:      5.205238769      -1.391799554      -0.084843821
Nuclear contribution   :     -5.711136328       2.766622979      -0.080373391
                        -----------------------------------------
Total Dipole Moment    :     -0.505897559       1.374823426      -0.165217212
                        -----------------------------------------
Magnitude (a.u.)       :      1.474234893
Magnitude (Debye)      :      3.747207302

Rotational constants in cm-1:             0.275820             0.131956             0.105435
Rotational constants in MHz :          8268.861156          3955.932960          3160.870257

                             ****ORCA TERMINATED NORMALLY****
TOTAL RUN TIME: 0 days 0 hours 0 minutes 4 seconds 375 msec
