                         Program Version 6.0.0  -   RELEASE  -
|  1> ! r2scan-3c def2/J RI DEFGRID2 scfconv6 printgap
|  2> %output
|  3>     printlevel normal
|  4> end
|  5> * xyz 0 1
|  6> C -1.760958242 -1.4536275164 0.1564606655
|  7> C -1.6406515661 -0.0098896286 -0.3218772596
|  8> C -2.9471509 0.748856672 -0.0868518002
|  9> C -0.5240690061 0.7214619967 0.4085858759
| 10> Br 1.2565748473 0.0021888733 -0.0356466084
| 11> H -1.9995148155 -1.4832673916 1.2177025332
| 12> H -2.5488612355 -1.9654881751 -0.3889416099
| 13> H -0.8299116077 -1.9931209069 -0.0044055744
| 14> H -1.4174592057 -0.0080153975 -1.3944819153
| 15> H -2.8772018402 1.767892914 -0.4592235482
| 16> H -3.1808260064 0.7817405605 0.9747416529
| 17> H -3.7611714407 0.2488206007 -0.6035664942
| 18> H -0.6186264764 0.6231399308 1.4889738972
| 19> H -0.4827669857 1.7737293295 0.1323546706
| 20> *
| 21>
| 22>                          ****END OF INPUT****

CARTESIAN COORDINATES (ANGSTROEM)
---------------------------------
  C     -1.760958   -1.453628    0.156461
  C     -1.640652   -0.009890   -0.321877
  C     -2.947151    0.748857   -0.086852
  C     -0.524069    0.721462    0.408586
  Br     1.256575    0.002189   -0.035647
  H     -1.999515   -1.483267    1.217703
  H     -2.548861   -1.965488   -0.388942
  H     -0.829912   -1.993121   -0.004406
  H     -1.417459   -0.008015   -1.394482
  H     -2.877202    1.767893   -0.459224
  H     -3.180826    0.781741    0.974742
  H     -3.761171    0.248821   -0.603566
  H     -0.618626    0.623140    1.488974
  H     -0.482767    1.773729    0.132355

 Total Charge           Charge          ....    0
 Multiplicity           Mult            ....    1
 Number of Electrons    NEL             ....   68
 Basis Dimension        Dim             ....  157

ORBITAL ENERGIES
----------------

  NO   OCC          E(Eh)            E(eV)
   0   2.0000    -482.211508    -13121.6422
   1   2.0000     -62.283367     -1694.8166
   2   2.0000     -56.063859     -1525.5752
   3   2.0000     -56.061128     -1525.5009
   4   2.0000     -56.061080     -1525.4995
   5   2.0000     -10.089200      -274.5411
   6   2.0000     -10.053273      -273.5635
   7   2.0000     -10.031984      -272.9842
   8   2.0000     -10.022425      -272.7240
   9   2.0000      -8.615242      -234.4326
  10   2.0000      -6.422581      -174.7673
  11   2.0000      -6.409163      -174.4022
  12   2.0000      -6.408986      -174.3974
  13   2.0000      -2.520150       -68.5768
  14   2.0000      -2.516864       -68.4874
  15   2.0000      -2.516739       -68.4840
  16   2.0000      -2.506756       -68.2123
  17   2.0000      -2.506729       -68.2116
  18   2.0000      -0.803554       -21.8658
  19   2.0000      -0.737185       -20.0598
  20   2.0000      -0.662610       -18.0305
  21   2.0000      -0.634745       -17.2723
  22   2.0000      -0.543564       -14.7911
  23   2.0000      -0.453253       -12.3336
  24   2.0000      -0.421538       -11.4706
  25   2.0000      -0.414511       -11.2794
  26   2.0000      -0.382249       -10.4015
  27   2.0000      -0.365620        -9.9490
  28   2.0000      -0.345032        -9.3888
  29   2.0000      -0.325552        -8.8587
  30   2.0000      -0.314064        -8.5461
  31   2.0000      -0.310204        -8.4411
  32   2.0000      -0.249806        -6.7976
  33   2.0000      -0.248113        -6.7515
  34   0.0000      -0.024388        -0.6636
  35   0.0000       0.082395         2.2421
  36   0.0000       0.117207         3.1894
  37   0.0000       0.123388         3.3576
  38   0.0000       0.130741         3.5576

MULLIKEN ATOMIC CHARGES
-----------------------
   0 C :   -0.472150
   1 C :   -0.063688
   2 C :   -0.470550
   3 C :   -0.206845
   4 Br:   -0.185665
   5 H :    0.143684
   6 H :    0.146284
   7 H :    0.166008
   8 H :    0.160170
   9 H :    0.147852
  10 H :    0.147571
  11 H :    0.154088
  12 H :    0.165091
  13 H :    0.168149
Sum of atomic charges:   -0.0000000

LOEWDIN ATOMIC CHARGES
----------------------
   0 C :   -0.420725
   1 C :   -0.275139
   2 C :   -0.410894
   3 C :   -0.383425
   4 Br:    0.065389
   5 H :    0.153409
   6 H :    0.155058
   7 H :    0.162322
   8 H :    0.162733
   9 H :    0.154349
  10 H :    0.155357
  11 H :    0.159115
  12 H :    0.161698
  13 H :    0.160753

  Mayer bond orders larger than 0.100000
B(  0-C ,  1-C ) :   0.9310 B(  0-C ,  5-H ) :   0.9818 B(  0-C ,  6-H ) :   0.9711
B(  0-C ,  7-H ) :   0.9622 B(  1-C ,  2-C ) :   0.9056 B(  1-C ,  3-C ) :   0.9251
B(  1-C ,  8-H ) :   0.9447 B(  2-C ,  9-H ) :   0.9723 B(  2-C , 10-H ) :   0.9794
B(  2-C , 11-H ) :   0.9677 B(  3-C ,  4-Br) :   0.9668 B(  3-C , 12-H ) :   0.9627
B(  3-C , 13-H ) :   0.9543

Dispersion correction           -0.003531134
FINAL SINGLE POINT ENERGY     -2731.934171301095

DIPOLE MOMENT
-------------

Method             : SCF
Type of density    : Electron Density
Multiplicity       :   1
Irrep              :   0
Energy             : -2731.9376373236359541 Eh
Relativity type    :
Basis              : AO
                                X                 Y                 Z
Electronic contribution:     27.387929894       0.482837178      -1.136661443
Nuclear contribution   :    -28.288399805      -0.259154024       1.234588296
                        -----------------------------------------
Total Dipole Moment    :     -0.900469912       0.223683155       0.097926853
                        -----------------------------------------
Magnitude (a.u.)       :      0.932989756
Magnitude (Debye)      :      2.371471495

Rotational constants in cm-1:             0.251572             0.046669             0.041526
Rotational constants in MHz :          7541.938693          1399.113459          1244.907625

                             ****ORCA TERMINATED NORMALLY****
TOTAL RUN TIME: 0 days 0 hours 0 minutes 14 seconds 806 msec
