                         Program Version 6.0.0  -   RELEASE  -
|  1> ! r2scan-3c def2/J RI DEFGRID2 scfconv6 printgap
|  2> %output
|  3>     printlevel normal
|  4> end
|  5> %cpcm
|  6>     smd true
|  7>     smdsolvent "water"
|  8> end
|  9> * xyz 0 1
| 10> C -1.760958242 -1.4536275164 0.1564606655
| 11> C -1.6406515661 -0.0098896286 -0.3218772596
| 12> C -2.9471509 0.748856672 -0.0868518002
| 13> C -0.5240690061 0.7214619967 0.4085858759
| 14> Br 1.2565748473 0.0021888733 -0.0356466084
| 15> H -1.9995148155 -1.4832673916 1.2177025332
| 16> H -2.5488612355 -1.9654881751 -0.3889416099
| 17> H -0.8299116077 -1.9931209069 -0.0044055744
| 18> H -1.4174592057 -0.0080153975 -1.3944819153
| 19> H -2.8772018402 1.767892914 -0.4592235482
| 20> H -3.1808260064 0.7817405605 0.9747416529
| 21> H -3.7611714407 0.2488206007 -0.6035664942
| 22> H -0.6186264764 0.6231399308 1.4889738972
| 23> H -0.4827669857 1.7737293295 0.1323546706
| 24> *
| 25>
| 26>                          ****END OF INPUT****

CARTESIAN COORDINATES (ANGSTROEM)
---------------------------------
  C     -1.760958   -1.453628    0.156461
  C     -1.640652   -0.009890   -0.321877
  C     -2.947151    0.748857   -0.086852
  C     -0.524069    0.721462    0.408586
  Br     1.256575    0.002189   -0.035647
  H     -1.999515   -1.483267    1.217703
  H     -2.548861   -1.965488   -0.388942
  H     -0.829912   -1.993121   -0.004406
  H     -1.417459   -0.008015   -1.394482
  H     -2.877202    1.767893   -0.459224
  H     -3.180826    0.781741    0.974742
  H     -3.761171    0.248821   -0.603566
  H     -0.618626    0.623140    1.488974
  H     -0.482767    1.773729    0.132355

 Total Charge           Charge          ....    0
 Multiplicity           Mult            ....    1
 Number of Electrons    NEL             ....   68
 Basis Dimension        Dim             ....  157

ORBITAL ENERGIES
----------------

  NO   OCC          E(Eh)            E(eV)
   0   2.0000    -482.208594    -13121.5629
   1   2.0000     -62.280553     -1694.7400
   2   2.0000     -56.060951     -1525.4960
   3   2.0000     -56.058361     -1525.4255
   4   2.0000     -56.058311     -1525.4242
   5   2.0000     -10.076443      -274.1940
   6   2.0000     -10.039321      -273.1838
   7   2.0000     -10.013789      -272.4891
   8   2.0000     -10.009527      -272.3731
   9   2.0000      -8.612504      -234.3581
  10   2.0000      -6.419368      -174.6799
  11   2.0000      -6.406671      -174.3344
  12   2.0000      -6.406502      -174.3298
  13   2.0000      -2.517087       -68.4934
  14   2.0000      -2.513966       -68.4085
  15   2.0000      -2.513846       -68.4052
  16   2.0000      -2.504385       -68.1478
  17   2.0000      -2.504359       -68.1471
  18   2.0000      -0.791341       -21.5335
  19   2.0000      -0.728946       -19.8356
  20   2.0000      -0.648128       -17.6364
  21   2.0000      -0.623031       -16.9535
  22   2.0000      -0.529226       -14.4010
  23   2.0000      -0.438630       -11.9357
  24   2.0000      -0.407179       -11.0799
  25   2.0000      -0.401466       -10.9244
  26   2.0000      -0.367690       -10.0054
  27   2.0000      -0.350414        -9.5353
  28   2.0000      -0.333043        -9.0626
  29   2.0000      -0.312243        -8.4966
  30   2.0000      -0.300359        -8.1732
  31   2.0000      -0.296143        -8.0585
  32   2.0000      -0.247383        -6.7316
  33   2.0000      -0.245668        -6.6850
  34   0.0000      -0.017448        -0.4748
  35   0.0000       0.098048         2.6680
  36   0.0000       0.130083         3.5397
  37   0.0000       0.135364         3.6834
  38   0.0000       0.144098         3.9211

MULLIKEN ATOMIC CHARGES
-----------------------
   0 C :   -0.518598
   1 C :   -0.031091
   2 C :   -0.516789
   3 C :   -0.221589
   4 Br:   -0.232514
   5 H :    0.162187
   6 H :    0.161629
   7 H :    0.159295
   8 H :    0.165044
   9 H :    0.162372
  10 H :    0.163319
  11 H :    0.166924
  12 H :    0.188323
  13 H :    0.191487
Sum of atomic charges:   -0.0000000

LOEWDIN ATOMIC CHARGES
----------------------
   0 C :   -0.429554
   1 C :   -0.270268
   2 C :   -0.415519
   3 C :   -0.377295
   4 Br:    0.034538
   5 H :    0.158462
   6 H :    0.158932
   7 H :    0.157430
   8 H :    0.163745
   9 H :    0.158912
  10 H :    0.159929
  11 H :    0.162245
  12 H :    0.169817
  13 H :    0.168627

  Mayer bond orders larger than 0.100000
B(  0-C ,  1-C ) :   0.9141 B(  0-C ,  5-H ) :   0.9798 B(  0-C ,  6-H ) :   0.9692
B(  0-C ,  7-H ) :   0.9656 B(  1-C ,  2-C ) :   0.9005 B(  1-C ,  3-C ) :   0.9205
B(  1-C ,  8-H ) :   0.9484 B(  2-C ,  9-H ) :   0.9685 B(  2-C , 10-H ) :   0.9779
B(  2-C , 11-H ) :   0.9655 B(  3-C ,  4-Br) :   0.9268 B(  3-C , 12-H ) :   0.9572
B(  3-C , 13-H ) :   0.9489

Dispersion correction           -0.003531134
FINAL SINGLE POINT ENERGY     -2731.935751747852

DIPOLE MOMENT
-------------

Method             : SCF
Type of density    : Electron Density
Multiplicity       :   1
Irrep              :   0
Energy             : -2731.9392177703930429 Eh
Relativity type    :
Basis              : AO
                                X                 Y                 Z
Electronic contribution:     27.133591138       0.611798305      -1.071587657
Nuclear contribution   :    -28.288399805      -0.259154024       1.234588296
                        -----------------------------------------
Total Dipole Moment    :     -1.154808667       0.352644282       0.163000639
                        -----------------------------------------
Magnitude (a.u.)       :      1.218404800
Magnitude (Debye)      :      3.096938883

Rotational constants in cm-1:             0.251572             0.046669             0.041526
Rotational constants in MHz :          7541.938693          1399.113459          1244.907625

                             ****ORCA TERMINATED NORMALLY****
TOTAL RUN TIME: 0 days 0 hours 0 minutes 17 seconds 982 msec
