                         Program Version 6.0.0  -   RELEASE  -
|  1> ! pbe def2-sv(p) def2/J RI DEFGRID1 loosescf d4 GCP(DFT/SV(P)) printgap
|  2> %output
|  3>     printlevel normal
|  4> end
|  5> * xyz 0 1
|  6> C -2.268400458 -0.6872060378 -0.8098506094
|  7> C -1.1139745316 -0.5716869089 0.1856614783
|  8> H -1.4279379588 -1.0022691028 1.1520348218
|  9> C -0.7244132502 0.9032409983 0.4266235372
| 10> H -1.5660515784 1.5348047908 0.1214700202
| 11> C 0.4985788831 1.2638003131 -0.4297848614
| 12> H 0.7830510934 2.3023031245 -0.1966920373
| 13> C 1.6848809548 0.3678234655 -0.0117998662
| 14> H 2.411177265 0.2979278918 -0.8284640577
| 15> C 1.193408267 -1.0683506929 0.2847741159
| 16> H 1.077896182 -1.1784937136 1.3845600283
| 17> O -0.0444143968 -1.3385379156 -0.3347800937
| 18> O 2.1192420864 -1.9651364935 -0.2103623801
| 19> O 2.3780924872 0.9196678593 1.073847244
| 20> O 0.1360571867 1.1377823322 -1.7774252218
| 21> O -0.3752536525 1.1478035739 1.7709399254
| 22> O -3.4093167144 -0.0992128748 -0.2290941817
| 23> H -2.4289833356 -1.75074825 -1.0204573632
| 24> H -1.9738400146 -0.1768065982 -1.733042986
| 25> H 1.7384658313 -2.8577902495 -0.2106930007
| 26> H 1.7417492342 1.098816763 1.7866193886
| 27> H 0.8935783807 1.3509874046 -2.3410303652
| 28> H -1.175862448 1.1948036862 2.312211999
| 29> H -4.1440419005 -0.1504935444 -0.8565354907
| 30> *
| 31>
| 32>                          ****END OF INPUT****

CARTESIAN COORDINATES (ANGSTROEM)
---------------------------------
  C     -2.268400   -0.687206   -0.809851
  C     -1.113975   -0.571687    0.185661
  H     -1.427938   -1.002269    1.152035
  C     -0.724413    0.903241    0.426624
  H     -1.566052    1.534805    0.121470
  C      0.498579    1.263800   -0.429785
  H      0.783051    2.302303   -0.196692
  C      1.684881    0.367823   -0.011800
  H      2.411177    0.297928   -0.828464
  C      1.193408   -1.068351    0.284774
  H      1.077896   -1.178494    1.384560
  O     -0.044414   -1.338538   -0.334780
  O      2.119242   -1.965136   -0.210362
  O      2.378092    0.919668    1.073847
  O      0.136057    1.137782   -1.777425
  O     -0.375254    1.147804    1.770940
  O     -3.409317   -0.099213   -0.229094
  H     -2.428983   -1.750748   -1.020457
  H     -1.973840   -0.176807   -1.733043
  H      1.738466   -2.857790   -0.210693
  H      1.741749    1.098817    1.786619
  H      0.893578    1.350987   -2.341030
  H     -1.175862    1.194804    2.312212
  H     -4.144042   -0.150494   -0.856535

 Total Charge           Charge          ....    0
 Multiplicity           Mult            ....    1
 Number of Electrons    NEL             ....   96
 Basis Dimension        Dim             ....  192

ORBITAL ENERGIES
----------------

  NO   OCC          E(Eh)            E(eV)
   0   2.0000     -18.771138      -510.7886
   1   2.0000     -18.761570      -510.5283
   2   2.0000     -18.755591      -510.3656
   3   2.0000     -18.755325      -510.3583
   4   2.0000     -18.749208      -510.1919
   5   2.0000     -18.732197      -509.7290
   6   2.0000      -9.974894      -271.4307
   7   2.0000      -9.944719      -270.6096
   8   2.0000      -9.941445      -270.5205
   9   2.0000      -9.940078      -270.4833
  10   2.0000      -9.928954      -270.1806
  11   2.0000      -9.928074      -270.1566
  12   2.0000      -0.976131       -26.5619
  13   2.0000      -0.947105       -25.7720
  14   2.0000      -0.931365       -25.3437
  15   2.0000      -0.929536       -25.2939
  16   2.0000      -0.912038       -24.8178
  17   2.0000      -0.904171       -24.6037
  18   2.0000      -0.699815       -19.0429
  19   2.0000      -0.681510       -18.5448
  20   2.0000      -0.617185       -16.7945
  21   2.0000      -0.575279       -15.6541
  22   2.0000      -0.555718       -15.1219
  23   2.0000      -0.516186       -14.0461
  24   2.0000      -0.499270       -13.5858
  25   2.0000      -0.492460       -13.4005
  26   2.0000      -0.474928       -12.9234
  27   2.0000      -0.460409       -12.5284
  28   2.0000      -0.445528       -12.1234
  29   2.0000      -0.436199       -11.8696
  30   2.0000      -0.405302       -11.0288
  31   2.0000      -0.389950       -10.6111
  32   2.0000      -0.384580       -10.4650
  33   2.0000      -0.367254        -9.9935
  34   2.0000      -0.353549        -9.6205
  35   2.0000      -0.347816        -9.4645
  36   2.0000      -0.318622        -8.6702
  37   2.0000      -0.311391        -8.4734
  38   2.0000      -0.306267        -8.3339
  39   2.0000      -0.298431        -8.1207
  40   2.0000      -0.287966        -7.8360
  41   2.0000      -0.258636        -7.0378
  42   2.0000      -0.245423        -6.6783
  43   2.0000      -0.233290        -6.3481
  44   2.0000      -0.226788        -6.1712
  45   2.0000      -0.219968        -5.9856
  46   2.0000      -0.217569        -5.9204
  47   2.0000      -0.188637        -5.1331
  48   0.0000       0.010931         0.2974
  49   0.0000       0.022544         0.6135
  50   0.0000       0.031518         0.8576
  51   0.0000       0.042498         1.1564
  52   0.0000       0.064796         1.7632

MULLIKEN ATOMIC CHARGES
-----------------------
   0 C :    0.039373
   1 C :    0.080403
   2 H :    0.049765
   3 C :   -0.033490
   4 H :    0.090262
   5 C :    0.058832
   6 H :    0.070000
   7 C :    0.050004
   8 H :    0.060177
   9 C :    0.211040
  10 H :    0.027817
  11 O :   -0.313594
  12 O :   -0.382416
  13 O :   -0.429026
  14 O :   -0.406400
  15 O :   -0.430041
  16 O :   -0.444539
  17 H :    0.076378
  18 H :    0.090502
  19 H :    0.299921
  20 H :    0.304051
  21 H :    0.306688
  22 H :    0.317360
  23 H :    0.306932
Sum of atomic charges:   -0.0000000

LOEWDIN ATOMIC CHARGES
----------------------
   0 C :   -0.130375
   1 C :   -0.058879
   2 H :    0.098438
   3 C :   -0.071456
   4 H :    0.115212
   5 C :   -0.073339
   6 H :    0.103430
   7 C :   -0.083669
   8 H :    0.115706
   9 C :    0.003505
  10 H :    0.075609
  11 O :   -0.155301
  12 O :   -0.295640
  13 O :   -0.314813
  14 O :   -0.311145
  15 O :   -0.315760
  16 O :   -0.345693
  17 H :    0.100295
  18 H :    0.107996
  19 H :    0.285243
  20 H :    0.273947
  21 H :    0.289710
  22 H :    0.296311
  23 H :    0.290668

  Mayer bond orders larger than 0.100000
B(  0-C ,  1-C ) :   1.0655 B(  0-C , 16-O ) :   1.0703 B(  0-C , 17-H ) :   0.9088
B(  0-C , 18-H ) :   0.9031 B(  1-C ,  2-H ) :   0.8896 B(  1-C ,  3-C ) :   0.9660
B(  1-C , 11-O ) :   0.9998 B(  3-C ,  4-H ) :   0.8942 B(  3-C ,  5-C ) :   1.0306
B(  3-C , 15-O ) :   1.0343 B(  5-C ,  6-H ) :   0.8973 B(  5-C ,  7-C ) :   0.9626
B(  5-C , 14-O ) :   1.0612 B(  7-C ,  8-H ) :   0.8813 B(  7-C ,  9-C ) :   0.9606
B(  7-C , 13-O ) :   1.0525 B(  9-C , 10-H ) :   0.8821 B(  9-C , 11-O ) :   1.0425
B(  9-C , 12-O ) :   1.1644 B( 12-O , 19-H ) :   0.8408 B( 13-O , 20-H ) :   0.8232
B( 14-O , 21-H ) :   0.8441 B( 15-O , 22-H ) :   0.8412 B( 16-O , 23-H ) :   0.8502

Dispersion correction           -0.024835897
FINAL SINGLE POINT ENERGY      -685.688453190129

DIPOLE MOMENT
-------------

Method             : SCF
Type of density    : Electron Density
Multiplicity       :   1
Irrep              :   0
Energy             :  -685.8186250954394154 Eh
Relativity type    :
Basis              : AO
                                X                 Y                 Z
Electronic contribution:      2.483167541      -0.644653217       0.246043166
Nuclear contribution   :     -3.807185331       0.619118541      -0.399088514
                        -----------------------------------------
Total Dipole Moment    :     -1.324017790      -0.025534676      -0.153045348
                        -----------------------------------------
Magnitude (a.u.)       :      1.333078395
Magnitude (Debye)      :      3.388415998

Rotational constants in cm-1:             0.044661             0.024677             0.021580
Rotational constants in MHz :          1338.912501           739.803399           646.961636

                             ****ORCA TERMINATED NORMALLY****
TOTAL RUN TIME: 0 days 0 hours 0 minutes 11 seconds 933 msec
