                         Program Version 6.0.0  -   RELEASE  -
|  1> ! r2scan-3c def2/J RI DEFGRID2 scfconv6 printgap
|  2> %output
|  3>     printlevel normal
|  4> end
|  5> * xyz 0 1
|  6> C -0.6778956479 -1.2404158928 8.46468e-05
|  7> O -1.2573038162 -2.3000808037 -4.86799e-05
|  8> N -1.3338712379 -0.0312563489 -1.02968e-05
|  9> C -0.7352276291 1.2072221309 0.0001687914
| 10> O -1.3633920122 2.2387664127 -0.0001267524
| 11> N 0.6399092672 1.1708828161 9.67162e-05
| 12> C 1.413190935 0.0332399165 -3.45459e-05
| 13> O 2.6206336322 0.0610757509 -4.7644e-05
| 14> N 0.6939870393 -1.1394271926 4.70992e-05
| 15> H -2.3495447423 -0.0551840836 -0.0001728119
| 16> H 1.1266982009 2.0626372515 -0.0001811361
| 17> H 1.2226792239 -2.0069843207 -0.0005688478
| 18> *
| 19>
| 20>                          ****END OF INPUT****

CARTESIAN COORDINATES (ANGSTROEM)
---------------------------------
  C     -0.677896   -1.240416    0.000085
  O     -1.257304   -2.300081   -0.000049
  N     -1.333871   -0.031256   -0.000010
  C     -0.735228    1.207222    0.000169
  O     -1.363392    2.238766   -0.000127
  N      0.639909    1.170883    0.000097
  C      1.413191    0.033240   -0.000035
  O      2.620634    0.061076   -0.000048
  N      0.693987   -1.139427    0.000047
  H     -2.349545   -0.055184   -0.000173
  H      1.126698    2.062637   -0.000181
  H      1.222679   -2.006984   -0.000569

 Total Charge           Charge          ....    0
 Multiplicity           Mult            ....    1
 Number of Electrons    NEL             ....   66
 Basis Dimension        Dim             ....  216

ORBITAL ENERGIES
----------------

  NO   OCC          E(Eh)            E(eV)
   0   2.0000     -18.958703      -515.8925
   1   2.0000     -18.958700      -515.8924
   2   2.0000     -18.958690      -515.8922
   3   2.0000     -14.248620      -387.7247
   4   2.0000     -14.248594      -387.7240
   5   2.0000     -14.248590      -387.7238
   6   2.0000     -10.209775      -277.8221
   7   2.0000     -10.209764      -277.8218
   8   2.0000     -10.209759      -277.8217
   9   2.0000      -1.094851       -29.7924
  10   2.0000      -1.055869       -28.7317
  11   2.0000      -1.055863       -28.7315
  12   2.0000      -0.972196       -26.4548
  13   2.0000      -0.925493       -25.1839
  14   2.0000      -0.925454       -25.1829
  15   2.0000      -0.682354       -18.5678
  16   2.0000      -0.682330       -18.5671
  17   2.0000      -0.635271       -17.2866
  18   2.0000      -0.605275       -16.4704
  19   2.0000      -0.504083       -13.7168
  20   2.0000      -0.504055       -13.7160
  21   2.0000      -0.501483       -13.6461
  22   2.0000      -0.449416       -12.2292
  23   2.0000      -0.426518       -11.6061
  24   2.0000      -0.426511       -11.6059
  25   2.0000      -0.424165       -11.5421
  26   2.0000      -0.424158       -11.5419
  27   2.0000      -0.297588        -8.0978
  28   2.0000      -0.297575        -8.0974
  29   2.0000      -0.297094        -8.0843
  30   2.0000      -0.297071        -8.0837
  31   2.0000      -0.292161        -7.9501
  32   2.0000      -0.259126        -7.0512
  33   0.0000      -0.053542        -1.4570
  34   0.0000      -0.053529        -1.4566
  35   0.0000       0.028382         0.7723
  36   0.0000       0.053873         1.4659
  37   0.0000       0.070781         1.9260

MULLIKEN ATOMIC CHARGES
-----------------------
   0 C :    0.234649
   1 O :   -0.399910
   2 N :   -0.125792
   3 C :    0.234635
   4 O :   -0.399923
   5 N :   -0.125739
   6 C :    0.234546
   7 O :   -0.399869
   8 N :   -0.125811
   9 H :    0.291064
  10 H :    0.291092
  11 H :    0.291059
Sum of atomic charges:   -0.0000000

LOEWDIN ATOMIC CHARGES
----------------------
   0 C :    0.457201
   1 O :   -0.360593
   2 N :   -0.405455
   3 C :    0.457192
   4 O :   -0.360638
   5 N :   -0.405431
   6 C :    0.457217
   7 O :   -0.360617
   8 N :   -0.405477
   9 H :    0.308866
  10 H :    0.308871
  11 H :    0.308864

  Mayer bond orders larger than 0.100000
B(  0-C ,  1-O ) :   2.0060 B(  0-C ,  2-N ) :   1.0720 B(  0-C ,  8-N ) :   1.0720
B(  2-N ,  3-C ) :   1.0722 B(  2-N ,  9-H ) :   0.8994 B(  3-C ,  4-O ) :   2.0061
B(  3-C ,  5-N ) :   1.0719 B(  5-N ,  6-C ) :   1.0721 B(  5-N , 10-H ) :   0.8994
B(  6-C ,  7-O ) :   2.0061 B(  6-C ,  8-N ) :   1.0720 B(  8-N , 11-H ) :   0.8994

Dispersion correction           -0.003860943
FINAL SINGLE POINT ENERGY      -506.064080141602

DIPOLE MOMENT
-------------

Method             : SCF
Type of density    : Electron Density
Multiplicity       :   1
Irrep              :   0
Energy             :  -506.0788498607566339 Eh
Relativity type    :
Basis              : AO
                                X                 Y                 Z
Electronic contribution:      0.000190473      -0.000102319       0.000600922
Nuclear contribution   :     -0.000157756       0.000437425      -0.000868312
                        -----------------------------------------
Total Dipole Moment    :      0.000032717       0.000335106      -0.000267390
                        -----------------------------------------
Magnitude (a.u.)       :      0.000429958
Magnitude (Debye)      :      0.001092867

Rotational constants in cm-1:             0.068349             0.068343             0.034173
Rotational constants in MHz :          2049.050884          2048.880649          1024.482887

                             ****ORCA TERMINATED NORMALLY****
TOTAL RUN TIME: 0 days 0 hours 0 minutes 28 seconds 107 msec
