                         Program Version 6.0.0  -   RELEASE  -
|  1> ! r2scan-3c def2/J RI DEFGRID2 scfconv6 printgap
|  2> %output
|  3>     printlevel normal
|  4> end
|  5> %cpcm
|  6>     smd true
|  7>     smdsolvent "water"
|  8> end
|  9> * xyz 0 1
| 10> C -0.6778956479 -1.2404158928 8.46468e-05
| 11> O -1.2573038162 -2.3000808037 -4.86799e-05
| 12> N -1.3338712379 -0.0312563489 -1.02968e-05
| 13> C -0.7352276291 1.2072221309 0.0001687914
| 14> O -1.3633920122 2.2387664127 -0.0001267524
| 15> N 0.6399092672 1.1708828161 9.67162e-05
| 16> C 1.413190935 0.0332399165 -3.45459e-05
| 17> O 2.6206336322 0.0610757509 -4.7644e-05
| 18> N 0.6939870393 -1.1394271926 4.70992e-05
| 19> H -2.3495447423 -0.0551840836 -0.0001728119
| 20> H 1.1266982009 2.0626372515 -0.0001811361
| 21> H 1.2226792239 -2.0069843207 -0.0005688478
| 22> *
| 23>
| 24>                          ****END OF INPUT****

CARTESIAN COORDINATES (ANGSTROEM)
---------------------------------
  C     -0.677896   -1.240416    0.000085
  O     -1.257304   -2.300081   -0.000049
  N     -1.333871   -0.031256   -0.000010
  C     -0.735228    1.207222    0.000169
  O     -1.363392    2.238766   -0.000127
  N      0.639909    1.170883    0.000097
  C      1.413191    0.033240   -0.000035
  O      2.620634    0.061076   -0.000048
  N      0.693987   -1.139427    0.000047
  H     -2.349545   -0.055184   -0.000173
  H      1.126698    2.062637   -0.000181
  H      1.222679   -2.006984   -0.000569

 Total Charge           Charge          ....    0
 Multiplicity           Mult            ....    1
 Number of Electrons    NEL             ....   66
 Basis Dimension        Dim             ....  216

ORBITAL ENERGIES
----------------

  NO   OCC          E(Eh)            E(eV)
   0   2.0000     -18.955171      -515.7964
   1   2.0000     -18.955109      -515.7947
   2   2.0000     -18.955103      -515.7946
   3   2.0000     -14.231733      -387.2651
   4   2.0000     -14.231724      -387.2649
   5   2.0000     -14.231707      -387.2644
   6   2.0000     -10.202566      -277.6259
   7   2.0000     -10.202528      -277.6249
   8   2.0000     -10.202525      -277.6248
   9   2.0000      -1.084808       -29.5191
  10   2.0000      -1.051226       -28.6053
  11   2.0000      -1.051182       -28.6041
  12   2.0000      -0.963273       -26.2120
  13   2.0000      -0.909654       -24.7529
  14   2.0000      -0.909622       -24.7521
  15   2.0000      -0.668740       -18.1973
  16   2.0000      -0.668720       -18.1968
  17   2.0000      -0.611621       -16.6431
  18   2.0000      -0.592278       -16.1167
  19   2.0000      -0.487108       -13.2549
  20   2.0000      -0.484109       -13.1733
  21   2.0000      -0.484083       -13.1726
  22   2.0000      -0.455435       -12.3930
  23   2.0000      -0.429918       -11.6987
  24   2.0000      -0.429893       -11.6980
  25   2.0000      -0.414885       -11.2896
  26   2.0000      -0.414852       -11.2887
  27   2.0000      -0.297002        -8.0818
  28   2.0000      -0.296949        -8.0804
  29   2.0000      -0.288508        -7.8507
  30   2.0000      -0.285508        -7.7691
  31   2.0000      -0.285474        -7.7681
  32   2.0000      -0.258981        -7.0472
  33   0.0000      -0.044818        -1.2196
  34   0.0000      -0.044796        -1.2190
  35   0.0000       0.053594         1.4584
  36   0.0000       0.067378         1.8335
  37   0.0000       0.103953         2.8287

MULLIKEN ATOMIC CHARGES
-----------------------
   0 C :    0.259358
   1 O :   -0.474153
   2 N :   -0.122392
   3 C :    0.259266
   4 O :   -0.474214
   5 N :   -0.121768
   6 C :    0.259603
   7 O :   -0.474854
   8 N :   -0.122022
   9 H :    0.337065
  10 H :    0.337075
  11 H :    0.337036
Sum of atomic charges:   -0.0000000

LOEWDIN ATOMIC CHARGES
----------------------
   0 C :    0.469197
   1 O :   -0.414527
   2 N :   -0.377640
   3 C :    0.469179
   4 O :   -0.414619
   5 N :   -0.377401
   6 C :    0.469275
   7 O :   -0.414795
   8 N :   -0.377511
   9 H :    0.322929
  10 H :    0.322967
  11 H :    0.322945

  Mayer bond orders larger than 0.100000
B(  0-C ,  1-O ) :   1.9506 B(  0-C ,  2-N ) :   1.0872 B(  0-C ,  8-N ) :   1.0871
B(  2-N ,  3-C ) :   1.0873 B(  2-N ,  9-H ) :   0.8765 B(  3-C ,  4-O ) :   1.9507
B(  3-C ,  5-N ) :   1.0870 B(  5-N ,  6-C ) :   1.0873 B(  5-N , 10-H ) :   0.8764
B(  6-C ,  7-O ) :   1.9503 B(  6-C ,  8-N ) :   1.0872 B(  8-N , 11-H ) :   0.8765

Dispersion correction           -0.003860943
FINAL SINGLE POINT ENERGY      -506.087678670363

DIPOLE MOMENT
-------------

Method             : SCF
Type of density    : Electron Density
Multiplicity       :   1
Irrep              :   0
Energy             :  -506.1024483895180879 Eh
Relativity type    :
Basis              : AO
                                X                 Y                 Z
Electronic contribution:      0.000898772       0.000060786       0.000525022
Nuclear contribution   :     -0.000157756       0.000437425      -0.000868312
                        -----------------------------------------
Total Dipole Moment    :      0.000741016       0.000498211      -0.000343290
                        -----------------------------------------
Magnitude (a.u.)       :      0.000956643
Magnitude (Debye)      :      0.002431594

Rotational constants in cm-1:             0.068349             0.068343             0.034173
Rotational constants in MHz :          2049.050884          2048.880649          1024.482887

                             ****ORCA TERMINATED NORMALLY****
TOTAL RUN TIME: 0 days 0 hours 0 minutes 32 seconds 505 msec
