                         Program Version 6.0.0  -   RELEASE  -
|  1> ! wb97x-v def2-tzvp def2/J RIJCOSX DEFGRID2 scfconv7 GCP(DFT/TZ) printgap
|  2> %output
|  3>     printlevel normal
|  4> end
|  5> * xyz 0 1
|  6> C 0.4034512415146024 -1.2806660118978166 -0.00017083291467528811
|  7> C 1.7614853455300792 -0.9859500803929323 -0.00019784225171222747
|  8> N 2.2434847444980415 0.264039364175809 -0.0002115770715627557
|  9> C 1.3549301724119756 1.2724718980815204 -4.5041056126256886e-05
| 10> C -0.018023527916405515 1.0843473470378917 -7.32912857340347e-05
| 11> C -0.5055870770926014 -0.22388319897791537 -0.0002669812845487165
| 12> C -1.9525458099498991 -0.5132558461519852 -9.125962888840242e-05
| 13> O -2.8187766825251432 0.34719986189803675 -0.0002540429001444281
| 14> H 0.05926066900088434 -2.3104820296268413 1.3127170215731663e-05
| 15> H 2.494828984199156 -1.7886169280481323 -0.0001834466028065379
| 16> H 1.7679619047746704 2.2781206231697526 -0.00016917865593488857
| 17> H -0.6968424397346498 1.9302160070332588 -4.182661182760047e-05
| 18> H -2.218462148499654 -1.587897093550419 0.00032689670247340076
| 19> *
| 20>
| 21>                          ****END OF INPUT****

CARTESIAN COORDINATES (ANGSTROEM)
---------------------------------
  C      0.403451   -1.280666   -0.000171
  C      1.761485   -0.985950   -0.000198
  N      2.243485    0.264039   -0.000212
  C      1.354930    1.272472   -0.000045
  C     -0.018024    1.084347   -0.000073
  C     -0.505587   -0.223883   -0.000267
  C     -1.952546   -0.513256   -0.000091
  O     -2.818777    0.347200   -0.000254
  H      0.059261   -2.310482    0.000013
  H      2.494829   -1.788617   -0.000183
  H      1.767962    2.278121   -0.000169
  H     -0.696842    1.930216   -0.000042
  H     -2.218462   -1.587897    0.000327

 Total Charge           Charge          ....    0
 Multiplicity           Mult            ....    1
 Number of Electrons    NEL             ....   56
 Basis Dimension        Dim             ....  278

ORBITAL ENERGIES
----------------

  NO   OCC          E(Eh)            E(eV)
   0   2.0000     -21.689153      -590.1919
   1   2.0000     -16.547031      -450.2676
   2   2.0000     -12.157085      -330.8111
   3   2.0000     -12.104066      -329.3684
   4   2.0000     -12.101847      -329.3080
   5   2.0000     -12.093357      -329.0770
   6   2.0000     -12.084608      -328.8389
   7   2.0000     -12.079071      -328.6882
   8   2.0000      -1.730537       -47.0903
   9   2.0000      -1.536602       -41.8131
  10   2.0000      -1.379568       -37.5399
  11   2.0000      -1.318390       -35.8752
  12   2.0000      -1.220838       -33.2207
  13   2.0000      -1.175327       -31.9823
  14   2.0000      -1.125082       -30.6150
  15   2.0000      -1.043816       -28.4037
  16   2.0000      -1.031216       -28.0608
  17   2.0000      -0.992415       -27.0050
  18   2.0000      -0.965279       -26.2666
  19   2.0000      -0.938891       -25.5485
  20   2.0000      -0.918758       -25.0007
  21   2.0000      -0.905960       -24.6524
  22   2.0000      -0.853239       -23.2178
  23   2.0000      -0.847232       -23.0544
  24   2.0000      -0.824985       -22.4490
  25   2.0000      -0.783153       -21.3107
  26   2.0000      -0.728680       -19.8284
  27   2.0000      -0.670657       -18.2495
  28   0.0000      -0.383449       -10.4342
  29   0.0000      -0.262775        -7.1505
  30   0.0000      -0.259987        -7.0746
  31   0.0000      -0.101552        -2.7634
  32   0.0000      -0.072621        -1.9761

MULLIKEN ATOMIC CHARGES
-----------------------
   0 C :   -0.105668
   1 C :   -0.053779
   2 N :   -0.207362
   3 C :   -0.029403
   4 C :   -0.114472
   5 C :    0.068534
   6 C :    0.083890
   7 O :   -0.282670
   8 H :    0.134598
   9 H :    0.130752
  10 H :    0.132683
  11 H :    0.157522
  12 H :    0.085375
Sum of atomic charges:    0.0000000

LOEWDIN ATOMIC CHARGES
----------------------
   0 C :   -0.106554
   1 C :   -0.191495
   2 N :    0.135469
   3 C :   -0.187457
   4 C :   -0.085615
   5 C :   -0.150322
   6 C :   -0.229657
   7 O :    0.112422
   8 H :    0.149690
   9 H :    0.138144
  10 H :    0.138859
  11 H :    0.156755
  12 H :    0.119760

  Mayer bond orders larger than 0.100000
B(  0-C ,  1-C ) :   1.3998 B(  0-C ,  5-C ) :   1.3700 B(  0-C ,  8-H ) :   0.9573
B(  1-C ,  2-N ) :   1.5130 B(  1-C ,  9-H ) :   0.9841 B(  2-N ,  3-C ) :   1.4700
B(  3-C ,  4-C ) :   1.4151 B(  3-C , 10-H ) :   0.9852 B(  4-C ,  5-C ) :   1.3764
B(  4-C , 11-H ) :   0.9449 B(  5-C ,  6-C ) :   0.8907 B(  5-C ,  7-O ) :  -0.1132
B(  6-C ,  7-O ) :   2.1364 B(  6-C , 12-H ) :   1.0170

FINAL SINGLE POINT ENERGY      -361.623083625827

DIPOLE MOMENT
-------------

Method             : SCF
Type of density    : Electron Density
Multiplicity       :   1
Irrep              :   0
Energy             :  -361.6292723599274268 Eh
Relativity type    :
Basis              : AO
                                X                 Y                 Z
Electronic contribution:     -1.044496986       0.700131005      -0.000470424
Nuclear contribution   :      1.278088688      -1.380320933       0.000702079
                        -----------------------------------------
Total Dipole Moment    :      0.233591702      -0.680189928       0.000231655
                        -----------------------------------------
Magnitude (a.u.)       :      0.719182505
Magnitude (Debye)      :      1.828016653

Rotational constants in cm-1:             0.183742             0.052249             0.040681
Rotational constants in MHz :          5508.433961          1566.378922          1219.579236

                             ****ORCA TERMINATED NORMALLY****
TOTAL RUN TIME: 0 days 0 hours 2 minutes 22 seconds 370 msec
