                         Program Version 6.0.0  -   RELEASE  -
|  1> ! wb97x-v def2-tzvp def2/J RIJCOSX DEFGRID2 scfconv7 GCP(DFT/TZ) printgap
|  2> %output
|  3>     printlevel normal
|  4> end
|  5> %cpcm
|  6>     smd true
|  7>     smdsolvent "water"
|  8> end
|  9> * xyz 0 1
| 10> C 0.4034512415146024 -1.2806660118978166 -0.00017083291467528811
| 11> C 1.7614853455300792 -0.9859500803929323 -0.00019784225171222747
| 12> N 2.2434847444980415 0.264039364175809 -0.0002115770715627557
| 13> C 1.3549301724119756 1.2724718980815204 -4.5041056126256886e-05
| 14> C -0.018023527916405515 1.0843473470378917 -7.32912857340347e-05
| 15> C -0.5055870770926014 -0.22388319897791537 -0.0002669812845487165
| 16> C -1.9525458099498991 -0.5132558461519852 -9.125962888840242e-05
| 17> O -2.8187766825251432 0.34719986189803675 -0.0002540429001444281
| 18> H 0.05926066900088434 -2.3104820296268413 1.3127170215731663e-05
| 19> H 2.494828984199156 -1.7886169280481323 -0.0001834466028065379
| 20> H 1.7679619047746704 2.2781206231697526 -0.00016917865593488857
| 21> H -0.6968424397346498 1.9302160070332588 -4.182661182760047e-05
| 22> H -2.218462148499654 -1.587897093550419 0.00032689670247340076
| 23> *
| 24>
| 25>                          ****END OF INPUT****

CARTESIAN COORDINATES (ANGSTROEM)
---------------------------------
  C      0.403451   -1.280666   -0.000171
  C      1.761485   -0.985950   -0.000198
  N      2.243485    0.264039   -0.000212
  C      1.354930    1.272472   -0.000045
  C     -0.018024    1.084347   -0.000073
  C     -0.505587   -0.223883   -0.000267
  C     -1.952546   -0.513256   -0.000091
  O     -2.818777    0.347200   -0.000254
  H      0.059261   -2.310482    0.000013
  H      2.494829   -1.788617   -0.000183
  H      1.767962    2.278121   -0.000169
  H     -0.696842    1.930216   -0.000042
  H     -2.218462   -1.587897    0.000327

 Total Charge           Charge          ....    0
 Multiplicity           Mult            ....    1
 Number of Electrons    NEL             ....   56
 Basis Dimension        Dim             ....  278

ORBITAL ENERGIES
----------------

  NO   OCC          E(Eh)            E(eV)
   0   2.0000     -21.688909      -590.1852
   1   2.0000     -16.541664      -450.1216
   2   2.0000     -12.153240      -330.7065
   3   2.0000     -12.091541      -329.0275
   4   2.0000     -12.090690      -329.0044
   5   2.0000     -12.082045      -328.7692
   6   2.0000     -12.069511      -328.4281
   7   2.0000     -12.067758      -328.3804
   8   2.0000      -1.733226       -47.1635
   9   2.0000      -1.529765       -41.6270
  10   2.0000      -1.368443       -37.2372
  11   2.0000      -1.306946       -35.5638
  12   2.0000      -1.212467       -32.9929
  13   2.0000      -1.165021       -31.7018
  14   2.0000      -1.121158       -30.5083
  15   2.0000      -1.038077       -28.2475
  16   2.0000      -1.023598       -27.8535
  17   2.0000      -0.985819       -26.8255
  18   2.0000      -0.953685       -25.9511
  19   2.0000      -0.925567       -25.1860
  20   2.0000      -0.924910       -25.1681
  21   2.0000      -0.891558       -24.2605
  22   2.0000      -0.840784       -22.8789
  23   2.0000      -0.839627       -22.8474
  24   2.0000      -0.821062       -22.3422
  25   2.0000      -0.778040       -21.1716
  26   2.0000      -0.719842       -19.5879
  27   2.0000      -0.658431       -17.9168
  28   0.0000      -0.373560       -10.1651
  29   0.0000      -0.251130        -6.8336
  30   0.0000      -0.250009        -6.8031
  31   0.0000      -0.089790        -2.4433
  32   0.0000      -0.061732        -1.6798

MULLIKEN ATOMIC CHARGES
-----------------------
   0 C :   -0.132510
   1 C :   -0.054069
   2 N :   -0.276540
   3 C :   -0.046672
   4 C :   -0.150884
   5 C :    0.074580
   6 C :    0.146749
   7 O :   -0.398031
   8 H :    0.183405
   9 H :    0.169012
  10 H :    0.168927
  11 H :    0.174023
  12 H :    0.142010
Sum of atomic charges:    0.0000000

LOEWDIN ATOMIC CHARGES
----------------------
   0 C :   -0.087830
   1 C :   -0.192091
   2 N :    0.097661
   3 C :   -0.192621
   4 C :   -0.085638
   5 C :   -0.146371
   6 C :   -0.198824
   7 O :    0.043966
   8 H :    0.165601
   9 H :    0.147292
  10 H :    0.147076
  11 H :    0.161574
  12 H :    0.140208

  Mayer bond orders larger than 0.100000
B(  0-C ,  1-C ) :   1.4146 B(  0-C ,  5-C ) :   1.3752 B(  0-C ,  8-H ) :   0.9541
B(  1-C ,  2-N ) :   1.4947 B(  1-C ,  9-H ) :   0.9641 B(  2-N ,  3-C ) :   1.4623
B(  3-C ,  4-C ) :   1.4499 B(  3-C , 10-H ) :   0.9660 B(  4-C ,  5-C ) :   1.3265
B(  4-C , 11-H ) :   0.9545 B(  5-C ,  6-C ) :   0.9224 B(  5-C ,  7-O ) :  -0.1070
B(  6-C ,  7-O ) :   2.0294 B(  6-C , 12-H ) :   0.9959

FINAL SINGLE POINT ENERGY      -361.634715849527

DIPOLE MOMENT
-------------

Method             : SCF
Type of density    : Electron Density
Multiplicity       :   1
Irrep              :   0
Energy             :  -361.6409045836266500 Eh
Relativity type    :
Basis              : AO
                                X                 Y                 Z
Electronic contribution:     -1.016599236       0.285047494      -0.000359914
Nuclear contribution   :      1.278088688      -1.380320933       0.000702079
                        -----------------------------------------
Total Dipole Moment    :      0.261489452      -1.095273439       0.000342165
                        -----------------------------------------
Magnitude (a.u.)       :      1.126055397
Magnitude (Debye)      :      2.862205356

Rotational constants in cm-1:             0.183742             0.052249             0.040681
Rotational constants in MHz :          5508.433961          1566.378922          1219.579236

                             ****ORCA TERMINATED NORMALLY****
TOTAL RUN TIME: 0 days 0 hours 2 minutes 15 seconds 976 msec
