                         Program Version 6.0.0  -   RELEASE  -
|  1> ! pbe def2-sv(p) def2/J RI DEFGRID1 loosescf d4 GCP(DFT/SV(P)) printgap
|  2> %output
|  3>     printlevel normal
|  4> end
|  5> * xyz 0 1
|  6> C -2.3561964454 -1.008308253 0.3513610379
|  7> C -1.0896028641 -0.2583157872 0.8103861461
|  8> H -1.3152064782 0.1811564486 1.7905692283
|  9> C -0.6821485473 0.8763472374 -0.1478945906
| 10> H -0.6877527296 0.5319458102 -1.1879019802
| 11> C 0.7530534547 1.2862349116 0.2075031375
| 12> H 0.8216771795 1.4552937195 1.2949621443
| 13> C 1.7010770508 0.1262996053 -0.1382378311
| 14> H 1.9415732138 0.1843128468 -1.2095686306
| 15> C 0.9880542109 -1.2313493714 0.0855241834
| 16> H 1.7049068933 -1.9529225906 0.5136322119
| 17> O -0.0157551964 -1.1692245861 1.0541946979
| 18> O 0.5363163667 -1.6871015422 -1.1550674294
| 19> O 2.8522778296 0.2806981368 0.6524719244
| 20> O 1.0810265034 2.4584654493 -0.4915310839
| 21> O -1.6031426705 1.9301858774 -0.0913359144
| 22> O -2.2190811844 -1.6584435147 -0.891730515
| 23> H -3.1849840696 -0.2957553681 0.3368907426
| 24> H -2.5635076995 -1.7949882069 1.080314897
| 25> H -0.336254837 -2.1204217955 -1.0506067647
| 26> H 3.533405439 -0.3502121508 0.3801547829
| 27> H 1.9888425534 2.712383409 -0.2718917474
| 28> H -1.4017766026 2.5101339981 0.6563760654
| 29> H -2.3554583412 -1.0230101417 -1.6078002182
| 30> *
| 31>
| 32>                          ****END OF INPUT****

CARTESIAN COORDINATES (ANGSTROEM)
---------------------------------
  C     -2.356196   -1.008308    0.351361
  C     -1.089603   -0.258316    0.810386
  H     -1.315206    0.181156    1.790569
  C     -0.682149    0.876347   -0.147895
  H     -0.687753    0.531946   -1.187902
  C      0.753053    1.286235    0.207503
  H      0.821677    1.455294    1.294962
  C      1.701077    0.126300   -0.138238
  H      1.941573    0.184313   -1.209569
  C      0.988054   -1.231349    0.085524
  H      1.704907   -1.952923    0.513632
  O     -0.015755   -1.169225    1.054195
  O      0.536316   -1.687102   -1.155067
  O      2.852278    0.280698    0.652472
  O      1.081027    2.458465   -0.491531
  O     -1.603143    1.930186   -0.091336
  O     -2.219081   -1.658444   -0.891731
  H     -3.184984   -0.295755    0.336891
  H     -2.563508   -1.794988    1.080315
  H     -0.336255   -2.120422   -1.050607
  H      3.533405   -0.350212    0.380155
  H      1.988843    2.712383   -0.271892
  H     -1.401777    2.510134    0.656376
  H     -2.355458   -1.023010   -1.607800

 Total Charge           Charge          ....    0
 Multiplicity           Mult            ....    1
 Number of Electrons    NEL             ....   96
 Basis Dimension        Dim             ....  192

ORBITAL ENERGIES
----------------

  NO   OCC          E(Eh)            E(eV)
   0   2.0000     -18.776723      -510.9406
   1   2.0000     -18.768218      -510.7092
   2   2.0000     -18.758374      -510.4413
   3   2.0000     -18.755439      -510.3614
   4   2.0000     -18.750652      -510.2312
   5   2.0000     -18.741076      -509.9706
   6   2.0000      -9.978604      -271.5316
   7   2.0000      -9.946925      -270.6696
   8   2.0000      -9.946896      -270.6688
   9   2.0000      -9.944954      -270.6159
  10   2.0000      -9.941160      -270.5127
  11   2.0000      -9.936628      -270.3894
  12   2.0000      -0.978493       -26.6262
  13   2.0000      -0.946071       -25.7439
  14   2.0000      -0.943739       -25.6804
  15   2.0000      -0.933657       -25.4061
  16   2.0000      -0.917623       -24.9698
  17   2.0000      -0.897369       -24.4186
  18   2.0000      -0.707305       -19.2468
  19   2.0000      -0.691421       -18.8145
  20   2.0000      -0.626066       -17.0361
  21   2.0000      -0.586940       -15.9715
  22   2.0000      -0.567478       -15.4419
  23   2.0000      -0.526806       -14.3351
  24   2.0000      -0.508156       -13.8276
  25   2.0000      -0.489800       -13.3281
  26   2.0000      -0.472041       -12.8449
  27   2.0000      -0.450608       -12.2617
  28   2.0000      -0.446834       -12.1590
  29   2.0000      -0.424502       -11.5513
  30   2.0000      -0.415061       -11.2944
  31   2.0000      -0.407984       -11.1018
  32   2.0000      -0.397357       -10.8126
  33   2.0000      -0.387555       -10.5459
  34   2.0000      -0.357733        -9.7344
  35   2.0000      -0.345276        -9.3954
  36   2.0000      -0.332011        -9.0345
  37   2.0000      -0.310103        -8.4383
  38   2.0000      -0.305395        -8.3102
  39   2.0000      -0.301407        -8.2017
  40   2.0000      -0.288431        -7.8486
  41   2.0000      -0.267585        -7.2814
  42   2.0000      -0.263768        -7.1775
  43   2.0000      -0.236034        -6.4228
  44   2.0000      -0.233640        -6.3577
  45   2.0000      -0.226715        -6.1692
  46   2.0000      -0.216729        -5.8975
  47   2.0000      -0.197671        -5.3789
  48   0.0000       0.013491         0.3671
  49   0.0000       0.020034         0.5452
  50   0.0000       0.028119         0.7651
  51   0.0000       0.047962         1.3051
  52   0.0000       0.059625         1.6225

MULLIKEN ATOMIC CHARGES
-----------------------
   0 C :    0.068562
   1 C :    0.046242
   2 H :    0.054733
   3 C :    0.030441
   4 H :    0.055781
   5 C :    0.025232
   6 H :    0.052694
   7 C :    0.061986
   8 H :    0.072154
   9 C :    0.178430
  10 H :    0.039859
  11 O :   -0.311472
  12 O :   -0.432689
  13 O :   -0.419675
  14 O :   -0.405227
  15 O :   -0.404714
  16 O :   -0.438263
  17 H :    0.090884
  18 H :    0.098601
  19 H :    0.301892
  20 H :    0.305563
  21 H :    0.306059
  22 H :    0.303014
  23 H :    0.319913
Sum of atomic charges:    0.0000000

LOEWDIN ATOMIC CHARGES
----------------------
   0 C :   -0.130931
   1 C :   -0.078045
   2 H :    0.113760
   3 C :   -0.077966
   4 H :    0.110376
   5 C :   -0.070963
   6 H :    0.103354
   7 C :   -0.091536
   8 H :    0.110711
   9 C :   -0.002686
  10 H :    0.089279
  11 O :   -0.141973
  12 O :   -0.338733
  13 O :   -0.321628
  14 O :   -0.317980
  15 O :   -0.305370
  16 O :   -0.313947
  17 H :    0.113322
  18 H :    0.120090
  19 H :    0.269502
  20 H :    0.288496
  21 H :    0.289677
  22 H :    0.288068
  23 H :    0.295123

  Mayer bond orders larger than 0.100000
B(  0-C ,  1-C ) :   1.0364 B(  0-C , 16-O ) :   1.0489 B(  0-C , 17-H ) :   0.9159
B(  0-C , 18-H ) :   0.9203 B(  1-C ,  2-H ) :   0.8709 B(  1-C ,  3-C ) :   0.9484
B(  1-C , 11-O ) :   0.9647 B(  3-C ,  4-H ) :   0.8606 B(  3-C ,  5-C ) :   1.0444
B(  3-C , 15-O ) :   1.0617 B(  5-C ,  6-H ) :   0.8589 B(  5-C ,  7-C ) :   1.0414
B(  5-C , 14-O ) :   1.1093 B(  7-C ,  8-H ) :   0.8761 B(  7-C ,  9-C ) :   0.9677
B(  7-C , 13-O ) :   1.0748 B(  9-C , 10-H ) :   0.8920 B(  9-C , 11-O ) :   1.0862
B(  9-C , 12-O ) :   1.0832 B( 12-O , 19-H ) :   0.7773 B( 13-O , 20-H ) :   0.8462
B( 14-O , 21-H ) :   0.8442 B( 15-O , 22-H ) :   0.8457 B( 16-O , 19-H ) :   0.1240
B( 16-O , 23-H ) :   0.8356

Dispersion correction           -0.025039589
FINAL SINGLE POINT ENERGY      -685.693385681237

DIPOLE MOMENT
-------------

Method             : SCF
Type of density    : Electron Density
Multiplicity       :   1
Irrep              :   0
Energy             :  -685.8251275453719700 Eh
Relativity type    :
Basis              : AO
                                X                 Y                 Z
Electronic contribution:      1.870185590       0.194549113      -0.317283345
Nuclear contribution   :     -1.730512319       0.037861660       0.666622233
                        -----------------------------------------
Total Dipole Moment    :      0.139673271       0.232410773       0.349338889
                        -----------------------------------------
Magnitude (a.u.)       :      0.442222850
Magnitude (Debye)      :      1.124041156

Rotational constants in cm-1:             0.042236             0.028310             0.020451
Rotational constants in MHz :          1266.212902           848.717160           613.111228

                             ****ORCA TERMINATED NORMALLY****
TOTAL RUN TIME: 0 days 0 hours 0 minutes 12 seconds 63 msec
