                         Program Version 6.0.0  -   RELEASE  -
|  1> ! r2scan-3c def2/J RI DEFGRID2 scfconv6 printgap
|  2> %output
|  3>     printlevel normal
|  4> end
|  5> * xyz 0 1
|  6> C -1.7190375469 -0.5657619188 -0.6428137056
|  7> C -1.1979454577 0.0543964645 0.6476683777
|  8> C 0.0494649603 0.916749674 0.4020076156
|  9> C 1.1648263176 0.1224592214 -0.0284431634
| 10> N 2.0564850276 -0.5161796663 -0.3609541896
| 11> H -2.5957243055 -1.1757541038 -0.441494154
| 12> H -1.9948322271 0.2071187824 -1.3570325185
| 13> H -0.9580730637 -1.1972245951 -1.097362628
| 14> H -1.9696144084 0.6871703797 1.088239882
| 15> H -0.956362267 -0.7342223793 1.3630529091
| 16> H 0.3419437292 1.4321864293 1.3201501652
| 17> H -0.1555178775 1.6638996431 -0.3688908931
| 18> *
| 19>
| 20>                          ****END OF INPUT****

CARTESIAN COORDINATES (ANGSTROEM)
---------------------------------
  C     -1.719038   -0.565762   -0.642814
  C     -1.197945    0.054396    0.647668
  C      0.049465    0.916750    0.402008
  C      1.164826    0.122459   -0.028443
  N      2.056485   -0.516180   -0.360954
  H     -2.595724   -1.175754   -0.441494
  H     -1.994832    0.207119   -1.357033
  H     -0.958073   -1.197225   -1.097363
  H     -1.969614    0.687170    1.088240
  H     -0.956362   -0.734222    1.363053
  H      0.341944    1.432186    1.320150
  H     -0.155518    1.663900   -0.368891

 Total Charge           Charge          ....    0
 Multiplicity           Mult            ....    1
 Number of Electrons    NEL             ....   38
 Basis Dimension        Dim             ....  135

ORBITAL ENERGIES
----------------

  NO   OCC          E(Eh)            E(eV)
   0   2.0000     -14.149995      -385.0409
   1   2.0000     -10.083815      -274.3946
   2   2.0000     -10.065187      -273.8877
   3   2.0000     -10.058345      -273.7015
   4   2.0000     -10.033541      -273.0265
   5   2.0000      -0.875484       -23.8231
   6   2.0000      -0.793485       -21.5918
   7   2.0000      -0.701050       -19.0765
   8   2.0000      -0.594908       -16.1883
   9   2.0000      -0.494795       -13.4641
  10   2.0000      -0.457569       -12.4511
  11   2.0000      -0.427239       -11.6258
  12   2.0000      -0.403566       -10.9816
  13   2.0000      -0.351243        -9.5578
  14   2.0000      -0.346881        -9.4391
  15   2.0000      -0.333285        -9.0691
  16   2.0000      -0.321010        -8.7351
  17   2.0000      -0.300585        -8.1793
  18   2.0000      -0.299761        -8.1569
  19   0.0000       0.005331         0.1451
  20   0.0000       0.013014         0.3541
  21   0.0000       0.063525         1.7286
  22   0.0000       0.112509         3.0615
  23   0.0000       0.117647         3.2013

MULLIKEN ATOMIC CHARGES
-----------------------
   0 C :   -0.473359
   1 C :   -0.224693
   2 C :   -0.323999
   3 C :    0.141602
   4 N :   -0.237360
   5 H :    0.151113
   6 H :    0.143005
   7 H :    0.170112
   8 H :    0.153220
   9 H :    0.148838
  10 H :    0.174271
  11 H :    0.177249
Sum of atomic charges:    0.0000000

LOEWDIN ATOMIC CHARGES
----------------------
   0 C :   -0.415456
   1 C :   -0.289401
   2 C :   -0.261607
   3 C :    0.125726
   4 N :   -0.320594
   5 H :    0.155734
   6 H :    0.151678
   7 H :    0.162414
   8 H :    0.156402
   9 H :    0.162714
  10 H :    0.186580
  11 H :    0.185811

  Mayer bond orders larger than 0.100000
B(  0-C ,  1-C ) :   0.9183 B(  0-C ,  5-H ) :   0.9655 B(  0-C ,  6-H ) :   0.9759
B(  0-C ,  7-H ) :   0.9733 B(  1-C ,  2-C ) :   0.8760 B(  1-C ,  8-H ) :   0.9668
B(  1-C ,  9-H ) :   0.9677 B(  2-C ,  3-C ) :   0.9792 B(  2-C , 10-H ) :   0.9466
B(  2-C , 11-H ) :   0.9856 B(  3-C ,  4-N ) :   2.8963

Dispersion correction           -0.002533616
FINAL SINGLE POINT ENERGY      -211.313642589776

DIPOLE MOMENT
-------------

Method             : SCF
Type of density    : Electron Density
Multiplicity       :   1
Irrep              :   0
Energy             :  -211.3160127829089845 Eh
Relativity type    :
Basis              : AO
                                X                 Y                 Z
Electronic contribution:      6.409280288      -0.054427505      -0.013892007
Nuclear contribution   :     -7.764419629       0.825727077       0.473349234
                        -----------------------------------------
Total Dipole Moment    :     -1.355139341       0.771299572       0.459457227
                        -----------------------------------------
Magnitude (a.u.)       :      1.625548094
Magnitude (Debye)      :      4.131814894

Rotational constants in cm-1:             0.347828             0.108913             0.091594
Rotational constants in MHz :         10427.620982          3265.126697          2745.931530

                             ****ORCA TERMINATED NORMALLY****
TOTAL RUN TIME: 0 days 0 hours 0 minutes 10 seconds 642 msec
