                         Program Version 6.0.0  -   RELEASE  -
|  1> ! r2scan-3c def2/J RI DEFGRID2 scfconv6 printgap
|  2> %output
|  3>     printlevel normal
|  4> end
|  5> %cpcm
|  6>     smd true
|  7>     smdsolvent "water"
|  8> end
|  9> * xyz 0 1
| 10> C -1.7190375469 -0.5657619188 -0.6428137056
| 11> C -1.1979454577 0.0543964645 0.6476683777
| 12> C 0.0494649603 0.916749674 0.4020076156
| 13> C 1.1648263176 0.1224592214 -0.0284431634
| 14> N 2.0564850276 -0.5161796663 -0.3609541896
| 15> H -2.5957243055 -1.1757541038 -0.441494154
| 16> H -1.9948322271 0.2071187824 -1.3570325185
| 17> H -0.9580730637 -1.1972245951 -1.097362628
| 18> H -1.9696144084 0.6871703797 1.088239882
| 19> H -0.956362267 -0.7342223793 1.3630529091
| 20> H 0.3419437292 1.4321864293 1.3201501652
| 21> H -0.1555178775 1.6638996431 -0.3688908931
| 22> *
| 23>
| 24>                          ****END OF INPUT****

CARTESIAN COORDINATES (ANGSTROEM)
---------------------------------
  C     -1.719038   -0.565762   -0.642814
  C     -1.197945    0.054396    0.647668
  C      0.049465    0.916750    0.402008
  C      1.164826    0.122459   -0.028443
  N      2.056485   -0.516180   -0.360954
  H     -2.595724   -1.175754   -0.441494
  H     -1.994832    0.207119   -1.357033
  H     -0.958073   -1.197225   -1.097363
  H     -1.969614    0.687170    1.088240
  H     -0.956362   -0.734222    1.363053
  H      0.341944    1.432186    1.320150
  H     -0.155518    1.663900   -0.368891

 Total Charge           Charge          ....    0
 Multiplicity           Mult            ....    1
 Number of Electrons    NEL             ....   38
 Basis Dimension        Dim             ....  135

ORBITAL ENERGIES
----------------

  NO   OCC          E(Eh)            E(eV)
   0   2.0000     -14.155098      -385.1798
   1   2.0000     -10.074677      -274.1459
   2   2.0000     -10.063525      -273.8424
   3   2.0000     -10.036781      -273.1147
   4   2.0000     -10.013841      -272.4905
   5   2.0000      -0.882528       -24.0148
   6   2.0000      -0.776150       -21.1201
   7   2.0000      -0.683491       -18.5987
   8   2.0000      -0.575732       -15.6665
   9   2.0000      -0.476942       -12.9782
  10   2.0000      -0.437791       -11.9129
  11   2.0000      -0.410595       -11.1728
  12   2.0000      -0.384591       -10.4652
  13   2.0000      -0.344234        -9.3671
  14   2.0000      -0.338759        -9.2181
  15   2.0000      -0.329075        -8.9546
  16   2.0000      -0.308222        -8.3872
  17   2.0000      -0.299738        -8.1563
  18   2.0000      -0.298312        -8.1175
  19   0.0000       0.005020         0.1366
  20   0.0000       0.011483         0.3125
  21   0.0000       0.070775         1.9259
  22   0.0000       0.130717         3.5570
  23   0.0000       0.135180         3.6784

MULLIKEN ATOMIC CHARGES
-----------------------
   0 C :   -0.511463
   1 C :   -0.238657
   2 C :   -0.315486
   3 C :    0.183983
   4 N :   -0.355007
   5 H :    0.162943
   6 H :    0.160413
   7 H :    0.162950
   8 H :    0.173206
   9 H :    0.159750
  10 H :    0.206494
  11 H :    0.210874
Sum of atomic charges:    0.0000000

LOEWDIN ATOMIC CHARGES
----------------------
   0 C :   -0.422678
   1 C :   -0.284894
   2 C :   -0.255605
   3 C :    0.154692
   4 N :   -0.398469
   5 H :    0.158280
   6 H :    0.156592
   7 H :    0.157424
   8 H :    0.165109
   9 H :    0.165056
  10 H :    0.202597
  11 H :    0.201897

  Mayer bond orders larger than 0.100000
B(  0-C ,  1-C ) :   0.9083 B(  0-C ,  5-H ) :   0.9641 B(  0-C ,  6-H ) :   0.9732
B(  0-C ,  7-H ) :   0.9748 B(  1-C ,  2-C ) :   0.8503 B(  1-C ,  8-H ) :   0.9614
B(  1-C ,  9-H ) :   0.9722 B(  2-C ,  3-C ) :   0.9898 B(  2-C , 10-H ) :   0.9316
B(  2-C , 11-H ) :   0.9700 B(  3-C ,  4-N ) :   2.8770

Dispersion correction           -0.002533616
FINAL SINGLE POINT ENERGY      -211.319649332087

DIPOLE MOMENT
-------------

Method             : SCF
Type of density    : Electron Density
Multiplicity       :   1
Irrep              :   0
Energy             :  -211.3220195252195026 Eh
Relativity type    :
Basis              : AO
                                X                 Y                 Z
Electronic contribution:      6.019723428       0.278749031       0.165804499
Nuclear contribution   :     -7.764419629       0.825727077       0.473349234
                        -----------------------------------------
Total Dipole Moment    :     -1.744696201       1.104476109       0.639153733
                        -----------------------------------------
Magnitude (a.u.)       :      2.161561889
Magnitude (Debye)      :      5.494253687

Rotational constants in cm-1:             0.347828             0.108913             0.091594
Rotational constants in MHz :         10427.620982          3265.126697          2745.931530

                             ****ORCA TERMINATED NORMALLY****
TOTAL RUN TIME: 0 days 0 hours 0 minutes 14 seconds 218 msec
