                         Program Version 6.0.0  -   RELEASE  -
|  1> ! pbe def2-sv(p) def2/J RI DEFGRID1 loosescf d4 GCP(DFT/SV(P)) printgap
|  2> %output
|  3>     printlevel normal
|  4> end
|  5> * xyz 0 1
|  6> C -2.2011800954 -1.008541249 -0.4265471612
|  7> C -1.1619537156 -0.2386885497 0.3955522654
|  8> H -1.6715065952 0.1634939427 1.2794424715
|  9> C -0.5719688189 0.9134969288 -0.4397207624
| 10> H -0.3916991112 0.5626516532 -1.4632212376
| 11> C 0.7703444239 1.3157788517 0.1983621503
| 12> H 0.6265631692 1.446312449 1.2788850768
| 13> C 1.7582776073 0.161820886 -0.0403383518
| 14> H 2.0955191386 0.1790692429 -1.082676252
| 15> C 1.0380969736 -1.1962807177 0.1793359831
| 16> H 1.6836980332 -1.8287291562 0.8053734206
| 17> O -0.1420419644 -1.0762211656 0.9348436774
| 18> O 0.8203788605 -1.776601781 -1.0689925381
| 19> O 2.9253486716 0.2696602557 0.7272291496
| 20> O 1.2457153902 2.5533863795 -0.2516732436
| 21> O -1.4685051206 1.9812696009 -0.5672325157
| 22> O -2.9370163004 -1.85329342 0.4285753342
| 23> H -1.6909435493 -1.5820650521 -1.2084814837
| 24> H -2.8539469156 -0.2603501452 -0.8953842976
| 25> H 0.5925358117 -2.7133909373 -0.9651792555
| 26> H 2.7019979809 0.4111075326 1.6588552545
| 27> H 1.369529645 2.5350841554 -1.2112677572
| 28> H -1.513466186 2.4781802198 0.2629920731
| 29> H -3.6044482447 -2.325579842 -0.0886055346
| 30> *
| 31>
| 32>                          ****END OF INPUT****

CARTESIAN COORDINATES (ANGSTROEM)
---------------------------------
  C     -2.201180   -1.008541   -0.426547
  C     -1.161954   -0.238689    0.395552
  H     -1.671507    0.163494    1.279442
  C     -0.571969    0.913497   -0.439721
  H     -0.391699    0.562652   -1.463221
  C      0.770344    1.315779    0.198362
  H      0.626563    1.446312    1.278885
  C      1.758278    0.161821   -0.040338
  H      2.095519    0.179069   -1.082676
  C      1.038097   -1.196281    0.179336
  H      1.683698   -1.828729    0.805373
  O     -0.142042   -1.076221    0.934844
  O      0.820379   -1.776602   -1.068993
  O      2.925349    0.269660    0.727229
  O      1.245715    2.553386   -0.251673
  O     -1.468505    1.981270   -0.567233
  O     -2.937016   -1.853293    0.428575
  H     -1.690944   -1.582065   -1.208481
  H     -2.853947   -0.260350   -0.895384
  H      0.592536   -2.713391   -0.965179
  H      2.701998    0.411108    1.658855
  H      1.369530    2.535084   -1.211268
  H     -1.513466    2.478180    0.262992
  H     -3.604448   -2.325580   -0.088606

 Total Charge           Charge          ....    0
 Multiplicity           Mult            ....    1
 Number of Electrons    NEL             ....   96
 Basis Dimension        Dim             ....  192

ORBITAL ENERGIES
----------------

  NO   OCC          E(Eh)            E(eV)
   0   2.0000     -18.769561      -510.7457
   1   2.0000     -18.763640      -510.5846
   2   2.0000     -18.755608      -510.3660
   3   2.0000     -18.751496      -510.2541
   4   2.0000     -18.751029      -510.2414
   5   2.0000     -18.744648      -510.0678
   6   2.0000      -9.984589      -271.6945
   7   2.0000      -9.945637      -270.6345
   8   2.0000      -9.944230      -270.5962
   9   2.0000      -9.941970      -270.5348
  10   2.0000      -9.941647      -270.5260
  11   2.0000      -9.926498      -270.1137
  12   2.0000      -0.980694       -26.6860
  13   2.0000      -0.945988       -25.7416
  14   2.0000      -0.931838       -25.3566
  15   2.0000      -0.921740       -25.0818
  16   2.0000      -0.917080       -24.9550
  17   2.0000      -0.910253       -24.7692
  18   2.0000      -0.705350       -19.1935
  19   2.0000      -0.691155       -18.8073
  20   2.0000      -0.619605       -16.8603
  21   2.0000      -0.586776       -15.9670
  22   2.0000      -0.567593       -15.4450
  23   2.0000      -0.532809       -14.4985
  24   2.0000      -0.502878       -13.6840
  25   2.0000      -0.494808       -13.4644
  26   2.0000      -0.472747       -12.8641
  27   2.0000      -0.447846       -12.1865
  28   2.0000      -0.438030       -11.9194
  29   2.0000      -0.429108       -11.6766
  30   2.0000      -0.418340       -11.3836
  31   2.0000      -0.408008       -11.1025
  32   2.0000      -0.383439       -10.4339
  33   2.0000      -0.368025       -10.0145
  34   2.0000      -0.356931        -9.7126
  35   2.0000      -0.352155        -9.5826
  36   2.0000      -0.332248        -9.0409
  37   2.0000      -0.318570        -8.6687
  38   2.0000      -0.290929        -7.9166
  39   2.0000      -0.288375        -7.8471
  40   2.0000      -0.281262        -7.6535
  41   2.0000      -0.275633        -7.5004
  42   2.0000      -0.264631        -7.2010
  43   2.0000      -0.238182        -6.4813
  44   2.0000      -0.233477        -6.3532
  45   2.0000      -0.212668        -5.7870
  46   2.0000      -0.208461        -5.6725
  47   2.0000      -0.205927        -5.6036
  48   0.0000       0.016519         0.4495
  49   0.0000       0.027073         0.7367
  50   0.0000       0.027457         0.7471
  51   0.0000       0.033510         0.9119
  52   0.0000       0.039652         1.0790

MULLIKEN ATOMIC CHARGES
-----------------------
   0 C :    0.040435
   1 C :    0.095453
   2 H :    0.058272
   3 C :   -0.027919
   4 H :    0.070875
   5 C :    0.059311
   6 H :    0.040854
   7 C :    0.071657
   8 H :    0.066227
   9 C :    0.165789
  10 H :    0.063410
  11 O :   -0.315316
  12 O :   -0.396547
  13 O :   -0.408525
  14 O :   -0.400341
  15 O :   -0.400155
  16 O :   -0.430302
  17 H :    0.058349
  18 H :    0.077146
  19 H :    0.309943
  20 H :    0.300497
  21 H :    0.300760
  22 H :    0.301538
  23 H :    0.298587
Sum of atomic charges:   -0.0000000

LOEWDIN ATOMIC CHARGES
----------------------
   0 C :   -0.139356
   1 C :   -0.061208
   2 H :    0.114731
   3 C :   -0.087635
   4 H :    0.115767
   5 C :   -0.085233
   6 H :    0.109008
   7 C :   -0.084518
   8 H :    0.119429
   9 C :   -0.011637
  10 H :    0.099811
  11 O :   -0.148670
  12 O :   -0.308737
  13 O :   -0.306732
  14 O :   -0.306284
  15 O :   -0.304650
  16 O :   -0.345718
  17 H :    0.094370
  18 H :    0.102618
  19 H :    0.289653
  20 H :    0.285222
  21 H :    0.287703
  22 H :    0.286814
  23 H :    0.285252

  Mayer bond orders larger than 0.100000
B(  0-C ,  1-C ) :   1.0781 B(  0-C , 16-O ) :   1.1061 B(  0-C , 17-H ) :   0.8955
B(  0-C , 18-H ) :   0.9086 B(  1-C ,  2-H ) :   0.8807 B(  1-C ,  3-C ) :   0.9458
B(  1-C , 11-O ) :   0.9694 B(  3-C ,  4-H ) :   0.8773 B(  3-C ,  5-C ) :   0.9944
B(  3-C , 15-O ) :   1.0514 B(  5-C ,  6-H ) :   0.8474 B(  5-C ,  7-C ) :   1.0119
B(  5-C , 14-O ) :   1.0903 B(  7-C ,  8-H ) :   0.8705 B(  7-C ,  9-C ) :   0.9462
B(  7-C , 13-O ) :   1.0640 B(  9-C , 10-H ) :   0.8980 B(  9-C , 11-O ) :   1.0873
B(  9-C , 12-O ) :   1.0933 B( 12-O , 19-H ) :   0.8338 B( 13-O , 20-H ) :   0.8488
B( 14-O , 21-H ) :   0.8490 B( 15-O , 22-H ) :   0.8456 B( 16-O , 23-H ) :   0.8527

Dispersion correction           -0.024321609
FINAL SINGLE POINT ENERGY      -685.684329573730

DIPOLE MOMENT
-------------

Method             : SCF
Type of density    : Electron Density
Multiplicity       :   1
Irrep              :   0
Energy             :  -685.8131262797448926 Eh
Relativity type    :
Basis              : AO
                                X                 Y                 Z
Electronic contribution:      2.010605277       0.351419468       1.315409790
Nuclear contribution   :     -2.485360493      -0.874998695      -1.525526467
                        -----------------------------------------
Total Dipole Moment    :     -0.474755215      -0.523579227      -0.210116677
                        -----------------------------------------
Magnitude (a.u.)       :      0.737344383
Magnitude (Debye)      :      1.874180478

Rotational constants in cm-1:             0.042831             0.025469             0.018345
Rotational constants in MHz :          1284.049180           763.534262           549.955519

                             ****ORCA TERMINATED NORMALLY****
TOTAL RUN TIME: 0 days 0 hours 0 minutes 12 seconds 12 msec
