                         Program Version 6.0.0  -   RELEASE  -
|  1> ! wb97x-v def2-tzvp def2/J RIJCOSX DEFGRID2 scfconv7 GCP(DFT/TZ) printgap
|  2> %output
|  3>     printlevel normal
|  4> end
|  5> * xyz 0 1
|  6> C -3.4334756848536654 0.5623535963571699 0.082703045336856
|  7> C -1.936615236236443 0.47003496757702645 0.09806945833023875
|  8> C -1.1405401016531846 1.5145845786881793 -0.16468427483409687
|  9> C 0.35806385468495777 1.466020480072759 -0.18212127709838363
| 10> C 0.8870282248357303 0.028897142036812384 -0.27884135488895173
| 11> H 0.6406863490824871 -0.35078049603584377 -1.2801813460203535
| 12> C 0.1326719372899864 -0.8270989159772985 0.749458110172434
| 13> C -1.3576371022174156 -0.884581972824122 0.4276618974800459
| 14> H -1.8933963427807508 -1.2999291830221564 1.2900242020728216
| 15> O -1.6411340763487103 -1.8283641243262398 -0.6439637936320615
| 16> C 2.386871230442667 -0.06856192487418271 -0.12124935076410008
| 17> C 3.1369499258127185 -0.6313800723195094 -1.074969932833896
| 18> C 2.9974395699334937 0.4673843830063197 1.142161912353657
| 19> H -3.7697613398759873 1.5684839479534654 -0.18174933732144388
| 20> H -3.849197132293474 0.3032015637549678 1.0645381429287244
| 21> H -3.863767511901101 -0.14424245084447448 -0.6367420168229677
| 22> H -1.5980233856479547 2.4808600066396407 -0.376687694902335
| 23> H 0.7365012982397007 2.0653491508230246 -1.0196034521413608
| 24> H 0.7401178468895185 1.9485213072210303 0.7295110099470734
| 25> H 0.5313227789352573 -1.8470808180716687 0.7812962479791248
| 26> H 0.25289234937272126 -0.39192725253151944 1.7497279137254216
| 27> H -1.3547773226337836 -1.414030638848895 -1.4693142112310094
| 28> H 4.213988542179284 -0.7300589848838854 -0.9640966402630484
| 29> H 2.6914170255807592 -1.015030192461826 -1.9896927094779688
| 30> H 2.5086843188762784 0.05281300398229438 2.0311417015533118
| 31> H 4.063629995000262 0.23267364760635115 1.1918339320189824
| 32> H 2.8866706474934407 1.5563033929671848 1.2034378022019685
| 33> *
| 34>
| 35>                          ****END OF INPUT****

CARTESIAN COORDINATES (ANGSTROEM)
---------------------------------
  C     -3.433476    0.562354    0.082703
  C     -1.936615    0.470035    0.098069
  C     -1.140540    1.514585   -0.164684
  C      0.358064    1.466020   -0.182121
  C      0.887028    0.028897   -0.278841
  H      0.640686   -0.350780   -1.280181
  C      0.132672   -0.827099    0.749458
  C     -1.357637   -0.884582    0.427662
  H     -1.893396   -1.299929    1.290024
  O     -1.641134   -1.828364   -0.643964
  C      2.386871   -0.068562   -0.121249
  C      3.136950   -0.631380   -1.074970
  C      2.997440    0.467384    1.142162
  H     -3.769761    1.568484   -0.181749
  H     -3.849197    0.303202    1.064538
  H     -3.863768   -0.144242   -0.636742
  H     -1.598023    2.480860   -0.376688
  H      0.736501    2.065349   -1.019603
  H      0.740118    1.948521    0.729511
  H      0.531323   -1.847081    0.781296
  H      0.252892   -0.391927    1.749728
  H     -1.354777   -1.414031   -1.469314
  H      4.213989   -0.730059   -0.964097
  H      2.691417   -1.015030   -1.989693
  H      2.508684    0.052813    2.031142
  H      4.063630    0.232674    1.191834
  H      2.886671    1.556303    1.203438

 Total Charge           Charge          ....    0
 Multiplicity           Mult            ....    1
 Number of Electrons    NEL             ....   84
 Basis Dimension        Dim             ....  437

ORBITAL ENERGIES
----------------

  NO   OCC          E(Eh)            E(eV)
   0   2.0000     -21.667300      -589.5972
   1   2.0000     -12.098306      -329.2116
   2   2.0000     -12.059022      -328.1427
   3   2.0000     -12.056796      -328.0821
   4   2.0000     -12.052637      -327.9689
   5   2.0000     -12.051138      -327.9281
   6   2.0000     -12.047366      -327.8255
   7   2.0000     -12.043411      -327.7179
   8   2.0000     -12.042927      -327.7047
   9   2.0000     -12.038767      -327.5915
  10   2.0000     -12.032985      -327.4342
  11   2.0000      -1.663483       -45.2657
  12   2.0000      -1.367702       -37.2171
  13   2.0000      -1.328662       -36.1547
  14   2.0000      -1.271231       -34.5920
  15   2.0000      -1.258782       -34.2532
  16   2.0000      -1.191071       -32.4107
  17   2.0000      -1.186797       -32.2944
  18   2.0000      -1.138248       -30.9733
  19   2.0000      -1.098311       -29.8866
  20   2.0000      -1.047896       -28.5147
  21   2.0000      -0.995890       -27.0995
  22   2.0000      -0.971248       -26.4290
  23   2.0000      -0.937583       -25.5129
  24   2.0000      -0.932133       -25.3646
  25   2.0000      -0.924740       -25.1634
  26   2.0000      -0.903728       -24.5917
  27   2.0000      -0.884414       -24.0661
  28   2.0000      -0.880961       -23.9722
  29   2.0000      -0.858319       -23.3561
  30   2.0000      -0.838885       -22.8272
  31   2.0000      -0.837503       -22.7896
  32   2.0000      -0.832684       -22.6585
  33   2.0000      -0.821282       -22.3482
  34   2.0000      -0.816717       -22.2240
  35   2.0000      -0.808890       -22.0110
  36   2.0000      -0.803410       -21.8619
  37   2.0000      -0.780144       -21.2288
  38   2.0000      -0.770801       -20.9746
  39   2.0000      -0.763367       -20.7723
  40   2.0000      -0.650316       -17.6960
  41   2.0000      -0.643940       -17.5225
  42   0.0000      -0.230459        -6.2711
  43   0.0000      -0.202898        -5.5211
  44   0.0000      -0.117549        -3.1987
  45   0.0000      -0.067844        -1.8461
  46   0.0000      -0.053353        -1.4518

MULLIKEN ATOMIC CHARGES
-----------------------
   0 C :   -0.358196
   1 C :   -0.080532
   2 C :   -0.191181
   3 C :   -0.142024
   4 C :    0.003345
   5 H :    0.047898
   6 C :   -0.190880
   7 C :    0.148807
   8 H :    0.085477
   9 O :   -0.442669
  10 C :    0.024415
  11 C :   -0.281596
  12 C :   -0.392749
  13 H :    0.111014
  14 H :    0.113301
  15 H :    0.128861
  16 H :    0.109474
  17 H :    0.112683
  18 H :    0.101842
  19 H :    0.115378
  20 H :    0.093755
  21 H :    0.296683
  22 H :    0.108277
  23 H :    0.110853
  24 H :    0.125620
  25 H :    0.116812
  26 H :    0.125333
Sum of atomic charges:    0.0000000

LOEWDIN ATOMIC CHARGES
----------------------
   0 C :   -0.256823
   1 C :   -0.192156
   2 C :   -0.134158
   3 C :   -0.213285
   4 C :   -0.210569
   5 H :    0.154357
   6 C :   -0.199146
   7 C :   -0.282902
   8 H :    0.148279
   9 O :   -0.033882
  10 C :   -0.204158
  11 C :   -0.191931
  12 C :   -0.253863
  13 H :    0.122641
  14 H :    0.124909
  15 H :    0.128438
  16 H :    0.140099
  17 H :    0.143348
  18 H :    0.145001
  19 H :    0.144130
  20 H :    0.142378
  21 H :    0.164425
  22 H :    0.118595
  23 H :    0.119618
  24 H :    0.125443
  25 H :    0.125972
  26 H :    0.125240

  Mayer bond orders larger than 0.100000
B(  0-C ,  1-C ) :   0.9754 B(  0-C , 13-H ) :   0.9912 B(  0-C , 14-H ) :   0.9737
B(  0-C , 15-H ) :   0.9693 B(  1-C ,  2-C ) :   1.8798 B(  1-C ,  7-C ) :   1.0221
B(  2-C ,  3-C ) :   0.9841 B(  2-C , 16-H ) :   0.9616 B(  3-C ,  4-C ) :   0.9885
B(  3-C , 17-H ) :   0.9724 B(  3-C , 18-H ) :   0.9452 B(  4-C ,  5-H ) :   0.9799
B(  4-C ,  6-C ) :   0.9445 B(  4-C , 10-C ) :   0.9053 B(  6-C ,  7-C ) :   0.9926
B(  6-C , 19-H ) :   0.9748 B(  6-C , 20-H ) :   0.9468 B(  7-C ,  8-H ) :   0.9611
B(  7-C ,  9-O ) :   0.9925 B(  9-O , 21-H ) :   0.8995 B( 10-C , 11-C ) :   1.9300
B( 10-C , 12-C ) :   0.9550 B( 11-C , 22-H ) :   0.9654 B( 11-C , 23-H ) :   0.9694
B( 12-C , 24-H ) :   0.9784 B( 12-C , 25-H ) :   0.9831 B( 12-C , 26-H ) :   0.9718

FINAL SINGLE POINT ENERGY      -465.919753597089

DIPOLE MOMENT
-------------

Method             : SCF
Type of density    : Electron Density
Multiplicity       :   1
Irrep              :   0
Energy             :  -465.9375241524893454 Eh
Relativity type    :
Basis              : AO
                                X                 Y                 Z
Electronic contribution:     -2.417413111      -2.218502626      -1.841968084
Nuclear contribution   :      2.623027310       2.902140410       1.984281925
                        -----------------------------------------
Total Dipole Moment    :      0.205614199       0.683637784       0.142313841
                        -----------------------------------------
Magnitude (a.u.)       :      0.727936156
Magnitude (Debye)      :      1.850266666

Rotational constants in cm-1:             0.070697             0.022411             0.019731
Rotational constants in MHz :          2119.431764           671.879227           591.525973

                             ****ORCA TERMINATED NORMALLY****
TOTAL RUN TIME: 0 days 0 hours 5 minutes 28 seconds 702 msec
