                         Program Version 6.0.0  -   RELEASE  -
|  1> ! wb97x-v def2-tzvp def2/J RIJCOSX DEFGRID2 scfconv7 GCP(DFT/TZ) printgap
|  2> %output
|  3>     printlevel normal
|  4> end
|  5> %cpcm
|  6>     smd true
|  7>     smdsolvent "water"
|  8> end
|  9> * xyz 0 1
| 10> C -3.4334756848536654 0.5623535963571699 0.082703045336856
| 11> C -1.936615236236443 0.47003496757702645 0.09806945833023875
| 12> C -1.1405401016531846 1.5145845786881793 -0.16468427483409687
| 13> C 0.35806385468495777 1.466020480072759 -0.18212127709838363
| 14> C 0.8870282248357303 0.028897142036812384 -0.27884135488895173
| 15> H 0.6406863490824871 -0.35078049603584377 -1.2801813460203535
| 16> C 0.1326719372899864 -0.8270989159772985 0.749458110172434
| 17> C -1.3576371022174156 -0.884581972824122 0.4276618974800459
| 18> H -1.8933963427807508 -1.2999291830221564 1.2900242020728216
| 19> O -1.6411340763487103 -1.8283641243262398 -0.6439637936320615
| 20> C 2.386871230442667 -0.06856192487418271 -0.12124935076410008
| 21> C 3.1369499258127185 -0.6313800723195094 -1.074969932833896
| 22> C 2.9974395699334937 0.4673843830063197 1.142161912353657
| 23> H -3.7697613398759873 1.5684839479534654 -0.18174933732144388
| 24> H -3.849197132293474 0.3032015637549678 1.0645381429287244
| 25> H -3.863767511901101 -0.14424245084447448 -0.6367420168229677
| 26> H -1.5980233856479547 2.4808600066396407 -0.376687694902335
| 27> H 0.7365012982397007 2.0653491508230246 -1.0196034521413608
| 28> H 0.7401178468895185 1.9485213072210303 0.7295110099470734
| 29> H 0.5313227789352573 -1.8470808180716687 0.7812962479791248
| 30> H 0.25289234937272126 -0.39192725253151944 1.7497279137254216
| 31> H -1.3547773226337836 -1.414030638848895 -1.4693142112310094
| 32> H 4.213988542179284 -0.7300589848838854 -0.9640966402630484
| 33> H 2.6914170255807592 -1.015030192461826 -1.9896927094779688
| 34> H 2.5086843188762784 0.05281300398229438 2.0311417015533118
| 35> H 4.063629995000262 0.23267364760635115 1.1918339320189824
| 36> H 2.8866706474934407 1.5563033929671848 1.2034378022019685
| 37> *
| 38>
| 39>                          ****END OF INPUT****

CARTESIAN COORDINATES (ANGSTROEM)
---------------------------------
  C     -3.433476    0.562354    0.082703
  C     -1.936615    0.470035    0.098069
  C     -1.140540    1.514585   -0.164684
  C      0.358064    1.466020   -0.182121
  C      0.887028    0.028897   -0.278841
  H      0.640686   -0.350780   -1.280181
  C      0.132672   -0.827099    0.749458
  C     -1.357637   -0.884582    0.427662
  H     -1.893396   -1.299929    1.290024
  O     -1.641134   -1.828364   -0.643964
  C      2.386871   -0.068562   -0.121249
  C      3.136950   -0.631380   -1.074970
  C      2.997440    0.467384    1.142162
  H     -3.769761    1.568484   -0.181749
  H     -3.849197    0.303202    1.064538
  H     -3.863768   -0.144242   -0.636742
  H     -1.598023    2.480860   -0.376688
  H      0.736501    2.065349   -1.019603
  H      0.740118    1.948521    0.729511
  H      0.531323   -1.847081    0.781296
  H      0.252892   -0.391927    1.749728
  H     -1.354777   -1.414031   -1.469314
  H      4.213989   -0.730059   -0.964097
  H      2.691417   -1.015030   -1.989693
  H      2.508684    0.052813    2.031142
  H      4.063630    0.232674    1.191834
  H      2.886671    1.556303    1.203438

 Total Charge           Charge          ....    0
 Multiplicity           Mult            ....    1
 Number of Electrons    NEL             ....   84
 Basis Dimension        Dim             ....  437

ORBITAL ENERGIES
----------------

  NO   OCC          E(Eh)            E(eV)
   0   2.0000     -21.671367      -589.7079
   1   2.0000     -12.093236      -329.0737
   2   2.0000     -12.053883      -328.0028
   3   2.0000     -12.045478      -327.7741
   4   2.0000     -12.045105      -327.7640
   5   2.0000     -12.039479      -327.6109
   6   2.0000     -12.037927      -327.5686
   7   2.0000     -12.034117      -327.4650
   8   2.0000     -12.030512      -327.3669
   9   2.0000     -12.030383      -327.3634
  10   2.0000     -12.025478      -327.2299
  11   2.0000      -1.668099       -45.3913
  12   2.0000      -1.359279       -36.9879
  13   2.0000      -1.321733       -35.9662
  14   2.0000      -1.263225       -34.3741
  15   2.0000      -1.251057       -34.0430
  16   2.0000      -1.181737       -32.1567
  17   2.0000      -1.179282       -32.0899
  18   2.0000      -1.132364       -30.8132
  19   2.0000      -1.090046       -29.6617
  20   2.0000      -1.046929       -28.4884
  21   2.0000      -0.987424       -26.8692
  22   2.0000      -0.973899       -26.5011
  23   2.0000      -0.934031       -25.4163
  24   2.0000      -0.927601       -25.2413
  25   2.0000      -0.917928       -24.9781
  26   2.0000      -0.895010       -24.3545
  27   2.0000      -0.878234       -23.8980
  28   2.0000      -0.876091       -23.8397
  29   2.0000      -0.849229       -23.1087
  30   2.0000      -0.829561       -22.5735
  31   2.0000      -0.828333       -22.5401
  32   2.0000      -0.823159       -22.3993
  33   2.0000      -0.813165       -22.1273
  34   2.0000      -0.807451       -21.9719
  35   2.0000      -0.798480       -21.7277
  36   2.0000      -0.795437       -21.6449
  37   2.0000      -0.771204       -20.9855
  38   2.0000      -0.760589       -20.6967
  39   2.0000      -0.753832       -20.5128
  40   2.0000      -0.643830       -17.5195
  41   2.0000      -0.638507       -17.3746
  42   0.0000      -0.223989        -6.0951
  43   0.0000      -0.198303        -5.3961
  44   0.0000      -0.112551        -3.0627
  45   0.0000      -0.050800        -1.3823
  46   0.0000      -0.044593        -1.2134

MULLIKEN ATOMIC CHARGES
-----------------------
   0 C :   -0.404241
   1 C :   -0.087425
   2 C :   -0.245919
   3 C :   -0.158247
   4 C :    0.030230
   5 H :    0.091575
   6 C :   -0.251378
   7 C :    0.174476
   8 H :    0.117304
   9 O :   -0.555740
  10 C :   -0.019581
  11 C :   -0.383413
  12 C :   -0.430063
  13 H :    0.135816
  14 H :    0.135812
  15 H :    0.131308
  16 H :    0.146359
  17 H :    0.124899
  18 H :    0.125738
  19 H :    0.117995
  20 H :    0.123112
  21 H :    0.354690
  22 H :    0.147511
  23 H :    0.149256
  24 H :    0.145630
  25 H :    0.137255
  26 H :    0.147043
Sum of atomic charges:    0.0000000

LOEWDIN ATOMIC CHARGES
----------------------
   0 C :   -0.264292
   1 C :   -0.197437
   2 C :   -0.136471
   3 C :   -0.211944
   4 C :   -0.209158
   5 H :    0.163247
   6 C :   -0.199886
   7 C :   -0.282534
   8 H :    0.153621
   9 O :   -0.076587
  10 C :   -0.209039
  11 C :   -0.218315
  12 C :   -0.257201
  13 H :    0.127824
  14 H :    0.129202
  15 H :    0.127010
  16 H :    0.147198
  17 H :    0.146622
  18 H :    0.151180
  19 H :    0.141740
  20 H :    0.150310
  21 H :    0.185056
  22 H :    0.123598
  23 H :    0.124984
  24 H :    0.131112
  25 H :    0.128704
  26 H :    0.131455

  Mayer bond orders larger than 0.100000
B(  0-C ,  1-C ) :   0.9601 B(  0-C , 13-H ) :   0.9879 B(  0-C , 14-H ) :   0.9723
B(  0-C , 15-H ) :   0.9679 B(  1-C ,  2-C ) :   1.8859 B(  1-C ,  7-C ) :   1.0130
B(  2-C ,  3-C ) :   0.9858 B(  2-C , 16-H ) :   0.9633 B(  3-C ,  4-C ) :   0.9869
B(  3-C , 17-H ) :   0.9664 B(  3-C , 18-H ) :   0.9439 B(  4-C ,  5-H ) :   0.9861
B(  4-C ,  6-C ) :   0.9335 B(  4-C , 10-C ) :   0.8777 B(  6-C ,  7-C ) :   1.0031
B(  6-C , 19-H ) :   0.9763 B(  6-C , 20-H ) :   0.9507 B(  7-C ,  8-H ) :   0.9582
B(  7-C ,  9-O ) :   0.9450 B(  9-O , 21-H ) :   0.8685 B( 10-C , 11-C ) :   1.9141
B( 10-C , 12-C ) :   0.9656 B( 11-C , 22-H ) :   0.9682 B( 11-C , 23-H ) :   0.9680
B( 12-C , 24-H ) :   0.9716 B( 12-C , 25-H ) :   0.9807 B( 12-C , 26-H ) :   0.9648

FINAL SINGLE POINT ENERGY      -465.927316151970

DIPOLE MOMENT
-------------

Method             : SCF
Type of density    : Electron Density
Multiplicity       :   1
Irrep              :   0
Energy             :  -465.9450867073696827 Eh
Relativity type    :
Basis              : AO
                                X                 Y                 Z
Electronic contribution:     -2.365121855      -1.880701956      -1.758152993
Nuclear contribution   :      2.623027310       2.902140410       1.984281925
                        -----------------------------------------
Total Dipole Moment    :      0.257905455       1.021438455       0.226128932
                        -----------------------------------------
Magnitude (a.u.)       :      1.077490619
Magnitude (Debye)      :      2.738763501

Rotational constants in cm-1:             0.070697             0.022411             0.019731
Rotational constants in MHz :          2119.431764           671.879227           591.525973

                             ****ORCA TERMINATED NORMALLY****
TOTAL RUN TIME: 0 days 0 hours 5 minutes 35 seconds 803 msec
