                         Program Version 6.0.0  -   RELEASE  -
|  1> ! r2scan-3c def2/J RI DEFGRID2 scfconv6 printgap
|  2> %output
|  3>     printlevel normal
|  4> end
|  5> * xyz 0 1
|  6> C -2.5612898788 -0.8831011422 0.2915197814
|  7> C -1.1258709893 -0.4472290816 0.6200461214
|  8> H -1.0105462234 -0.3860521276 1.711937507
|  9> C -0.8245558576 0.9357549692 0.0262292062
| 10> H -1.080605863 0.9152605274 -1.0460667736
| 11> C 0.6666429284 1.2905285734 0.185955762
| 12> H 0.8844452021 1.4379484879 1.2504182383
| 13> C 1.5384183894 0.1464580809 -0.3371145089
| 14> H 1.3793393332 0.0371960992 -1.4240945787
| 15> C 1.102656413 -1.1649687901 0.3531846684
| 16> H 1.2767916749 -1.0653335254 1.4380112686
| 17> O -0.2518599954 -1.4302365897 0.0923320035
| 18> O 1.8628435874 -2.2382949105 -0.0714429212
| 19> O 2.8880845619 0.4224524205 -0.0691773249
| 20> O 0.9416694501 2.5296383552 -0.4170757183
| 21> O -1.6278081905 1.8737858187 0.6962415145
| 22> O -2.7736505826 -1.0334234982 -1.0868129819
| 23> H -3.2402168764 -0.0997920957 0.631185755
| 24> H -2.7776219317 -1.8159484823 0.824003949
| 25> H 1.5230529206 -2.5635022992 -0.9202014453
| 26> H 3.3993533487 -0.3981771877 -0.1537116922
| 27> H 1.0152428822 2.4252457972 -1.3769272546
| 28> H -1.3060869786 2.7620472424 0.473997917
| 29> H -2.2127712614 -1.7555244103 -1.4045218422
| 30> *
| 31>
| 32>                          ****END OF INPUT****

CARTESIAN COORDINATES (ANGSTROEM)
---------------------------------
  C     -2.561290   -0.883101    0.291520
  C     -1.125871   -0.447229    0.620046
  H     -1.010546   -0.386052    1.711938
  C     -0.824556    0.935755    0.026229
  H     -1.080606    0.915261   -1.046067
  C      0.666643    1.290529    0.185956
  H      0.884445    1.437948    1.250418
  C      1.538418    0.146458   -0.337115
  H      1.379339    0.037196   -1.424095
  C      1.102656   -1.164969    0.353185
  H      1.276792   -1.065334    1.438011
  O     -0.251860   -1.430237    0.092332
  O      1.862844   -2.238295   -0.071443
  O      2.888085    0.422452   -0.069177
  O      0.941669    2.529638   -0.417076
  O     -1.627808    1.873786    0.696242
  O     -2.773651   -1.033423   -1.086813
  H     -3.240217   -0.099792    0.631186
  H     -2.777622   -1.815948    0.824004
  H      1.523053   -2.563502   -0.920201
  H      3.399353   -0.398177   -0.153712
  H      1.015243    2.425246   -1.376927
  H     -1.306087    2.762047    0.473998
  H     -2.212771   -1.755524   -1.404522

 Total Charge           Charge          ....    0
 Multiplicity           Mult            ....    1
 Number of Electrons    NEL             ....   96
 Basis Dimension        Dim             ....  318

ORBITAL ENERGIES
----------------

  NO   OCC          E(Eh)            E(eV)
   0   2.0000     -18.985027      -516.6088
   1   2.0000     -18.984523      -516.5951
   2   2.0000     -18.967083      -516.1206
   3   2.0000     -18.962143      -515.9862
   4   2.0000     -18.958215      -515.8793
   5   2.0000     -18.956083      -515.8212
   6   2.0000     -10.151482      -276.2359
   7   2.0000     -10.098794      -274.8021
   8   2.0000     -10.098098      -274.7832
   9   2.0000     -10.095573      -274.7145
  10   2.0000     -10.090311      -274.5713
  11   2.0000     -10.082745      -274.3654
  12   2.0000      -1.066678       -29.0258
  13   2.0000      -1.017399       -27.6848
  14   2.0000      -1.010338       -27.4927
  15   2.0000      -0.996145       -27.1065
  16   2.0000      -0.989519       -26.9262
  17   2.0000      -0.987659       -26.8756
  18   2.0000      -0.754887       -20.5415
  19   2.0000      -0.742959       -20.2169
  20   2.0000      -0.660907       -17.9842
  21   2.0000      -0.628222       -17.0948
  22   2.0000      -0.601006       -16.3542
  23   2.0000      -0.577859       -15.7243
  24   2.0000      -0.525566       -14.3014
  25   2.0000      -0.518777       -14.1166
  26   2.0000      -0.498411       -13.5625
  27   2.0000      -0.484056       -13.1718
  28   2.0000      -0.469415       -12.7734
  29   2.0000      -0.458615       -12.4796
  30   2.0000      -0.452014       -12.2999
  31   2.0000      -0.441473       -12.0131
  32   2.0000      -0.403812       -10.9883
  33   2.0000      -0.400450       -10.8968
  34   2.0000      -0.387963       -10.5570
  35   2.0000      -0.374262       -10.1842
  36   2.0000      -0.355901        -9.6846
  37   2.0000      -0.352406        -9.5894
  38   2.0000      -0.336493        -9.1564
  39   2.0000      -0.320543        -8.7224
  40   2.0000      -0.312984        -8.5167
  41   2.0000      -0.305159        -8.3038
  42   2.0000      -0.290170        -7.8959
  43   2.0000      -0.267892        -7.2897
  44   2.0000      -0.264337        -7.1930
  45   2.0000      -0.246297        -6.7021
  46   2.0000      -0.238459        -6.4888
  47   2.0000      -0.232095        -6.3156
  48   0.0000       0.029870         0.8128
  49   0.0000       0.042770         1.1638
  50   0.0000       0.051884         1.4118
  51   0.0000       0.072107         1.9621
  52   0.0000       0.082097         2.2340

MULLIKEN ATOMIC CHARGES
-----------------------
   0 C :   -0.253740
   1 C :    0.022295
   2 H :    0.169057
   3 C :    0.026936
   4 H :    0.190833
   5 C :   -0.168995
   6 H :    0.180168
   7 C :    0.076583
   8 H :    0.158383
   9 C :   -0.140648
  10 H :    0.157599
  11 O :   -0.220715
  12 O :   -0.384942
  13 O :   -0.409508
  14 O :   -0.393664
  15 O :   -0.443069
  16 O :   -0.420960
  17 H :    0.162431
  18 H :    0.142114
  19 H :    0.320674
  20 H :    0.311990
  21 H :    0.300235
  22 H :    0.311782
  23 H :    0.305163
Sum of atomic charges:    0.0000000

LOEWDIN ATOMIC CHARGES
----------------------
   0 C :    0.044156
   1 C :    0.116823
   2 H :    0.189395
   3 C :    0.102012
   4 H :    0.186947
   5 C :    0.100418
   6 H :    0.203627
   7 C :    0.104292
   8 H :    0.174264
   9 C :    0.295048
  10 H :    0.197909
  11 O :   -0.685677
  12 O :   -0.494449
  13 O :   -0.562333
  14 O :   -0.559262
  15 O :   -0.582558
  16 O :   -0.590350
  17 H :    0.198218
  18 H :    0.166089
  19 H :    0.283496
  20 H :    0.282900
  21 H :    0.273089
  22 H :    0.284004
  23 H :    0.271941

  Mayer bond orders larger than 0.100000
B(  0-C ,  1-C ) :   0.9313 B(  0-C , 16-O ) :   1.0331 B(  0-C , 17-H ) :   0.9609
B(  0-C , 18-H ) :   0.9834 B(  1-C ,  2-H ) :   0.9356 B(  1-C ,  3-C ) :   0.8257
B(  1-C , 11-O ) :   0.7679 B(  1-C , 16-O ) :  -0.1152 B(  3-C ,  4-H ) :   0.9854
B(  3-C ,  5-C ) :   0.8191 B(  3-C , 15-O ) :   0.8490 B(  5-C ,  6-H ) :   0.9870
B(  5-C ,  7-C ) :   0.9386 B(  5-C , 14-O ) :   1.0656 B(  7-C ,  8-H ) :   0.9482
B(  7-C ,  9-C ) :   0.7539 B(  7-C , 13-O ) :   0.8982 B(  9-C , 10-H ) :   1.0112
B(  9-C , 11-O ) :   0.9796 B(  9-C , 12-O ) :   1.0955 B( 12-O , 19-H ) :   0.8726
B( 13-O , 20-H ) :   0.8722 B( 14-O , 21-H ) :   0.8899 B( 15-O , 22-H ) :   0.8736
B( 16-O , 23-H ) :   0.8830

Dispersion correction           -0.008067244
FINAL SINGLE POINT ENERGY      -687.075586688899

DIPOLE MOMENT
-------------

Method             : SCF
Type of density    : Electron Density
Multiplicity       :   1
Irrep              :   0
Energy             :  -687.0869425623008055 Eh
Relativity type    :
Basis              : AO
                                X                 Y                 Z
Electronic contribution:      2.265511658      -0.148011909      -0.546210179
Nuclear contribution   :     -2.001316401      -0.473471144      -0.008898439
                        -----------------------------------------
Total Dipole Moment    :      0.264195257      -0.621483052      -0.555108618
                        -----------------------------------------
Magnitude (a.u.)       :      0.874177268
Magnitude (Debye)      :      2.221982030

Rotational constants in cm-1:             0.038830             0.027085             0.017770
Rotational constants in MHz :          1164.100125           811.992579           532.730587

                             ****ORCA TERMINATED NORMALLY****
TOTAL RUN TIME: 0 days 0 hours 0 minutes 44 seconds 297 msec
