                         Program Version 6.0.0  -   RELEASE  -
|  1> ! r2scan-3c def2/J RI DEFGRID2 scfconv6 printgap
|  2> %output
|  3>     printlevel normal
|  4> end
|  5> %cpcm
|  6>     smd true
|  7>     smdsolvent "water"
|  8> end
|  9> * xyz 0 1
| 10> C -2.5612898788 -0.8831011422 0.2915197814
| 11> C -1.1258709893 -0.4472290816 0.6200461214
| 12> H -1.0105462234 -0.3860521276 1.711937507
| 13> C -0.8245558576 0.9357549692 0.0262292062
| 14> H -1.080605863 0.9152605274 -1.0460667736
| 15> C 0.6666429284 1.2905285734 0.185955762
| 16> H 0.8844452021 1.4379484879 1.2504182383
| 17> C 1.5384183894 0.1464580809 -0.3371145089
| 18> H 1.3793393332 0.0371960992 -1.4240945787
| 19> C 1.102656413 -1.1649687901 0.3531846684
| 20> H 1.2767916749 -1.0653335254 1.4380112686
| 21> O -0.2518599954 -1.4302365897 0.0923320035
| 22> O 1.8628435874 -2.2382949105 -0.0714429212
| 23> O 2.8880845619 0.4224524205 -0.0691773249
| 24> O 0.9416694501 2.5296383552 -0.4170757183
| 25> O -1.6278081905 1.8737858187 0.6962415145
| 26> O -2.7736505826 -1.0334234982 -1.0868129819
| 27> H -3.2402168764 -0.0997920957 0.631185755
| 28> H -2.7776219317 -1.8159484823 0.824003949
| 29> H 1.5230529206 -2.5635022992 -0.9202014453
| 30> H 3.3993533487 -0.3981771877 -0.1537116922
| 31> H 1.0152428822 2.4252457972 -1.3769272546
| 32> H -1.3060869786 2.7620472424 0.473997917
| 33> H -2.2127712614 -1.7555244103 -1.4045218422
| 34> *
| 35>
| 36>                          ****END OF INPUT****

CARTESIAN COORDINATES (ANGSTROEM)
---------------------------------
  C     -2.561290   -0.883101    0.291520
  C     -1.125871   -0.447229    0.620046
  H     -1.010546   -0.386052    1.711938
  C     -0.824556    0.935755    0.026229
  H     -1.080606    0.915261   -1.046067
  C      0.666643    1.290529    0.185956
  H      0.884445    1.437948    1.250418
  C      1.538418    0.146458   -0.337115
  H      1.379339    0.037196   -1.424095
  C      1.102656   -1.164969    0.353185
  H      1.276792   -1.065334    1.438011
  O     -0.251860   -1.430237    0.092332
  O      1.862844   -2.238295   -0.071443
  O      2.888085    0.422452   -0.069177
  O      0.941669    2.529638   -0.417076
  O     -1.627808    1.873786    0.696242
  O     -2.773651   -1.033423   -1.086813
  H     -3.240217   -0.099792    0.631186
  H     -2.777622   -1.815948    0.824004
  H      1.523053   -2.563502   -0.920201
  H      3.399353   -0.398177   -0.153712
  H      1.015243    2.425246   -1.376927
  H     -1.306087    2.762047    0.473998
  H     -2.212771   -1.755524   -1.404522

 Total Charge           Charge          ....    0
 Multiplicity           Mult            ....    1
 Number of Electrons    NEL             ....   96
 Basis Dimension        Dim             ....  318

ORBITAL ENERGIES
----------------

  NO   OCC          E(Eh)            E(eV)
   0   2.0000     -18.977214      -516.3962
   1   2.0000     -18.971269      -516.2345
   2   2.0000     -18.961658      -515.9729
   3   2.0000     -18.960934      -515.9532
   4   2.0000     -18.959239      -515.9071
   5   2.0000     -18.957140      -515.8500
   6   2.0000     -10.138299      -275.8771
   7   2.0000     -10.089255      -274.5426
   8   2.0000     -10.087136      -274.4849
   9   2.0000     -10.085801      -274.4486
  10   2.0000     -10.083637      -274.3897
  11   2.0000     -10.076561      -274.1972
  12   2.0000      -1.056219       -28.7412
  13   2.0000      -1.012978       -27.5645
  14   2.0000      -1.005462       -27.3600
  15   2.0000      -0.994463       -27.0607
  16   2.0000      -0.985998       -26.8304
  17   2.0000      -0.982310       -26.7300
  18   2.0000      -0.746977       -20.3263
  19   2.0000      -0.733575       -19.9616
  20   2.0000      -0.652455       -17.7542
  21   2.0000      -0.619190       -16.8490
  22   2.0000      -0.592608       -16.1257
  23   2.0000      -0.567836       -15.4516
  24   2.0000      -0.517297       -14.0764
  25   2.0000      -0.510569       -13.8933
  26   2.0000      -0.489715       -13.3258
  27   2.0000      -0.477312       -12.9883
  28   2.0000      -0.462417       -12.5830
  29   2.0000      -0.450131       -12.2487
  30   2.0000      -0.443971       -12.0811
  31   2.0000      -0.434940       -11.8353
  32   2.0000      -0.399630       -10.8745
  33   2.0000      -0.397621       -10.8198
  34   2.0000      -0.380428       -10.3520
  35   2.0000      -0.370132       -10.0718
  36   2.0000      -0.356299        -9.6954
  37   2.0000      -0.344990        -9.3876
  38   2.0000      -0.333057        -9.0629
  39   2.0000      -0.320132        -8.7112
  40   2.0000      -0.306917        -8.3516
  41   2.0000      -0.304958        -8.2983
  42   2.0000      -0.285358        -7.7650
  43   2.0000      -0.266019        -7.2387
  44   2.0000      -0.260298        -7.0831
  45   2.0000      -0.245270        -6.6741
  46   2.0000      -0.235495        -6.4081
  47   2.0000      -0.228168        -6.2088
  48   0.0000       0.043361         1.1799
  49   0.0000       0.065251         1.7756
  50   0.0000       0.068941         1.8760
  51   0.0000       0.090066         2.4508
  52   0.0000       0.096388         2.6228

MULLIKEN ATOMIC CHARGES
-----------------------
   0 C :   -0.251874
   1 C :    0.017413
   2 H :    0.195323
   3 C :    0.010926
   4 H :    0.193624
   5 C :   -0.120353
   6 H :    0.190509
   7 C :    0.053479
   8 H :    0.189681
   9 C :   -0.114153
  10 H :    0.178580
  11 O :   -0.255888
  12 O :   -0.438413
  13 O :   -0.486867
  14 O :   -0.469715
  15 O :   -0.507597
  16 O :   -0.491810
  17 H :    0.167218
  18 H :    0.160963
  19 H :    0.371516
  20 H :    0.349989
  21 H :    0.355875
  22 H :    0.347595
  23 H :    0.353976
Sum of atomic charges:    0.0000000

LOEWDIN ATOMIC CHARGES
----------------------
   0 C :    0.042132
   1 C :    0.118689
   2 H :    0.199434
   3 C :    0.105049
   4 H :    0.191957
   5 C :    0.101806
   6 H :    0.207361
   7 C :    0.109884
   8 H :    0.190942
   9 C :    0.296947
  10 H :    0.206106
  11 O :   -0.691998
  12 O :   -0.510291
  13 O :   -0.595412
  14 O :   -0.585591
  15 O :   -0.610449
  16 O :   -0.623080
  17 H :    0.197765
  18 H :    0.175627
  19 H :    0.301270
  20 H :    0.296249
  21 H :    0.291932
  22 H :    0.295564
  23 H :    0.288108

  Mayer bond orders larger than 0.100000
B(  0-C ,  1-C ) :   0.9329 B(  0-C , 16-O ) :   1.0132 B(  0-C , 17-H ) :   0.9637
B(  0-C , 18-H ) :   0.9720 B(  1-C ,  2-H ) :   0.9265 B(  1-C ,  3-C ) :   0.8606
B(  1-C , 11-O ) :   0.7746 B(  1-C , 16-O ) :  -0.1052 B(  3-C ,  4-H ) :   0.9722
B(  3-C ,  5-C ) :   0.8588 B(  3-C , 15-O ) :   0.8325 B(  5-C ,  6-H ) :   0.9722
B(  5-C ,  7-C ) :   0.9251 B(  5-C , 14-O ) :   1.0423 B(  7-C ,  8-H ) :   0.9481
B(  7-C ,  9-C ) :   0.7843 B(  7-C , 13-O ) :   0.8833 B(  9-C , 10-H ) :   0.9963
B(  9-C , 11-O ) :   0.9671 B(  9-C , 12-O ) :   1.0897 B( 12-O , 19-H ) :   0.8446
B( 13-O , 20-H ) :   0.8549 B( 14-O , 21-H ) :   0.8621 B( 15-O , 22-H ) :   0.8579
B( 16-O , 23-H ) :   0.8579

Dispersion correction           -0.008067244
FINAL SINGLE POINT ENERGY      -687.110486294378

DIPOLE MOMENT
-------------

Method             : SCF
Type of density    : Electron Density
Multiplicity       :   1
Irrep              :   0
Energy             :  -687.1218421677800734 Eh
Relativity type    :
Basis              : AO
                                X                 Y                 Z
Electronic contribution:      2.372334810      -0.445769565      -0.812273226
Nuclear contribution   :     -2.001316401      -0.473471144      -0.008898439
                        -----------------------------------------
Total Dipole Moment    :      0.371018409      -0.919240709      -0.821171665
                        -----------------------------------------
Magnitude (a.u.)       :      1.287237757
Magnitude (Debye)      :      3.271898357

Rotational constants in cm-1:             0.038830             0.027085             0.017770
Rotational constants in MHz :          1164.100125           811.992579           532.730587

                             ****ORCA TERMINATED NORMALLY****
TOTAL RUN TIME: 0 days 0 hours 0 minutes 53 seconds 394 msec
