                         Program Version 6.0.0  -   RELEASE  -
|  1> ! pbe def2-sv(p) def2/J RI DEFGRID1 loosescf d4 GCP(DFT/SV(P)) printgap
|  2> %output
|  3>     printlevel normal
|  4> end
|  5> * xyz 0 1
|  6> C -2.0895283805 -1.3476155655 -0.136915348
|  7> C -1.0118179154 -0.503673523 0.562783746
|  8> H -1.4371956713 -0.1257489253 1.5013396053
|  9> C -0.6089219946 0.6993342329 -0.2985998415
| 10> H -0.4641414666 0.3853216892 -1.344437427
| 11> C 0.7278623108 1.2422024566 0.2160694145
| 12> H 0.6408508286 1.420115611 1.3003487099
| 13> C 1.8154972958 0.1854737631 -0.0411049314
| 14> H 2.18079803 0.3005574941 -1.0670497025
| 15> C 1.2237722686 -1.2400885392 0.0771771967
| 16> H 1.9675416645 -1.8828119539 0.5699048946
| 17> O 0.1135044092 -1.2906979128 0.942227529
| 18> O 0.9258646427 -1.6976682709 -1.2027695108
| 19> O 2.9329890273 0.3672839534 0.7875127271
| 20> O 0.9869627164 2.4520805344 -0.4522372214
| 21> O -1.6376597126 1.6526622876 -0.2211460835
| 22> O -3.3444309432 -0.7162259394 -0.1111473981
| 23> H -2.2072659509 -2.2927921125 0.3985878777
| 24> H -1.7808749143 -1.5548660329 -1.1710994995
| 25> H 0.7648026566 -2.6535994857 -1.1919013597
| 26> H 2.6850943624 0.2313772056 1.7142236247
| 27> H 1.8619668683 2.7791280253 -0.1999094534
| 28> H -1.2977345484 2.4908843365 -0.5723138898
| 29> H -3.2300283975 0.2124055411 -0.3705652523
| 30> *
| 31>
| 32>                          ****END OF INPUT****

CARTESIAN COORDINATES (ANGSTROEM)
---------------------------------
  C     -2.089528   -1.347616   -0.136915
  C     -1.011818   -0.503674    0.562784
  H     -1.437196   -0.125749    1.501340
  C     -0.608922    0.699334   -0.298600
  H     -0.464141    0.385322   -1.344437
  C      0.727862    1.242202    0.216069
  H      0.640851    1.420116    1.300349
  C      1.815497    0.185474   -0.041105
  H      2.180798    0.300557   -1.067050
  C      1.223772   -1.240089    0.077177
  H      1.967542   -1.882812    0.569905
  O      0.113504   -1.290698    0.942228
  O      0.925865   -1.697668   -1.202770
  O      2.932989    0.367284    0.787513
  O      0.986963    2.452081   -0.452237
  O     -1.637660    1.652662   -0.221146
  O     -3.344431   -0.716226   -0.111147
  H     -2.207266   -2.292792    0.398588
  H     -1.780875   -1.554866   -1.171099
  H      0.764803   -2.653599   -1.191901
  H      2.685094    0.231377    1.714224
  H      1.861967    2.779128   -0.199909
  H     -1.297735    2.490884   -0.572314
  H     -3.230028    0.212406   -0.370565

 Total Charge           Charge          ....    0
 Multiplicity           Mult            ....    1
 Number of Electrons    NEL             ....   96
 Basis Dimension        Dim             ....  192

ORBITAL ENERGIES
----------------

  NO   OCC          E(Eh)            E(eV)
   0   2.0000     -18.774470      -510.8793
   1   2.0000     -18.773864      -510.8628
   2   2.0000     -18.768100      -510.7060
   3   2.0000     -18.765779      -510.6428
   4   2.0000     -18.763844      -510.5902
   5   2.0000     -18.730250      -509.6760
   6   2.0000      -9.992967      -271.9224
   7   2.0000      -9.950665      -270.7713
   8   2.0000      -9.948403      -270.7098
   9   2.0000      -9.947104      -270.6744
  10   2.0000      -9.942193      -270.5408
  11   2.0000      -9.920557      -269.9521
  12   2.0000      -0.988304       -26.8931
  13   2.0000      -0.956736       -26.0341
  14   2.0000      -0.942714       -25.6525
  15   2.0000      -0.929269       -25.2867
  16   2.0000      -0.920196       -25.0398
  17   2.0000      -0.905832       -24.6489
  18   2.0000      -0.711015       -19.3477
  19   2.0000      -0.694062       -18.8864
  20   2.0000      -0.617706       -16.8086
  21   2.0000      -0.590200       -16.0602
  22   2.0000      -0.572132       -15.5685
  23   2.0000      -0.530206       -14.4276
  24   2.0000      -0.511569       -13.9205
  25   2.0000      -0.500501       -13.6193
  26   2.0000      -0.472112       -12.8468
  27   2.0000      -0.465752       -12.6738
  28   2.0000      -0.448517       -12.2048
  29   2.0000      -0.429827       -11.6962
  30   2.0000      -0.421349       -11.4655
  31   2.0000      -0.395789       -10.7700
  32   2.0000      -0.388941       -10.5836
  33   2.0000      -0.376052       -10.2329
  34   2.0000      -0.363344        -9.8871
  35   2.0000      -0.353502        -9.6193
  36   2.0000      -0.331452        -9.0193
  37   2.0000      -0.321156        -8.7391
  38   2.0000      -0.318150        -8.6573
  39   2.0000      -0.304898        -8.2967
  40   2.0000      -0.283423        -7.7123
  41   2.0000      -0.270527        -7.3614
  42   2.0000      -0.259565        -7.0631
  43   2.0000      -0.249383        -6.7861
  44   2.0000      -0.238378        -6.4866
  45   2.0000      -0.225812        -6.1447
  46   2.0000      -0.219360        -5.9691
  47   2.0000      -0.199180        -5.4200
  48   0.0000       0.009013         0.2453
  49   0.0000       0.019314         0.5255
  50   0.0000       0.021813         0.5936
  51   0.0000       0.053301         1.4504
  52   0.0000       0.059433         1.6173

MULLIKEN ATOMIC CHARGES
-----------------------
   0 C :    0.087810
   1 C :    0.030573
   2 H :    0.078936
   3 C :    0.007910
   4 H :    0.079546
   5 C :    0.059533
   6 H :    0.042586
   7 C :    0.077046
   8 H :    0.083098
   9 C :    0.131864
  10 H :    0.065398
  11 O :   -0.317095
  12 O :   -0.388238
  13 O :   -0.420865
  14 O :   -0.425893
  15 O :   -0.426425
  16 O :   -0.448851
  17 H :    0.080320
  18 H :    0.059467
  19 H :    0.310412
  20 H :    0.301377
  21 H :    0.312693
  22 H :    0.315903
  23 H :    0.302893
Sum of atomic charges:   -0.0000000

LOEWDIN ATOMIC CHARGES
----------------------
   0 C :   -0.128974
   1 C :   -0.067426
   2 H :    0.119352
   3 C :   -0.077667
   4 H :    0.110567
   5 C :   -0.077190
   6 H :    0.100757
   7 C :   -0.087044
   8 H :    0.127385
   9 C :   -0.013064
  10 H :    0.099446
  11 O :   -0.149129
  12 O :   -0.303236
  13 O :   -0.311982
  14 O :   -0.322824
  15 O :   -0.312898
  16 O :   -0.342551
  17 H :    0.109681
  18 H :    0.092127
  19 H :    0.290641
  20 H :    0.284929
  21 H :    0.293962
  22 H :    0.290612
  23 H :    0.274526

  Mayer bond orders larger than 0.100000
B(  0-C ,  1-C ) :   1.0642 B(  0-C , 16-O ) :   1.0840 B(  0-C , 17-H ) :   0.9202
B(  0-C , 18-H ) :   0.9031 B(  1-C ,  2-H ) :   0.8811 B(  1-C ,  3-C ) :   0.9823
B(  1-C , 11-O ) :   0.9620 B(  3-C ,  4-H ) :   0.8773 B(  3-C ,  5-C ) :   1.0381
B(  3-C , 15-O ) :   1.0436 B(  5-C ,  6-H ) :   0.8602 B(  5-C ,  7-C ) :   1.0219
B(  5-C , 14-O ) :   1.0778 B(  7-C ,  8-H ) :   0.8605 B(  7-C ,  9-C ) :   0.9905
B(  7-C , 13-O ) :   1.0372 B(  9-C , 10-H ) :   0.9000 B(  9-C , 11-O ) :   1.0792
B(  9-C , 12-O ) :   1.1111 B( 12-O , 19-H ) :   0.8337 B( 13-O , 20-H ) :   0.8467
B( 14-O , 21-H ) :   0.8386 B( 15-O , 22-H ) :   0.8244 B( 16-O , 23-H ) :   0.8235

Dispersion correction           -0.024639313
FINAL SINGLE POINT ENERGY      -685.695756791114

DIPOLE MOMENT
-------------

Method             : SCF
Type of density    : Electron Density
Multiplicity       :   1
Irrep              :   0
Energy             :  -685.8271005331515653 Eh
Relativity type    :
Basis              : AO
                                X                 Y                 Z
Electronic contribution:      1.386113575       0.819170880       0.571458004
Nuclear contribution   :     -0.296974086      -0.635995066      -0.409923075
                        -----------------------------------------
Total Dipole Moment    :      1.089139489       0.183175813       0.161534929
                        -----------------------------------------
Magnitude (a.u.)       :      1.116186247
Magnitude (Debye)      :      2.837119969

Rotational constants in cm-1:             0.044261             0.025928             0.018869
Rotational constants in MHz :          1326.900461           777.308134           565.684397

                             ****ORCA TERMINATED NORMALLY****
TOTAL RUN TIME: 0 days 0 hours 0 minutes 12 seconds 320 msec
