                         Program Version 6.0.0  -   RELEASE  -
|  1> ! pbe def2-sv(p) def2/J RI DEFGRID1 loosescf d4 GCP(DFT/SV(P)) printgap
|  2> %output
|  3>     printlevel normal
|  4> end
|  5> * xyz 0 1
|  6> C 0.7357419026 -1.190521334 -0.2184681176
|  7> C -0.7357280772 -1.1971350603 0.2141553913
|  8> N -1.3771428927 0.000255762 -0.3054607136
|  9> C -0.7353837348 1.1972465793 0.2147461905
| 10> C 0.7356168842 1.1902498295 -0.2190306985
| 11> N 1.4405787256 -2.10175e-05 0.2298186614
| 12> H 0.7831573217 -1.2062442576 -1.3097669661
| 13> H 1.248247409 -2.0707390613 0.1728260317
| 14> H -1.2434717419 -2.0717093884 -0.1955498902
| 15> H -0.7850738327 -1.2486482247 1.3195660468
| 16> H -2.3634535329 0.0004067439 -0.0675298359
| 17> H -1.2434742863 2.0721643478 -0.1936375053
| 18> H -0.7838449778 1.2475439508 1.3202035533
| 19> H 0.7822387833 1.2048731327 -1.3103982142
| 20> H 1.2485919754 2.0707697624 0.1709826467
| 21> H 1.4725773798 0.0002272951 1.2469472676
| 22> *
| 23>
| 24>                          ****END OF INPUT****

CARTESIAN COORDINATES (ANGSTROEM)
---------------------------------
  C      0.735742   -1.190521   -0.218468
  C     -0.735728   -1.197135    0.214155
  N     -1.377143    0.000256   -0.305461
  C     -0.735384    1.197247    0.214746
  C      0.735617    1.190250   -0.219031
  N      1.440579   -0.000021    0.229819
  H      0.783157   -1.206244   -1.309767
  H      1.248247   -2.070739    0.172826
  H     -1.243472   -2.071709   -0.195550
  H     -0.785074   -1.248648    1.319566
  H     -2.363454    0.000407   -0.067530
  H     -1.243474    2.072164   -0.193638
  H     -0.783845    1.247544    1.320204
  H      0.782239    1.204873   -1.310398
  H      1.248592    2.070770    0.170983
  H      1.472577    0.000227    1.246947

 Total Charge           Charge          ....    0
 Multiplicity           Mult            ....    1
 Number of Electrons    NEL             ....   48
 Basis Dimension        Dim             ....  104

ORBITAL ENERGIES
----------------

  NO   OCC          E(Eh)            E(eV)
   0   2.0000     -13.971273      -380.1777
   1   2.0000     -13.965886      -380.0311
   2   2.0000      -9.905044      -269.5299
   3   2.0000      -9.905036      -269.5297
   4   2.0000      -9.901798      -269.4416
   5   2.0000      -9.901781      -269.4412
   6   2.0000      -0.845355       -23.0033
   7   2.0000      -0.790216       -21.5029
   8   2.0000      -0.678036       -18.4503
   9   2.0000      -0.592353       -16.1187
  10   2.0000      -0.564109       -15.3502
  11   2.0000      -0.514053       -13.9881
  12   2.0000      -0.466658       -12.6984
  13   2.0000      -0.408722       -11.1219
  14   2.0000      -0.406298       -11.0559
  15   2.0000      -0.395915       -10.7734
  16   2.0000      -0.381384       -10.3780
  17   2.0000      -0.343669        -9.3517
  18   2.0000      -0.339037        -9.2257
  19   2.0000      -0.306113        -8.3298
  20   2.0000      -0.304425        -8.2838
  21   2.0000      -0.292494        -7.9592
  22   2.0000      -0.186180        -5.0662
  23   2.0000      -0.164849        -4.4858
  24   0.0000       0.029340         0.7984
  25   0.0000       0.061926         1.6851
  26   0.0000       0.066786         1.8174
  27   0.0000       0.072504         1.9729
  28   0.0000       0.099284         2.7017

MULLIKEN ATOMIC CHARGES
-----------------------
   0 C :   -0.074279
   1 C :   -0.070600
   2 N :   -0.358194
   3 C :   -0.070528
   4 C :   -0.074247
   5 N :   -0.333610
   6 H :    0.081599
   7 H :    0.086545
   8 H :    0.080674
   9 H :    0.045175
  10 H :    0.204471
  11 H :    0.080666
  12 H :    0.045154
  13 H :    0.081599
  14 H :    0.086535
  15 H :    0.189039
Sum of atomic charges:    0.0000000

LOEWDIN ATOMIC CHARGES
----------------------
   0 C :   -0.178601
   1 C :   -0.186895
   2 N :   -0.269165
   3 C :   -0.186880
   4 C :   -0.178599
   5 N :   -0.257986
   6 H :    0.116754
   7 H :    0.112030
   8 H :    0.112871
   9 H :    0.082799
  10 H :    0.207896
  11 H :    0.112867
  12 H :    0.082811
  13 H :    0.116767
  14 H :    0.112007
  15 H :    0.201326

  Mayer bond orders larger than 0.100000
B(  0-C ,  1-C ) :   1.1152 B(  0-C ,  5-N ) :   1.1093 B(  0-C ,  6-H ) :   0.9077
B(  0-C ,  7-H ) :   0.9329 B(  1-C ,  2-N ) :   1.0666 B(  1-C ,  8-H ) :   0.9195
B(  1-C ,  9-H ) :   0.8894 B(  2-N ,  3-C ) :   1.0665 B(  2-N , 10-H ) :   0.8793
B(  3-C ,  4-C ) :   1.1152 B(  3-C , 11-H ) :   0.9195 B(  3-C , 12-H ) :   0.8894
B(  4-C ,  5-N ) :   1.1092 B(  4-C , 13-H ) :   0.9077 B(  4-C , 14-H ) :   0.9329
B(  5-N , 15-H ) :   0.8781

Dispersion correction           -0.012989720
FINAL SINGLE POINT ENERGY      -267.290386210572

DIPOLE MOMENT
-------------

Method             : SCF
Type of density    : Electron Density
Multiplicity       :   1
Irrep              :   0
Energy             :  -267.3555318730752219 Eh
Relativity type    :
Basis              : AO
                                X                 Y                 Z
Electronic contribution:      0.308888707       0.001327727      -0.577367566
Nuclear contribution   :     -0.829465313      -0.001270585       1.081894142
                        -----------------------------------------
Total Dipole Moment    :     -0.520576607       0.000057141       0.504526576
                        -----------------------------------------
Magnitude (a.u.)       :      0.724946255
Magnitude (Debye)      :      1.842666940

Rotational constants in cm-1:             0.160874             0.151648             0.088699
Rotational constants in MHz :          4822.872899          4546.278192          2659.143173

                             ****ORCA TERMINATED NORMALLY****
TOTAL RUN TIME: 0 days 0 hours 0 minutes 5 seconds 84 msec
