                         Program Version 6.0.0  -   RELEASE  -
|  1> ! pbe def2-sv(p) def2/J RI DEFGRID1 loosescf d4 GCP(DFT/SV(P)) printgap
|  2> %output
|  3>     printlevel normal
|  4> end
|  5> * xyz 0 1
|  6> C -2.5218949628 -0.9864088983 0.352977688
|  7> C -1.0741120114 -0.5149133527 0.5853966686
|  8> H -0.9076115494 -0.4392703116 1.671983773
|  9> C -0.7934726401 0.8549687144 -0.0459667419
| 10> H -0.9149008421 0.7699043887 -1.1373946199
| 11> C 0.6623327141 1.2472378258 0.2277971182
| 12> H 0.8133527563 1.3542228636 1.3143171719
| 13> C 1.592160833 0.1434794849 -0.2823549181
| 14> H 1.503418014 0.0725909742 -1.3768040949
| 15> C 1.1618842317 -1.2090678946 0.3110657471
| 16> H 1.3207568685 -1.1748388729 1.4120377095
| 17> O -0.192361757 -1.4834352473 0.0497196794
| 18> O 1.9326053513 -2.1966942916 -0.2710434359
| 19> O 2.9039423518 0.4745593557 0.0938054932
| 20> O 0.9025854319 2.4747387269 -0.4138945612
| 21> O -1.695883683 1.7899561297 0.4835599938
| 22> O -3.0170635849 -0.7272541555 -0.9327111951
| 23> H -3.15498032 -0.520236127 1.1139705399
| 24> H -2.5400786708 -2.0712334204 0.4734794664
| 25> H 1.5125786628 -3.0598150804 -0.133132752
| 26> H 3.5012357859 -0.2351885685 -0.1847710337
| 27> H 1.8457087998 2.6823628323 -0.3408286689
| 28> H -1.3967936586 2.6755904466 0.2248107343
| 29> H -3.2224907094 0.2156122616 -1.0049216628
| 30> *
| 31>
| 32>                          ****END OF INPUT****

CARTESIAN COORDINATES (ANGSTROEM)
---------------------------------
  C     -2.521895   -0.986409    0.352978
  C     -1.074112   -0.514913    0.585397
  H     -0.907612   -0.439270    1.671984
  C     -0.793473    0.854969   -0.045967
  H     -0.914901    0.769904   -1.137395
  C      0.662333    1.247238    0.227797
  H      0.813353    1.354223    1.314317
  C      1.592161    0.143479   -0.282355
  H      1.503418    0.072591   -1.376804
  C      1.161884   -1.209068    0.311066
  H      1.320757   -1.174839    1.412038
  O     -0.192362   -1.483435    0.049720
  O      1.932605   -2.196694   -0.271043
  O      2.903942    0.474559    0.093805
  O      0.902585    2.474739   -0.413895
  O     -1.695884    1.789956    0.483560
  O     -3.017064   -0.727254   -0.932711
  H     -3.154980   -0.520236    1.113971
  H     -2.540079   -2.071233    0.473479
  H      1.512579   -3.059815   -0.133133
  H      3.501236   -0.235189   -0.184771
  H      1.845709    2.682363   -0.340829
  H     -1.396794    2.675590    0.224811
  H     -3.222491    0.215612   -1.004922

 Total Charge           Charge          ....    0
 Multiplicity           Mult            ....    1
 Number of Electrons    NEL             ....   96
 Basis Dimension        Dim             ....  192

ORBITAL ENERGIES
----------------

  NO   OCC          E(Eh)            E(eV)
   0   2.0000     -18.772690      -510.8309
   1   2.0000     -18.768437      -510.7151
   2   2.0000     -18.761760      -510.5334
   3   2.0000     -18.759318      -510.4670
   4   2.0000     -18.758423      -510.4426
   5   2.0000     -18.744223      -510.0563
   6   2.0000      -9.988889      -271.8115
   7   2.0000      -9.944970      -270.6164
   8   2.0000      -9.944459      -270.6025
   9   2.0000      -9.943651      -270.5805
  10   2.0000      -9.942121      -270.5389
  11   2.0000      -9.929791      -270.2034
  12   2.0000      -0.988712       -26.9042
  13   2.0000      -0.950518       -25.8649
  14   2.0000      -0.940446       -25.5908
  15   2.0000      -0.923491       -25.1295
  16   2.0000      -0.921137       -25.0654
  17   2.0000      -0.914859       -24.8946
  18   2.0000      -0.707248       -19.2452
  19   2.0000      -0.691592       -18.8192
  20   2.0000      -0.619064       -16.8456
  21   2.0000      -0.585308       -15.9270
  22   2.0000      -0.560302       -15.2466
  23   2.0000      -0.527432       -14.3522
  24   2.0000      -0.517008       -14.0685
  25   2.0000      -0.486178       -13.2296
  26   2.0000      -0.477071       -12.9818
  27   2.0000      -0.462176       -12.5764
  28   2.0000      -0.444432       -12.0936
  29   2.0000      -0.431794       -11.7497
  30   2.0000      -0.419120       -11.4048
  31   2.0000      -0.413512       -11.2522
  32   2.0000      -0.388403       -10.5690
  33   2.0000      -0.373961       -10.1760
  34   2.0000      -0.359898        -9.7933
  35   2.0000      -0.352465        -9.5911
  36   2.0000      -0.328814        -8.9475
  37   2.0000      -0.319613        -8.6971
  38   2.0000      -0.312091        -8.4924
  39   2.0000      -0.296069        -8.0565
  40   2.0000      -0.285885        -7.7793
  41   2.0000      -0.272815        -7.4237
  42   2.0000      -0.252800        -6.8790
  43   2.0000      -0.244541        -6.6543
  44   2.0000      -0.232412        -6.3243
  45   2.0000      -0.226403        -6.1608
  46   2.0000      -0.215881        -5.8744
  47   2.0000      -0.209130        -5.6907
  48   0.0000       0.015013         0.4085
  49   0.0000       0.022962         0.6248
  50   0.0000       0.038178         1.0389
  51   0.0000       0.045941         1.2501
  52   0.0000       0.060587         1.6487

MULLIKEN ATOMIC CHARGES
-----------------------
   0 C :    0.083705
   1 C :    0.024965
   2 H :    0.051194
   3 C :    0.031171
   4 H :    0.061489
   5 C :    0.062479
   6 H :    0.055233
   7 C :    0.030383
   8 H :    0.063884
   9 C :    0.184684
  10 H :    0.033521
  11 O :   -0.309538
  12 O :   -0.392149
  13 O :   -0.426444
  14 O :   -0.427352
  15 O :   -0.426676
  16 O :   -0.433718
  17 H :    0.083501
  18 H :    0.088041
  19 H :    0.312713
  20 H :    0.313420
  21 H :    0.313749
  22 H :    0.314609
  23 H :    0.307133
Sum of atomic charges:   -0.0000000

LOEWDIN ATOMIC CHARGES
----------------------
   0 C :   -0.121708
   1 C :   -0.064964
   2 H :    0.104648
   3 C :   -0.076193
   4 H :    0.104382
   5 C :   -0.074650
   6 H :    0.103649
   7 C :   -0.090958
   8 H :    0.110130
   9 C :   -0.003460
  10 H :    0.078203
  11 O :   -0.148211
  12 O :   -0.304404
  13 O :   -0.322471
  14 O :   -0.324733
  15 O :   -0.321783
  16 O :   -0.329985
  17 H :    0.106906
  18 H :    0.118816
  19 H :    0.294320
  20 H :    0.292972
  21 H :    0.292649
  22 H :    0.291567
  23 H :    0.285278

  Mayer bond orders larger than 0.100000
B(  0-C ,  1-C ) :   1.0051 B(  0-C , 16-O ) :   1.1094 B(  0-C , 17-H ) :   0.9192
B(  0-C , 18-H ) :   0.9203 B(  1-C ,  2-H ) :   0.8679 B(  1-C ,  3-C ) :   1.0242
B(  1-C , 11-O ) :   0.9833 B(  3-C ,  4-H ) :   0.8573 B(  3-C ,  5-C ) :   1.0351
B(  3-C , 15-O ) :   1.0628 B(  5-C ,  6-H ) :   0.8759 B(  5-C ,  7-C ) :   1.0126
B(  5-C , 14-O ) :   1.0827 B(  7-C ,  8-H ) :   0.8647 B(  7-C ,  9-C ) :   0.9958
B(  7-C , 13-O ) :   1.0644 B(  9-C , 10-H ) :   0.8804 B(  9-C , 11-O ) :   1.0241
B(  9-C , 12-O ) :   1.1594 B( 12-O , 19-H ) :   0.8356 B( 13-O , 20-H ) :   0.8376
B( 14-O , 21-H ) :   0.8354 B( 15-O , 22-H ) :   0.8335 B( 16-O , 23-H ) :   0.8398

Dispersion correction           -0.023939122
FINAL SINGLE POINT ENERGY      -685.703986498631

DIPOLE MOMENT
-------------

Method             : SCF
Type of density    : Electron Density
Multiplicity       :   1
Irrep              :   0
Energy             :  -685.8342264589030037 Eh
Relativity type    :
Basis              : AO
                                X                 Y                 Z
Electronic contribution:      2.083608373      -0.170022910      -1.488327105
Nuclear contribution   :     -1.526063242       0.257942274       1.892387381
                        -----------------------------------------
Total Dipole Moment    :      0.557545132       0.087919364       0.404060275
                        -----------------------------------------
Magnitude (a.u.)       :      0.694154950
Magnitude (Debye)      :      1.764401663

Rotational constants in cm-1:             0.041221             0.026100             0.017384
Rotational constants in MHz :          1235.785610           782.454761           521.173928

                             ****ORCA TERMINATED NORMALLY****
TOTAL RUN TIME: 0 days 0 hours 0 minutes 12 seconds 151 msec
