                         Program Version 6.0.0  -   RELEASE  -
|  1> ! pbe def2-sv(p) def2/J RI DEFGRID1 loosescf d4 GCP(DFT/SV(P)) printgap
|  2> %output
|  3>     printlevel normal
|  4> end
|  5> * xyz 0 1
|  6> C -3.3801861105 -0.4130383042 0.0340264332
|  7> O -2.1843165882 0.0047412661 -0.6308947339
|  8> C -1.0535495985 0.0710725292 0.0702919312
|  9> O -0.996057732 -0.1894201373 1.252776031
| 10> C 0.0907884797 0.4849864815 -0.8263495954
| 11> C 0.8953633448 -0.7631702016 -1.2309126961
| 12> C 1.6967071571 -1.3211744226 -0.0597312825
| 13> C 2.6397231057 -0.2554213039 0.4893531117
| 14> C 1.8355631366 0.9498751112 0.9649801071
| 15> C 1.0078380565 1.529512061 -0.178577858
| 16> H -3.3086683036 -0.1925625791 1.0998315049
| 17> H -3.5127601878 -1.4851071878 -0.1108164739
| 18> H -4.1957164861 0.1375311368 -0.4264437679
| 19> H -0.3678973167 0.9091095444 -1.7249171228
| 20> H 0.2163193106 -1.5229552687 -1.623777076
| 21> H 1.580615251 -0.4750522257 -2.0300748669
| 22> H 1.0160890014 -1.6393866466 0.7329543353
| 23> H 2.2632577639 -2.1935739522 -0.3899711562
| 24> H 3.2201301064 -0.6635343697 1.3181670477
| 25> H 3.3364397331 0.053496935 -0.2933767422
| 26> H 1.1693563828 0.6426729486 1.7724235296
| 27> H 2.5047171562 1.7203212889 1.3522134189
| 28> H 0.4072435607 2.3652913916 0.1860495085
| 29> H 1.6794615054 1.9071368837 -0.9522346764
| 30> *
| 31>
| 32>                          ****END OF INPUT****

CARTESIAN COORDINATES (ANGSTROEM)
---------------------------------
  C     -3.380186   -0.413038    0.034026
  O     -2.184317    0.004741   -0.630895
  C     -1.053550    0.071073    0.070292
  O     -0.996058   -0.189420    1.252776
  C      0.090788    0.484986   -0.826350
  C      0.895363   -0.763170   -1.230913
  C      1.696707   -1.321174   -0.059731
  C      2.639723   -0.255421    0.489353
  C      1.835563    0.949875    0.964980
  C      1.007838    1.529512   -0.178578
  H     -3.308668   -0.192563    1.099832
  H     -3.512760   -1.485107   -0.110816
  H     -4.195716    0.137531   -0.426444
  H     -0.367897    0.909110   -1.724917
  H      0.216319   -1.522955   -1.623777
  H      1.580615   -0.475052   -2.030075
  H      1.016089   -1.639387    0.732954
  H      2.263258   -2.193574   -0.389971
  H      3.220130   -0.663534    1.318167
  H      3.336440    0.053497   -0.293377
  H      1.169356    0.642673    1.772424
  H      2.504717    1.720321    1.352213
  H      0.407244    2.365291    0.186050
  H      1.679462    1.907137   -0.952235

 Total Charge           Charge          ....    0
 Multiplicity           Mult            ....    1
 Number of Electrons    NEL             ....   78
 Basis Dimension        Dim             ....  168

ORBITAL ENERGIES
----------------

  NO   OCC          E(Eh)            E(eV)
   0   2.0000     -18.797844      -511.5153
   1   2.0000     -18.737304      -509.8680
   2   2.0000     -10.005180      -272.2548
   3   2.0000      -9.939820      -270.4762
   4   2.0000      -9.902571      -269.4627
   5   2.0000      -9.890376      -269.1308
   6   2.0000      -9.886067      -269.0136
   7   2.0000      -9.876867      -268.7632
   8   2.0000      -9.876169      -268.7442
   9   2.0000      -9.871728      -268.6234
  10   2.0000      -1.005144       -27.3514
  11   2.0000      -0.912342       -24.8261
  12   2.0000      -0.758509       -20.6401
  13   2.0000      -0.691481       -18.8162
  14   2.0000      -0.665246       -18.1023
  15   2.0000      -0.650708       -17.7067
  16   2.0000      -0.557521       -15.1709
  17   2.0000      -0.540196       -14.6995
  18   2.0000      -0.510764       -13.8986
  19   2.0000      -0.493693       -13.4341
  20   2.0000      -0.439677       -11.9642
  21   2.0000      -0.434041       -11.8109
  22   2.0000      -0.428334       -11.6556
  23   2.0000      -0.411921       -11.2089
  24   2.0000      -0.396768       -10.7966
  25   2.0000      -0.388580       -10.5738
  26   2.0000      -0.376206       -10.2371
  27   2.0000      -0.354056        -9.6344
  28   2.0000      -0.333861        -9.0848
  29   2.0000      -0.333099        -9.0641
  30   2.0000      -0.328820        -8.9476
  31   2.0000      -0.324124        -8.8199
  32   2.0000      -0.298450        -8.1212
  33   2.0000      -0.295896        -8.0517
  34   2.0000      -0.283309        -7.7092
  35   2.0000      -0.260634        -7.0922
  36   2.0000      -0.258301        -7.0287
  37   2.0000      -0.255469        -6.9517
  38   2.0000      -0.215797        -5.8721
  39   0.0000      -0.020406        -0.5553
  40   0.0000       0.033210         0.9037
  41   0.0000       0.053268         1.4495
  42   0.0000       0.065335         1.7779
  43   0.0000       0.077015         2.0957

MULLIKEN ATOMIC CHARGES
-----------------------
   0 C :   -0.125333
   1 O :   -0.240814
   2 C :    0.133479
   3 O :   -0.200273
   4 C :   -0.151200
   5 C :   -0.133552
   6 C :   -0.153024
   7 C :   -0.158877
   8 C :   -0.156359
   9 C :   -0.118011
  10 H :    0.130198
  11 H :    0.119979
  12 H :    0.122439
  13 H :    0.078226
  14 H :    0.088785
  15 H :    0.082830
  16 H :    0.097459
  17 H :    0.082475
  18 H :    0.084030
  19 H :    0.067137
  20 H :    0.106526
  21 H :    0.078957
  22 H :    0.087408
  23 H :    0.077517
Sum of atomic charges:   -0.0000000

LOEWDIN ATOMIC CHARGES
----------------------
   0 C :   -0.208642
   1 O :   -0.072797
   2 C :    0.051226
   3 O :   -0.164047
   4 C :   -0.165099
   5 C :   -0.205624
   6 C :   -0.232572
   7 C :   -0.224453
   8 C :   -0.235346
   9 C :   -0.208059
  10 H :    0.122882
  11 H :    0.119246
  12 H :    0.120968
  13 H :    0.127995
  14 H :    0.117501
  15 H :    0.118131
  16 H :    0.122418
  17 H :    0.115469
  18 H :    0.116465
  19 H :    0.108883
  20 H :    0.125487
  21 H :    0.113963
  22 H :    0.118963
  23 H :    0.117042

  Mayer bond orders larger than 0.100000
B(  0-C ,  1-O ) :   0.9375 B(  0-C , 10-H ) :   0.9345 B(  0-C , 11-H ) :   0.9591
B(  0-C , 12-H ) :   0.9610 B(  1-O ,  2-C ) :   1.2241 B(  2-C ,  3-O ) :   2.0255
B(  2-C ,  4-C ) :   0.9428 B(  4-C ,  5-C ) :   1.0780 B(  4-C ,  9-C ) :   1.0763
B(  4-C , 13-H ) :   0.8755 B(  5-C ,  6-C ) :   1.1335 B(  5-C , 14-H ) :   0.9156
B(  5-C , 15-H ) :   0.9123 B(  6-C ,  7-C ) :   1.1326 B(  6-C , 16-H ) :   0.9034
B(  6-C , 17-H ) :   0.9172 B(  7-C ,  8-C ) :   1.1337 B(  7-C , 18-H ) :   0.9190
B(  7-C , 19-H ) :   0.9177 B(  8-C ,  9-C ) :   1.1279 B(  8-C , 20-H ) :   0.9020
B(  8-C , 21-H ) :   0.9161 B(  9-C , 22-H ) :   0.9205 B(  9-C , 23-H ) :   0.9128

Dispersion correction           -0.023542638
FINAL SINGLE POINT ENERGY      -462.705318637821

DIPOLE MOMENT
-------------

Method             : SCF
Type of density    : Electron Density
Multiplicity       :   1
Irrep              :   0
Energy             :  -462.7935179002512314 Eh
Relativity type    :
Basis              : AO
                                X                 Y                 Z
Electronic contribution:     -5.957420063       0.414301792       0.481352298
Nuclear contribution   :      5.589906169      -0.412353244      -1.013356222
                        -----------------------------------------
Total Dipole Moment    :     -0.367513894       0.001948548      -0.532003925
                        -----------------------------------------
Magnitude (a.u.)       :      0.646605316
Magnitude (Debye)      :      1.643540100

Rotational constants in cm-1:             0.088936             0.028521             0.027421
Rotational constants in MHz :          2666.241487           855.052533           822.059631

                             ****ORCA TERMINATED NORMALLY****
TOTAL RUN TIME: 0 days 0 hours 0 minutes 12 seconds 342 msec
