                         Program Version 6.0.0  -   RELEASE  -
|  1> ! wb97x-v def2-tzvp def2/J RIJCOSX DEFGRID2 scfconv7 GCP(DFT/TZ) printgap
|  2> %output
|  3>     printlevel normal
|  4> end
|  5> * xyz 0 1
|  6> C -1.6601383131235812 1.2331051497234393 -0.008151832264798615
|  7> C -0.9312855338468008 -0.01044064406310199 0.4661508833594514
|  8> H -0.9231821225123145 -0.06393734870910868 1.560194631593559
|  9> C 0.5337217368235977 0.0015301999061157242 0.03735584861795645
| 10> F 1.1864844369224425 1.0836858004907184 0.5275599991707731
| 11> F 1.1981260977507595 -1.094007636908487 0.47657901481349246
| 12> F 0.6733246166209154 0.02779827528640065 -1.3121756540226426
| 13> O -1.534594901775139 -1.214779747566468 0.0033946935525463054
| 14> H -2.6924792506872532 1.192354215012626 0.34696223591826086
| 15> H -1.664797352723998 1.2864478029580122 -1.1017930875388506
| 16> H -1.193950361452396 2.1385836912727743 0.3888828512274436
| 17> H -1.7487647831058781 -1.0992350281959504 -0.9335676913988246
| 18> *
| 19>
| 20>                          ****END OF INPUT****

CARTESIAN COORDINATES (ANGSTROEM)
---------------------------------
  C     -1.660138    1.233105   -0.008152
  C     -0.931286   -0.010441    0.466151
  H     -0.923182   -0.063937    1.560195
  C      0.533722    0.001530    0.037356
  F      1.186484    1.083686    0.527560
  F      1.198126   -1.094008    0.476579
  F      0.673325    0.027798   -1.312176
  O     -1.534595   -1.214780    0.003395
  H     -2.692479    1.192354    0.346962
  H     -1.664797    1.286448   -1.101793
  H     -1.193950    2.138584    0.388883
  H     -1.748765   -1.099235   -0.933568

 Total Charge           Charge          ....    0
 Multiplicity           Mult            ....    1
 Number of Electrons    NEL             ....   58
 Basis Dimension        Dim             ....  247

ORBITAL ENERGIES
----------------

  NO   OCC          E(Eh)            E(eV)
   0   2.0000     -27.600811      -751.0562
   1   2.0000     -27.600448      -751.0464
   2   2.0000     -27.593320      -750.8524
   3   2.0000     -21.698931      -590.4579
   4   2.0000     -12.297085      -334.6207
   5   2.0000     -12.137603      -330.2810
   6   2.0000     -12.065929      -328.3306
   7   2.0000      -2.058280       -56.0086
   8   2.0000      -2.012576       -54.7650
   9   2.0000      -2.007150       -54.6173
  10   2.0000      -1.704245       -46.3749
  11   2.0000      -1.394300       -37.9408
  12   2.0000      -1.304364       -35.4935
  13   2.0000      -1.255849       -34.1734
  14   2.0000      -1.252596       -34.0849
  15   2.0000      -1.205861       -32.8132
  16   2.0000      -1.164721       -31.6937
  17   2.0000      -1.163494       -31.6603
  18   2.0000      -1.159968       -31.5643
  19   2.0000      -1.150139       -31.2969
  20   2.0000      -1.146060       -31.1859
  21   2.0000      -1.144002       -31.1299
  22   2.0000      -1.057992       -28.7894
  23   2.0000      -0.998589       -27.1730
  24   2.0000      -0.973894       -26.5010
  25   2.0000      -0.898604       -24.4522
  26   2.0000      -0.863589       -23.4994
  27   2.0000      -0.845631       -23.0108
  28   2.0000      -0.823614       -22.4117
  29   0.0000      -0.276639        -7.5277
  30   0.0000      -0.263295        -7.1646
  31   0.0000      -0.231324        -6.2946
  32   0.0000      -0.119516        -3.2522
  33   0.0000      -0.071303        -1.9402

MULLIKEN ATOMIC CHARGES
-----------------------
   0 C :   -0.381391
   1 C :    0.056499
   2 H :    0.110210
   3 C :    0.426016
   4 F :   -0.168576
   5 F :   -0.154529
   6 F :   -0.172571
   7 O :   -0.424464
   8 H :    0.139930
   9 H :    0.123345
  10 H :    0.134728
  11 H :    0.310804
Sum of atomic charges:    0.0000000

LOEWDIN ATOMIC CHARGES
----------------------
   0 C :   -0.278454
   1 C :   -0.351174
   2 H :    0.157698
   3 C :   -0.632037
   4 F :    0.179308
   5 F :    0.184532
   6 F :    0.174293
   7 O :    0.002282
   8 H :    0.129113
   9 H :    0.124920
  10 H :    0.131796
  11 H :    0.177724

  Mayer bond orders larger than 0.100000
B(  0-C ,  1-C ) :   1.0015 B(  0-C ,  8-H ) :   0.9767 B(  0-C ,  9-H ) :   0.9569
B(  0-C , 10-H ) :   0.9665 B(  1-C ,  2-H ) :   0.9464 B(  1-C ,  3-C ) :   0.9820
B(  1-C ,  7-O ) :   1.0286 B(  3-C ,  4-F ) :   1.1376 B(  3-C ,  5-F ) :   1.1684
B(  3-C ,  6-F ) :   1.1248 B(  7-O , 11-H ) :   0.8891

FINAL SINGLE POINT ENERGY      -492.138748949571

DIPOLE MOMENT
-------------

Method             : SCF
Type of density    : Electron Density
Multiplicity       :   1
Irrep              :   0
Energy             :  -492.1526011049714384 Eh
Relativity type    :
Basis              : AO
                                X                 Y                 Z
Electronic contribution:      9.756042935      -2.621778138      -0.663827627
Nuclear contribution   :    -10.579858977       3.221997340       0.523016880
                        -----------------------------------------
Total Dipole Moment    :     -0.823816043       0.600219203      -0.140810746
                        -----------------------------------------
Magnitude (a.u.)       :      1.028962404
Magnitude (Debye)      :      2.615414581

Rotational constants in cm-1:             0.115781             0.079334             0.065181
Rotational constants in MHz :          3471.014574          2378.386719          1954.080391

                             ****ORCA TERMINATED NORMALLY****
TOTAL RUN TIME: 0 days 0 hours 1 minutes 17 seconds 909 msec
