                         Program Version 6.0.0  -   RELEASE  -
|  1> ! wb97x-v def2-tzvp def2/J RIJCOSX DEFGRID2 scfconv7 GCP(DFT/TZ) printgap
|  2> %output
|  3>     printlevel normal
|  4> end
|  5> %cpcm
|  6>     smd true
|  7>     smdsolvent "water"
|  8> end
|  9> * xyz 0 1
| 10> C -1.6601383131235812 1.2331051497234393 -0.008151832264798615
| 11> C -0.9312855338468008 -0.01044064406310199 0.4661508833594514
| 12> H -0.9231821225123145 -0.06393734870910868 1.560194631593559
| 13> C 0.5337217368235977 0.0015301999061157242 0.03735584861795645
| 14> F 1.1864844369224425 1.0836858004907184 0.5275599991707731
| 15> F 1.1981260977507595 -1.094007636908487 0.47657901481349246
| 16> F 0.6733246166209154 0.02779827528640065 -1.3121756540226426
| 17> O -1.534594901775139 -1.214779747566468 0.0033946935525463054
| 18> H -2.6924792506872532 1.192354215012626 0.34696223591826086
| 19> H -1.664797352723998 1.2864478029580122 -1.1017930875388506
| 20> H -1.193950361452396 2.1385836912727743 0.3888828512274436
| 21> H -1.7487647831058781 -1.0992350281959504 -0.9335676913988246
| 22> *
| 23>
| 24>                          ****END OF INPUT****

CARTESIAN COORDINATES (ANGSTROEM)
---------------------------------
  C     -1.660138    1.233105   -0.008152
  C     -0.931286   -0.010441    0.466151
  H     -0.923182   -0.063937    1.560195
  C      0.533722    0.001530    0.037356
  F      1.186484    1.083686    0.527560
  F      1.198126   -1.094008    0.476579
  F      0.673325    0.027798   -1.312176
  O     -1.534595   -1.214780    0.003395
  H     -2.692479    1.192354    0.346962
  H     -1.664797    1.286448   -1.101793
  H     -1.193950    2.138584    0.388883
  H     -1.748765   -1.099235   -0.933568

 Total Charge           Charge          ....    0
 Multiplicity           Mult            ....    1
 Number of Electrons    NEL             ....   58
 Basis Dimension        Dim             ....  247

ORBITAL ENERGIES
----------------

  NO   OCC          E(Eh)            E(eV)
   0   2.0000     -27.600953      -751.0601
   1   2.0000     -27.600115      -751.0373
   2   2.0000     -27.598901      -751.0043
   3   2.0000     -21.690431      -590.2266
   4   2.0000     -12.295117      -334.5671
   5   2.0000     -12.122955      -329.8824
   6   2.0000     -12.041754      -327.6728
   7   2.0000      -2.059997       -56.0554
   8   2.0000      -2.012697       -54.7683
   9   2.0000      -2.011451       -54.7344
  10   2.0000      -1.695708       -46.1426
  11   2.0000      -1.393050       -37.9068
  12   2.0000      -1.292156       -35.1613
  13   2.0000      -1.256588       -34.1935
  14   2.0000      -1.256207       -34.1831
  15   2.0000      -1.198541       -32.6140
  16   2.0000      -1.165342       -31.7106
  17   2.0000      -1.165061       -31.7029
  18   2.0000      -1.153537       -31.3893
  19   2.0000      -1.151031       -31.3211
  20   2.0000      -1.148166       -31.2432
  21   2.0000      -1.147398       -31.2223
  22   2.0000      -1.049794       -28.5664
  23   2.0000      -0.992365       -27.0036
  24   2.0000      -0.961513       -26.1641
  25   2.0000      -0.886071       -24.1112
  26   2.0000      -0.847406       -23.0591
  27   2.0000      -0.821814       -22.3627
  28   2.0000      -0.800850       -21.7922
  29   0.0000      -0.277044        -7.5387
  30   0.0000      -0.258231        -7.0268
  31   0.0000      -0.226850        -6.1729
  32   0.0000      -0.108189        -2.9440
  33   0.0000      -0.052687        -1.4337

MULLIKEN ATOMIC CHARGES
-----------------------
   0 C :   -0.414156
   1 C :    0.091160
   2 H :    0.144514
   3 C :    0.422877
   4 F :   -0.177501
   5 F :   -0.175628
   6 F :   -0.179280
   7 O :   -0.524296
   8 H :    0.150188
   9 H :    0.146380
  10 H :    0.146968
  11 H :    0.368775
Sum of atomic charges:   -0.0000000

LOEWDIN ATOMIC CHARGES
----------------------
   0 C :   -0.274482
   1 C :   -0.346614
   2 H :    0.166970
   3 C :   -0.628420
   4 F :    0.174453
   5 F :    0.171100
   6 F :    0.170429
   7 O :   -0.032860
   8 H :    0.133553
   9 H :    0.131416
  10 H :    0.134978
  11 H :    0.199478

  Mayer bond orders larger than 0.100000
B(  0-C ,  1-C ) :   0.9968 B(  0-C ,  8-H ) :   0.9698 B(  0-C ,  9-H ) :   0.9584
B(  0-C , 10-H ) :   0.9623 B(  1-C ,  2-H ) :   0.9403 B(  1-C ,  3-C ) :   0.9867
B(  1-C ,  7-O ) :   0.9901 B(  3-C ,  4-F ) :   1.1369 B(  3-C ,  5-F ) :   1.1453
B(  3-C ,  6-F ) :   1.1338 B(  7-O , 11-H ) :   0.8547

FINAL SINGLE POINT ENERGY      -492.146417177073

DIPOLE MOMENT
-------------

Method             : SCF
Type of density    : Electron Density
Multiplicity       :   1
Irrep              :   0
Energy             :  -492.1602693324725237 Eh
Relativity type    :
Basis              : AO
                                X                 Y                 Z
Electronic contribution:      9.588092569      -2.429941423      -0.731269224
Nuclear contribution   :    -10.579858977       3.221997340       0.523016880
                        -----------------------------------------
Total Dipole Moment    :     -0.991766409       0.792055917      -0.208252344
                        -----------------------------------------
Magnitude (a.u.)       :      1.286204581
Magnitude (Debye)      :      3.269272231

Rotational constants in cm-1:             0.115781             0.079334             0.065181
Rotational constants in MHz :          3471.014574          2378.386719          1954.080391

                             ****ORCA TERMINATED NORMALLY****
TOTAL RUN TIME: 0 days 0 hours 1 minutes 23 seconds 825 msec
