                         Program Version 6.0.0  -   RELEASE  -
|  1> ! r2scan-3c def2/J RI DEFGRID2 scfconv6 printgap
|  2> %output
|  3>     printlevel normal
|  4> end
|  5> * xyz 0 1
|  6> C -0.4649143719 -1.3735636479 0.0006489875
|  7> C 0.2597340689 -0.2263592171 -0.0005234549
|  8> C -0.409869692 1.0701309826 0.0002988709
|  9> O 0.14405784 2.1523385946 0.0020145418
| 10> N -1.7886819268 0.9710379902 -0.0017563464
| 11> C -2.5419950715 -0.1754909207 -0.0001550731
| 12> O -3.7518368167 -0.173702777 -0.0010438031
| 13> N -1.8082184584 -1.3475742228 0.002068742
| 14> C 1.7528692918 -0.2186885341 -0.0004888799
| 15> F 2.2740084344 -1.4586861072 -0.011486059
| 16> F 2.2749172192 0.4084033606 -1.0704915862
| 17> F 2.2747369225 0.3893560469 1.0809992551
| 18> H 0.0128112873 -2.3437238282 0.0009960047
| 19> H -2.3035735906 1.8483151947 -0.0027168698
| 20> H -2.3429181762 -2.2119298343 0.003028409
| 21> *
| 22>
| 23>                          ****END OF INPUT****

CARTESIAN COORDINATES (ANGSTROEM)
---------------------------------
  C     -0.464914   -1.373564    0.000649
  C      0.259734   -0.226359   -0.000523
  C     -0.409870    1.070131    0.000299
  O      0.144058    2.152339    0.002015
  N     -1.788682    0.971038   -0.001756
  C     -2.541995   -0.175491   -0.000155
  O     -3.751837   -0.173703   -0.001044
  N     -1.808218   -1.347574    0.002069
  C      1.752869   -0.218689   -0.000489
  F      2.274008   -1.458686   -0.011486
  F      2.274917    0.408403   -1.070492
  F      2.274737    0.389356    1.080999
  H      0.012811   -2.343724    0.000996
  H     -2.303574    1.848315   -0.002717
  H     -2.342918   -2.211930    0.003028

 Total Charge           Charge          ....    0
 Multiplicity           Mult            ....    1
 Number of Electrons    NEL             ....   90
 Basis Dimension        Dim             ....  278

ORBITAL ENERGIES
----------------

  NO   OCC          E(Eh)            E(eV)
   0   2.0000     -24.528364      -667.4507
   1   2.0000     -24.516598      -667.1306
   2   2.0000     -24.516587      -667.1303
   3   2.0000     -18.956896      -515.8434
   4   2.0000     -18.947739      -515.5942
   5   2.0000     -14.266738      -388.2177
   6   2.0000     -14.243387      -387.5823
   7   2.0000     -10.296022      -280.1690
   8   2.0000     -10.207480      -277.7597
   9   2.0000     -10.173418      -276.8328
  10   2.0000     -10.147658      -276.1318
  11   2.0000     -10.091248      -274.5968
  12   2.0000      -1.280061       -34.8322
  13   2.0000      -1.191936       -32.4342
  14   2.0000      -1.184134       -32.2219
  15   2.0000      -1.075924       -29.2774
  16   2.0000      -1.034822       -28.1589
  17   2.0000      -0.983049       -26.7501
  18   2.0000      -0.928543       -25.2669
  19   2.0000      -0.815740       -22.1974
  20   2.0000      -0.709302       -19.3011
  21   2.0000      -0.674179       -18.3453
  22   2.0000      -0.663904       -18.0658
  23   2.0000      -0.606576       -16.5058
  24   2.0000      -0.580070       -15.7845
  25   2.0000      -0.557402       -15.1677
  26   2.0000      -0.545476       -14.8432
  27   2.0000      -0.526085       -14.3155
  28   2.0000      -0.514890       -14.0109
  29   2.0000      -0.483260       -13.1502
  30   2.0000      -0.462410       -12.5828
  31   2.0000      -0.433557       -11.7977
  32   2.0000      -0.428840       -11.6693
  33   2.0000      -0.426594       -11.6082
  34   2.0000      -0.408665       -11.1204
  35   2.0000      -0.406873       -11.0716
  36   2.0000      -0.390038       -10.6135
  37   2.0000      -0.389195       -10.5905
  38   2.0000      -0.373573       -10.1655
  39   2.0000      -0.370689       -10.0870
  40   2.0000      -0.367929       -10.0119
  41   2.0000      -0.287007        -7.8098
  42   2.0000      -0.286631        -7.7996
  43   2.0000      -0.260689        -7.0937
  44   2.0000      -0.254785        -6.9331
  45   0.0000      -0.099981        -2.7206
  46   0.0000      -0.048146        -1.3101
  47   0.0000       0.020267         0.5515
  48   0.0000       0.043275         1.1776
  49   0.0000       0.051435         1.3996

MULLIKEN ATOMIC CHARGES
-----------------------
   0 C :   -0.117129
   1 C :    0.099258
   2 C :    0.102665
   3 O :   -0.371028
   4 N :   -0.083126
   5 C :    0.246261
   6 O :   -0.408941
   7 N :   -0.074354
   8 C :    0.495755
   9 F :   -0.226960
  10 F :   -0.197917
  11 F :   -0.198253
  12 H :    0.164847
  13 H :    0.283229
  14 H :    0.285694
Sum of atomic charges:    0.0000000

LOEWDIN ATOMIC CHARGES
----------------------
   0 C :    0.179505
   1 C :   -0.035637
   2 C :    0.368920
   3 O :   -0.403299
   4 N :   -0.431640
   5 C :    0.446320
   6 O :   -0.371628
   7 N :   -0.502904
   8 C :    0.537632
   9 F :   -0.217177
  10 F :   -0.194286
  11 F :   -0.194942
  12 H :    0.213486
  13 H :    0.305480
  14 H :    0.300171

  Mayer bond orders larger than 0.100000
B(  0-C ,  1-C ) :   1.4887 B(  0-C ,  7-N ) :   1.1893 B(  0-C , 12-H ) :   0.9565
B(  1-C ,  2-C ) :   1.0335 B(  1-C ,  8-C ) :   0.9790 B(  2-C ,  3-O ) :   2.0138
B(  2-C ,  4-N ) :   1.0311 B(  4-N ,  5-C ) :   1.0944 B(  4-N , 13-H ) :   0.8989
B(  5-C ,  6-O ) :   1.9908 B(  5-C ,  7-N ) :   1.0514 B(  7-N , 14-H ) :   0.9010
B(  8-C ,  9-F ) :   1.0466 B(  8-C , 10-F ) :   1.0396 B(  8-C , 11-F ) :   1.0383

Dispersion correction           -0.005306706
FINAL SINGLE POINT ENERGY      -751.798143961392

DIPOLE MOMENT
-------------

Method             : SCF
Type of density    : Electron Density
Multiplicity       :   1
Irrep              :   0
Energy             :  -751.8114097546273342 Eh
Relativity type    :
Basis              : AO
                                X                 Y                 Z
Electronic contribution:      9.970436826       0.266573664      -0.002625444
Nuclear contribution   :    -10.742725753      -1.900400569       0.002149295
                        -----------------------------------------
Total Dipole Moment    :     -0.772288927      -1.633826905      -0.000476149
                        -----------------------------------------
Magnitude (a.u.)       :      1.807158202
Magnitude (Debye)      :      4.593431104

Rotational constants in cm-1:             0.065959             0.021453             0.017681
Rotational constants in MHz :          1977.411851           643.131256           530.059363

                             ****ORCA TERMINATED NORMALLY****
TOTAL RUN TIME: 0 days 0 hours 0 minutes 35 seconds 714 msec
