                         Program Version 6.0.0  -   RELEASE  -
|  1> ! r2scan-3c def2/J RI DEFGRID2 scfconv6 printgap
|  2> %output
|  3>     printlevel normal
|  4> end
|  5> %cpcm
|  6>     smd true
|  7>     smdsolvent "water"
|  8> end
|  9> * xyz 0 1
| 10> C -0.4649143719 -1.3735636479 0.0006489875
| 11> C 0.2597340689 -0.2263592171 -0.0005234549
| 12> C -0.409869692 1.0701309826 0.0002988709
| 13> O 0.14405784 2.1523385946 0.0020145418
| 14> N -1.7886819268 0.9710379902 -0.0017563464
| 15> C -2.5419950715 -0.1754909207 -0.0001550731
| 16> O -3.7518368167 -0.173702777 -0.0010438031
| 17> N -1.8082184584 -1.3475742228 0.002068742
| 18> C 1.7528692918 -0.2186885341 -0.0004888799
| 19> F 2.2740084344 -1.4586861072 -0.011486059
| 20> F 2.2749172192 0.4084033606 -1.0704915862
| 21> F 2.2747369225 0.3893560469 1.0809992551
| 22> H 0.0128112873 -2.3437238282 0.0009960047
| 23> H -2.3035735906 1.8483151947 -0.0027168698
| 24> H -2.3429181762 -2.2119298343 0.003028409
| 25> *
| 26>
| 27>                          ****END OF INPUT****

CARTESIAN COORDINATES (ANGSTROEM)
---------------------------------
  C     -0.464914   -1.373564    0.000649
  C      0.259734   -0.226359   -0.000523
  C     -0.409870    1.070131    0.000299
  O      0.144058    2.152339    0.002015
  N     -1.788682    0.971038   -0.001756
  C     -2.541995   -0.175491   -0.000155
  O     -3.751837   -0.173703   -0.001044
  N     -1.808218   -1.347574    0.002069
  C      1.752869   -0.218689   -0.000489
  F      2.274008   -1.458686   -0.011486
  F      2.274917    0.408403   -1.070492
  F      2.274737    0.389356    1.080999
  H      0.012811   -2.343724    0.000996
  H     -2.303574    1.848315   -0.002717
  H     -2.342918   -2.211930    0.003028

 Total Charge           Charge          ....    0
 Multiplicity           Mult            ....    1
 Number of Electrons    NEL             ....   90
 Basis Dimension        Dim             ....  278

ORBITAL ENERGIES
----------------

  NO   OCC          E(Eh)            E(eV)
   0   2.0000     -24.525568      -667.3746
   1   2.0000     -24.522519      -667.2917
   2   2.0000     -24.522428      -667.2892
   3   2.0000     -18.951319      -515.6916
   4   2.0000     -18.948986      -515.6281
   5   2.0000     -14.241735      -387.5373
   6   2.0000     -14.228767      -387.1844
   7   2.0000     -10.295212      -280.1470
   8   2.0000     -10.197495      -277.4879
   9   2.0000     -10.170195      -276.7451
  10   2.0000     -10.125688      -275.5340
  11   2.0000     -10.074862      -274.1509
  12   2.0000      -1.282969       -34.9114
  13   2.0000      -1.192891       -32.4602
  14   2.0000      -1.190842       -32.4045
  15   2.0000      -1.065649       -28.9978
  16   2.0000      -1.035537       -28.1784
  17   2.0000      -0.965206       -26.2646
  18   2.0000      -0.913400       -24.8549
  19   2.0000      -0.801062       -21.7980
  20   2.0000      -0.695635       -18.9292
  21   2.0000      -0.662182       -18.0189
  22   2.0000      -0.648305       -17.6413
  23   2.0000      -0.595996       -16.2179
  24   2.0000      -0.573787       -15.6135
  25   2.0000      -0.562402       -15.3037
  26   2.0000      -0.536600       -14.6016
  27   2.0000      -0.506048       -13.7703
  28   2.0000      -0.496075       -13.4989
  29   2.0000      -0.467601       -12.7241
  30   2.0000      -0.456132       -12.4120
  31   2.0000      -0.436095       -11.8668
  32   2.0000      -0.433883       -11.8066
  33   2.0000      -0.427255       -11.6262
  34   2.0000      -0.405941       -11.0462
  35   2.0000      -0.404210       -10.9991
  36   2.0000      -0.390126       -10.6159
  37   2.0000      -0.389474       -10.5981
  38   2.0000      -0.373214       -10.1557
  39   2.0000      -0.372845       -10.1456
  40   2.0000      -0.355767        -9.6809
  41   2.0000      -0.284907        -7.7527
  42   2.0000      -0.282345        -7.6830
  43   2.0000      -0.259308        -7.0561
  44   2.0000      -0.246984        -6.7208
  45   0.0000      -0.081659        -2.2221
  46   0.0000      -0.039968        -1.0876
  47   0.0000       0.054611         1.4860
  48   0.0000       0.063770         1.7353
  49   0.0000       0.072692         1.9781

MULLIKEN ATOMIC CHARGES
-----------------------
   0 C :   -0.107925
   1 C :    0.113818
   2 C :    0.124935
   3 O :   -0.473530
   4 N :   -0.082483
   5 C :    0.274789
   6 O :   -0.487604
   7 N :   -0.076083
   8 C :    0.479150
   9 F :   -0.225548
  10 F :   -0.211429
  11 F :   -0.211629
  12 H :    0.215212
  13 H :    0.327628
  14 H :    0.340701
Sum of atomic charges:    0.0000000

LOEWDIN ATOMIC CHARGES
----------------------
   0 C :    0.216985
   1 C :   -0.047110
   2 C :    0.374960
   3 O :   -0.485698
   4 N :   -0.405991
   5 C :    0.456145
   6 O :   -0.429408
   7 N :   -0.455685
   8 C :    0.533906
   9 F :   -0.213884
  10 F :   -0.208166
  11 F :   -0.208701
  12 H :    0.234322
  13 H :    0.318491
  14 H :    0.319832

  Mayer bond orders larger than 0.100000
B(  0-C ,  1-C ) :   1.4215 B(  0-C ,  7-N ) :   1.2294 B(  0-C , 12-H ) :   0.9547
B(  1-C ,  2-C ) :   1.0455 B(  1-C ,  8-C ) :   0.9830 B(  2-C ,  3-O ) :   1.9441
B(  2-C ,  4-N ) :   1.0627 B(  4-N ,  5-C ) :   1.1042 B(  4-N , 13-H ) :   0.8787
B(  5-C ,  6-O ) :   1.9333 B(  5-C ,  7-N ) :   1.0749 B(  7-N , 14-H ) :   0.8740
B(  8-C ,  9-F ) :   1.0606 B(  8-C , 10-F ) :   1.0280 B(  8-C , 11-F ) :   1.0271

Dispersion correction           -0.005306706
FINAL SINGLE POINT ENERGY      -751.820673786434

DIPOLE MOMENT
-------------

Method             : SCF
Type of density    : Electron Density
Multiplicity       :   1
Irrep              :   0
Energy             :  -751.8339395796693907 Eh
Relativity type    :
Basis              : AO
                                X                 Y                 Z
Electronic contribution:      9.705916222      -0.597211657      -0.002810462
Nuclear contribution   :    -10.742725753      -1.900400569       0.002149295
                        -----------------------------------------
Total Dipole Moment    :     -1.036809531      -2.497612226      -0.000661167
                        -----------------------------------------
Magnitude (a.u.)       :      2.704263536
Magnitude (Debye)      :      6.873691648

Rotational constants in cm-1:             0.065959             0.021453             0.017681
Rotational constants in MHz :          1977.411851           643.131256           530.059363

                             ****ORCA TERMINATED NORMALLY****
TOTAL RUN TIME: 0 days 0 hours 0 minutes 49 seconds 254 msec
