                         Program Version 6.0.0  -   RELEASE  -
|  1> ! pbe def2-sv(p) def2/J RI DEFGRID1 loosescf d4 GCP(DFT/SV(P)) printgap
|  2> %output
|  3>     printlevel normal
|  4> end
|  5> * xyz 0 1
|  6> C -2.3390239195 -0.8060048177 0.6771003354
|  7> C -0.8792461318 -0.3367177769 0.7512932175
|  8> H -0.6356415958 -0.0721582232 1.7888697723
|  9> C -0.6559491999 0.8983028292 -0.1245275329
| 10> H -0.962783906 0.6493057594 -1.1507170422
| 11> C 0.8371903222 1.2980598747 -0.1484111804
| 12> H 0.9618261284 2.1527251129 0.5293563064
| 13> C 1.7515523855 0.1686122928 0.3717806009
| 14> H 2.7524386224 0.3040006532 -0.0677047073
| 15> C 1.2164278339 -1.1798119448 -0.1335716987
| 16> H 1.8234753416 -2.0171687916 0.2378058434
| 17> O -0.0882898669 -1.444022641 0.3285362749
| 18> O 1.303630853 -1.2575310103 -1.5224352291
| 19> O 1.8061659744 0.2538347771 1.7708306243
| 20> O 1.1524184969 1.6324428783 -1.4818838207
| 21> O -1.4524484585 1.9331835136 0.3943988033
| 22> O -2.6875775603 -1.240360619 -0.6119382362
| 23> H -2.9929561673 0.0323515202 0.9188745412
| 24> H -2.4836303482 -1.6104517825 1.4078059043
| 25> H 1.0173430499 -0.4221138414 -1.9331524268
| 26> H 2.4209307053 -0.4063689601 2.1225578114
| 27> H 1.9812394082 2.1307147105 -1.5224037387
| 28> H -1.5271719631 2.6423517627 -0.2599986281
| 29> H -2.0703452234 -1.9451248023 -0.8609586441
| 30> *
| 31>
| 32>                          ****END OF INPUT****

CARTESIAN COORDINATES (ANGSTROEM)
---------------------------------
  C     -2.339024   -0.806005    0.677100
  C     -0.879246   -0.336718    0.751293
  H     -0.635642   -0.072158    1.788870
  C     -0.655949    0.898303   -0.124528
  H     -0.962784    0.649306   -1.150717
  C      0.837190    1.298060   -0.148411
  H      0.961826    2.152725    0.529356
  C      1.751552    0.168612    0.371781
  H      2.752439    0.304001   -0.067705
  C      1.216428   -1.179812   -0.133572
  H      1.823475   -2.017169    0.237806
  O     -0.088290   -1.444023    0.328536
  O      1.303631   -1.257531   -1.522435
  O      1.806166    0.253835    1.770831
  O      1.152418    1.632443   -1.481884
  O     -1.452448    1.933184    0.394399
  O     -2.687578   -1.240361   -0.611938
  H     -2.992956    0.032352    0.918875
  H     -2.483630   -1.610452    1.407806
  H      1.017343   -0.422114   -1.933152
  H      2.420931   -0.406369    2.122558
  H      1.981239    2.130715   -1.522404
  H     -1.527172    2.642352   -0.259999
  H     -2.070345   -1.945125   -0.860959

 Total Charge           Charge          ....    0
 Multiplicity           Mult            ....    1
 Number of Electrons    NEL             ....   96
 Basis Dimension        Dim             ....  192

ORBITAL ENERGIES
----------------

  NO   OCC          E(Eh)            E(eV)
   0   2.0000     -18.780716      -511.0493
   1   2.0000     -18.769162      -510.7349
   2   2.0000     -18.764642      -510.6119
   3   2.0000     -18.756628      -510.3938
   4   2.0000     -18.748870      -510.1827
   5   2.0000     -18.734042      -509.7792
   6   2.0000      -9.984332      -271.6875
   7   2.0000      -9.953093      -270.8374
   8   2.0000      -9.952985      -270.8345
   9   2.0000      -9.943766      -270.5836
  10   2.0000      -9.934208      -270.3236
  11   2.0000      -9.918093      -269.8850
  12   2.0000      -0.977543       -26.6003
  13   2.0000      -0.953800       -25.9542
  14   2.0000      -0.941601       -25.6223
  15   2.0000      -0.933413       -25.3995
  16   2.0000      -0.914731       -24.8911
  17   2.0000      -0.898820       -24.4581
  18   2.0000      -0.708570       -19.2812
  19   2.0000      -0.687096       -18.6968
  20   2.0000      -0.617655       -16.8073
  21   2.0000      -0.592610       -16.1257
  22   2.0000      -0.564568       -15.3627
  23   2.0000      -0.522853       -14.2276
  24   2.0000      -0.511093       -13.9075
  25   2.0000      -0.478736       -13.0271
  26   2.0000      -0.476072       -12.9546
  27   2.0000      -0.467581       -12.7235
  28   2.0000      -0.448039       -12.1918
  29   2.0000      -0.434515       -11.8238
  30   2.0000      -0.425293       -11.5728
  31   2.0000      -0.394129       -10.7248
  32   2.0000      -0.382396       -10.4055
  33   2.0000      -0.372698       -10.1416
  34   2.0000      -0.357910        -9.7392
  35   2.0000      -0.354913        -9.6577
  36   2.0000      -0.328797        -8.9470
  37   2.0000      -0.308820        -8.4034
  38   2.0000      -0.305113        -8.3026
  39   2.0000      -0.295241        -8.0339
  40   2.0000      -0.279917        -7.6169
  41   2.0000      -0.269840        -7.3427
  42   2.0000      -0.257714        -7.0128
  43   2.0000      -0.254810        -6.9337
  44   2.0000      -0.223271        -6.0755
  45   2.0000      -0.220611        -6.0031
  46   2.0000      -0.214886        -5.8474
  47   2.0000      -0.205661        -5.5963
  48   0.0000       0.004691         0.1277
  49   0.0000       0.011487         0.3126
  50   0.0000       0.029289         0.7970
  51   0.0000       0.055752         1.5171
  52   0.0000       0.067228         1.8294

MULLIKEN ATOMIC CHARGES
-----------------------
   0 C :    0.093333
   1 C :    0.030389
   2 H :    0.068138
   3 C :    0.032212
   4 H :    0.053251
   5 C :    0.049078
   6 H :    0.069747
   7 C :   -0.001481
   8 H :    0.059499
   9 C :    0.196493
  10 H :    0.053044
  11 O :   -0.319923
  12 O :   -0.403511
  13 O :   -0.404702
  14 O :   -0.414893
  15 O :   -0.411732
  16 O :   -0.445364
  17 H :    0.092494
  18 H :    0.076311
  19 H :    0.301734
  20 H :    0.309408
  21 H :    0.310000
  22 H :    0.308261
  23 H :    0.298213
Sum of atomic charges:   -0.0000000

LOEWDIN ATOMIC CHARGES
----------------------
   0 C :   -0.124561
   1 C :   -0.072207
   2 H :    0.112838
   3 C :   -0.072376
   4 H :    0.107243
   5 C :   -0.076791
   6 H :    0.114772
   7 C :   -0.101090
   8 H :    0.101113
   9 C :   -0.005884
  10 H :    0.099511
  11 O :   -0.149721
  12 O :   -0.312380
  13 O :   -0.307862
  14 O :   -0.311596
  15 O :   -0.310788
  16 O :   -0.336372
  17 H :    0.120356
  18 H :    0.099658
  19 H :    0.270649
  20 H :    0.292523
  21 H :    0.291151
  22 H :    0.292844
  23 H :    0.278967

  Mayer bond orders larger than 0.100000
B(  0-C ,  1-C ) :   1.0377 B(  0-C , 16-O ) :   1.0620 B(  0-C , 17-H ) :   0.9142
B(  0-C , 18-H ) :   0.9176 B(  1-C ,  2-H ) :   0.8554 B(  1-C ,  3-C ) :   1.0743
B(  1-C , 11-O ) :   0.9818 B(  3-C ,  4-H ) :   0.8539 B(  3-C ,  5-C ) :   1.0200
B(  3-C , 15-O ) :   1.0660 B(  5-C ,  6-H ) :   0.8505 B(  5-C ,  7-C ) :   1.0050
B(  5-C , 14-O ) :   1.0460 B(  7-C ,  8-H ) :   0.8905 B(  7-C ,  9-C ) :   0.9972
B(  7-C , 13-O ) :   1.0358 B(  9-C , 10-H ) :   0.9003 B(  9-C , 11-O ) :   1.0525
B(  9-C , 12-O ) :   1.1397 B( 12-O , 19-H ) :   0.8102 B( 13-O , 20-H ) :   0.8436
B( 14-O , 21-H ) :   0.8406 B( 15-O , 22-H ) :   0.8473 B( 16-O , 23-H ) :   0.8369

Dispersion correction           -0.025076136
FINAL SINGLE POINT ENERGY      -685.693786334049

DIPOLE MOMENT
-------------

Method             : SCF
Type of density    : Electron Density
Multiplicity       :   1
Irrep              :   0
Energy             :  -685.8249915672950010 Eh
Relativity type    :
Basis              : AO
                                X                 Y                 Z
Electronic contribution:      1.116659777      -0.496037055      -0.974319771
Nuclear contribution   :      0.267621800       1.347333764       1.118870980
                        -----------------------------------------
Total Dipole Moment    :      1.384281577       0.851296710       0.144551210
                        -----------------------------------------
Magnitude (a.u.)       :      1.631513600
Magnitude (Debye)      :      4.146978005

Rotational constants in cm-1:             0.039697             0.027318             0.023711
Rotational constants in MHz :          1190.091317           818.986014           710.826744

                             ****ORCA TERMINATED NORMALLY****
TOTAL RUN TIME: 0 days 0 hours 0 minutes 12 seconds 206 msec
