                         Program Version 6.0.0  -   RELEASE  -
|  1> ! wb97x-v def2-tzvp def2/J RIJCOSX DEFGRID2 scfconv7 GCP(DFT/TZ) printgap
|  2> %output
|  3>     printlevel normal
|  4> end
|  5> * xyz 0 1
|  6> C -2.5367221814110907 -1.3845094613132485 -0.420708624039141
|  7> C -1.9717342403685585 -0.022519751254124098 0.011670459895741208
|  8> C -2.4346251812379904 1.048345248903244 -0.9937745301793359
|  9> C -2.553703582370775 0.311029482684271 1.3935539459631865
| 10> C -0.44022781661281807 -0.033726992165390546 0.03331735656900355
| 11> C 0.2966869259760106 -0.8069018087735902 -0.8738410035427546
| 12> C 1.6871384348601524 -0.7846800101078941 -0.902477930480577
| 13> C 2.382661513735722 0.028731819491618536 -0.011945215282172777
| 14> C 1.680409399532052 0.8152758997861469 0.8975520572262689
| 15> C 0.2881358882650222 0.7785356822769672 0.91056707529751
| 16> O 3.760819169629473 0.015409615634310526 -0.07309547835021588
| 17> H -2.170667394397708 -2.1888136078333993 0.2267487840401889
| 18> H -3.629363441633996 -1.3627015193514018 -0.3534527042250048
| 19> H -2.280238279827614 -1.630642123611127 -1.454901160821082
| 20> H -2.0690505264266483 2.0392776966646005 -0.7031668606502545
| 21> H -2.058899772556104 0.8264346898871205 -1.9985715900530443
| 22> H -3.529563597334421 1.0841071901992703 -1.0360477897724774
| 23> H -2.3060110186413882 1.326580071366259 1.7151214916938766
| 24> H -3.6455191728544305 0.24016215462969112 1.35395696938617
| 25> H -2.193978686008844 -0.3895066044585921 2.1551043069855704
| 26> H -0.21292861868620527 -1.4495346197858128 -1.5831865088143886
| 27> H 2.2364122900746253 -1.3967152744851132 -1.6112762941472762
| 28> H 2.2193179028529144 1.4515856488793017 1.5948381236393332
| 29> H -0.22622976260091957 1.4056743443391793 1.6301283963532183
| 30> H 4.11136609209515 0.6202333137176425 0.5952382270978516
| 31> *
| 32>
| 33>                          ****END OF INPUT****

CARTESIAN COORDINATES (ANGSTROEM)
---------------------------------
  C     -2.536722   -1.384509   -0.420709
  C     -1.971734   -0.022520    0.011670
  C     -2.434625    1.048345   -0.993775
  C     -2.553704    0.311029    1.393554
  C     -0.440228   -0.033727    0.033317
  C      0.296687   -0.806902   -0.873841
  C      1.687138   -0.784680   -0.902478
  C      2.382662    0.028732   -0.011945
  C      1.680409    0.815276    0.897552
  C      0.288136    0.778536    0.910567
  O      3.760819    0.015410   -0.073095
  H     -2.170667   -2.188814    0.226749
  H     -3.629363   -1.362702   -0.353453
  H     -2.280238   -1.630642   -1.454901
  H     -2.069051    2.039278   -0.703167
  H     -2.058900    0.826435   -1.998572
  H     -3.529564    1.084107   -1.036048
  H     -2.306011    1.326580    1.715121
  H     -3.645519    0.240162    1.353957
  H     -2.193979   -0.389507    2.155104
  H     -0.212929   -1.449535   -1.583187
  H      2.236412   -1.396715   -1.611276
  H      2.219318    1.451586    1.594838
  H     -0.226230    1.405674    1.630128
  H      4.111366    0.620233    0.595238

 Total Charge           Charge          ....    0
 Multiplicity           Mult            ....    1
 Number of Electrons    NEL             ....   82
 Basis Dimension        Dim             ....  425

ORBITAL ENERGIES
----------------

  NO   OCC          E(Eh)            E(eV)
   0   2.0000     -21.700632      -590.5042
   1   2.0000     -12.109691      -329.5214
   2   2.0000     -12.064400      -328.2890
   3   2.0000     -12.052179      -327.9565
   4   2.0000     -12.050894      -327.9215
   5   2.0000     -12.049509      -327.8838
   6   2.0000     -12.048587      -327.8587
   7   2.0000     -12.044143      -327.7378
   8   2.0000     -12.034492      -327.4752
   9   2.0000     -12.034000      -327.4618
  10   2.0000     -12.033364      -327.4445
  11   2.0000      -1.712541       -46.6006
  12   2.0000      -1.386628       -37.7321
  13   2.0000      -1.331821       -36.2407
  14   2.0000      -1.274890       -34.6915
  15   2.0000      -1.264647       -34.4128
  16   2.0000      -1.179636       -32.0995
  17   2.0000      -1.177310       -32.0362
  18   2.0000      -1.153620       -31.3916
  19   2.0000      -1.115785       -30.3621
  20   2.0000      -1.068580       -29.0776
  21   2.0000      -1.028768       -27.9942
  22   2.0000      -1.001847       -27.2616
  23   2.0000      -0.944394       -25.6983
  24   2.0000      -0.941405       -25.6169
  25   2.0000      -0.935859       -25.4660
  26   2.0000      -0.902187       -24.5497
  27   2.0000      -0.875437       -23.8219
  28   2.0000      -0.873757       -23.7761
  29   2.0000      -0.868790       -23.6410
  30   2.0000      -0.863292       -23.4914
  31   2.0000      -0.817111       -22.2347
  32   2.0000      -0.811925       -22.0936
  33   2.0000      -0.808170       -21.9914
  34   2.0000      -0.794804       -21.6277
  35   2.0000      -0.778829       -21.1930
  36   2.0000      -0.775908       -21.1135
  37   2.0000      -0.769877       -20.9494
  38   2.0000      -0.758134       -20.6299
  39   2.0000      -0.640095       -17.4179
  40   2.0000      -0.633382       -17.2352
  41   0.0000      -0.246489        -6.7073
  42   0.0000      -0.238189        -6.4815
  43   0.0000      -0.143431        -3.9029
  44   0.0000      -0.077569        -2.1108
  45   0.0000      -0.071735        -1.9520

MULLIKEN ATOMIC CHARGES
-----------------------
   0 C :   -0.366926
   1 C :    0.083396
   2 C :   -0.349658
   3 C :   -0.369608
   4 C :    0.188117
   5 C :   -0.188639
   6 C :   -0.215585
   7 C :    0.247723
   8 C :   -0.206314
   9 C :   -0.229344
  10 O :   -0.393535
  11 H :    0.125193
  12 H :    0.114108
  13 H :    0.110194
  14 H :    0.114208
  15 H :    0.115316
  16 H :    0.108282
  17 H :    0.109773
  18 H :    0.114928
  19 H :    0.125587
  20 H :    0.111954
  21 H :    0.119623
  22 H :    0.106519
  23 H :    0.113258
  24 H :    0.311431
Sum of atomic charges:    0.0000000

LOEWDIN ATOMIC CHARGES
----------------------
   0 C :   -0.253114
   1 C :   -0.313271
   2 C :   -0.246817
   3 C :   -0.254112
   4 C :   -0.107183
   5 C :   -0.101745
   6 C :   -0.121150
   7 C :   -0.263135
   8 C :   -0.146947
   9 C :   -0.105692
  10 O :    0.059222
  11 H :    0.124383
  12 H :    0.121689
  13 H :    0.117251
  14 H :    0.121848
  15 H :    0.122149
  16 H :    0.119711
  17 H :    0.117009
  18 H :    0.121899
  19 H :    0.124195
  20 H :    0.146963
  21 H :    0.147364
  22 H :    0.139173
  23 H :    0.146733
  24 H :    0.183574

  Mayer bond orders larger than 0.100000
B(  0-C ,  1-C ) :   0.9803 B(  0-C , 11-H ) :   0.9808 B(  0-C , 12-H ) :   0.9807
B(  0-C , 13-H ) :   0.9707 B(  1-C ,  2-C ) :   0.9871 B(  1-C ,  3-C ) :   0.9774
B(  1-C ,  4-C ) :   0.9028 B(  2-C , 14-H ) :   0.9756 B(  2-C , 15-H ) :   0.9751
B(  2-C , 16-H ) :   0.9756 B(  3-C , 17-H ) :   0.9703 B(  3-C , 18-H ) :   0.9815
B(  3-C , 19-H ) :   0.9816 B(  4-C ,  5-C ) :   1.3441 B(  4-C ,  9-C ) :   1.3666
B(  5-C ,  6-C ) :   1.4769 B(  5-C , 20-H ) :   0.9752 B(  6-C ,  7-C ) :   1.4082
B(  6-C , 21-H ) :   0.9791 B(  7-C ,  8-C ) :   1.3637 B(  7-C , 10-O ) :   1.1439
B(  8-C ,  9-C ) :   1.4633 B(  8-C , 22-H ) :   0.9542 B(  9-C , 23-H ) :   0.9598
B( 10-O , 24-H ) :   0.8917

FINAL SINGLE POINT ENERGY      -464.747755577171

DIPOLE MOMENT
-------------

Method             : SCF
Type of density    : Electron Density
Multiplicity       :   1
Irrep              :   0
Energy             :  -464.7636793258710100 Eh
Relativity type    :
Basis              : AO
                                X                 Y                 Z
Electronic contribution:     14.628490093      -0.173596867      -0.124970295
Nuclear contribution   :    -14.815363989       0.521344503       0.506039089
                        -----------------------------------------
Total Dipole Moment    :     -0.186873896       0.347747636       0.381068794
                        -----------------------------------------
Magnitude (a.u.)       :      0.548692716
Magnitude (Debye)      :      1.394666048

Rotational constants in cm-1:             0.085159             0.021313             0.019189
Rotational constants in MHz :          2552.995345           638.962218           575.266392

                             ****ORCA TERMINATED NORMALLY****
TOTAL RUN TIME: 0 days 0 hours 5 minutes 56 seconds 314 msec
