                         Program Version 6.0.0  -   RELEASE  -
|  1> ! wb97x-v def2-tzvp def2/J RIJCOSX DEFGRID2 scfconv7 GCP(DFT/TZ) printgap
|  2> %output
|  3>     printlevel normal
|  4> end
|  5> %cpcm
|  6>     smd true
|  7>     smdsolvent "water"
|  8> end
|  9> * xyz 0 1
| 10> C -2.5367221814110907 -1.3845094613132485 -0.420708624039141
| 11> C -1.9717342403685585 -0.022519751254124098 0.011670459895741208
| 12> C -2.4346251812379904 1.048345248903244 -0.9937745301793359
| 13> C -2.553703582370775 0.311029482684271 1.3935539459631865
| 14> C -0.44022781661281807 -0.033726992165390546 0.03331735656900355
| 15> C 0.2966869259760106 -0.8069018087735902 -0.8738410035427546
| 16> C 1.6871384348601524 -0.7846800101078941 -0.902477930480577
| 17> C 2.382661513735722 0.028731819491618536 -0.011945215282172777
| 18> C 1.680409399532052 0.8152758997861469 0.8975520572262689
| 19> C 0.2881358882650222 0.7785356822769672 0.91056707529751
| 20> O 3.760819169629473 0.015409615634310526 -0.07309547835021588
| 21> H -2.170667394397708 -2.1888136078333993 0.2267487840401889
| 22> H -3.629363441633996 -1.3627015193514018 -0.3534527042250048
| 23> H -2.280238279827614 -1.630642123611127 -1.454901160821082
| 24> H -2.0690505264266483 2.0392776966646005 -0.7031668606502545
| 25> H -2.058899772556104 0.8264346898871205 -1.9985715900530443
| 26> H -3.529563597334421 1.0841071901992703 -1.0360477897724774
| 27> H -2.3060110186413882 1.326580071366259 1.7151214916938766
| 28> H -3.6455191728544305 0.24016215462969112 1.35395696938617
| 29> H -2.193978686008844 -0.3895066044585921 2.1551043069855704
| 30> H -0.21292861868620527 -1.4495346197858128 -1.5831865088143886
| 31> H 2.2364122900746253 -1.3967152744851132 -1.6112762941472762
| 32> H 2.2193179028529144 1.4515856488793017 1.5948381236393332
| 33> H -0.22622976260091957 1.4056743443391793 1.6301283963532183
| 34> H 4.11136609209515 0.6202333137176425 0.5952382270978516
| 35> *
| 36>
| 37>                          ****END OF INPUT****

CARTESIAN COORDINATES (ANGSTROEM)
---------------------------------
  C     -2.536722   -1.384509   -0.420709
  C     -1.971734   -0.022520    0.011670
  C     -2.434625    1.048345   -0.993775
  C     -2.553704    0.311029    1.393554
  C     -0.440228   -0.033727    0.033317
  C      0.296687   -0.806902   -0.873841
  C      1.687138   -0.784680   -0.902478
  C      2.382662    0.028732   -0.011945
  C      1.680409    0.815276    0.897552
  C      0.288136    0.778536    0.910567
  O      3.760819    0.015410   -0.073095
  H     -2.170667   -2.188814    0.226749
  H     -3.629363   -1.362702   -0.353453
  H     -2.280238   -1.630642   -1.454901
  H     -2.069051    2.039278   -0.703167
  H     -2.058900    0.826435   -1.998572
  H     -3.529564    1.084107   -1.036048
  H     -2.306011    1.326580    1.715121
  H     -3.645519    0.240162    1.353957
  H     -2.193979   -0.389507    2.155104
  H     -0.212929   -1.449535   -1.583187
  H      2.236412   -1.396715   -1.611276
  H      2.219318    1.451586    1.594838
  H     -0.226230    1.405674    1.630128
  H      4.111366    0.620233    0.595238

 Total Charge           Charge          ....    0
 Multiplicity           Mult            ....    1
 Number of Electrons    NEL             ....   82
 Basis Dimension        Dim             ....  425

ORBITAL ENERGIES
----------------

  NO   OCC          E(Eh)            E(eV)
   0   2.0000     -21.699185      -590.4648
   1   2.0000     -12.109099      -329.5053
   2   2.0000     -12.057199      -328.0931
   3   2.0000     -12.049409      -327.8811
   4   2.0000     -12.047881      -327.8395
   5   2.0000     -12.046537      -327.8029
   6   2.0000     -12.045159      -327.7654
   7   2.0000     -12.043499      -327.7203
   8   2.0000     -12.025301      -327.2251
   9   2.0000     -12.023846      -327.1855
  10   2.0000     -12.023496      -327.1760
  11   2.0000      -1.711649       -46.5763
  12   2.0000      -1.385596       -37.7040
  13   2.0000      -1.326093       -36.0848
  14   2.0000      -1.273339       -34.6493
  15   2.0000      -1.261751       -34.3340
  16   2.0000      -1.170181       -31.8423
  17   2.0000      -1.169124       -31.8135
  18   2.0000      -1.151453       -31.3326
  19   2.0000      -1.113339       -30.2955
  20   2.0000      -1.065706       -28.9993
  21   2.0000      -1.023379       -27.8476
  22   2.0000      -1.003073       -27.2950
  23   2.0000      -0.946128       -25.7454
  24   2.0000      -0.940124       -25.5821
  25   2.0000      -0.930009       -25.3068
  26   2.0000      -0.896903       -24.4060
  27   2.0000      -0.870860       -23.6973
  28   2.0000      -0.865587       -23.5538
  29   2.0000      -0.863062       -23.4851
  30   2.0000      -0.855175       -23.2705
  31   2.0000      -0.808332       -21.9958
  32   2.0000      -0.805229       -21.9114
  33   2.0000      -0.799961       -21.7681
  34   2.0000      -0.785580       -21.3767
  35   2.0000      -0.771847       -21.0030
  36   2.0000      -0.770211       -20.9585
  37   2.0000      -0.760927       -20.7059
  38   2.0000      -0.755197       -20.5499
  39   2.0000      -0.640008       -17.4155
  40   2.0000      -0.633910       -17.2496
  41   0.0000      -0.246548        -6.7089
  42   0.0000      -0.237602        -6.4655
  43   0.0000      -0.141144        -3.8407
  44   0.0000      -0.076035        -2.0690
  45   0.0000      -0.052656        -1.4328

MULLIKEN ATOMIC CHARGES
-----------------------
   0 C :   -0.429804
   1 C :    0.174512
   2 C :   -0.421714
   3 C :   -0.431127
   4 C :    0.119735
   5 C :   -0.234803
   6 C :   -0.266059
   7 C :    0.262672
   8 C :   -0.264143
   9 C :   -0.244420
  10 O :   -0.475115
  11 H :    0.132738
  12 H :    0.134837
  13 H :    0.134571
  14 H :    0.130222
  15 H :    0.130621
  16 H :    0.128981
  17 H :    0.134832
  18 H :    0.135334
  19 H :    0.133434
  20 H :    0.157885
  21 H :    0.152696
  22 H :    0.166925
  23 H :    0.160005
  24 H :    0.377186
Sum of atomic charges:    0.0000000

LOEWDIN ATOMIC CHARGES
----------------------
   0 C :   -0.258216
   1 C :   -0.311039
   2 C :   -0.253572
   3 C :   -0.258692
   4 C :   -0.115289
   5 C :   -0.111181
   6 C :   -0.138937
   7 C :   -0.276515
   8 C :   -0.144171
   9 C :   -0.112035
  10 O :    0.032490
  11 H :    0.124605
  12 H :    0.125369
  13 H :    0.122207
  14 H :    0.123579
  15 H :    0.123690
  16 H :    0.124054
  17 H :    0.122286
  18 H :    0.125483
  19 H :    0.124683
  20 H :    0.156601
  21 H :    0.153474
  22 H :    0.155458
  23 H :    0.156760
  24 H :    0.208909

  Mayer bond orders larger than 0.100000
B(  0-C ,  1-C ) :   0.9596 B(  0-C , 11-H ) :   0.9797 B(  0-C , 12-H ) :   0.9787
B(  0-C , 13-H ) :   0.9696 B(  1-C ,  2-C ) :   0.9541 B(  1-C ,  3-C ) :   0.9591
B(  1-C ,  4-C ) :   0.9122 B(  2-C , 14-H ) :   0.9761 B(  2-C , 15-H ) :   0.9759
B(  2-C , 16-H ) :   0.9753 B(  3-C , 17-H ) :   0.9691 B(  3-C , 18-H ) :   0.9791
B(  3-C , 19-H ) :   0.9800 B(  4-C ,  5-C ) :   1.3361 B(  4-C ,  9-C ) :   1.3399
B(  5-C ,  6-C ) :   1.4700 B(  5-C , 20-H ) :   0.9779 B(  6-C ,  7-C ) :   1.3800
B(  6-C , 21-H ) :   0.9851 B(  7-C ,  8-C ) :   1.3643 B(  7-C , 10-O ) :   1.0977
B(  8-C ,  9-C ) :   1.4128 B(  8-C , 22-H ) :   0.9711 B(  9-C , 23-H ) :   0.9661
B( 10-O , 24-H ) :   0.8503

FINAL SINGLE POINT ENERGY      -464.755821416477

DIPOLE MOMENT
-------------

Method             : SCF
Type of density    : Electron Density
Multiplicity       :   1
Irrep              :   0
Energy             :  -464.7717451651769238 Eh
Relativity type    :
Basis              : AO
                                X                 Y                 Z
Electronic contribution:     14.509702934       0.018235481       0.052622563
Nuclear contribution   :    -14.815363989       0.521344503       0.506039089
                        -----------------------------------------
Total Dipole Moment    :     -0.305661055       0.539579985       0.558661651
                        -----------------------------------------
Magnitude (a.u.)       :      0.834672439
Magnitude (Debye)      :      2.121568737

Rotational constants in cm-1:             0.085159             0.021313             0.019189
Rotational constants in MHz :          2552.995345           638.962218           575.266392

                             ****ORCA TERMINATED NORMALLY****
TOTAL RUN TIME: 0 days 0 hours 5 minutes 20 seconds 328 msec
