                         Program Version 6.0.0  -   RELEASE  -
|  1> ! pbe def2-sv(p) def2/J RI DEFGRID1 loosescf d4 GCP(DFT/SV(P)) printgap
|  2> %output
|  3>     printlevel normal
|  4> end
|  5> * xyz 0 1
|  6> C -2.2564117211 -1.159978878 0.0886280184
|  7> C -0.8778241448 -0.5654373962 0.4144488496
|  8> H -0.8742427254 -0.252853263 1.4704395284
|  9> C -0.5555878177 0.6467295396 -0.4632843316
| 10> H -0.4141006743 0.3098446042 -1.5003792921
| 11> C 0.7612912881 1.2770481188 0.0123936906
| 12> H 0.5308987556 1.8716599116 0.9111538713
| 13> C 1.7790634273 0.1836575761 0.4190507202
| 14> H 2.7516019444 0.4199388631 -0.0341164972
| 15> C 1.3804269988 -1.1917898339 -0.1361052332
| 16> H 2.0421584253 -1.94805633 0.3155317964
| 17> O 0.0867598038 -1.5949121602 0.2319113917
| 18> O 1.539845777 -1.1551786045 -1.5206060391
| 19> O 1.8801935632 0.0437993996 1.8134739171
| 20> O 1.2165545118 2.104584437 -1.0287112595
| 21> O -1.6186679777 1.5637243091 -0.3832587833
| 22> O -3.3071931041 -0.4282075256 0.658444212
| 23> H -2.3032123539 -2.1645488947 0.5141993131
| 24> H -2.3726675021 -1.2304938501 -1.0010656744
| 25> H 1.3650836419 -2.0333338911 -1.8928537198
| 26> H 2.3633160036 0.7929587552 2.1929923001
| 27> H 2.006471414 2.5933773759 -0.7578016854
| 28> H -1.4142418928 2.32225674 -0.9499347562
| 29> H -3.2187568658 0.495478338 0.369240025
| 30> *
| 31>
| 32>                          ****END OF INPUT****

CARTESIAN COORDINATES (ANGSTROEM)
---------------------------------
  C     -2.256412   -1.159979    0.088628
  C     -0.877824   -0.565437    0.414449
  H     -0.874243   -0.252853    1.470440
  C     -0.555588    0.646730   -0.463284
  H     -0.414101    0.309845   -1.500379
  C      0.761291    1.277048    0.012394
  H      0.530899    1.871660    0.911154
  C      1.779063    0.183658    0.419051
  H      2.751602    0.419939   -0.034116
  C      1.380427   -1.191790   -0.136105
  H      2.042158   -1.948056    0.315532
  O      0.086760   -1.594912    0.231911
  O      1.539846   -1.155179   -1.520606
  O      1.880194    0.043799    1.813474
  O      1.216555    2.104584   -1.028711
  O     -1.618668    1.563724   -0.383259
  O     -3.307193   -0.428208    0.658444
  H     -2.303212   -2.164549    0.514199
  H     -2.372668   -1.230494   -1.001066
  H      1.365084   -2.033334   -1.892854
  H      2.363316    0.792959    2.192992
  H      2.006471    2.593377   -0.757802
  H     -1.414242    2.322257   -0.949935
  H     -3.218757    0.495478    0.369240

 Total Charge           Charge          ....    0
 Multiplicity           Mult            ....    1
 Number of Electrons    NEL             ....   96
 Basis Dimension        Dim             ....  192

ORBITAL ENERGIES
----------------

  NO   OCC          E(Eh)            E(eV)
   0   2.0000     -18.765589      -510.6376
   1   2.0000     -18.764526      -510.6087
   2   2.0000     -18.763896      -510.5916
   3   2.0000     -18.762669      -510.5582
   4   2.0000     -18.761098      -510.5154
   5   2.0000     -18.722327      -509.4604
   6   2.0000      -9.985924      -271.7308
   7   2.0000      -9.950668      -270.7714
   8   2.0000      -9.945659      -270.6351
   9   2.0000      -9.941399      -270.5192
  10   2.0000      -9.933994      -270.3177
  11   2.0000      -9.915836      -269.8236
  12   2.0000      -0.979008       -26.6402
  13   2.0000      -0.950341       -25.8601
  14   2.0000      -0.940276       -25.5862
  15   2.0000      -0.930347       -25.3160
  16   2.0000      -0.911220       -24.7955
  17   2.0000      -0.898809       -24.4578
  18   2.0000      -0.706181       -19.2162
  19   2.0000      -0.689036       -18.7496
  20   2.0000      -0.616410       -16.7734
  21   2.0000      -0.582438       -15.8489
  22   2.0000      -0.560903       -15.2629
  23   2.0000      -0.523694       -14.2505
  24   2.0000      -0.500410       -13.6169
  25   2.0000      -0.492342       -13.3973
  26   2.0000      -0.481745       -13.1090
  27   2.0000      -0.454320       -12.3627
  28   2.0000      -0.449009       -12.2181
  29   2.0000      -0.431898       -11.7525
  30   2.0000      -0.411923       -11.2090
  31   2.0000      -0.388501       -10.5716
  32   2.0000      -0.381324       -10.3763
  33   2.0000      -0.368422       -10.0253
  34   2.0000      -0.354387        -9.6434
  35   2.0000      -0.346997        -9.4423
  36   2.0000      -0.335035        -9.1168
  37   2.0000      -0.329005        -8.9527
  38   2.0000      -0.308212        -8.3869
  39   2.0000      -0.297396        -8.0925
  40   2.0000      -0.269779        -7.3411
  41   2.0000      -0.259831        -7.0704
  42   2.0000      -0.250679        -6.8213
  43   2.0000      -0.242039        -6.5862
  44   2.0000      -0.227331        -6.1860
  45   2.0000      -0.222712        -6.0603
  46   2.0000      -0.213307        -5.8044
  47   2.0000      -0.197200        -5.3661
  48   0.0000       0.003291         0.0895
  49   0.0000       0.016845         0.4584
  50   0.0000       0.028623         0.7789
  51   0.0000       0.043726         1.1898
  52   0.0000       0.063966         1.7406

MULLIKEN ATOMIC CHARGES
-----------------------
   0 C :    0.100440
   1 C :   -0.005012
   2 H :    0.069987
   3 C :    0.069970
   4 H :    0.070863
   5 C :    0.065611
   6 H :    0.042975
   7 C :    0.019009
   8 H :    0.058886
   9 C :    0.169748
  10 H :    0.066157
  11 O :   -0.310016
  12 O :   -0.385310
  13 O :   -0.409046
  14 O :   -0.412587
  15 O :   -0.428068
  16 O :   -0.449268
  17 H :    0.088222
  18 H :    0.053272
  19 H :    0.305334
  20 H :    0.304345
  21 H :    0.299729
  22 H :    0.315170
  23 H :    0.299590
Sum of atomic charges:    0.0000000

LOEWDIN ATOMIC CHARGES
----------------------
   0 C :   -0.120557
   1 C :   -0.062038
   2 H :    0.109960
   3 C :   -0.075661
   4 H :    0.113232
   5 C :   -0.082788
   6 H :    0.099927
   7 C :   -0.087207
   8 H :    0.107552
   9 C :    0.000273
  10 H :    0.100225
  11 O :   -0.140898
  12 O :   -0.310750
  13 O :   -0.310197
  14 O :   -0.319202
  15 O :   -0.313430
  16 O :   -0.343672
  17 H :    0.115499
  18 H :    0.093176
  19 H :    0.287779
  20 H :    0.288754
  21 H :    0.284382
  22 H :    0.294003
  23 H :    0.271636

  Mayer bond orders larger than 0.100000
B(  0-C ,  1-C ) :   1.0309 B(  0-C , 16-O ) :   1.0867 B(  0-C , 17-H ) :   0.9220
B(  0-C , 18-H ) :   0.9046 B(  1-C ,  2-H ) :   0.8829 B(  1-C ,  3-C ) :   1.0651
B(  1-C , 11-O ) :   0.9755 B(  3-C ,  4-H ) :   0.8245 B(  3-C ,  5-C ) :   1.0986
B(  3-C , 15-O ) :   1.0266 B(  5-C ,  6-H ) :   0.8668 B(  5-C ,  7-C ) :   0.9583
B(  5-C , 14-O ) :   1.0782 B(  7-C ,  8-H ) :   0.8721 B(  7-C ,  9-C ) :   1.0540
B(  7-C , 13-O ) :   1.0515 B(  9-C , 10-H ) :   0.8932 B(  9-C , 11-O ) :   1.0723
B(  9-C , 12-O ) :   1.1408 B( 12-O , 19-H ) :   0.8407 B( 13-O , 20-H ) :   0.8476
B( 14-O , 21-H ) :   0.8465 B( 15-O , 22-H ) :   0.8364 B( 16-O , 23-H ) :   0.8235

Dispersion correction           -0.024569358
FINAL SINGLE POINT ENERGY      -685.690754814770

DIPOLE MOMENT
-------------

Method             : SCF
Type of density    : Electron Density
Multiplicity       :   1
Irrep              :   0
Energy             :  -685.8210579731650114 Eh
Relativity type    :
Basis              : AO
                                X                 Y                 Z
Electronic contribution:      1.107071153      -0.083943595      -0.009277027
Nuclear contribution   :      0.430723666       1.111410420      -0.343564361
                        -----------------------------------------
Total Dipole Moment    :      1.537794820       1.027466825      -0.352841389
                        -----------------------------------------
Magnitude (a.u.)       :      1.882816515
Magnitude (Debye)      :      4.785739252

Rotational constants in cm-1:             0.041711             0.025388             0.021072
Rotational constants in MHz :          1250.458409           761.119881           631.715006

                             ****ORCA TERMINATED NORMALLY****
TOTAL RUN TIME: 0 days 0 hours 0 minutes 12 seconds 181 msec
