                         Program Version 6.0.0  -   RELEASE  -
|  1> ! pbe def2-sv(p) def2/J RI DEFGRID1 loosescf d4 GCP(DFT/SV(P)) printgap
|  2> %output
|  3>     printlevel normal
|  4> end
|  5> * xyz 0 1
|  6> C -2.1016995838 -1.2221101326 -0.164547575
|  7> C -1.2349544366 -0.3680515256 0.7845090655
|  8> H -1.8098930952 -0.2247203856 1.7054504116
|  9> C -0.9137437681 1.0062642092 0.1619270966
| 10> H -1.196457014 0.9968863902 -0.8977424088
| 11> C 0.5914442447 1.2874503586 0.2514816713
| 12> H 0.892291323 1.3691802893 1.3099812688
| 13> C 1.3523172597 0.1198195519 -0.3822687253
| 14> H 1.0300759196 0.0185106904 -1.4293244441
| 15> C 1.0182191041 -1.1781511403 0.3710732335
| 16> H 1.8689538949 -1.4099086017 1.0256292969
| 17> O -0.0669599931 -1.0454529099 1.2521133721
| 18> O 0.8151093394 -2.1964268233 -0.562653304
| 19> O 2.7416450746 0.3027406681 -0.3156265677
| 20> O 0.9391657546 2.4632359929 -0.4372574279
| 21> O -1.6558708006 2.0552997101 0.7312776012
| 22> O -1.6350396788 -1.2723171582 -1.4882755861
| 23> H -3.091501628 -0.7637019698 -0.2164703112
| 24> H -2.1941915601 -2.2294895095 0.2589184275
| 25> H 0.867250279 -3.0647078029 -0.133652151
| 26> H 2.9492369903 1.1729941328 -0.6910137135
| 27> H 0.2483355028 3.1264516062 -0.2851114632
| 28> H -1.5052062105 2.087321074 1.6881201918
| 29> H -0.7704070102 -1.7255474511 -1.4925217613
| 30> *
| 31>
| 32>                          ****END OF INPUT****

CARTESIAN COORDINATES (ANGSTROEM)
---------------------------------
  C     -2.101700   -1.222110   -0.164548
  C     -1.234954   -0.368052    0.784509
  H     -1.809893   -0.224720    1.705450
  C     -0.913744    1.006264    0.161927
  H     -1.196457    0.996886   -0.897742
  C      0.591444    1.287450    0.251482
  H      0.892291    1.369180    1.309981
  C      1.352317    0.119820   -0.382269
  H      1.030076    0.018511   -1.429324
  C      1.018219   -1.178151    0.371073
  H      1.868954   -1.409909    1.025629
  O     -0.066960   -1.045453    1.252113
  O      0.815109   -2.196427   -0.562653
  O      2.741645    0.302741   -0.315627
  O      0.939166    2.463236   -0.437257
  O     -1.655871    2.055300    0.731278
  O     -1.635040   -1.272317   -1.488276
  H     -3.091502   -0.763702   -0.216470
  H     -2.194192   -2.229490    0.258918
  H      0.867250   -3.064708   -0.133652
  H      2.949237    1.172994   -0.691014
  H      0.248336    3.126452   -0.285111
  H     -1.505206    2.087321    1.688120
  H     -0.770407   -1.725547   -1.492522

 Total Charge           Charge          ....    0
 Multiplicity           Mult            ....    1
 Number of Electrons    NEL             ....   96
 Basis Dimension        Dim             ....  192

ORBITAL ENERGIES
----------------

  NO   OCC          E(Eh)            E(eV)
   0   2.0000     -18.787717      -511.2398
   1   2.0000     -18.773454      -510.8516
   2   2.0000     -18.766028      -510.6496
   3   2.0000     -18.755582      -510.3653
   4   2.0000     -18.749719      -510.2058
   5   2.0000     -18.737786      -509.8811
   6   2.0000      -9.995285      -271.9855
   7   2.0000      -9.947894      -270.6960
   8   2.0000      -9.944078      -270.5921
   9   2.0000      -9.943453      -270.5751
  10   2.0000      -9.941911      -270.5331
  11   2.0000      -9.930857      -270.2324
  12   2.0000      -0.992084       -26.9960
  13   2.0000      -0.952435       -25.9171
  14   2.0000      -0.935484       -25.4558
  15   2.0000      -0.926369       -25.2078
  16   2.0000      -0.916345       -24.9350
  17   2.0000      -0.912861       -24.8402
  18   2.0000      -0.704753       -19.1773
  19   2.0000      -0.697963       -18.9925
  20   2.0000      -0.623991       -16.9797
  21   2.0000      -0.589901       -16.0520
  22   2.0000      -0.572639       -15.5823
  23   2.0000      -0.524240       -14.2653
  24   2.0000      -0.512443       -13.9443
  25   2.0000      -0.491891       -13.3850
  26   2.0000      -0.484359       -13.1801
  27   2.0000      -0.458526       -12.4771
  28   2.0000      -0.437865       -11.9149
  29   2.0000      -0.436497       -11.8777
  30   2.0000      -0.419337       -11.4107
  31   2.0000      -0.399168       -10.8619
  32   2.0000      -0.391890       -10.6639
  33   2.0000      -0.382795       -10.4164
  34   2.0000      -0.361734        -9.8433
  35   2.0000      -0.353682        -9.6242
  36   2.0000      -0.336964        -9.1692
  37   2.0000      -0.317939        -8.6516
  38   2.0000      -0.305669        -8.3177
  39   2.0000      -0.298337        -8.1182
  40   2.0000      -0.285646        -7.7728
  41   2.0000      -0.276178        -7.5152
  42   2.0000      -0.255280        -6.9465
  43   2.0000      -0.252407        -6.8684
  44   2.0000      -0.244913        -6.6644
  45   2.0000      -0.222424        -6.0525
  46   2.0000      -0.218105        -5.9349
  47   2.0000      -0.201869        -5.4931
  48   0.0000       0.010982         0.2988
  49   0.0000       0.014961         0.4071
  50   0.0000       0.033531         0.9124
  51   0.0000       0.056527         1.5382
  52   0.0000       0.062595         1.7033

MULLIKEN ATOMIC CHARGES
-----------------------
   0 C :    0.030342
   1 C :    0.039972
   2 H :    0.057558
   3 C :    0.016877
   4 H :    0.090359
   5 C :    0.062013
   6 H :    0.041649
   7 C :    0.032200
   8 H :    0.066999
   9 C :    0.194827
  10 H :    0.081690
  11 O :   -0.310057
  12 O :   -0.400956
  13 O :   -0.417945
  14 O :   -0.426812
  15 O :   -0.416151
  16 O :   -0.445702
  17 H :    0.093297
  18 H :    0.072015
  19 H :    0.315516
  20 H :    0.312253
  21 H :    0.305964
  22 H :    0.299340
  23 H :    0.304757
Sum of atomic charges:    0.0000000

LOEWDIN ATOMIC CHARGES
----------------------
   0 C :   -0.133372
   1 C :   -0.076943
   2 H :    0.117149
   3 C :   -0.086372
   4 H :    0.124705
   5 C :   -0.084739
   6 H :    0.097520
   7 C :   -0.075454
   8 H :    0.110485
   9 C :    0.001000
  10 H :    0.112714
  11 O :   -0.149600
  12 O :   -0.294825
  13 O :   -0.316519
  14 O :   -0.327035
  15 O :   -0.309977
  16 O :   -0.346223
  17 H :    0.120155
  18 H :    0.098006
  19 H :    0.294332
  20 H :    0.290312
  21 H :    0.285868
  22 H :    0.282798
  23 H :    0.266013

  Mayer bond orders larger than 0.100000
B(  0-C ,  1-C ) :   1.0304 B(  0-C , 16-O ) :   1.1034 B(  0-C , 17-H ) :   0.9188
B(  0-C , 18-H ) :   0.9117 B(  1-C ,  2-H ) :   0.8820 B(  1-C ,  3-C ) :   0.9691
B(  1-C , 11-O ) :   1.0104 B(  3-C ,  4-H ) :   0.8625 B(  3-C ,  5-C ) :   1.0176
B(  3-C , 15-O ) :   1.0130 B(  5-C ,  6-H ) :   0.8640 B(  5-C ,  7-C ) :   1.0160
B(  5-C , 14-O ) :   1.0869 B(  7-C ,  8-H ) :   0.8779 B(  7-C ,  9-C ) :   1.0012
B(  7-C , 13-O ) :   1.0836 B(  9-C , 10-H ) :   0.8864 B(  9-C , 11-O ) :   1.0789
B(  9-C , 12-O ) :   1.0736 B( 12-O , 19-H ) :   0.8340 B( 12-O , 23-H ) :   0.1120
B( 13-O , 20-H ) :   0.8361 B( 14-O , 21-H ) :   0.8276 B( 15-O , 22-H ) :   0.8474
B( 16-O , 23-H ) :   0.7889

Dispersion correction           -0.025193413
FINAL SINGLE POINT ENERGY      -685.701758592051

DIPOLE MOMENT
-------------

Method             : SCF
Type of density    : Electron Density
Multiplicity       :   1
Irrep              :   0
Energy             :  -685.8342567399043901 Eh
Relativity type    :
Basis              : AO
                                X                 Y                 Z
Electronic contribution:      2.532947930       0.418774291       0.161138399
Nuclear contribution   :     -2.527000477      -0.602194977       0.778032167
                        -----------------------------------------
Total Dipole Moment    :      0.005947454      -0.183420686       0.939170566
                        -----------------------------------------
Magnitude (a.u.)       :      0.956932533
Magnitude (Debye)      :      2.432329198

Rotational constants in cm-1:             0.036044             0.032495             0.021349
Rotational constants in MHz :          1080.583678           974.175988           640.022742

                             ****ORCA TERMINATED NORMALLY****
TOTAL RUN TIME: 0 days 0 hours 0 minutes 12 seconds 562 msec
