                         Program Version 6.0.0  -   RELEASE  -
|  1> ! pbe def2-sv(p) def2/J RI DEFGRID1 loosescf d4 GCP(DFT/SV(P)) printgap
|  2> %output
|  3>     printlevel normal
|  4> end
|  5> * xyz 0 1
|  6> C -2.2869346203 -1.0859509848 -0.0011741114
|  7> C -0.8973390174 -0.5217576966 0.3159554163
|  8> H -0.8870316912 -0.249322572 1.3806579998
|  9> C -0.5469733886 0.7131289417 -0.5212821969
| 10> H -0.4464396304 0.3878680091 -1.5702171879
| 11> C 0.8084252533 1.2873059735 -0.0549434764
| 12> H 0.6072640035 2.0332325416 0.7223875031
| 13> C 1.7092778663 0.1806131148 0.5404313695
| 14> H 2.7515652475 0.419929854 0.2848467802
| 15> C 1.3751650627 -1.1563727394 -0.1315405247
| 16> H 1.9916228388 -1.9526501849 0.3122491995
| 17> O 0.0483386509 -1.5609081849 0.0782512189
| 18> O 1.6563439599 -1.0058987732 -1.4930295865
| 19> O 1.5554596559 0.0149366021 1.9244727575
| 20> O 1.4618095302 1.9774881755 -1.0911163411
| 21> O -1.581331464 1.6548698767 -0.4046768396
| 22> O -3.1951265354 -0.6134938992 0.9625886091
| 23> H -2.2067318257 -2.1805090081 0.0397985771
| 24> H -2.5886514334 -0.7807923293 -1.0092157579
| 25> H 1.5121425113 -1.8476971488 -1.9521612973
| 26> H 1.9210025127 0.7828313145 2.3884403318
| 27> H 1.7195468877 1.3401006708 -1.7753549486
| 28> H -1.341865605 2.4464086067 -0.9096907566
| 29> H -4.0932087838 -0.8645317097 0.7043615266
| 30> *
| 31>
| 32>                          ****END OF INPUT****

CARTESIAN COORDINATES (ANGSTROEM)
---------------------------------
  C     -2.286935   -1.085951   -0.001174
  C     -0.897339   -0.521758    0.315955
  H     -0.887032   -0.249323    1.380658
  C     -0.546973    0.713129   -0.521282
  H     -0.446440    0.387868   -1.570217
  C      0.808425    1.287306   -0.054943
  H      0.607264    2.033233    0.722388
  C      1.709278    0.180613    0.540431
  H      2.751565    0.419930    0.284847
  C      1.375165   -1.156373   -0.131541
  H      1.991623   -1.952650    0.312249
  O      0.048339   -1.560908    0.078251
  O      1.656344   -1.005899   -1.493030
  O      1.555460    0.014937    1.924473
  O      1.461810    1.977488   -1.091116
  O     -1.581331    1.654870   -0.404677
  O     -3.195127   -0.613494    0.962589
  H     -2.206732   -2.180509    0.039799
  H     -2.588651   -0.780792   -1.009216
  H      1.512143   -1.847697   -1.952161
  H      1.921003    0.782831    2.388440
  H      1.719547    1.340101   -1.775355
  H     -1.341866    2.446409   -0.909691
  H     -4.093209   -0.864532    0.704362

 Total Charge           Charge          ....    0
 Multiplicity           Mult            ....    1
 Number of Electrons    NEL             ....   96
 Basis Dimension        Dim             ....  192

ORBITAL ENERGIES
----------------

  NO   OCC          E(Eh)            E(eV)
   0   2.0000     -18.773745      -510.8596
   1   2.0000     -18.763730      -510.5870
   2   2.0000     -18.759788      -510.4798
   3   2.0000     -18.745267      -510.0846
   4   2.0000     -18.743651      -510.0407
   5   2.0000     -18.735612      -509.8219
   6   2.0000      -9.987716      -271.7796
   7   2.0000      -9.944130      -270.5935
   8   2.0000      -9.935510      -270.3590
   9   2.0000      -9.932564      -270.2788
  10   2.0000      -9.930755      -270.2296
  11   2.0000      -9.920586      -269.9529
  12   2.0000      -0.982722       -26.7412
  13   2.0000      -0.938531       -25.5387
  14   2.0000      -0.929735       -25.2994
  15   2.0000      -0.921205       -25.0673
  16   2.0000      -0.910842       -24.7853
  17   2.0000      -0.908377       -24.7182
  18   2.0000      -0.695483       -18.9251
  19   2.0000      -0.689830       -18.7712
  20   2.0000      -0.615922       -16.7601
  21   2.0000      -0.579658       -15.7733
  22   2.0000      -0.557102       -15.1595
  23   2.0000      -0.523629       -14.2487
  24   2.0000      -0.498743       -13.5715
  25   2.0000      -0.479173       -13.0390
  26   2.0000      -0.472089       -12.8462
  27   2.0000      -0.448349       -12.2002
  28   2.0000      -0.443871       -12.0783
  29   2.0000      -0.436111       -11.8672
  30   2.0000      -0.414930       -11.2908
  31   2.0000      -0.383487       -10.4352
  32   2.0000      -0.375317       -10.2129
  33   2.0000      -0.365224        -9.9382
  34   2.0000      -0.356802        -9.7091
  35   2.0000      -0.351288        -9.5590
  36   2.0000      -0.334567        -9.1040
  37   2.0000      -0.313375        -8.5274
  38   2.0000      -0.297132        -8.0854
  39   2.0000      -0.291220        -7.9245
  40   2.0000      -0.278265        -7.5720
  41   2.0000      -0.257090        -6.9958
  42   2.0000      -0.244940        -6.6652
  43   2.0000      -0.243317        -6.6210
  44   2.0000      -0.228620        -6.2211
  45   2.0000      -0.217342        -5.9142
  46   2.0000      -0.202932        -5.5221
  47   2.0000      -0.195171        -5.3109
  48   0.0000       0.012497         0.3401
  49   0.0000       0.025480         0.6933
  50   0.0000       0.033632         0.9152
  51   0.0000       0.047247         1.2857
  52   0.0000       0.062694         1.7060

MULLIKEN ATOMIC CHARGES
-----------------------
   0 C :    0.081853
   1 C :    0.039797
   2 H :    0.082731
   3 C :    0.057475
   4 H :    0.032416
   5 C :    0.078505
   6 H :    0.049798
   7 C :   -0.001416
   8 H :    0.071718
   9 C :    0.177452
  10 H :    0.069102
  11 O :   -0.313377
  12 O :   -0.404967
  13 O :   -0.405695
  14 O :   -0.435389
  15 O :   -0.404134
  16 O :   -0.430881
  17 H :    0.070165
  18 H :    0.060893
  19 H :    0.308848
  20 H :    0.309646
  21 H :    0.304555
  22 H :    0.304031
  23 H :    0.296872
Sum of atomic charges:   -0.0000000

LOEWDIN ATOMIC CHARGES
----------------------
   0 C :   -0.121010
   1 C :   -0.051537
   2 H :    0.118139
   3 C :   -0.082058
   4 H :    0.095624
   5 C :   -0.081334
   6 H :    0.113769
   7 C :   -0.090974
   8 H :    0.108498
   9 C :    0.002382
  10 H :    0.101111
  11 O :   -0.141268
  12 O :   -0.317634
  13 O :   -0.306850
  14 O :   -0.322637
  15 O :   -0.314570
  16 O :   -0.337749
  17 H :    0.097186
  18 H :    0.096825
  19 H :    0.289856
  20 H :    0.292384
  21 H :    0.279057
  22 H :    0.287882
  23 H :    0.284907

  Mayer bond orders larger than 0.100000
B(  0-C ,  1-C ) :   1.0281 B(  0-C , 16-O ) :   1.1008 B(  0-C , 17-H ) :   0.9138
B(  0-C , 18-H ) :   0.9079 B(  1-C ,  2-H ) :   0.8763 B(  1-C ,  3-C ) :   1.0909
B(  1-C , 11-O ) :   0.9856 B(  3-C ,  4-H ) :   0.8304 B(  3-C ,  5-C ) :   1.0398
B(  3-C , 15-O ) :   1.0837 B(  5-C ,  6-H ) :   0.8545 B(  5-C ,  7-C ) :   0.9753
B(  5-C , 14-O ) :   1.0300 B(  7-C ,  8-H ) :   0.8835 B(  7-C ,  9-C ) :   1.0395
B(  7-C , 13-O ) :   1.0512 B(  9-C , 10-H ) :   0.8935 B(  9-C , 11-O ) :   1.0839
B(  9-C , 12-O ) :   1.1022 B( 12-O , 19-H ) :   0.8384 B( 13-O , 20-H ) :   0.8461
B( 14-O , 21-H ) :   0.8360 B( 15-O , 22-H ) :   0.8447 B( 16-O , 23-H ) :   0.8518

Dispersion correction           -0.024615967
FINAL SINGLE POINT ENERGY      -685.685662800663

DIPOLE MOMENT
-------------

Method             : SCF
Type of density    : Electron Density
Multiplicity       :   1
Irrep              :   0
Energy             :  -685.8155420369711237 Eh
Relativity type    :
Basis              : AO
                                X                 Y                 Z
Electronic contribution:      1.340681649       0.153437489       0.531018324
Nuclear contribution   :     -0.996004240      -0.429454627      -1.298680070
                        -----------------------------------------
Total Dipole Moment    :      0.344677408      -0.276017137      -0.767661746
                        -----------------------------------------
Magnitude (a.u.)       :      0.885602920
Magnitude (Debye)      :      2.251023731

Rotational constants in cm-1:             0.042178             0.025018             0.021534
Rotational constants in MHz :          1264.479617           750.008481           645.568080

                             ****ORCA TERMINATED NORMALLY****
TOTAL RUN TIME: 0 days 0 hours 0 minutes 11 seconds 905 msec
