                         Program Version 6.0.0  -   RELEASE  -
|  1> ! pbe def2-sv(p) def2/J RI DEFGRID1 loosescf d4 GCP(DFT/SV(P)) printgap
|  2> %output
|  3>     printlevel normal
|  4> end
|  5> * xyz 0 1
|  6> C -2.5349031353 0.4938962588 -1.2427235653
|  7> C -2.0278837181 0.4271274277 0.2040143966
|  8> H -2.9070616603 0.4751268275 0.8572900725
|  9> C -1.0750642197 1.5687238658 0.5502074933
| 10> C 0.2550880332 1.4877090823 -0.2060862596
| 11> C 0.7652850203 0.0421539788 -0.3555722125
| 12> H 0.4749610248 -0.337558733 -1.3409436798
| 13> C 0.0995605277 -0.8805580898 0.6816162674
| 14> C -1.3809993123 -0.9194633299 0.4427955183
| 15> O -2.0181816019 -1.9563711866 0.4208986015
| 16> C 2.2691304969 -0.070313812 -0.2599903842
| 17> C 2.9665994469 -0.6485500921 -1.2262799446
| 18> C 2.9383941335 0.4807128973 0.9641366528
| 19> H -1.7080049429 0.4626008137 -1.9462603772
| 20> H -3.1895947346 -0.3513889361 -1.4426295269
| 21> H -3.0910285641 1.4145153247 -1.3967576822
| 22> H -1.5587748411 2.5202967468 0.3265094899
| 23> H -0.8857321785 1.54583652 1.6248717415
| 24> H 0.1451759401 1.9247725751 -1.198756939
| 25> H 0.9861492413 2.0906766346 0.330209232
| 26> H 0.50637596 -1.891399708 0.6211646184
| 27> H 0.2706674365 -0.4992049318 1.6896592128
| 28> H 4.0367328468 -0.7545971575 -1.1695898764
| 29> H 2.5001315593 -1.0382754456 -2.1154707135
| 30> H 2.3381641439 0.3106020927 1.8536813257
| 31> H 3.9109497464 0.0169865413 1.1029979074
| 32> H 3.0941752265 1.5539229295 0.8600288377
| 33> *
| 34>
| 35>                          ****END OF INPUT****

CARTESIAN COORDINATES (ANGSTROEM)
---------------------------------
  C     -2.534903    0.493896   -1.242724
  C     -2.027884    0.427127    0.204014
  H     -2.907062    0.475127    0.857290
  C     -1.075064    1.568724    0.550207
  C      0.255088    1.487709   -0.206086
  C      0.765285    0.042154   -0.355572
  H      0.474961   -0.337559   -1.340944
  C      0.099561   -0.880558    0.681616
  C     -1.380999   -0.919463    0.442796
  O     -2.018182   -1.956371    0.420899
  C      2.269130   -0.070314   -0.259990
  C      2.966599   -0.648550   -1.226280
  C      2.938394    0.480713    0.964137
  H     -1.708005    0.462601   -1.946260
  H     -3.189595   -0.351389   -1.442630
  H     -3.091029    1.414515   -1.396758
  H     -1.558775    2.520297    0.326509
  H     -0.885732    1.545837    1.624872
  H      0.145176    1.924773   -1.198757
  H      0.986149    2.090677    0.330209
  H      0.506376   -1.891400    0.621165
  H      0.270667   -0.499205    1.689659
  H      4.036733   -0.754597   -1.169590
  H      2.500132   -1.038275   -2.115471
  H      2.338164    0.310602    1.853681
  H      3.910950    0.016987    1.102998
  H      3.094175    1.553923    0.860029

 Total Charge           Charge          ....    0
 Multiplicity           Mult            ....    1
 Number of Electrons    NEL             ....   84
 Basis Dimension        Dim             ....  186

ORBITAL ENERGIES
----------------

  NO   OCC          E(Eh)            E(eV)
   0   2.0000     -18.736978      -509.8591
   1   2.0000      -9.968690      -271.2619
   2   2.0000      -9.909189      -269.6427
   3   2.0000      -9.905068      -269.5306
   4   2.0000      -9.901936      -269.4454
   5   2.0000      -9.894589      -269.2454
   6   2.0000      -9.894157      -269.2337
   7   2.0000      -9.893935      -269.2277
   8   2.0000      -9.888423      -269.0777
   9   2.0000      -9.885814      -269.0067
  10   2.0000      -9.876759      -268.7603
  11   2.0000      -0.931803       -25.3556
  12   2.0000      -0.774502       -21.0753
  13   2.0000      -0.731028       -19.8923
  14   2.0000      -0.683299       -18.5935
  15   2.0000      -0.660712       -17.9789
  16   2.0000      -0.623471       -16.9655
  17   2.0000      -0.611482       -16.6393
  18   2.0000      -0.553941       -15.0735
  19   2.0000      -0.533167       -14.5082
  20   2.0000      -0.478343       -13.0164
  21   2.0000      -0.458519       -12.4769
  22   2.0000      -0.444960       -12.1080
  23   2.0000      -0.426577       -11.6078
  24   2.0000      -0.412166       -11.2156
  25   2.0000      -0.404081       -10.9956
  26   2.0000      -0.392626       -10.6839
  27   2.0000      -0.381140       -10.3713
  28   2.0000      -0.369808       -10.0630
  29   2.0000      -0.361276        -9.8308
  30   2.0000      -0.355832        -9.6827
  31   2.0000      -0.346600        -9.4315
  32   2.0000      -0.340002        -9.2519
  33   2.0000      -0.331738        -9.0271
  34   2.0000      -0.318886        -8.6773
  35   2.0000      -0.314024        -8.5450
  36   2.0000      -0.308909        -8.4058
  37   2.0000      -0.291479        -7.9316
  38   2.0000      -0.278118        -7.5680
  39   2.0000      -0.276634        -7.5276
  40   2.0000      -0.223268        -6.0754
  41   2.0000      -0.190100        -5.1729
  42   0.0000      -0.052592        -1.4311
  43   0.0000      -0.016411        -0.4466
  44   0.0000       0.022642         0.6161
  45   0.0000       0.035372         0.9625
  46   0.0000       0.054279         1.4770

MULLIKEN ATOMIC CHARGES
-----------------------
   0 C :   -0.255665
   1 C :   -0.171361
   2 H :    0.091743
   3 C :   -0.090394
   4 C :   -0.121533
   5 C :   -0.192779
   6 H :    0.068973
   7 C :   -0.063353
   8 C :    0.010112
   9 O :   -0.166127
  10 C :   -0.019065
  11 C :   -0.229876
  12 C :   -0.233217
  13 H :    0.108884
  14 H :    0.120683
  15 H :    0.105742
  16 H :    0.086146
  17 H :    0.075141
  18 H :    0.090882
  19 H :    0.084072
  20 H :    0.092637
  21 H :    0.101836
  22 H :    0.080856
  23 H :    0.087450
  24 H :    0.106569
  25 H :    0.106733
  26 H :    0.124913
Sum of atomic charges:    0.0000000

LOEWDIN ATOMIC CHARGES
----------------------
   0 C :   -0.319545
   1 C :   -0.175023
   2 H :    0.138408
   3 C :   -0.219932
   4 C :   -0.218062
   5 C :   -0.126305
   6 H :    0.122270
   7 C :   -0.231595
   8 C :    0.053849
   9 O :   -0.132829
  10 C :   -0.048790
  11 C :   -0.263013
  12 C :   -0.325987
  13 H :    0.118617
  14 H :    0.129010
  15 H :    0.121920
  16 H :    0.122128
  17 H :    0.117129
  18 H :    0.122657
  19 H :    0.122235
  20 H :    0.134250
  21 H :    0.137714
  22 H :    0.116858
  23 H :    0.117960
  24 H :    0.122286
  25 H :    0.130366
  26 H :    0.133425

  Mayer bond orders larger than 0.100000
B(  0-C ,  1-C ) :   1.0954 B(  0-C , 13-H ) :   0.9448 B(  0-C , 14-H ) :   0.9424
B(  0-C , 15-H ) :   0.9473 B(  1-C ,  2-H ) :   0.8699 B(  1-C ,  3-C ) :   1.1027
B(  1-C ,  8-C ) :   0.9193 B(  3-C ,  4-C ) :   1.1539 B(  3-C , 16-H ) :   0.9104
B(  3-C , 17-H ) :   0.8933 B(  4-C ,  5-C ) :   1.0581 B(  4-C , 18-H ) :   0.9140
B(  4-C , 19-H ) :   0.9009 B(  5-C ,  6-H ) :   0.8755 B(  5-C ,  7-C ) :   1.0976
B(  5-C , 10-C ) :   1.0178 B(  7-C ,  8-C ) :   1.0717 B(  7-C , 20-H ) :   0.8963
B(  7-C , 21-H ) :   0.8476 B(  8-C ,  9-O ) :   2.1824 B( 10-C , 11-C ) :   2.0395
B( 10-C , 12-C ) :   1.1073 B( 11-C , 22-H ) :   0.9070 B( 11-C , 23-H ) :   0.9084
B( 12-C , 24-H ) :   0.9322 B( 12-C , 25-H ) :   0.9346 B( 12-C , 26-H ) :   0.9191

Dispersion correction           -0.028811361
FINAL SINGLE POINT ENERGY      -464.823364914740

DIPOLE MOMENT
-------------

Method             : SCF
Type of density    : Electron Density
Multiplicity       :   1
Irrep              :   0
Energy             :  -464.9089597665279143 Eh
Relativity type    :
Basis              : AO
                                X                 Y                 Z
Electronic contribution:     -4.099298723      -5.918601115       1.345638180
Nuclear contribution   :      4.588935250       6.953680542      -1.254651009
                        -----------------------------------------
Total Dipole Moment    :      0.489636526       1.035079427       0.090987171
                        -----------------------------------------
Magnitude (a.u.)       :      1.148656613
Magnitude (Debye)      :      2.919653080

Rotational constants in cm-1:             0.062081             0.024346             0.021744
Rotational constants in MHz :          1861.146902           729.887124           651.862204

                             ****ORCA TERMINATED NORMALLY****
TOTAL RUN TIME: 0 days 0 hours 0 minutes 17 seconds 373 msec
