                         Program Version 6.0.0  -   RELEASE  -
|  1> ! pbe def2-sv(p) def2/J RI DEFGRID1 loosescf d4 GCP(DFT/SV(P)) printgap
|  2> %output
|  3>     printlevel normal
|  4> end
|  5> * xyz 0 1
|  6> C 0.741204435 0.0006477183 -0.0061237858
|  7> C 1.4456484805 0.8267873299 -0.8775939374
|  8> C 2.8396041857 0.8326026263 -0.8775828911
|  9> C 3.5327829455 0.0017526567 0.0027015519
| 10> C 2.8348480031 -0.8304507218 0.8779403107
| 11> C 1.4410375541 -0.8256826305 0.8690555876
| 12> Cl 0.5695178969 -1.8423632239 1.9380968961
| 13> Cl 3.6879213436 -1.8514172819 1.9568626679
| 14> Cl 5.2446957295 0.0033622893 0.0090758977
| 15> Cl 3.6988162279 1.8544774727 -1.9508050997
| 16> Cl 0.5800979956 1.8428853037 -1.9519735796
| 17> C -0.7411884341 0.0014602294 -0.0062283941
| 18> C -1.4415816367 0.8270787269 0.8692270158
| 19> C -2.8354264154 0.8302188686 0.8787171151
| 20> C -3.532736806 -0.0027739741 0.0038371553
| 21> C -2.8390247356 -0.8327911523 -0.876863448
| 22> C -1.4450823974 -0.8253103732 -0.8775163876
| 23> Cl -0.5787792301 -1.8405023768 -1.9522659555
| 24> Cl -3.6975070719 -1.8558224969 -1.949371579
| 25> Cl -5.2447379377 -0.0068079764 0.0114313403
| 26> Cl -3.6892542774 1.8501963017 1.9580777243
| 27> Cl -0.5707995338 1.8447929199 1.9377931334
| 28> *
| 29>
| 30>                          ****END OF INPUT****

CARTESIAN COORDINATES (ANGSTROEM)
---------------------------------
  C      0.741204    0.000648   -0.006124
  C      1.445648    0.826787   -0.877594
  C      2.839604    0.832603   -0.877583
  C      3.532783    0.001753    0.002702
  C      2.834848   -0.830451    0.877940
  C      1.441038   -0.825683    0.869056
  Cl     0.569518   -1.842363    1.938097
  Cl     3.687921   -1.851417    1.956863
  Cl     5.244696    0.003362    0.009076
  Cl     3.698816    1.854477   -1.950805
  Cl     0.580098    1.842885   -1.951974
  C     -0.741188    0.001460   -0.006228
  C     -1.441582    0.827079    0.869227
  C     -2.835426    0.830219    0.878717
  C     -3.532737   -0.002774    0.003837
  C     -2.839025   -0.832791   -0.876863
  C     -1.445082   -0.825310   -0.877516
  Cl    -0.578779   -1.840502   -1.952266
  Cl    -3.697507   -1.855822   -1.949372
  Cl    -5.244738   -0.006808    0.011431
  Cl    -3.689254    1.850196    1.958078
  Cl    -0.570800    1.844793    1.937793

 Total Charge           Charge          ....    0
 Multiplicity           Mult            ....    1
 Number of Electrons    NEL             ....  242
 Basis Dimension        Dim             ....  348

ORBITAL ENERGIES
----------------

  NO   OCC          E(Eh)            E(eV)
   0   2.0000    -100.667691     -2739.3071
   1   2.0000    -100.667689     -2739.3071
   2   2.0000    -100.667654     -2739.3061
   3   2.0000    -100.667650     -2739.3060
   4   2.0000    -100.667069     -2739.2902
   5   2.0000    -100.667062     -2739.2900
   6   2.0000    -100.665318     -2739.2426
   7   2.0000    -100.665311     -2739.2424
   8   2.0000    -100.665302     -2739.2421
   9   2.0000    -100.665299     -2739.2420
  10   2.0000      -9.989117      -271.8177
  11   2.0000      -9.989052      -271.8159
  12   2.0000      -9.989042      -271.8157
  13   2.0000      -9.989041      -271.8156
  14   2.0000      -9.989024      -271.8152
  15   2.0000      -9.988990      -271.8142
  16   2.0000      -9.984977      -271.7050
  17   2.0000      -9.984968      -271.7048
  18   2.0000      -9.984958      -271.7045
  19   2.0000      -9.984955      -271.7044
  20   2.0000      -9.956643      -270.9340
  21   2.0000      -9.956590      -270.9326
  22   2.0000      -9.203363      -250.4362
  23   2.0000      -9.203360      -250.4362
  24   2.0000      -9.203330      -250.4353
  25   2.0000      -9.203324      -250.4352
  26   2.0000      -9.202847      -250.4222
  27   2.0000      -9.202838      -250.4220
  28   2.0000      -9.201091      -250.3744
  29   2.0000      -9.201086      -250.3743
  30   2.0000      -9.201075      -250.3740
  31   2.0000      -9.201071      -250.3739
  32   2.0000      -7.034959      -191.4310
  33   2.0000      -7.034957      -191.4309
  34   2.0000      -7.034929      -191.4301
  35   2.0000      -7.034927      -191.4301
  36   2.0000      -7.034633      -191.4221
  37   2.0000      -7.034624      -191.4219
  38   2.0000      -7.032879      -191.3744
  39   2.0000      -7.032878      -191.3743
  40   2.0000      -7.032874      -191.3742
  41   2.0000      -7.032870      -191.3741
  42   2.0000      -7.023383      -191.1160
  43   2.0000      -7.023379      -191.1159
  44   2.0000      -7.023351      -191.1151
  45   2.0000      -7.023348      -191.1150
  46   2.0000      -7.022913      -191.1032
  47   2.0000      -7.022904      -191.1029
  48   2.0000      -7.022420      -191.0898
  49   2.0000      -7.022417      -191.0897
  50   2.0000      -7.022391      -191.0890
  51   2.0000      -7.022388      -191.0889
  52   2.0000      -7.021689      -191.0699
  53   2.0000      -7.021680      -191.0696
  54   2.0000      -7.021088      -191.0535
  55   2.0000      -7.021088      -191.0535
  56   2.0000      -7.021083      -191.0534
  57   2.0000      -7.021078      -191.0533
  58   2.0000      -7.019987      -191.0235
  59   2.0000      -7.019986      -191.0235
  60   2.0000      -7.019981      -191.0234
  61   2.0000      -7.019976      -191.0233
  62   2.0000      -0.890285       -24.2259
  63   2.0000      -0.880773       -23.9670
  64   2.0000      -0.846952       -23.0467
  65   2.0000      -0.846389       -23.0314
  66   2.0000      -0.843326       -22.9481
  67   2.0000      -0.826701       -22.4957
  68   2.0000      -0.803876       -21.8746
  69   2.0000      -0.803223       -21.8568
  70   2.0000      -0.792652       -21.5692
  71   2.0000      -0.788029       -21.4434
  72   2.0000      -0.764667       -20.8076
  73   2.0000      -0.759300       -20.6616
  74   2.0000      -0.710701       -19.3391
  75   2.0000      -0.664481       -18.0814
  76   2.0000      -0.664455       -18.0807
  77   2.0000      -0.661394       -17.9974
  78   2.0000      -0.596212       -16.2238
  79   2.0000      -0.566108       -15.4046
  80   2.0000      -0.565011       -15.3747
  81   2.0000      -0.554173       -15.0798
  82   2.0000      -0.508971       -13.8498
  83   2.0000      -0.506949       -13.7948
  84   2.0000      -0.496091       -13.4993
  85   2.0000      -0.476474       -12.9655
  86   2.0000      -0.448593       -12.2068
  87   2.0000      -0.439337       -11.9550
  88   2.0000      -0.428937       -11.6720
  89   2.0000      -0.428917       -11.6714
  90   2.0000      -0.428259       -11.6535
  91   2.0000      -0.423761       -11.5311
  92   2.0000      -0.423414       -11.5217
  93   2.0000      -0.407365       -11.0850
  94   2.0000      -0.392519       -10.6810
  95   2.0000      -0.391986       -10.6665
  96   2.0000      -0.381807       -10.3895
  97   2.0000      -0.373778       -10.1710
  98   2.0000      -0.363713        -9.8971
  99   2.0000      -0.352140        -9.5822
 100   2.0000      -0.351931        -9.5765
 101   2.0000      -0.322622        -8.7790
 102   2.0000      -0.312647        -8.5075
 103   2.0000      -0.310879        -8.4594
 104   2.0000      -0.308990        -8.4080
 105   2.0000      -0.308980        -8.4078
 106   2.0000      -0.307684        -8.3725
 107   2.0000      -0.307648        -8.3715
 108   2.0000      -0.306364        -8.3366
 109   2.0000      -0.296186        -8.0596
 110   2.0000      -0.295773        -8.0484
 111   2.0000      -0.285123        -7.7586
 112   2.0000      -0.284936        -7.7535
 113   2.0000      -0.281831        -7.6690
 114   2.0000      -0.281138        -7.6502
 115   2.0000      -0.264880        -7.2077
 116   2.0000      -0.264739        -7.2039
 117   2.0000      -0.236231        -6.4282
 118   2.0000      -0.234594        -6.3836
 119   2.0000      -0.229209        -6.2371
 120   2.0000      -0.227057        -6.1785
 121   0.0000      -0.082440        -2.2433
 122   0.0000      -0.078722        -2.1421
 123   0.0000      -0.078419        -2.1339
 124   0.0000      -0.073925        -2.0116
 125   0.0000      -0.068983        -1.8771

MULLIKEN ATOMIC CHARGES
-----------------------
   0 C :   -0.067959
   1 C :    0.040559
   2 C :    0.015268
   3 C :    0.003172
   4 C :    0.015381
   5 C :    0.040713
   6 Cl:   -0.011261
   7 Cl:   -0.009932
   8 Cl:   -0.004599
   9 Cl:   -0.009963
  10 Cl:   -0.011379
  11 C :   -0.067935
  12 C :    0.040617
  13 C :    0.015419
  14 C :    0.003173
  15 C :    0.015242
  16 C :    0.040632
  17 Cl:   -0.011377
  18 Cl:   -0.009939
  19 Cl:   -0.004622
  20 Cl:   -0.009939
  21 Cl:   -0.011271
Sum of atomic charges:    0.0000000

LOEWDIN ATOMIC CHARGES
----------------------
   0 C :   -0.084961
   1 C :   -0.147946
   2 C :   -0.182218
   3 C :   -0.173677
   4 C :   -0.182249
   5 C :   -0.147904
   6 Cl:    0.187385
   7 Cl:    0.179908
   8 Cl:    0.184509
   9 Cl:    0.179881
  10 Cl:    0.187274
  11 C :   -0.084959
  12 C :   -0.147934
  13 C :   -0.182224
  14 C :   -0.173638
  15 C :   -0.182264
  16 C :   -0.147908
  17 Cl:    0.187236
  18 Cl:    0.179971
  19 Cl:    0.184438
  20 Cl:    0.179868
  21 Cl:    0.187411

  Mayer bond orders larger than 0.100000
B(  0-C ,  1-C ) :   1.4007 B(  0-C ,  5-C ) :   1.4004 B(  0-C , 11-C ) :   1.0062
B(  1-C ,  2-C ) :   1.3793 B(  1-C , 10-Cl) :   1.1308 B(  2-C ,  3-C ) :   1.4029
B(  2-C ,  9-Cl) :   1.1209 B(  3-C ,  4-C ) :   1.4029 B(  3-C ,  8-Cl) :   1.1239
B(  4-C ,  5-C ) :   1.3797 B(  4-C ,  7-Cl) :   1.1209 B(  5-C ,  6-Cl) :   1.1306
B( 11-C , 12-C ) :   1.4004 B( 11-C , 16-C ) :   1.4008 B( 12-C , 13-C ) :   1.3796
B( 12-C , 21-Cl) :   1.1306 B( 13-C , 14-C ) :   1.4030 B( 13-C , 20-Cl) :   1.1209
B( 14-C , 15-C ) :   1.4029 B( 14-C , 19-Cl) :   1.1238 B( 15-C , 16-C ) :   1.3793
B( 15-C , 18-Cl) :   1.1209 B( 16-C , 17-Cl) :   1.1307

Dispersion correction           -0.063029565
FINAL SINGLE POINT ENERGY     -5055.070499589327

DIPOLE MOMENT
-------------

Method             : SCF
Type of density    : Electron Density
Multiplicity       :   1
Irrep              :   0
Energy             : -5055.0681358994734182 Eh
Relativity type    :
Basis              : AO
                                X                 Y                 Z
Electronic contribution:      0.000073396      -0.001697187       0.009512356
Nuclear contribution   :      0.000038733       0.001609399      -0.009290016
                        -----------------------------------------
Total Dipole Moment    :      0.000112129      -0.000087788       0.000222340
                        -----------------------------------------
Magnitude (a.u.)       :      0.000264035
Magnitude (Debye)      :      0.000671124

Rotational constants in cm-1:             0.007712             0.002924             0.002865
Rotational constants in MHz :           231.196674            87.648198            85.903759

                             ****ORCA TERMINATED NORMALLY****
TOTAL RUN TIME: 0 days 0 hours 0 minutes 19 seconds 661 msec
