                         Program Version 6.0.0  -   RELEASE  -
|  1> ! r2scan-3c def2/J RI DEFGRID2 scfconv6 printgap
|  2> %output
|  3>     printlevel normal
|  4> end
|  5> * xyz 0 1
|  6> C -1.1894734027 0.9204062881 1.0267411315
|  7> C -0.5102499232 0.2257462416 0.0357463345
|  8> C -1.223751425 -0.5794595113 -0.8511008182
|  9> C -2.6093570782 -0.6798721206 -0.7501543518
| 10> C -3.2873099385 0.0246334045 0.242814923
| 11> C -2.5674026931 0.8224079163 1.1308517815
| 12> Cl -3.3992215559 1.6877091114 2.3611437816
| 13> Cl -4.9973766033 -0.0984821394 0.3662295145
| 14> Cl -3.4857261118 -1.6731420376 -1.8458866954
| 15> Cl -0.3930086614 -1.4742501275 -2.0617393117
| 16> C 0.9611578663 0.3368216545 -0.082306827
| 17> C 1.548243353 1.0457801193 -1.1301640933
| 18> C 2.924457476 1.1480003826 -1.251589867
| 19> C 3.736328875 0.5297456125 -0.3137218633
| 20> C 3.1801379251 -0.186040066 0.7459656266
| 21> C 1.7938773535 -0.274123827 0.8530688701
| 22> Cl 1.0947375571 -1.1722630596 2.1423829781
| 23> Cl 4.1892740557 -0.9568750855 1.9066416592
| 24> Cl 5.4442553175 0.6446685313 -0.4574594248
| 25> Cl 0.53583407 1.8208494798 -2.2848615679
| 26> H -0.6430307344 1.5438406273 1.7152059106
| 27> H 3.3625284867 1.7012507075 -2.0655311058
| 28> *
| 29>
| 30>                          ****END OF INPUT****

CARTESIAN COORDINATES (ANGSTROEM)
---------------------------------
  C     -1.189473    0.920406    1.026741
  C     -0.510250    0.225746    0.035746
  C     -1.223751   -0.579460   -0.851101
  C     -2.609357   -0.679872   -0.750154
  C     -3.287310    0.024633    0.242815
  C     -2.567403    0.822408    1.130852
  Cl    -3.399222    1.687709    2.361144
  Cl    -4.997377   -0.098482    0.366230
  Cl    -3.485726   -1.673142   -1.845887
  Cl    -0.393009   -1.474250   -2.061739
  C      0.961158    0.336822   -0.082307
  C      1.548243    1.045780   -1.130164
  C      2.924457    1.148000   -1.251590
  C      3.736329    0.529746   -0.313722
  C      3.180138   -0.186040    0.745966
  C      1.793877   -0.274124    0.853069
  Cl     1.094738   -1.172263    2.142383
  Cl     4.189274   -0.956875    1.906642
  Cl     5.444255    0.644669   -0.457459
  Cl     0.535834    1.820849   -2.284862
  H     -0.643031    1.543841    1.715206
  H      3.362528    1.701251   -2.065531

 Total Charge           Charge          ....    0
 Multiplicity           Mult            ....    1
 Number of Electrons    NEL             ....  210
 Basis Dimension        Dim             ....  454

ORBITAL ENERGIES
----------------

  NO   OCC          E(Eh)            E(eV)
   0   2.0000    -101.248888     -2755.1223
   1   2.0000    -101.247792     -2755.0925
   2   2.0000    -101.246130     -2755.0473
   3   2.0000    -101.245954     -2755.0425
   4   2.0000    -101.244900     -2755.0138
   5   2.0000    -101.244715     -2755.0088
   6   2.0000    -101.244092     -2754.9918
   7   2.0000    -101.243196     -2754.9674
   8   2.0000     -10.143443      -276.0171
   9   2.0000     -10.141720      -275.9702
  10   2.0000     -10.140182      -275.9284
  11   2.0000     -10.139583      -275.9121
  12   2.0000     -10.139374      -275.9064
  13   2.0000     -10.137615      -275.8585
  14   2.0000     -10.135955      -275.8134
  15   2.0000     -10.134822      -275.7825
  16   2.0000     -10.099990      -274.8347
  17   2.0000     -10.097129      -274.7569
  18   2.0000     -10.084637      -274.4169
  19   2.0000     -10.081857      -274.3413
  20   2.0000      -9.404668      -255.9140
  21   2.0000      -9.403618      -255.8855
  22   2.0000      -9.401888      -255.8384
  23   2.0000      -9.401766      -255.8350
  24   2.0000      -9.400567      -255.8024
  25   2.0000      -9.400396      -255.7978
  26   2.0000      -9.399905      -255.7844
  27   2.0000      -9.399029      -255.7606
  28   2.0000      -7.151256      -194.5956
  29   2.0000      -7.150170      -194.5660
  30   2.0000      -7.148483      -194.5201
  31   2.0000      -7.148308      -194.5153
  32   2.0000      -7.147285      -194.4875
  33   2.0000      -7.147109      -194.4827
  34   2.0000      -7.146480      -194.4656
  35   2.0000      -7.145561      -194.4406
  36   2.0000      -7.141026      -194.3172
  37   2.0000      -7.139980      -194.2887
  38   2.0000      -7.139898      -194.2865
  39   2.0000      -7.139050      -194.2634
  40   2.0000      -7.138113      -194.2379
  41   2.0000      -7.138057      -194.2364
  42   2.0000      -7.137482      -194.2207
  43   2.0000      -7.137036      -194.2086
  44   2.0000      -7.136895      -194.2048
  45   2.0000      -7.136718      -194.2000
  46   2.0000      -7.136163      -194.1849
  47   2.0000      -7.135797      -194.1749
  48   2.0000      -7.135636      -194.1705
  49   2.0000      -7.135317      -194.1619
  50   2.0000      -7.135283      -194.1609
  51   2.0000      -7.134504      -194.1397
  52   2.0000      -0.935351       -25.4522
  53   2.0000      -0.925520       -25.1847
  54   2.0000      -0.888380       -24.1740
  55   2.0000      -0.878985       -23.9184
  56   2.0000      -0.876727       -23.8570
  57   2.0000      -0.858580       -23.3631
  58   2.0000      -0.838742       -22.8233
  59   2.0000      -0.829800       -22.5800
  60   2.0000      -0.815725       -22.1970
  61   2.0000      -0.803130       -21.8543
  62   2.0000      -0.760179       -20.6855
  63   2.0000      -0.724590       -19.7171
  64   2.0000      -0.717250       -19.5174
  65   2.0000      -0.702874       -19.1262
  66   2.0000      -0.630985       -17.1700
  67   2.0000      -0.608329       -16.5535
  68   2.0000      -0.606209       -16.4958
  69   2.0000      -0.582000       -15.8370
  70   2.0000      -0.523409       -14.2427
  71   2.0000      -0.522374       -14.2145
  72   2.0000      -0.511305       -13.9133
  73   2.0000      -0.499664       -13.5965
  74   2.0000      -0.473377       -12.8812
  75   2.0000      -0.460892       -12.5415
  76   2.0000      -0.446292       -12.1442
  77   2.0000      -0.444845       -12.1048
  78   2.0000      -0.443839       -12.0775
  79   2.0000      -0.436478       -11.8772
  80   2.0000      -0.434745       -11.8300
  81   2.0000      -0.418235       -11.3807
  82   2.0000      -0.401255       -10.9187
  83   2.0000      -0.397274       -10.8104
  84   2.0000      -0.389453       -10.5975
  85   2.0000      -0.381005       -10.3677
  86   2.0000      -0.372030       -10.1234
  87   2.0000      -0.367969       -10.0130
  88   2.0000      -0.354351        -9.6424
  89   2.0000      -0.333381        -9.0718
  90   2.0000      -0.328717        -8.9448
  91   2.0000      -0.326038        -8.8719
  92   2.0000      -0.324172        -8.8212
  93   2.0000      -0.320361        -8.7175
  94   2.0000      -0.318405        -8.6642
  95   2.0000      -0.310583        -8.4514
  96   2.0000      -0.307349        -8.3634
  97   2.0000      -0.303842        -8.2680
  98   2.0000      -0.301756        -8.2112
  99   2.0000      -0.289981        -7.8908
 100   2.0000      -0.284934        -7.7534
 101   2.0000      -0.260417        -7.0863
 102   2.0000      -0.249849        -6.7988
 103   2.0000      -0.245245        -6.6735
 104   2.0000      -0.241378        -6.5682
 105   0.0000      -0.089798        -2.4435
 106   0.0000      -0.081067        -2.2059
 107   0.0000      -0.073645        -2.0040
 108   0.0000      -0.068812        -1.8725
 109   0.0000      -0.065392        -1.7794

MULLIKEN ATOMIC CHARGES
-----------------------
   0 C :   -0.266061
   1 C :    0.100739
   2 C :    0.074028
   3 C :    0.015392
   4 C :    0.076254
   5 C :    0.106266
   6 Cl:   -0.088459
   7 Cl:   -0.062173
   8 Cl:   -0.062078
   9 Cl:   -0.064343
  10 C :    0.081729
  11 C :    0.198055
  12 C :   -0.410655
  13 C :    0.192657
  14 C :   -0.019155
  15 C :    0.064795
  16 Cl:   -0.059157
  17 Cl:   -0.064534
  18 Cl:   -0.081675
  19 Cl:   -0.087160
  20 H :    0.176314
  21 H :    0.179222
Sum of atomic charges:   -0.0000000

LOEWDIN ATOMIC CHARGES
----------------------
   0 C :   -0.136471
   1 C :   -0.096191
   2 C :   -0.167168
   3 C :   -0.187406
   4 C :   -0.190736
   5 C :   -0.178415
   6 Cl:    0.173302
   7 Cl:    0.187923
   8 Cl:    0.188735
   9 Cl:    0.201105
  10 C :   -0.105798
  11 C :   -0.146058
  12 C :   -0.171033
  13 C :   -0.171064
  14 C :   -0.198809
  15 C :   -0.150375
  16 Cl:    0.206104
  17 Cl:    0.183758
  18 Cl:    0.179468
  19 Cl:    0.192909
  20 H :    0.193207
  21 H :    0.193013

  Mayer bond orders larger than 0.100000
B(  0-C ,  1-C ) :   1.3762 B(  0-C ,  5-C ) :   1.3263 B(  0-C , 20-H ) :   0.9205
B(  1-C ,  2-C ) :   1.2765 B(  1-C ,  9-Cl) :  -0.1106 B(  1-C , 10-C ) :   0.7506
B(  1-C , 11-C ) :  -0.1181 B(  2-C ,  3-C ) :   1.0809 B(  2-C ,  9-Cl) :   1.2622
B(  3-C ,  4-C ) :   1.0996 B(  3-C ,  8-Cl) :   1.2808 B(  4-C ,  5-C ) :   1.2233
B(  4-C ,  7-Cl) :   1.2470 B(  5-C ,  6-Cl) :   1.0814 B( 10-C , 11-C ) :   1.3274
B( 10-C , 15-C ) :   1.2331 B( 11-C , 12-C ) :   1.2997 B( 11-C , 19-Cl) :   1.0245
B( 12-C , 13-C ) :   1.3080 B( 12-C , 21-H ) :   0.9189 B( 13-C , 14-C ) :   1.2239
B( 13-C , 18-Cl) :   1.0764 B( 14-C , 15-C ) :   1.0980 B( 14-C , 17-Cl) :   1.2480
B( 15-C , 16-Cl) :   1.2355

Dispersion correction           -0.017172174
FINAL SINGLE POINT ENERGY     -4139.795191129357

DIPOLE MOMENT
-------------

Method             : SCF
Type of density    : Electron Density
Multiplicity       :   1
Irrep              :   0
Energy             : -4139.7925519948985311 Eh
Relativity type    :
Basis              : AO
                                X                 Y                 Z
Electronic contribution:     -3.541263389      -4.319591810       0.426515879
Nuclear contribution   :      3.908657293       4.684364215      -0.498390943
                        -----------------------------------------
Total Dipole Moment    :      0.367393903       0.364772405      -0.071875064
                        -----------------------------------------
Magnitude (a.u.)       :      0.522688447
Magnitude (Debye)      :      1.328568449

Rotational constants in cm-1:             0.010428             0.003493             0.003161
Rotational constants in MHz :           312.622310           104.702907            94.760208

                             ****ORCA TERMINATED NORMALLY****
TOTAL RUN TIME: 0 days 0 hours 1 minutes 27 seconds 712 msec
