                         Program Version 6.0.0  -   RELEASE  -
|  1> ! r2scan-3c def2/J RI DEFGRID2 scfconv6 printgap
|  2> %output
|  3>     printlevel normal
|  4> end
|  5> %cpcm
|  6>     smd true
|  7>     smdsolvent "water"
|  8> end
|  9> * xyz 0 1
| 10> C -1.1894734027 0.9204062881 1.0267411315
| 11> C -0.5102499232 0.2257462416 0.0357463345
| 12> C -1.223751425 -0.5794595113 -0.8511008182
| 13> C -2.6093570782 -0.6798721206 -0.7501543518
| 14> C -3.2873099385 0.0246334045 0.242814923
| 15> C -2.5674026931 0.8224079163 1.1308517815
| 16> Cl -3.3992215559 1.6877091114 2.3611437816
| 17> Cl -4.9973766033 -0.0984821394 0.3662295145
| 18> Cl -3.4857261118 -1.6731420376 -1.8458866954
| 19> Cl -0.3930086614 -1.4742501275 -2.0617393117
| 20> C 0.9611578663 0.3368216545 -0.082306827
| 21> C 1.548243353 1.0457801193 -1.1301640933
| 22> C 2.924457476 1.1480003826 -1.251589867
| 23> C 3.736328875 0.5297456125 -0.3137218633
| 24> C 3.1801379251 -0.186040066 0.7459656266
| 25> C 1.7938773535 -0.274123827 0.8530688701
| 26> Cl 1.0947375571 -1.1722630596 2.1423829781
| 27> Cl 4.1892740557 -0.9568750855 1.9066416592
| 28> Cl 5.4442553175 0.6446685313 -0.4574594248
| 29> Cl 0.53583407 1.8208494798 -2.2848615679
| 30> H -0.6430307344 1.5438406273 1.7152059106
| 31> H 3.3625284867 1.7012507075 -2.0655311058
| 32> *
| 33>
| 34>                          ****END OF INPUT****

CARTESIAN COORDINATES (ANGSTROEM)
---------------------------------
  C     -1.189473    0.920406    1.026741
  C     -0.510250    0.225746    0.035746
  C     -1.223751   -0.579460   -0.851101
  C     -2.609357   -0.679872   -0.750154
  C     -3.287310    0.024633    0.242815
  C     -2.567403    0.822408    1.130852
  Cl    -3.399222    1.687709    2.361144
  Cl    -4.997377   -0.098482    0.366230
  Cl    -3.485726   -1.673142   -1.845887
  Cl    -0.393009   -1.474250   -2.061739
  C      0.961158    0.336822   -0.082307
  C      1.548243    1.045780   -1.130164
  C      2.924457    1.148000   -1.251590
  C      3.736329    0.529746   -0.313722
  C      3.180138   -0.186040    0.745966
  C      1.793877   -0.274124    0.853069
  Cl     1.094738   -1.172263    2.142383
  Cl     4.189274   -0.956875    1.906642
  Cl     5.444255    0.644669   -0.457459
  Cl     0.535834    1.820849   -2.284862
  H     -0.643031    1.543841    1.715206
  H      3.362528    1.701251   -2.065531

 Total Charge           Charge          ....    0
 Multiplicity           Mult            ....    1
 Number of Electrons    NEL             ....  210
 Basis Dimension        Dim             ....  454

ORBITAL ENERGIES
----------------

  NO   OCC          E(Eh)            E(eV)
   0   2.0000    -101.244225     -2754.9954
   1   2.0000    -101.244132     -2754.9929
   2   2.0000    -101.243608     -2754.9786
   3   2.0000    -101.242839     -2754.9577
   4   2.0000    -101.241969     -2754.9340
   5   2.0000    -101.241940     -2754.9333
   6   2.0000    -101.240324     -2754.8893
   7   2.0000    -101.239423     -2754.8647
   8   2.0000     -10.136115      -275.8177
   9   2.0000     -10.135562      -275.8027
  10   2.0000     -10.135516      -275.8014
  11   2.0000     -10.133140      -275.7368
  12   2.0000     -10.132216      -275.7116
  13   2.0000     -10.131255      -275.6855
  14   2.0000     -10.129228      -275.6303
  15   2.0000     -10.128521      -275.6111
  16   2.0000     -10.091878      -274.6140
  17   2.0000     -10.090350      -274.5724
  18   2.0000     -10.073082      -274.1025
  19   2.0000     -10.072557      -274.0882
  20   2.0000      -9.399987      -255.7866
  21   2.0000      -9.399905      -255.7844
  22   2.0000      -9.399462      -255.7724
  23   2.0000      -9.398585      -255.7485
  24   2.0000      -9.397885      -255.7295
  25   2.0000      -9.397832      -255.7280
  26   2.0000      -9.396242      -255.6847
  27   2.0000      -9.395437      -255.6628
  28   2.0000      -7.146605      -194.4690
  29   2.0000      -7.146525      -194.4668
  30   2.0000      -7.145983      -194.4521
  31   2.0000      -7.145191      -194.4305
  32   2.0000      -7.144358      -194.4079
  33   2.0000      -7.144336      -194.4073
  34   2.0000      -7.142695      -194.3626
  35   2.0000      -7.141789      -194.3380
  36   2.0000      -7.136327      -194.1893
  37   2.0000      -7.136229      -194.1867
  38   2.0000      -7.135813      -194.1753
  39   2.0000      -7.135286      -194.1610
  40   2.0000      -7.135217      -194.1591
  41   2.0000      -7.134897      -194.1504
  42   2.0000      -7.134835      -194.1487
  43   2.0000      -7.134196      -194.1313
  44   2.0000      -7.134120      -194.1293
  45   2.0000      -7.133924      -194.1239
  46   2.0000      -7.133347      -194.1082
  47   2.0000      -7.133270      -194.1061
  48   2.0000      -7.132535      -194.0862
  49   2.0000      -7.131740      -194.0645
  50   2.0000      -7.131704      -194.0635
  51   2.0000      -7.131042      -194.0455
  52   2.0000      -0.929468       -25.2921
  53   2.0000      -0.920014       -25.0348
  54   2.0000      -0.883800       -24.0494
  55   2.0000      -0.874254       -23.7897
  56   2.0000      -0.870133       -23.6775
  57   2.0000      -0.855171       -23.2704
  58   2.0000      -0.834055       -22.6958
  59   2.0000      -0.828456       -22.5434
  60   2.0000      -0.810971       -22.0677
  61   2.0000      -0.796259       -21.6673
  62   2.0000      -0.753823       -20.5126
  63   2.0000      -0.717258       -19.5176
  64   2.0000      -0.710834       -19.3428
  65   2.0000      -0.697157       -18.9706
  66   2.0000      -0.624405       -16.9909
  67   2.0000      -0.601159       -16.3584
  68   2.0000      -0.599112       -16.3027
  69   2.0000      -0.575940       -15.6721
  70   2.0000      -0.516879       -14.0650
  71   2.0000      -0.515214       -14.0197
  72   2.0000      -0.504644       -13.7321
  73   2.0000      -0.493950       -13.4410
  74   2.0000      -0.467841       -12.7306
  75   2.0000      -0.455195       -12.3865
  76   2.0000      -0.440290       -11.9809
  77   2.0000      -0.438874       -11.9424
  78   2.0000      -0.437980       -11.9181
  79   2.0000      -0.431017       -11.7286
  80   2.0000      -0.427300       -11.6274
  81   2.0000      -0.412390       -11.2217
  82   2.0000      -0.393656       -10.7119
  83   2.0000      -0.390116       -10.6156
  84   2.0000      -0.383010       -10.4222
  85   2.0000      -0.375981       -10.2310
  86   2.0000      -0.366538        -9.9740
  87   2.0000      -0.361646        -9.8409
  88   2.0000      -0.351338        -9.5604
  89   2.0000      -0.329855        -8.9758
  90   2.0000      -0.326407        -8.8820
  91   2.0000      -0.324117        -8.8197
  92   2.0000      -0.322891        -8.7863
  93   2.0000      -0.316974        -8.6253
  94   2.0000      -0.314535        -8.5589
  95   2.0000      -0.305243        -8.3061
  96   2.0000      -0.303341        -8.2543
  97   2.0000      -0.301496        -8.2041
  98   2.0000      -0.296051        -8.0560
  99   2.0000      -0.286083        -7.7847
 100   2.0000      -0.284216        -7.7339
 101   2.0000      -0.253925        -6.9097
 102   2.0000      -0.244021        -6.6401
 103   2.0000      -0.239608        -6.5201
 104   2.0000      -0.236442        -6.4339
 105   0.0000      -0.082679        -2.2498
 106   0.0000      -0.073138        -1.9902
 107   0.0000      -0.066863        -1.8194
 108   0.0000      -0.062125        -1.6905
 109   0.0000      -0.060550        -1.6477

MULLIKEN ATOMIC CHARGES
-----------------------
   0 C :   -0.253021
   1 C :    0.055865
   2 C :    0.081341
   3 C :    0.024392
   4 C :    0.092609
   5 C :    0.098488
   6 Cl:   -0.100535
   7 Cl:   -0.078869
   8 Cl:   -0.078418
   9 Cl:   -0.076878
  10 C :    0.129516
  11 C :    0.168263
  12 C :   -0.383341
  13 C :    0.176541
  14 C :   -0.008144
  15 C :    0.074823
  16 Cl:   -0.076126
  17 Cl:   -0.083244
  18 Cl:   -0.095340
  19 Cl:   -0.099286
  20 H :    0.216158
  21 H :    0.215207
Sum of atomic charges:   -0.0000000

LOEWDIN ATOMIC CHARGES
----------------------
   0 C :   -0.124225
   1 C :   -0.093804
   2 C :   -0.166718
   3 C :   -0.186771
   4 C :   -0.188760
   5 C :   -0.177266
   6 Cl:    0.165275
   7 Cl:    0.177083
   8 Cl:    0.177837
   9 Cl:    0.192809
  10 C :   -0.098380
  11 C :   -0.145138
  12 C :   -0.158370
  13 C :   -0.169717
  14 C :   -0.196500
  15 C :   -0.147291
  16 Cl:    0.197541
  17 Cl:    0.171621
  18 Cl:    0.170664
  19 Cl:    0.185329
  20 H :    0.208205
  21 H :    0.206577

  Mayer bond orders larger than 0.100000
B(  0-C ,  1-C ) :   1.4176 B(  0-C ,  5-C ) :   1.3114 B(  0-C , 20-H ) :   0.9117
B(  1-C ,  2-C ) :   1.2516 B(  1-C ,  9-Cl) :  -0.1002 B(  1-C , 10-C ) :   0.7500
B(  1-C , 11-C ) :  -0.1146 B(  2-C ,  3-C ) :   1.0819 B(  2-C ,  9-Cl) :   1.2507
B(  3-C ,  4-C ) :   1.1057 B(  3-C ,  8-Cl) :   1.2621 B(  4-C ,  5-C ) :   1.2149
B(  4-C ,  7-Cl) :   1.2270 B(  5-C ,  6-Cl) :   1.0860 B( 10-C , 11-C ) :   1.3181
B( 10-C , 15-C ) :   1.2400 B( 11-C , 12-C ) :   1.3185 B( 11-C , 19-Cl) :   1.0236
B( 12-C , 13-C ) :   1.3272 B( 12-C , 21-H ) :   0.8993 B( 13-C , 14-C ) :   1.2168
B( 13-C , 18-Cl) :   1.0756 B( 14-C , 15-C ) :   1.1036 B( 14-C , 17-Cl) :   1.2235
B( 15-C , 16-Cl) :   1.2096

Dispersion correction           -0.017172174
FINAL SINGLE POINT ENERGY     -4139.794432239131

DIPOLE MOMENT
-------------

Method             : SCF
Type of density    : Electron Density
Multiplicity       :   1
Irrep              :   0
Energy             : -4139.7917931046731610 Eh
Relativity type    :
Basis              : AO
                                X                 Y                 Z
Electronic contribution:     -3.325345600      -4.003493637       0.424890192
Nuclear contribution   :      3.908657293       4.684364215      -0.498390943
                        -----------------------------------------
Total Dipole Moment    :      0.583311693       0.680870578      -0.073500752
                        -----------------------------------------
Magnitude (a.u.)       :      0.899577476
Magnitude (Debye)      :      2.286544229

Rotational constants in cm-1:             0.010428             0.003493             0.003161
Rotational constants in MHz :           312.622310           104.702907            94.760208

                             ****ORCA TERMINATED NORMALLY****
TOTAL RUN TIME: 0 days 0 hours 1 minutes 52 seconds 458 msec
