                         Program Version 6.0.0  -   RELEASE  -
|  1> ! pbe def2-sv(p) def2/J RI DEFGRID1 loosescf d4 GCP(DFT/SV(P)) printgap
|  2> %output
|  3>     printlevel normal
|  4> end
|  5> * xyz 0 1
|  6> C -3.4022510435 0.528888439 0.0324120216
|  7> C -1.922135896 0.4839975087 0.3957228691
|  8> H -1.8005745313 0.7196519444 1.4582754527
|  9> C -1.1051803724 1.4993928613 -0.4201114303
| 10> C 0.3734786603 1.4403740089 -0.0576074946
| 11> C 0.9341176512 0.0379357425 -0.3077081699
| 12> H 0.7946660109 -0.2036737047 -1.3668847059
| 13> C 0.1322707284 -0.988440829 0.5144717814
| 14> C -1.3288676408 -0.8878740214 0.1700074936
| 15> O -1.9613100569 -1.8230782586 -0.2801342908
| 16> C 2.4124679242 -0.0376577566 0.0105097023
| 17> C 2.8872361045 0.1442761959 1.2325588474
| 18> C 3.3042102628 -0.3180013337 -1.1590539398
| 19> H -3.8091176632 1.51866404 0.2192084475
| 20> H -3.5384864489 0.2830484939 -1.0183741147
| 21> H -3.9563715698 -0.199328556 0.6197909009
| 22> H -1.2346458646 1.2822895313 -1.4829964361
| 23> H -1.4976359635 2.4997689085 -0.2328921218
| 24> H 0.9277207837 2.162488679 -0.6594388265
| 25> H 0.5093019043 1.7057196877 0.9916399758
| 26> H 0.4855733226 -2.0005961327 0.3107187535
| 27> H 0.2597119509 -0.7784729502 1.5766018483
| 28> H 3.942206303 0.0978369411 1.4400759655
| 29> H 2.2520222337 0.3463193185 2.0775571257
| 30> H 3.1716457015 0.4473306279 -1.9225791932
| 31> H 4.3483556344 -0.3396844345 -0.8605909931
| 32> H 3.0453094827 -1.2783038519 -1.6034931854
| 33> *
| 34>
| 35>                          ****END OF INPUT****

CARTESIAN COORDINATES (ANGSTROEM)
---------------------------------
  C     -3.402251    0.528888    0.032412
  C     -1.922136    0.483998    0.395723
  H     -1.800575    0.719652    1.458275
  C     -1.105180    1.499393   -0.420111
  C      0.373479    1.440374   -0.057607
  C      0.934118    0.037936   -0.307708
  H      0.794666   -0.203674   -1.366885
  C      0.132271   -0.988441    0.514472
  C     -1.328868   -0.887874    0.170007
  O     -1.961310   -1.823078   -0.280134
  C      2.412468   -0.037658    0.010510
  C      2.887236    0.144276    1.232559
  C      3.304210   -0.318001   -1.159054
  H     -3.809118    1.518664    0.219208
  H     -3.538486    0.283048   -1.018374
  H     -3.956372   -0.199329    0.619791
  H     -1.234646    1.282290   -1.482996
  H     -1.497636    2.499769   -0.232892
  H      0.927721    2.162489   -0.659439
  H      0.509302    1.705720    0.991640
  H      0.485573   -2.000596    0.310719
  H      0.259712   -0.778473    1.576602
  H      3.942206    0.097837    1.440076
  H      2.252022    0.346319    2.077557
  H      3.171646    0.447331   -1.922579
  H      4.348356   -0.339684   -0.860591
  H      3.045309   -1.278304   -1.603493

 Total Charge           Charge          ....    0
 Multiplicity           Mult            ....    1
 Number of Electrons    NEL             ....   84
 Basis Dimension        Dim             ....  186

ORBITAL ENERGIES
----------------

  NO   OCC          E(Eh)            E(eV)
   0   2.0000     -18.736355      -509.8421
   1   2.0000      -9.966558      -271.2038
   2   2.0000      -9.911758      -269.7127
   3   2.0000      -9.905366      -269.5387
   4   2.0000      -9.902396      -269.4579
   5   2.0000      -9.898472      -269.3511
   6   2.0000      -9.895850      -269.2798
   7   2.0000      -9.891478      -269.1608
   8   2.0000      -9.885905      -269.0091
   9   2.0000      -9.873034      -268.6589
  10   2.0000      -9.873008      -268.6582
  11   2.0000      -0.932982       -25.3877
  12   2.0000      -0.774768       -21.0825
  13   2.0000      -0.730722       -19.8840
  14   2.0000      -0.684614       -18.6293
  15   2.0000      -0.662110       -18.0169
  16   2.0000      -0.618988       -16.8435
  17   2.0000      -0.605090       -16.4653
  18   2.0000      -0.548205       -14.9174
  19   2.0000      -0.538671       -14.6580
  20   2.0000      -0.483804       -13.1650
  21   2.0000      -0.462066       -12.5735
  22   2.0000      -0.435416       -11.8483
  23   2.0000      -0.425546       -11.5797
  24   2.0000      -0.407566       -11.0904
  25   2.0000      -0.398822       -10.8525
  26   2.0000      -0.394358       -10.7310
  27   2.0000      -0.381367       -10.3775
  28   2.0000      -0.371867       -10.1190
  29   2.0000      -0.367709       -10.0059
  30   2.0000      -0.353408        -9.6167
  31   2.0000      -0.338116        -9.2006
  32   2.0000      -0.334889        -9.1128
  33   2.0000      -0.328835        -8.9480
  34   2.0000      -0.317290        -8.6339
  35   2.0000      -0.314062        -8.5461
  36   2.0000      -0.304623        -8.2892
  37   2.0000      -0.296873        -8.0783
  38   2.0000      -0.285206        -7.7608
  39   2.0000      -0.275983        -7.5099
  40   2.0000      -0.222305        -6.0492
  41   2.0000      -0.189934        -5.1684
  42   0.0000      -0.052554        -1.4301
  43   0.0000      -0.014943        -0.4066
  44   0.0000       0.031884         0.8676
  45   0.0000       0.039043         1.0624
  46   0.0000       0.050079         1.3627

MULLIKEN ATOMIC CHARGES
-----------------------
   0 C :   -0.190838
   1 C :   -0.205430
   2 H :    0.082995
   3 C :   -0.111355
   4 C :   -0.099952
   5 C :   -0.202067
   6 H :    0.062734
   7 C :   -0.033618
   8 C :    0.000666
   9 O :   -0.159349
  10 C :    0.000835
  11 C :   -0.254225
  12 C :   -0.214482
  13 H :    0.092070
  14 H :    0.100534
  15 H :    0.107161
  16 H :    0.080793
  17 H :    0.092477
  18 H :    0.089137
  19 H :    0.079401
  20 H :    0.086235
  21 H :    0.091391
  22 H :    0.086851
  23 H :    0.093934
  24 H :    0.111142
  25 H :    0.097695
  26 H :    0.115267
Sum of atomic charges:    0.0000000

LOEWDIN ATOMIC CHARGES
----------------------
   0 C :   -0.326341
   1 C :   -0.177345
   2 H :    0.131020
   3 C :   -0.208250
   4 C :   -0.210088
   5 C :   -0.126962
   6 H :    0.120162
   7 C :   -0.225387
   8 C :    0.051268
   9 O :   -0.125426
  10 C :   -0.047095
  11 C :   -0.264768
  12 C :   -0.321360
  13 H :    0.117337
  14 H :    0.123818
  15 H :    0.125263
  16 H :    0.119923
  17 H :    0.121600
  18 H :    0.122745
  19 H :    0.117703
  20 H :    0.129744
  21 H :    0.133057
  22 H :    0.120622
  23 H :    0.114969
  24 H :    0.128844
  25 H :    0.123946
  26 H :    0.131001

  Mayer bond orders larger than 0.100000
B(  0-C ,  1-C ) :   1.1215 B(  0-C , 13-H ) :   0.9447 B(  0-C , 14-H ) :   0.9440
B(  0-C , 15-H ) :   0.9460 B(  1-C ,  2-H ) :   0.8682 B(  1-C ,  3-C ) :   1.0781
B(  1-C ,  8-C ) :   0.9353 B(  3-C ,  4-C ) :   1.1281 B(  3-C , 16-H ) :   0.9040
B(  3-C , 17-H ) :   0.9146 B(  4-C ,  5-C ) :   1.0794 B(  4-C , 18-H ) :   0.9104
B(  4-C , 19-H ) :   0.9034 B(  5-C ,  6-H ) :   0.8852 B(  5-C ,  7-C ) :   1.0668
B(  5-C , 10-C ) :   0.9825 B(  7-C ,  8-C ) :   1.0454 B(  7-C , 20-H ) :   0.8931
B(  7-C , 21-H ) :   0.8745 B(  8-C ,  9-O ) :   2.2066 B( 10-C , 11-C ) :   2.0299
B( 10-C , 12-C ) :   1.1364 B( 11-C , 22-H ) :   0.9017 B( 11-C , 23-H ) :   0.9082
B( 12-C , 24-H ) :   0.9282 B( 12-C , 25-H ) :   0.9388 B( 12-C , 26-H ) :   0.9272

Dispersion correction           -0.028058764
FINAL SINGLE POINT ENERGY      -464.830952614177

DIPOLE MOMENT
-------------

Method             : SCF
Type of density    : Electron Density
Multiplicity       :   1
Irrep              :   0
Energy             :  -464.9168842202276437 Eh
Relativity type    :
Basis              : AO
                                X                 Y                 Z
Electronic contribution:     -3.055179962      -5.005593274       0.562301059
Nuclear contribution   :      3.629466695       5.848757981      -0.429501036
                        -----------------------------------------
Total Dipole Moment    :      0.574286732       0.843164707       0.132800023
                        -----------------------------------------
Magnitude (a.u.)       :      1.028770052
Magnitude (Debye)      :      2.614925661

Rotational constants in cm-1:             0.073664             0.021737             0.019481
Rotational constants in MHz :          2208.400438           651.662548           584.035027

                             ****ORCA TERMINATED NORMALLY****
TOTAL RUN TIME: 0 days 0 hours 0 minutes 14 seconds 412 msec
