                         Program Version 6.0.0  -   RELEASE  -
|  1> ! r2scan-3c def2/J RI DEFGRID2 scfconv6 printgap
|  2> %output
|  3>     printlevel normal
|  4> end
|  5> * xyz 0 1
|  6> C 0.7329165388 -1.1661893281 0.2204176154
|  7> C -0.7321598306 -1.1666205197 -0.2204261035
|  8> O -1.3920534804 -0.0004155801 0.2437986392
|  9> C -0.7329247359 1.1662153849 -0.2204140266
| 10> C 0.7321623906 1.1666062231 0.2204106771
| 11> O 1.3920660045 0.0004080175 -0.2438035432
| 12> H 1.2709500815 -2.0100895211 -0.2094550701
| 13> H 0.7862999822 -1.2046686069 1.3176884605
| 14> H -0.7857080929 -1.2052805484 -1.3176758127
| 15> H -1.2695941567 -2.0108889133 0.2095582984
| 16> H -0.7863953676 1.2048031364 -1.3176916553
| 17> H -1.2709260502 2.0101004435 0.2095521359
| 18> H 1.2696563456 2.0108138917 -0.20948234
| 19> H 0.7855856307 1.2051900251 1.3177248855
| 20> *
| 21>
| 22>                          ****END OF INPUT****

CARTESIAN COORDINATES (ANGSTROEM)
---------------------------------
  C      0.732917   -1.166189    0.220418
  C     -0.732160   -1.166621   -0.220426
  O     -1.392053   -0.000416    0.243799
  C     -0.732925    1.166215   -0.220414
  C      0.732162    1.166606    0.220411
  O      1.392066    0.000408   -0.243804
  H      1.270950   -2.010090   -0.209455
  H      0.786300   -1.204669    1.317688
  H     -0.785708   -1.205281   -1.317676
  H     -1.269594   -2.010889    0.209558
  H     -0.786395    1.204803   -1.317692
  H     -1.270926    2.010100    0.209552
  H      1.269656    2.010814   -0.209482
  H      0.785586    1.205190    1.317725

 Total Charge           Charge          ....    0
 Multiplicity           Mult            ....    1
 Number of Electrons    NEL             ....   48
 Basis Dimension        Dim             ....  164

ORBITAL ENERGIES
----------------

  NO   OCC          E(Eh)            E(eV)
   0   2.0000     -18.956990      -515.8459
   1   2.0000     -18.956988      -515.8459
   2   2.0000     -10.079069      -274.2654
   3   2.0000     -10.079062      -274.2652
   4   2.0000     -10.078940      -274.2619
   5   2.0000     -10.078933      -274.2617
   6   2.0000      -1.022208       -27.8157
   7   2.0000      -0.985776       -26.8243
   8   2.0000      -0.745831       -20.2951
   9   2.0000      -0.660398       -17.9703
  10   2.0000      -0.633755       -17.2453
  11   2.0000      -0.544887       -14.8271
  12   2.0000      -0.474396       -12.9090
  13   2.0000      -0.451579       -12.2881
  14   2.0000      -0.446519       -12.1504
  15   2.0000      -0.445498       -12.1226
  16   2.0000      -0.414639       -11.2829
  17   2.0000      -0.367138        -9.9903
  18   2.0000      -0.341332        -9.2881
  19   2.0000      -0.334583        -9.1045
  20   2.0000      -0.333494        -9.0748
  21   2.0000      -0.271944        -7.4000
  22   2.0000      -0.250498        -6.8164
  23   2.0000      -0.205826        -5.6008
  24   0.0000       0.055323         1.5054
  25   0.0000       0.096297         2.6204
  26   0.0000       0.104495         2.8434
  27   0.0000       0.120768         3.2863
  28   0.0000       0.127307         3.4642

MULLIKEN ATOMIC CHARGES
-----------------------
   0 C :   -0.167122
   1 C :   -0.167144
   2 O :   -0.239185
   3 C :   -0.167093
   4 C :   -0.167159
   5 O :   -0.239172
   6 H :    0.143353
   7 H :    0.143371
   8 H :    0.143374
   9 H :    0.143345
  10 H :    0.143361
  11 H :    0.143354
  12 H :    0.143353
  13 H :    0.143367
Sum of atomic charges:   -0.0000000

LOEWDIN ATOMIC CHARGES
----------------------
   0 C :    0.024307
   1 C :    0.024307
   2 O :   -0.749975
   3 C :    0.024307
   4 C :    0.024308
   5 O :   -0.749968
   6 H :    0.182221
   7 H :    0.168462
   8 H :    0.168456
   9 H :    0.182219
  10 H :    0.168456
  11 H :    0.182223
  12 H :    0.182217
  13 H :    0.168459

  Mayer bond orders larger than 0.100000
B(  0-C ,  1-C ) :   0.9100 B(  0-C ,  5-O ) :   0.9222 B(  0-C ,  6-H ) :   0.9528
B(  0-C ,  7-H ) :   0.9739 B(  1-C ,  2-O ) :   0.9222 B(  1-C ,  8-H ) :   0.9739
B(  1-C ,  9-H ) :   0.9528 B(  2-O ,  3-C ) :   0.9222 B(  3-C ,  4-C ) :   0.9100
B(  3-C , 10-H ) :   0.9739 B(  3-C , 11-H ) :   0.9528 B(  4-C ,  5-O ) :   0.9222
B(  4-C , 12-H ) :   0.9528 B(  4-C , 13-H ) :   0.9739

Dispersion correction           -0.003267030
FINAL SINGLE POINT ENERGY      -307.587019742578

DIPOLE MOMENT
-------------

Method             : SCF
Type of density    : Electron Density
Multiplicity       :   1
Irrep              :   0
Energy             :  -307.5949547899331264 Eh
Relativity type    :
Basis              : AO
                                X                 Y                 Z
Electronic contribution:      0.000118813       0.000026369      -0.000225086
Nuclear contribution   :     -0.000123303      -0.000018963       0.000205295
                        -----------------------------------------
Total Dipole Moment    :     -0.000004491       0.000007406      -0.000019790
                        -----------------------------------------
Magnitude (a.u.)       :      0.000021603
Magnitude (Debye)      :      0.000054909

Rotational constants in cm-1:             0.170400             0.155802             0.091468
Rotational constants in MHz :          5108.459712          4670.840206          2742.142965

                             ****ORCA TERMINATED NORMALLY****
TOTAL RUN TIME: 0 days 0 hours 0 minutes 17 seconds 98 msec
