                         Program Version 6.0.0  -   RELEASE  -
|  1> ! r2scan-3c def2/J RI DEFGRID2 scfconv6 printgap
|  2> %output
|  3>     printlevel normal
|  4> end
|  5> %cpcm
|  6>     smd true
|  7>     smdsolvent "water"
|  8> end
|  9> * xyz 0 1
| 10> C 0.7329165388 -1.1661893281 0.2204176154
| 11> C -0.7321598306 -1.1666205197 -0.2204261035
| 12> O -1.3920534804 -0.0004155801 0.2437986392
| 13> C -0.7329247359 1.1662153849 -0.2204140266
| 14> C 0.7321623906 1.1666062231 0.2204106771
| 15> O 1.3920660045 0.0004080175 -0.2438035432
| 16> H 1.2709500815 -2.0100895211 -0.2094550701
| 17> H 0.7862999822 -1.2046686069 1.3176884605
| 18> H -0.7857080929 -1.2052805484 -1.3176758127
| 19> H -1.2695941567 -2.0108889133 0.2095582984
| 20> H -0.7863953676 1.2048031364 -1.3176916553
| 21> H -1.2709260502 2.0101004435 0.2095521359
| 22> H 1.2696563456 2.0108138917 -0.20948234
| 23> H 0.7855856307 1.2051900251 1.3177248855
| 24> *
| 25>
| 26>                          ****END OF INPUT****

CARTESIAN COORDINATES (ANGSTROEM)
---------------------------------
  C      0.732917   -1.166189    0.220418
  C     -0.732160   -1.166621   -0.220426
  O     -1.392053   -0.000416    0.243799
  C     -0.732925    1.166215   -0.220414
  C      0.732162    1.166606    0.220411
  O      1.392066    0.000408   -0.243804
  H      1.270950   -2.010090   -0.209455
  H      0.786300   -1.204669    1.317688
  H     -0.785708   -1.205281   -1.317676
  H     -1.269594   -2.010889    0.209558
  H     -0.786395    1.204803   -1.317692
  H     -1.270926    2.010100    0.209552
  H      1.269656    2.010814   -0.209482
  H      0.785586    1.205190    1.317725

 Total Charge           Charge          ....    0
 Multiplicity           Mult            ....    1
 Number of Electrons    NEL             ....   48
 Basis Dimension        Dim             ....  164

ORBITAL ENERGIES
----------------

  NO   OCC          E(Eh)            E(eV)
   0   2.0000     -18.961286      -515.9628
   1   2.0000     -18.961284      -515.9628
   2   2.0000     -10.072480      -274.0861
   3   2.0000     -10.072472      -274.0859
   4   2.0000     -10.072351      -274.0826
   5   2.0000     -10.072343      -274.0824
   6   2.0000      -1.024551       -27.8794
   7   2.0000      -0.989403       -26.9230
   8   2.0000      -0.740550       -20.1514
   9   2.0000      -0.655454       -17.8358
  10   2.0000      -0.630923       -17.1683
  11   2.0000      -0.539358       -14.6767
  12   2.0000      -0.472853       -12.8670
  13   2.0000      -0.450228       -12.2513
  14   2.0000      -0.440389       -11.9836
  15   2.0000      -0.438857       -11.9419
  16   2.0000      -0.412922       -11.2362
  17   2.0000      -0.359626        -9.7859
  18   2.0000      -0.343993        -9.3605
  19   2.0000      -0.334558        -9.1038
  20   2.0000      -0.325410        -8.8549
  21   2.0000      -0.273196        -7.4340
  22   2.0000      -0.254674        -6.9300
  23   2.0000      -0.208494        -5.6734
  24   0.0000       0.057216         1.5569
  25   0.0000       0.101098         2.7510
  26   0.0000       0.116904         3.1811
  27   0.0000       0.133563         3.6344
  28   0.0000       0.134077         3.6484

MULLIKEN ATOMIC CHARGES
-----------------------
   0 C :   -0.175941
   1 C :   -0.175973
   2 O :   -0.304837
   3 C :   -0.175917
   4 C :   -0.175981
   5 O :   -0.304823
   6 H :    0.166685
   7 H :    0.161687
   8 H :    0.161694
   9 H :    0.166674
  10 H :    0.161680
  11 H :    0.166687
  12 H :    0.166681
  13 H :    0.161685
Sum of atomic charges:   -0.0000000

LOEWDIN ATOMIC CHARGES
----------------------
   0 C :    0.026758
   1 C :    0.026757
   2 O :   -0.788835
   3 C :    0.026759
   4 C :    0.026758
   5 O :   -0.788827
   6 H :    0.191616
   7 H :    0.176046
   8 H :    0.176041
   9 H :    0.191613
  10 H :    0.176042
  11 H :    0.191618
  12 H :    0.191609
  13 H :    0.176045

  Mayer bond orders larger than 0.100000
B(  0-C ,  1-C ) :   0.9106 B(  0-C ,  5-O ) :   0.9075 B(  0-C ,  6-H ) :   0.9487
B(  0-C ,  7-H ) :   0.9674 B(  1-C ,  2-O ) :   0.9075 B(  1-C ,  8-H ) :   0.9674
B(  1-C ,  9-H ) :   0.9487 B(  2-O ,  3-C ) :   0.9075 B(  3-C ,  4-C ) :   0.9106
B(  3-C , 10-H ) :   0.9674 B(  3-C , 11-H ) :   0.9487 B(  4-C ,  5-O ) :   0.9075
B(  4-C , 12-H ) :   0.9487 B(  4-C , 13-H ) :   0.9674

Dispersion correction           -0.003267030
FINAL SINGLE POINT ENERGY      -307.595205257517

DIPOLE MOMENT
-------------

Method             : SCF
Type of density    : Electron Density
Multiplicity       :   1
Irrep              :   0
Energy             :  -307.6031403048721131 Eh
Relativity type    :
Basis              : AO
                                X                 Y                 Z
Electronic contribution:      0.000116546       0.000027733      -0.000223750
Nuclear contribution   :     -0.000123303      -0.000018963       0.000205295
                        -----------------------------------------
Total Dipole Moment    :     -0.000006758       0.000008770      -0.000018454
                        -----------------------------------------
Magnitude (a.u.)       :      0.000021521
Magnitude (Debye)      :      0.000054702

Rotational constants in cm-1:             0.170400             0.155802             0.091468
Rotational constants in MHz :          5108.459712          4670.840206          2742.142965

                             ****ORCA TERMINATED NORMALLY****
TOTAL RUN TIME: 0 days 0 hours 0 minutes 17 seconds 219 msec
