                         Program Version 6.0.0  -   RELEASE  -
|  1> ! wb97x-v def2-tzvp def2/J RIJCOSX DEFGRID2 scfconv7 GCP(DFT/TZ) printgap
|  2> %output
|  3>     printlevel normal
|  4> end
|  5> * xyz 0 1
|  6> C -2.803474304105845 -0.12240092252061203 -0.505583656242282
|  7> O -1.3609445150149317 -0.29284826937321184 -0.6741756842224285
|  8> C -0.6197987121671553 0.09659365627661876 0.34606660985866455
|  9> O -0.9870651647650497 0.5672715796307664 1.3956615915023436
| 10> C 0.8806409561854883 -0.09044110513236066 0.009203877937437207
| 11> F 1.2919044435486544 0.9138640446084733 -0.7954598642553856
| 12> F 1.6160245144326502 -0.057890951501470035 1.1271837742230892
| 13> F 1.1197342016296696 -1.2532268867662277 -0.6216224317041252
| 14> H -3.1329576492257805 -0.6724124705613999 0.3775105636739848
| 15> H -3.242663866775894 -0.5361083121311478 -1.4107721386452858
| 16> H -3.031316562201212 0.9407884307419629 -0.4090923824655046
| 17> *
| 18>
| 19>                          ****END OF INPUT****

CARTESIAN COORDINATES (ANGSTROEM)
---------------------------------
  C     -2.803474   -0.122401   -0.505584
  O     -1.360945   -0.292848   -0.674176
  C     -0.619799    0.096594    0.346067
  O     -0.987065    0.567272    1.395662
  C      0.880641   -0.090441    0.009204
  F      1.291904    0.913864   -0.795460
  F      1.616025   -0.057891    1.127184
  F      1.119734   -1.253227   -0.621622
  H     -3.132958   -0.672412    0.377511
  H     -3.242664   -0.536108   -1.410772
  H     -3.031317    0.940788   -0.409092

 Total Charge           Charge          ....    0
 Multiplicity           Mult            ....    1
 Number of Electrons    NEL             ....   64
 Basis Dimension        Dim             ....  266

ORBITAL ENERGIES
----------------

  NO   OCC          E(Eh)            E(eV)
   0   2.0000     -27.613485      -751.4011
   1   2.0000     -27.612793      -751.3823
   2   2.0000     -27.610986      -751.3331
   3   2.0000     -21.759524      -592.1067
   4   2.0000     -21.698161      -590.4370
   5   2.0000     -12.320585      -335.2602
   6   2.0000     -12.219041      -332.4970
   7   2.0000     -12.131650      -330.1190
   8   2.0000      -2.076320       -56.4995
   9   2.0000      -2.027520       -55.1716
  10   2.0000      -2.026159       -55.1346
  11   2.0000      -1.804675       -49.1077
  12   2.0000      -1.740480       -47.3609
  13   2.0000      -1.405897       -38.2564
  14   2.0000      -1.321646       -35.9638
  15   2.0000      -1.272492       -34.6263
  16   2.0000      -1.271062       -34.5874
  17   2.0000      -1.227883       -33.4124
  18   2.0000      -1.176915       -32.0255
  19   2.0000      -1.176817       -32.0228
  20   2.0000      -1.163266       -31.6541
  21   2.0000      -1.162264       -31.6268
  22   2.0000      -1.161209       -31.5981
  23   2.0000      -1.159477       -31.5510
  24   2.0000      -1.105392       -30.0793
  25   2.0000      -1.082036       -29.4437
  26   2.0000      -1.035282       -28.1715
  27   2.0000      -0.995846       -27.0983
  28   2.0000      -0.937017       -25.4975
  29   2.0000      -0.915064       -24.9002
  30   2.0000      -0.872319       -23.7370
  31   2.0000      -0.857567       -23.3356
  32   0.0000      -0.383160       -10.4263
  33   0.0000      -0.290595        -7.9075
  34   0.0000      -0.260183        -7.0799
  35   0.0000      -0.203942        -5.5495
  36   0.0000      -0.187542        -5.1033

MULLIKEN ATOMIC CHARGES
-----------------------
   0 C :   -0.193029
   1 O :   -0.210163
   2 C :    0.255729
   3 O :   -0.297067
   4 C :    0.447499
   5 F :   -0.151292
   6 F :   -0.136010
   7 F :   -0.145900
   8 H :    0.143962
   9 H :    0.143847
  10 H :    0.142423
Sum of atomic charges:   -0.0000000

LOEWDIN ATOMIC CHARGES
----------------------
   0 C :   -0.258081
   1 O :    0.260309
   2 C :   -0.470956
   3 O :    0.136903
   4 C :   -0.629929
   5 F :    0.193569
   6 F :    0.217097
   7 F :    0.202047
   8 H :    0.116695
   9 H :    0.115867
  10 H :    0.116479

  Mayer bond orders larger than 0.100000
B(  0-C ,  1-O ) :   0.8782 B(  0-C ,  8-H ) :   0.9734 B(  0-C ,  9-H ) :   0.9691
B(  0-C , 10-H ) :   0.9745 B(  1-O ,  2-C ) :   1.2482 B(  2-C ,  3-O ) :   2.0577
B(  2-C ,  4-C ) :   0.9524 B(  4-C ,  5-F ) :   1.1469 B(  4-C ,  6-F ) :   1.1964
B(  4-C ,  7-F ) :   1.1696

FINAL SINGLE POINT ENERGY      -566.156742372291

DIPOLE MOMENT
-------------

Method             : SCF
Type of density    : Electron Density
Multiplicity       :   1
Irrep              :   0
Energy             :  -566.1705087986907756 Eh
Relativity type    :
Basis              : AO
                                X                 Y                 Z
Electronic contribution:     11.467184176      -0.339522805       0.507350675
Nuclear contribution   :    -12.591319799       0.123376893      -1.075310003
                        -----------------------------------------
Total Dipole Moment    :     -1.124135623      -0.216145912      -0.567959328
                        -----------------------------------------
Magnitude (a.u.)       :      1.277880179
Magnitude (Debye)      :      3.248113283

Rotational constants in cm-1:             0.118859             0.050134             0.043846
Rotational constants in MHz :          3563.299026          1502.979316          1314.480462

                             ****ORCA TERMINATED NORMALLY****
TOTAL RUN TIME: 0 days 0 hours 1 minutes 25 seconds 614 msec
