                         Program Version 6.0.0  -   RELEASE  -
|  1> ! wb97x-v def2-tzvp def2/J RIJCOSX DEFGRID2 scfconv7 GCP(DFT/TZ) printgap
|  2> %output
|  3>     printlevel normal
|  4> end
|  5> %cpcm
|  6>     smd true
|  7>     smdsolvent "water"
|  8> end
|  9> * xyz 0 1
| 10> C -2.803474304105845 -0.12240092252061203 -0.505583656242282
| 11> O -1.3609445150149317 -0.29284826937321184 -0.6741756842224285
| 12> C -0.6197987121671553 0.09659365627661876 0.34606660985866455
| 13> O -0.9870651647650497 0.5672715796307664 1.3956615915023436
| 14> C 0.8806409561854883 -0.09044110513236066 0.009203877937437207
| 15> F 1.2919044435486544 0.9138640446084733 -0.7954598642553856
| 16> F 1.6160245144326502 -0.057890951501470035 1.1271837742230892
| 17> F 1.1197342016296696 -1.2532268867662277 -0.6216224317041252
| 18> H -3.1329576492257805 -0.6724124705613999 0.3775105636739848
| 19> H -3.242663866775894 -0.5361083121311478 -1.4107721386452858
| 20> H -3.031316562201212 0.9407884307419629 -0.4090923824655046
| 21> *
| 22>
| 23>                          ****END OF INPUT****

CARTESIAN COORDINATES (ANGSTROEM)
---------------------------------
  C     -2.803474   -0.122401   -0.505584
  O     -1.360945   -0.292848   -0.674176
  C     -0.619799    0.096594    0.346067
  O     -0.987065    0.567272    1.395662
  C      0.880641   -0.090441    0.009204
  F      1.291904    0.913864   -0.795460
  F      1.616025   -0.057891    1.127184
  F      1.119734   -1.253227   -0.621622
  H     -3.132958   -0.672412    0.377511
  H     -3.242664   -0.536108   -1.410772
  H     -3.031317    0.940788   -0.409092

 Total Charge           Charge          ....    0
 Multiplicity           Mult            ....    1
 Number of Electrons    NEL             ....   64
 Basis Dimension        Dim             ....  266

ORBITAL ENERGIES
----------------

  NO   OCC          E(Eh)            E(eV)
   0   2.0000     -27.617162      -751.5012
   1   2.0000     -27.616908      -751.4943
   2   2.0000     -27.616110      -751.4726
   3   2.0000     -21.751028      -591.8756
   4   2.0000     -21.699202      -590.4653
   5   2.0000     -12.323279      -335.3335
   6   2.0000     -12.220000      -332.5231
   7   2.0000     -12.104029      -329.3674
   8   2.0000      -2.080534       -56.6142
   9   2.0000      -2.032388       -55.3041
  10   2.0000      -2.029893       -55.2362
  11   2.0000      -1.798627       -48.9431
  12   2.0000      -1.739246       -47.3273
  13   2.0000      -1.408957       -38.3397
  14   2.0000      -1.310556       -35.6620
  15   2.0000      -1.277282       -34.7566
  16   2.0000      -1.275185       -34.6996
  17   2.0000      -1.227388       -33.3989
  18   2.0000      -1.181374       -32.1468
  19   2.0000      -1.181306       -32.1450
  20   2.0000      -1.168188       -31.7880
  21   2.0000      -1.166485       -31.7417
  22   2.0000      -1.164036       -31.6750
  23   2.0000      -1.155371       -31.4392
  24   2.0000      -1.102547       -30.0018
  25   2.0000      -1.078327       -29.3428
  26   2.0000      -1.024600       -27.8808
  27   2.0000      -0.985842       -26.8261
  28   2.0000      -0.939003       -25.5516
  29   2.0000      -0.918056       -24.9816
  30   2.0000      -0.845257       -23.0006
  31   2.0000      -0.831790       -22.6342
  32   0.0000      -0.380544       -10.3551
  33   0.0000      -0.293365        -7.9829
  34   0.0000      -0.258251        -7.0274
  35   0.0000      -0.191679        -5.2158
  36   0.0000      -0.185526        -5.0484

MULLIKEN ATOMIC CHARGES
-----------------------
   0 C :   -0.223338
   1 O :   -0.224707
   2 C :    0.348397
   3 O :   -0.391496
   4 C :    0.451792
   5 F :   -0.155781
   6 F :   -0.150265
   7 F :   -0.152557
   8 H :    0.164322
   9 H :    0.168624
  10 H :    0.165007
Sum of atomic charges:   -0.0000000

LOEWDIN ATOMIC CHARGES
----------------------
   0 C :   -0.248682
   1 O :    0.262133
   2 C :   -0.450488
   3 O :    0.089901
   4 C :   -0.623171
   5 F :    0.191123
   6 F :    0.209381
   7 F :    0.199340
   8 H :    0.122728
   9 H :    0.124674
  10 H :    0.123061

  Mayer bond orders larger than 0.100000
B(  0-C ,  1-O ) :   0.8493 B(  0-C ,  8-H ) :   0.9677 B(  0-C ,  9-H ) :   0.9636
B(  0-C , 10-H ) :   0.9684 B(  1-O ,  2-C ) :   1.2749 B(  2-C ,  3-O ) :   1.9660
B(  2-C ,  4-C ) :   0.9564 B(  4-C ,  5-F ) :   1.1479 B(  4-C ,  6-F ) :   1.1784
B(  4-C ,  7-F ) :   1.1663

FINAL SINGLE POINT ENERGY      -566.158479843662

DIPOLE MOMENT
-------------

Method             : SCF
Type of density    : Electron Density
Multiplicity       :   1
Irrep              :   0
Energy             :  -566.1722462700618053 Eh
Relativity type    :
Basis              : AO
                                X                 Y                 Z
Electronic contribution:     11.252748586      -0.422893071       0.299033327
Nuclear contribution   :    -12.591319799       0.123376893      -1.075310003
                        -----------------------------------------
Total Dipole Moment    :     -1.338571214      -0.299516179      -0.776276676
                        -----------------------------------------
Magnitude (a.u.)       :      1.576099081
Magnitude (Debye)      :      4.006125491

Rotational constants in cm-1:             0.118859             0.050134             0.043846
Rotational constants in MHz :          3563.299026          1502.979316          1314.480462

                             ****ORCA TERMINATED NORMALLY****
TOTAL RUN TIME: 0 days 0 hours 1 minutes 21 seconds 860 msec
