                         Program Version 6.0.0  -   RELEASE  -
|  1> ! r2scan-3c def2/J RI DEFGRID2 scfconv6 printgap
|  2> %output
|  3>     printlevel normal
|  4> end
|  5> * xyz 0 1
|  6> C 0.741204435 0.0006477183 -0.0061237858
|  7> C 1.4456484805 0.8267873299 -0.8775939374
|  8> C 2.8396041857 0.8326026263 -0.8775828911
|  9> C 3.5327829455 0.0017526567 0.0027015519
| 10> C 2.8348480031 -0.8304507218 0.8779403107
| 11> C 1.4410375541 -0.8256826305 0.8690555876
| 12> Cl 0.5695178969 -1.8423632239 1.9380968961
| 13> Cl 3.6879213436 -1.8514172819 1.9568626679
| 14> Cl 5.2446957295 0.0033622893 0.0090758977
| 15> Cl 3.6988162279 1.8544774727 -1.9508050997
| 16> Cl 0.5800979956 1.8428853037 -1.9519735796
| 17> C -0.7411884341 0.0014602294 -0.0062283941
| 18> C -1.4415816367 0.8270787269 0.8692270158
| 19> C -2.8354264154 0.8302188686 0.8787171151
| 20> C -3.532736806 -0.0027739741 0.0038371553
| 21> C -2.8390247356 -0.8327911523 -0.876863448
| 22> C -1.4450823974 -0.8253103732 -0.8775163876
| 23> Cl -0.5787792301 -1.8405023768 -1.9522659555
| 24> Cl -3.6975070719 -1.8558224969 -1.949371579
| 25> Cl -5.2447379377 -0.0068079764 0.0114313403
| 26> Cl -3.6892542774 1.8501963017 1.9580777243
| 27> Cl -0.5707995338 1.8447929199 1.9377931334
| 28> *
| 29>
| 30>                          ****END OF INPUT****

CARTESIAN COORDINATES (ANGSTROEM)
---------------------------------
  C      0.741204    0.000648   -0.006124
  C      1.445648    0.826787   -0.877594
  C      2.839604    0.832603   -0.877583
  C      3.532783    0.001753    0.002702
  C      2.834848   -0.830451    0.877940
  C      1.441038   -0.825683    0.869056
  Cl     0.569518   -1.842363    1.938097
  Cl     3.687921   -1.851417    1.956863
  Cl     5.244696    0.003362    0.009076
  Cl     3.698816    1.854477   -1.950805
  Cl     0.580098    1.842885   -1.951974
  C     -0.741188    0.001460   -0.006228
  C     -1.441582    0.827079    0.869227
  C     -2.835426    0.830219    0.878717
  C     -3.532737   -0.002774    0.003837
  C     -2.839025   -0.832791   -0.876863
  C     -1.445082   -0.825310   -0.877516
  Cl    -0.578779   -1.840502   -1.952266
  Cl    -3.697507   -1.855822   -1.949372
  Cl    -5.244738   -0.006808    0.011431
  Cl    -3.689254    1.850196    1.958078
  Cl    -0.570800    1.844793    1.937793

 Total Charge           Charge          ....    0
 Multiplicity           Mult            ....    1
 Number of Electrons    NEL             ....  242
 Basis Dimension        Dim             ....  498

ORBITAL ENERGIES
----------------

  NO   OCC          E(Eh)            E(eV)
   0   2.0000    -101.251259     -2755.1868
   1   2.0000    -101.251257     -2755.1868
   2   2.0000    -101.251254     -2755.1867
   3   2.0000    -101.251254     -2755.1867
   4   2.0000    -101.250942     -2755.1782
   5   2.0000    -101.250936     -2755.1780
   6   2.0000    -101.249610     -2755.1420
   7   2.0000    -101.249608     -2755.1419
   8   2.0000    -101.249606     -2755.1418
   9   2.0000    -101.249604     -2755.1418
  10   2.0000     -10.148017      -276.1416
  11   2.0000     -10.148016      -276.1416
  12   2.0000     -10.144659      -276.0502
  13   2.0000     -10.144658      -276.0502
  14   2.0000     -10.144626      -276.0493
  15   2.0000     -10.144624      -276.0493
  16   2.0000     -10.144117      -276.0354
  17   2.0000     -10.144116      -276.0354
  18   2.0000     -10.144095      -276.0349
  19   2.0000     -10.144090      -276.0347
  20   2.0000     -10.106538      -275.0129
  21   2.0000     -10.106337      -275.0074
  22   2.0000      -9.407002      -255.9775
  23   2.0000      -9.407000      -255.9775
  24   2.0000      -9.406993      -255.9773
  25   2.0000      -9.406992      -255.9773
  26   2.0000      -9.406715      -255.9697
  27   2.0000      -9.406706      -255.9695
  28   2.0000      -9.405351      -255.9326
  29   2.0000      -9.405347      -255.9325
  30   2.0000      -9.405343      -255.9324
  31   2.0000      -9.405342      -255.9324
  32   2.0000      -7.153593      -194.6592
  33   2.0000      -7.153591      -194.6591
  34   2.0000      -7.153585      -194.6589
  35   2.0000      -7.153584      -194.6589
  36   2.0000      -7.153449      -194.6552
  37   2.0000      -7.153441      -194.6550
  38   2.0000      -7.152075      -194.6178
  39   2.0000      -7.152071      -194.6177
  40   2.0000      -7.152068      -194.6177
  41   2.0000      -7.152067      -194.6176
  42   2.0000      -7.143295      -194.3789
  43   2.0000      -7.143292      -194.3789
  44   2.0000      -7.143285      -194.3787
  45   2.0000      -7.143283      -194.3786
  46   2.0000      -7.143039      -194.3720
  47   2.0000      -7.143031      -194.3717
  48   2.0000      -7.142376      -194.3539
  49   2.0000      -7.142373      -194.3539
  50   2.0000      -7.142368      -194.3537
  51   2.0000      -7.142367      -194.3537
  52   2.0000      -7.141902      -194.3410
  53   2.0000      -7.141893      -194.3408
  54   2.0000      -7.141636      -194.3338
  55   2.0000      -7.141632      -194.3337
  56   2.0000      -7.141628      -194.3336
  57   2.0000      -7.141627      -194.3336
  58   2.0000      -7.140594      -194.3054
  59   2.0000      -7.140590      -194.3053
  60   2.0000      -7.140587      -194.3052
  61   2.0000      -7.140586      -194.3052
  62   2.0000      -0.948136       -25.8001
  63   2.0000      -0.937630       -25.5142
  64   2.0000      -0.897650       -24.4263
  65   2.0000      -0.897101       -24.4114
  66   2.0000      -0.894818       -24.3492
  67   2.0000      -0.875685       -23.8286
  68   2.0000      -0.849905       -23.1271
  69   2.0000      -0.849224       -23.1086
  70   2.0000      -0.838768       -22.8241
  71   2.0000      -0.833641       -22.6845
  72   2.0000      -0.810372       -22.0514
  73   2.0000      -0.804528       -21.8923
  74   2.0000      -0.758747       -20.6465
  75   2.0000      -0.711892       -19.3716
  76   2.0000      -0.711861       -19.3707
  77   2.0000      -0.709671       -19.3111
  78   2.0000      -0.636801       -17.3282
  79   2.0000      -0.603972       -16.4349
  80   2.0000      -0.602903       -16.4058
  81   2.0000      -0.590937       -16.0802
  82   2.0000      -0.535561       -14.5734
  83   2.0000      -0.533470       -14.5164
  84   2.0000      -0.523523       -14.2458
  85   2.0000      -0.503156       -13.6916
  86   2.0000      -0.478140       -13.0109
  87   2.0000      -0.466303       -12.6888
  88   2.0000      -0.452508       -12.3134
  89   2.0000      -0.452477       -12.3125
  90   2.0000      -0.451760       -12.2930
  91   2.0000      -0.447915       -12.1884
  92   2.0000      -0.447559       -12.1787
  93   2.0000      -0.430394       -11.7116
  94   2.0000      -0.414758       -11.2862
  95   2.0000      -0.414195       -11.2708
  96   2.0000      -0.403840       -10.9890
  97   2.0000      -0.396378       -10.7860
  98   2.0000      -0.386395       -10.5143
  99   2.0000      -0.374215       -10.1829
 100   2.0000      -0.373951       -10.1757
 101   2.0000      -0.345508        -9.4017
 102   2.0000      -0.335285        -9.1236
 103   2.0000      -0.333657        -9.0793
 104   2.0000      -0.331799        -9.0287
 105   2.0000      -0.331779        -9.0282
 106   2.0000      -0.329635        -8.9698
 107   2.0000      -0.329593        -8.9687
 108   2.0000      -0.327980        -8.9248
 109   2.0000      -0.318126        -8.6566
 110   2.0000      -0.317754        -8.6465
 111   2.0000      -0.307371        -8.3640
 112   2.0000      -0.307336        -8.3630
 113   2.0000      -0.303227        -8.2512
 114   2.0000      -0.302589        -8.2339
 115   2.0000      -0.286620        -7.7993
 116   2.0000      -0.286466        -7.7951
 117   2.0000      -0.253358        -6.8942
 118   2.0000      -0.251500        -6.8437
 119   2.0000      -0.245867        -6.6904
 120   2.0000      -0.244071        -6.6415
 121   0.0000      -0.087994        -2.3944
 122   0.0000      -0.084167        -2.2903
 123   0.0000      -0.084049        -2.2871
 124   0.0000      -0.080169        -2.1815
 125   0.0000      -0.079088        -2.1521

MULLIKEN ATOMIC CHARGES
-----------------------
   0 C :    0.067032
   1 C :    0.097643
   2 C :   -0.024865
   3 C :    0.057791
   4 C :   -0.025349
   5 C :    0.098264
   6 Cl:   -0.056677
   7 Cl:   -0.053678
   8 Cl:   -0.049841
   9 Cl:   -0.053685
  10 Cl:   -0.056635
  11 C :    0.067150
  12 C :    0.098097
  13 C :   -0.025156
  14 C :    0.057751
  15 C :   -0.024829
  16 C :    0.097533
  17 Cl:   -0.056699
  18 Cl:   -0.053614
  19 Cl:   -0.049901
  20 Cl:   -0.053705
  21 Cl:   -0.056626
Sum of atomic charges:   -0.0000000

LOEWDIN ATOMIC CHARGES
----------------------
   0 C :   -0.113935
   1 C :   -0.162000
   2 C :   -0.194775
   3 C :   -0.187848
   4 C :   -0.194793
   5 C :   -0.161944
   6 Cl:    0.213560
   7 Cl:    0.194777
   8 Cl:    0.198864
   9 Cl:    0.194744
  10 Cl:    0.213352
  11 C :   -0.113932
  12 C :   -0.161977
  13 C :   -0.194775
  14 C :   -0.187813
  15 C :   -0.194814
  16 C :   -0.161958
  17 Cl:    0.213332
  18 Cl:    0.194828
  19 Cl:    0.198799
  20 Cl:    0.194740
  21 Cl:    0.213568

  Mayer bond orders larger than 0.100000
B(  0-C ,  1-C ) :   1.1946 B(  0-C ,  5-C ) :   1.1959 B(  0-C ,  6-Cl) :  -0.1083
B(  0-C , 10-Cl) :  -0.1086 B(  0-C , 11-C ) :   0.6450 B(  0-C , 12-C ) :  -0.1076
B(  0-C , 16-C ) :  -0.1069 B(  0-C , 17-Cl) :   0.1213 B(  0-C , 21-Cl) :   0.1224
B(  1-C ,  2-C ) :   1.0251 B(  1-C , 10-Cl) :   1.2348 B(  1-C , 11-C ) :  -0.1067
B(  2-C ,  3-C ) :   1.0780 B(  2-C ,  9-Cl) :   1.2935 B(  3-C ,  4-C ) :   1.0780
B(  3-C ,  8-Cl) :   1.3014 B(  4-C ,  5-C ) :   1.0253 B(  4-C ,  7-Cl) :   1.2939
B(  5-C ,  6-Cl) :   1.2340 B(  5-C , 11-C ) :  -0.1077 B(  6-Cl, 11-C ) :   0.1226
B( 10-Cl, 11-C ) :   0.1210 B( 11-C , 12-C ) :   1.1957 B( 11-C , 16-C ) :   1.1948
B( 11-C , 17-Cl) :  -0.1085 B( 11-C , 21-Cl) :  -0.1083 B( 12-C , 13-C ) :   1.0253
B( 12-C , 21-Cl) :   1.2342 B( 13-C , 14-C ) :   1.0782 B( 13-C , 20-Cl) :   1.2939
B( 14-C , 15-C ) :   1.0781 B( 14-C , 19-Cl) :   1.3013 B( 15-C , 16-C ) :   1.0251
B( 15-C , 18-Cl) :   1.2935 B( 16-C , 17-Cl) :   1.2346

Dispersion correction           -0.019881519
FINAL SINGLE POINT ENERGY     -5058.943655224288

DIPOLE MOMENT
-------------

Method             : SCF
Type of density    : Electron Density
Multiplicity       :   1
Irrep              :   0
Energy             : -5058.9407275493595080 Eh
Relativity type    :
Basis              : AO
                                X                 Y                 Z
Electronic contribution:      0.000071718      -0.001648497       0.009231364
Nuclear contribution   :      0.000038733       0.001609399      -0.009290016
                        -----------------------------------------
Total Dipole Moment    :      0.000110451      -0.000039098      -0.000058652
                        -----------------------------------------
Magnitude (a.u.)       :      0.000131027
Magnitude (Debye)      :      0.000333044

Rotational constants in cm-1:             0.007712             0.002924             0.002865
Rotational constants in MHz :           231.196674            87.648198            85.903759

                             ****ORCA TERMINATED NORMALLY****
TOTAL RUN TIME: 0 days 0 hours 1 minutes 25 seconds 389 msec
