                         Program Version 6.0.0  -   RELEASE  -
|  1> ! r2scan-3c def2/J RI DEFGRID2 scfconv6 printgap
|  2> %output
|  3>     printlevel normal
|  4> end
|  5> %cpcm
|  6>     smd true
|  7>     smdsolvent "water"
|  8> end
|  9> * xyz 0 1
| 10> C 0.741204435 0.0006477183 -0.0061237858
| 11> C 1.4456484805 0.8267873299 -0.8775939374
| 12> C 2.8396041857 0.8326026263 -0.8775828911
| 13> C 3.5327829455 0.0017526567 0.0027015519
| 14> C 2.8348480031 -0.8304507218 0.8779403107
| 15> C 1.4410375541 -0.8256826305 0.8690555876
| 16> Cl 0.5695178969 -1.8423632239 1.9380968961
| 17> Cl 3.6879213436 -1.8514172819 1.9568626679
| 18> Cl 5.2446957295 0.0033622893 0.0090758977
| 19> Cl 3.6988162279 1.8544774727 -1.9508050997
| 20> Cl 0.5800979956 1.8428853037 -1.9519735796
| 21> C -0.7411884341 0.0014602294 -0.0062283941
| 22> C -1.4415816367 0.8270787269 0.8692270158
| 23> C -2.8354264154 0.8302188686 0.8787171151
| 24> C -3.532736806 -0.0027739741 0.0038371553
| 25> C -2.8390247356 -0.8327911523 -0.876863448
| 26> C -1.4450823974 -0.8253103732 -0.8775163876
| 27> Cl -0.5787792301 -1.8405023768 -1.9522659555
| 28> Cl -3.6975070719 -1.8558224969 -1.949371579
| 29> Cl -5.2447379377 -0.0068079764 0.0114313403
| 30> Cl -3.6892542774 1.8501963017 1.9580777243
| 31> Cl -0.5707995338 1.8447929199 1.9377931334
| 32> *
| 33>
| 34>                          ****END OF INPUT****

CARTESIAN COORDINATES (ANGSTROEM)
---------------------------------
  C      0.741204    0.000648   -0.006124
  C      1.445648    0.826787   -0.877594
  C      2.839604    0.832603   -0.877583
  C      3.532783    0.001753    0.002702
  C      2.834848   -0.830451    0.877940
  C      1.441038   -0.825683    0.869056
  Cl     0.569518   -1.842363    1.938097
  Cl     3.687921   -1.851417    1.956863
  Cl     5.244696    0.003362    0.009076
  Cl     3.698816    1.854477   -1.950805
  Cl     0.580098    1.842885   -1.951974
  C     -0.741188    0.001460   -0.006228
  C     -1.441582    0.827079    0.869227
  C     -2.835426    0.830219    0.878717
  C     -3.532737   -0.002774    0.003837
  C     -2.839025   -0.832791   -0.876863
  C     -1.445082   -0.825310   -0.877516
  Cl    -0.578779   -1.840502   -1.952266
  Cl    -3.697507   -1.855822   -1.949372
  Cl    -5.244738   -0.006808    0.011431
  Cl    -3.689254    1.850196    1.958078
  Cl    -0.570800    1.844793    1.937793

 Total Charge           Charge          ....    0
 Multiplicity           Mult            ....    1
 Number of Electrons    NEL             ....  242
 Basis Dimension        Dim             ....  498

ORBITAL ENERGIES
----------------

  NO   OCC          E(Eh)            E(eV)
   0   2.0000    -101.248957     -2755.1242
   1   2.0000    -101.248953     -2755.1241
   2   2.0000    -101.248648     -2755.1158
   3   2.0000    -101.248646     -2755.1157
   4   2.0000    -101.248638     -2755.1155
   5   2.0000    -101.248634     -2755.1154
   6   2.0000    -101.247780     -2755.0922
   7   2.0000    -101.247777     -2755.0921
   8   2.0000    -101.247776     -2755.0921
   9   2.0000    -101.247775     -2755.0920
  10   2.0000     -10.144024      -276.0329
  11   2.0000     -10.144023      -276.0329
  12   2.0000     -10.140655      -275.9413
  13   2.0000     -10.140654      -275.9412
  14   2.0000     -10.140621      -275.9403
  15   2.0000     -10.140619      -275.9403
  16   2.0000     -10.139959      -275.9223
  17   2.0000     -10.139957      -275.9223
  18   2.0000     -10.139933      -275.9216
  19   2.0000     -10.139927      -275.9214
  20   2.0000     -10.102040      -274.8905
  21   2.0000     -10.101839      -274.8850
  22   2.0000      -9.404764      -255.9166
  23   2.0000      -9.404757      -255.9165
  24   2.0000      -9.404412      -255.9071
  25   2.0000      -9.404409      -255.9070
  26   2.0000      -9.404407      -255.9069
  27   2.0000      -9.404402      -255.9068
  28   2.0000      -9.403560      -255.8839
  29   2.0000      -9.403556      -255.8838
  30   2.0000      -9.403554      -255.8837
  31   2.0000      -9.403553      -255.8837
  32   2.0000      -7.151439      -194.6005
  33   2.0000      -7.151432      -194.6004
  34   2.0000      -7.150963      -194.5876
  35   2.0000      -7.150960      -194.5875
  36   2.0000      -7.150957      -194.5874
  37   2.0000      -7.150952      -194.5873
  38   2.0000      -7.150221      -194.5674
  39   2.0000      -7.150217      -194.5673
  40   2.0000      -7.150215      -194.5673
  41   2.0000      -7.150215      -194.5672
  42   2.0000      -7.141091      -194.3190
  43   2.0000      -7.141084      -194.3188
  44   2.0000      -7.140723      -194.3090
  45   2.0000      -7.140720      -194.3089
  46   2.0000      -7.140719      -194.3088
  47   2.0000      -7.140715      -194.3087
  48   2.0000      -7.140004      -194.2894
  49   2.0000      -7.139997      -194.2892
  50   2.0000      -7.139853      -194.2853
  51   2.0000      -7.139849      -194.2852
  52   2.0000      -7.139847      -194.2851
  53   2.0000      -7.139846      -194.2851
  54   2.0000      -7.139804      -194.2839
  55   2.0000      -7.139800      -194.2838
  56   2.0000      -7.139797      -194.2838
  57   2.0000      -7.139792      -194.2836
  58   2.0000      -7.138852      -194.2581
  59   2.0000      -7.138848      -194.2579
  60   2.0000      -7.138846      -194.2579
  61   2.0000      -7.138846      -194.2579
  62   2.0000      -0.944103       -25.6903
  63   2.0000      -0.933797       -25.4099
  64   2.0000      -0.894647       -24.3446
  65   2.0000      -0.894105       -24.3298
  66   2.0000      -0.891648       -24.2630
  67   2.0000      -0.872753       -23.7488
  68   2.0000      -0.847427       -23.0597
  69   2.0000      -0.846742       -23.0410
  70   2.0000      -0.836558       -22.7639
  71   2.0000      -0.831496       -22.6262
  72   2.0000      -0.807048       -21.9609
  73   2.0000      -0.800958       -21.7952
  74   2.0000      -0.755027       -20.5453
  75   2.0000      -0.708157       -19.2699
  76   2.0000      -0.708127       -19.2691
  77   2.0000      -0.705698       -19.2030
  78   2.0000      -0.632910       -17.2224
  79   2.0000      -0.600375       -16.3370
  80   2.0000      -0.599305       -16.3079
  81   2.0000      -0.587209       -15.9788
  82   2.0000      -0.531684       -14.4679
  83   2.0000      -0.529589       -14.4108
  84   2.0000      -0.520258       -14.1569
  85   2.0000      -0.500137       -13.6094
  86   2.0000      -0.475357       -12.9351
  87   2.0000      -0.463563       -12.6142
  88   2.0000      -0.449409       -12.2291
  89   2.0000      -0.449379       -12.2282
  90   2.0000      -0.448435       -12.2025
  91   2.0000      -0.443222       -12.0607
  92   2.0000      -0.442875       -12.0512
  93   2.0000      -0.427487       -11.6325
  94   2.0000      -0.411641       -11.2013
  95   2.0000      -0.411057       -11.1854
  96   2.0000      -0.400650       -10.9023
  97   2.0000      -0.393111       -10.6971
  98   2.0000      -0.383149       -10.4260
  99   2.0000      -0.371095       -10.0980
 100   2.0000      -0.370779       -10.0894
 101   2.0000      -0.343489        -9.3468
 102   2.0000      -0.333250        -9.0682
 103   2.0000      -0.331679        -9.0254
 104   2.0000      -0.330057        -8.9813
 105   2.0000      -0.330029        -8.9805
 106   2.0000      -0.328056        -8.9269
 107   2.0000      -0.328012        -8.9257
 108   2.0000      -0.325677        -8.8621
 109   2.0000      -0.315934        -8.5970
 110   2.0000      -0.315583        -8.5875
 111   2.0000      -0.305587        -8.3155
 112   2.0000      -0.305554        -8.3146
 113   2.0000      -0.300617        -8.1802
 114   2.0000      -0.300009        -8.1637
 115   2.0000      -0.284923        -7.7532
 116   2.0000      -0.284755        -7.7486
 117   2.0000      -0.249692        -6.7945
 118   2.0000      -0.247778        -6.7424
 119   2.0000      -0.242265        -6.5924
 120   2.0000      -0.240471        -6.5435
 121   0.0000      -0.083471        -2.2714
 122   0.0000      -0.079834        -2.1724
 123   0.0000      -0.079597        -2.1659
 124   0.0000      -0.076844        -2.0910
 125   0.0000      -0.074748        -2.0340

MULLIKEN ATOMIC CHARGES
-----------------------
   0 C :    0.076402
   1 C :    0.095938
   2 C :   -0.010627
   3 C :    0.072103
   4 C :   -0.011100
   5 C :    0.096568
   6 Cl:   -0.063608
   7 Cl:   -0.065290
   8 Cl:   -0.061469
   9 Cl:   -0.065302
  10 Cl:   -0.063617
  11 C :    0.076537
  12 C :    0.096398
  13 C :   -0.011019
  14 C :    0.072130
  15 C :   -0.010628
  16 C :    0.095895
  17 Cl:   -0.063666
  18 Cl:   -0.065230
  19 Cl:   -0.061537
  20 Cl:   -0.065317
  21 Cl:   -0.063561
Sum of atomic charges:    0.0000000

LOEWDIN ATOMIC CHARGES
----------------------
   0 C :   -0.111152
   1 C :   -0.158942
   2 C :   -0.189063
   3 C :   -0.181518
   4 C :   -0.189084
   5 C :   -0.158881
   6 Cl:    0.209334
   7 Cl:    0.188603
   8 Cl:    0.193044
   9 Cl:    0.188568
  10 Cl:    0.209093
  11 C :   -0.111148
  12 C :   -0.158915
  13 C :   -0.189068
  14 C :   -0.181483
  15 C :   -0.189100
  16 C :   -0.158899
  17 Cl:    0.209077
  18 Cl:    0.188655
  19 Cl:    0.192976
  20 Cl:    0.188564
  21 Cl:    0.209338

  Mayer bond orders larger than 0.100000
B(  0-C ,  1-C ) :   1.1951 B(  0-C ,  5-C ) :   1.1964 B(  0-C ,  6-Cl) :  -0.1050
B(  0-C , 10-Cl) :  -0.1053 B(  0-C , 11-C ) :   0.6753 B(  0-C , 12-C ) :  -0.1104
B(  0-C , 16-C ) :  -0.1097 B(  0-C , 17-Cl) :   0.1113 B(  0-C , 21-Cl) :   0.1123
B(  1-C ,  2-C ) :   1.0280 B(  1-C , 10-Cl) :   1.2347 B(  1-C , 11-C ) :  -0.1095
B(  2-C ,  3-C ) :   1.0880 B(  2-C ,  9-Cl) :   1.2785 B(  3-C ,  4-C ) :   1.0880
B(  3-C ,  8-Cl) :   1.2858 B(  4-C ,  5-C ) :   1.0282 B(  4-C ,  7-Cl) :   1.2790
B(  5-C ,  6-Cl) :   1.2341 B(  5-C , 11-C ) :  -0.1105 B(  6-Cl, 11-C ) :   0.1125
B( 10-Cl, 11-C ) :   0.1110 B( 11-C , 12-C ) :   1.1961 B( 11-C , 16-C ) :   1.1952
B( 11-C , 17-Cl) :  -0.1054 B( 11-C , 21-Cl) :  -0.1051 B( 12-C , 13-C ) :   1.0280
B( 12-C , 21-Cl) :   1.2343 B( 13-C , 14-C ) :   1.0879 B( 13-C , 20-Cl) :   1.2790
B( 14-C , 15-C ) :   1.0878 B( 14-C , 19-Cl) :   1.2858 B( 15-C , 16-C ) :   1.0278
B( 15-C , 18-Cl) :   1.2787 B( 16-C , 17-Cl) :   1.2347

Dispersion correction           -0.019881519
FINAL SINGLE POINT ENERGY     -5058.939428946270

DIPOLE MOMENT
-------------

Method             : SCF
Type of density    : Electron Density
Multiplicity       :   1
Irrep              :   0
Energy             : -5058.9365012713415126 Eh
Relativity type    :
Basis              : AO
                                X                 Y                 Z
Electronic contribution:      0.000103932      -0.001610090       0.008891651
Nuclear contribution   :      0.000038733       0.001609399      -0.009290016
                        -----------------------------------------
Total Dipole Moment    :      0.000142665      -0.000000691      -0.000398366
                        -----------------------------------------
Magnitude (a.u.)       :      0.000423142
Magnitude (Debye)      :      0.001075541

Rotational constants in cm-1:             0.007712             0.002924             0.002865
Rotational constants in MHz :           231.196674            87.648198            85.903759

                             ****ORCA TERMINATED NORMALLY****
TOTAL RUN TIME: 0 days 0 hours 1 minutes 51 seconds 626 msec
