                         Program Version 6.0.0  -   RELEASE  -
|  1> ! pbe def2-sv(p) def2/J RI DEFGRID1 loosescf d4 GCP(DFT/SV(P)) printgap
|  2> %output
|  3>     printlevel normal
|  4> end
|  5> * xyz 0 1
|  6> C -2.2211783678 -0.6161996389 -0.7117960775
|  7> C -1.3853568595 -0.4864920164 0.5816543359
|  8> H -2.0615605124 -0.7540093161 1.4066072998
|  9> C -0.8663849096 0.9379103899 0.836848109
| 10> H -1.6779987486 1.6451103518 0.6116316953
| 11> C 0.3229124047 1.322070256 -0.061430611
| 12> H 0.9756079451 1.9702571947 0.5395874215
| 13> C 1.1484383758 0.0929867568 -0.4680983548
| 14> H 0.7749268373 -0.2991123244 -1.4279967356
| 15> C 0.9738512317 -1.0088855573 0.5916020948
| 16> H 1.280790103 -0.6167496266 1.5752838685
| 17> O -0.3516858146 -1.4707088041 0.6173124842
| 18> O 1.7964400411 -2.0927104979 0.3226311272
| 19> O 2.4981234669 0.4713978851 -0.5862116948
| 20> O -0.1790000522 2.0220445497 -1.1762743902
| 21> O -0.4359697885 1.094521935 2.1696422484
| 22> O -1.5605944175 -0.2868949301 -1.9034306871
| 23> H -3.1255527766 -0.0066033572 -0.5877371244
| 24> H -2.5105215182 -1.6644529809 -0.8152021256
| 25> H 1.3403586508 -2.683431552 -0.2983331808
| 26> H 3.0483594633 -0.3256909584 -0.530458624
| 27> H 0.5639196102 2.3650930728 -1.6937045318
| 28> H -1.1862606875 1.0005334179 2.7749755057
| 29> H -1.3123671834 0.6569842613 -1.8848942997
| 30> *
| 31>
| 32>                          ****END OF INPUT****

CARTESIAN COORDINATES (ANGSTROEM)
---------------------------------
  C     -2.221178   -0.616200   -0.711796
  C     -1.385357   -0.486492    0.581654
  H     -2.061561   -0.754009    1.406607
  C     -0.866385    0.937910    0.836848
  H     -1.677999    1.645110    0.611632
  C      0.322912    1.322070   -0.061431
  H      0.975608    1.970257    0.539587
  C      1.148438    0.092987   -0.468098
  H      0.774927   -0.299112   -1.427997
  C      0.973851   -1.008886    0.591602
  H      1.280790   -0.616750    1.575284
  O     -0.351686   -1.470709    0.617312
  O      1.796440   -2.092710    0.322631
  O      2.498123    0.471398   -0.586212
  O     -0.179000    2.022045   -1.176274
  O     -0.435970    1.094522    2.169642
  O     -1.560594   -0.286895   -1.903431
  H     -3.125553   -0.006603   -0.587737
  H     -2.510522   -1.664453   -0.815202
  H      1.340359   -2.683432   -0.298333
  H      3.048359   -0.325691   -0.530459
  H      0.563920    2.365093   -1.693705
  H     -1.186261    1.000533    2.774976
  H     -1.312367    0.656984   -1.884894

 Total Charge           Charge          ....    0
 Multiplicity           Mult            ....    1
 Number of Electrons    NEL             ....   96
 Basis Dimension        Dim             ....  192

ORBITAL ENERGIES
----------------

  NO   OCC          E(Eh)            E(eV)
   0   2.0000     -18.779409      -511.0137
   1   2.0000     -18.766096      -510.6514
   2   2.0000     -18.765956      -510.6476
   3   2.0000     -18.762288      -510.5478
   4   2.0000     -18.746452      -510.1169
   5   2.0000     -18.739162      -509.9185
   6   2.0000      -9.980206      -271.5752
   7   2.0000      -9.958177      -270.9758
   8   2.0000      -9.951183      -270.7854
   9   2.0000      -9.950387      -270.7638
  10   2.0000      -9.932905      -270.2881
  11   2.0000      -9.930553      -270.2241
  12   2.0000      -0.982663       -26.7396
  13   2.0000      -0.956749       -26.0345
  14   2.0000      -0.942457       -25.6456
  15   2.0000      -0.924375       -25.1535
  16   2.0000      -0.915718       -24.9180
  17   2.0000      -0.905721       -24.6459
  18   2.0000      -0.711048       -19.3486
  19   2.0000      -0.690037       -18.7769
  20   2.0000      -0.618158       -16.8209
  21   2.0000      -0.588811       -16.0224
  22   2.0000      -0.570479       -15.5235
  23   2.0000      -0.527502       -14.3541
  24   2.0000      -0.518580       -14.1113
  25   2.0000      -0.487847       -13.2750
  26   2.0000      -0.475044       -12.9266
  27   2.0000      -0.456123       -12.4117
  28   2.0000      -0.440529       -11.9874
  29   2.0000      -0.431211       -11.7339
  30   2.0000      -0.424650       -11.5553
  31   2.0000      -0.402819       -10.9613
  32   2.0000      -0.392572       -10.6824
  33   2.0000      -0.376592       -10.2476
  34   2.0000      -0.366445        -9.9715
  35   2.0000      -0.357433        -9.7262
  36   2.0000      -0.324891        -8.8407
  37   2.0000      -0.322508        -8.7759
  38   2.0000      -0.312825        -8.5124
  39   2.0000      -0.291259        -7.9256
  40   2.0000      -0.287431        -7.8214
  41   2.0000      -0.276583        -7.5262
  42   2.0000      -0.258374        -7.0307
  43   2.0000      -0.243966        -6.6387
  44   2.0000      -0.234140        -6.3713
  45   2.0000      -0.232345        -6.3224
  46   2.0000      -0.206500        -5.6192
  47   2.0000      -0.197611        -5.3773
  48   0.0000       0.008367         0.2277
  49   0.0000       0.020915         0.5691
  50   0.0000       0.036038         0.9806
  51   0.0000       0.050349         1.3701
  52   0.0000       0.066874         1.8197

MULLIKEN ATOMIC CHARGES
-----------------------
   0 C :    0.049088
   1 C :    0.059694
   2 H :    0.050669
   3 C :   -0.018214
   4 H :    0.077222
   5 C :    0.091794
   6 H :    0.085683
   7 C :    0.018022
   8 H :    0.042085
   9 C :    0.198910
  10 H :    0.063711
  11 O :   -0.318276
  12 O :   -0.394441
  13 O :   -0.428151
  14 O :   -0.422387
  15 O :   -0.408676
  16 O :   -0.436911
  17 H :    0.066116
  18 H :    0.088517
  19 H :    0.303069
  20 H :    0.302216
  21 H :    0.324151
  22 H :    0.305551
  23 H :    0.300558
Sum of atomic charges:    0.0000000

LOEWDIN ATOMIC CHARGES
----------------------
   0 C :   -0.129669
   1 C :   -0.071075
   2 H :    0.109540
   3 C :   -0.070071
   4 H :    0.111545
   5 C :   -0.059918
   6 H :    0.124240
   7 C :   -0.112495
   8 H :    0.103212
   9 C :   -0.004115
  10 H :    0.100251
  11 O :   -0.153799
  12 O :   -0.299451
  13 O :   -0.330554
  14 O :   -0.304560
  15 O :   -0.310605
  16 O :   -0.341031
  17 H :    0.096856
  18 H :    0.116895
  19 H :    0.287865
  20 H :    0.281983
  21 H :    0.301105
  22 H :    0.288521
  23 H :    0.265328

  Mayer bond orders larger than 0.100000
B(  0-C ,  1-C ) :   1.0055 B(  0-C , 16-O ) :   1.1305 B(  0-C , 17-H ) :   0.9110
B(  0-C , 18-H ) :   0.9155 B(  1-C ,  2-H ) :   0.8728 B(  1-C ,  3-C ) :   1.0256
B(  1-C , 11-O ) :   0.9849 B(  3-C ,  4-H ) :   0.8905 B(  3-C ,  5-C ) :   1.0224
B(  3-C , 15-O ) :   1.0327 B(  5-C ,  6-H ) :   0.8570 B(  5-C ,  7-C ) :   1.0183
B(  5-C , 14-O ) :   1.0170 B(  7-C ,  8-H ) :   0.8153 B(  7-C ,  9-C ) :   1.0492
B(  7-C , 13-O ) :   1.0677 B(  9-C , 10-H ) :   0.8710 B(  9-C , 11-O ) :   1.0303
B(  9-C , 12-O ) :   1.1013 B( 12-O , 19-H ) :   0.8394 B( 13-O , 20-H ) :   0.8275
B( 14-O , 21-H ) :   0.8374 B( 14-O , 23-H ) :   0.1282 B( 15-O , 22-H ) :   0.8440
B( 16-O , 23-H ) :   0.7829

Dispersion correction           -0.025520961
FINAL SINGLE POINT ENERGY      -685.695009887673

DIPOLE MOMENT
-------------

Method             : SCF
Type of density    : Electron Density
Multiplicity       :   1
Irrep              :   0
Energy             :  -685.8273674476939732 Eh
Relativity type    :
Basis              : AO
                                X                 Y                 Z
Electronic contribution:      3.071328247      -0.845521420       0.521541998
Nuclear contribution   :     -3.623580251       1.204409155      -0.318063839
                        -----------------------------------------
Total Dipole Moment    :     -0.552252004       0.358887736       0.203478159
                        -----------------------------------------
Magnitude (a.u.)       :      0.689337395
Magnitude (Debye)      :      1.752156412

Rotational constants in cm-1:             0.035552             0.029006             0.026622
Rotational constants in MHz :          1065.814008           869.587759           798.098642

                             ****ORCA TERMINATED NORMALLY****
TOTAL RUN TIME: 0 days 0 hours 0 minutes 12 seconds 197 msec
