                         Program Version 6.0.0  -   RELEASE  -
|  1> ! r2scan-3c def2/J RI DEFGRID2 scfconv6 printgap
|  2> %output
|  3>     printlevel normal
|  4> end
|  5> * xyz 0 1
|  6> C 0.987047018 2.1107408009 -0.3808528055
|  7> C 0.3425188709 0.8648346042 0.1987461116
|  8> H 0.1009827962 0.9972509554 1.2549645741
|  9> C -0.8930510017 0.4650600632 -0.5838423158
| 10> Cl -1.7171675873 -0.9395539261 0.1734676732
| 11> Cl 1.5330140044 -0.5018552708 0.1568949333
| 12> H 0.296258245 2.9450318076 -0.298648289
| 13> H 1.8937244282 2.3491430451 0.1665112777
| 14> H 1.2394197964 1.9575060122 -1.425848885
| 15> H -1.6135623316 1.2811977359 -0.5888047792
| 16> H -0.6410332078 0.1704667824 -1.6010918605
| 17> *
| 18>
| 19>                          ****END OF INPUT****

CARTESIAN COORDINATES (ANGSTROEM)
---------------------------------
  C      0.987047    2.110741   -0.380853
  C      0.342519    0.864835    0.198746
  H      0.100983    0.997251    1.254965
  C     -0.893051    0.465060   -0.583842
  Cl    -1.717168   -0.939554    0.173468
  Cl     1.533014   -0.501855    0.156895
  H      0.296258    2.945032   -0.298648
  H      1.893724    2.349143    0.166511
  H      1.239420    1.957506   -1.425849
  H     -1.613562    1.281198   -0.588805
  H     -0.641033    0.170467   -1.601092

 Total Charge           Charge          ....    0
 Multiplicity           Mult            ....    1
 Number of Electrons    NEL             ....   58
 Basis Dimension        Dim             ....  141

ORBITAL ENERGIES
----------------

  NO   OCC          E(Eh)            E(eV)
   0   2.0000    -101.207412     -2753.9937
   1   2.0000    -101.204042     -2753.9020
   2   2.0000     -10.117759      -275.3182
   3   2.0000     -10.109335      -275.0890
   4   2.0000     -10.050181      -273.4793
   5   2.0000      -9.363249      -254.7870
   6   2.0000      -9.359998      -254.6985
   7   2.0000      -7.109759      -193.4664
   8   2.0000      -7.106292      -193.3720
   9   2.0000      -7.099248      -193.1804
  10   2.0000      -7.099056      -193.1751
  11   2.0000      -7.096166      -193.0965
  12   2.0000      -7.095876      -193.0886
  13   2.0000      -0.856478       -23.3060
  14   2.0000      -0.800537       -21.7837
  15   2.0000      -0.729208       -19.8427
  16   2.0000      -0.658735       -17.9251
  17   2.0000      -0.572327       -15.5738
  18   2.0000      -0.473936       -12.8965
  19   2.0000      -0.440835       -11.9957
  20   2.0000      -0.429587       -11.6897
  21   2.0000      -0.406628       -11.0649
  22   2.0000      -0.366568        -9.9748
  23   2.0000      -0.362449        -9.8627
  24   2.0000      -0.351663        -9.5692
  25   2.0000      -0.280341        -7.6285
  26   2.0000      -0.278303        -7.5730
  27   2.0000      -0.270096        -7.3497
  28   2.0000      -0.265218        -7.2170
  29   0.0000      -0.016613        -0.4521
  30   0.0000       0.008426         0.2293
  31   0.0000       0.085833         2.3356
  32   0.0000       0.102244         2.7822
  33   0.0000       0.122548         3.3347

MULLIKEN ATOMIC CHARGES
-----------------------
   0 C :   -0.465619
   1 C :    0.016982
   2 H :    0.177776
   3 C :   -0.177269
   4 Cl:   -0.170778
   5 Cl:   -0.191481
   6 H :    0.146645
   7 H :    0.170803
   8 H :    0.158793
   9 H :    0.159350
  10 H :    0.174797
Sum of atomic charges:    0.0000000

LOEWDIN ATOMIC CHARGES
----------------------
   0 C :   -0.421011
   1 C :   -0.282346
   2 H :    0.168362
   3 C :   -0.338297
   4 Cl:    0.020395
   5 Cl:    0.028235
   6 H :    0.159702
   7 H :    0.166998
   8 H :    0.163244
   9 H :    0.165628
  10 H :    0.169090

  Mayer bond orders larger than 0.100000
B(  0-C ,  1-C ) :   0.9149 B(  0-C ,  6-H ) :   0.9602 B(  0-C ,  7-H ) :   0.9604
B(  0-C ,  8-H ) :   0.9727 B(  1-C ,  2-H ) :   0.9391 B(  1-C ,  3-C ) :   0.9516
B(  1-C ,  5-Cl) :   0.9418 B(  3-C ,  4-Cl) :   1.0013 B(  3-C ,  9-H ) :   0.9418
B(  3-C , 10-H ) :   0.9562

Dispersion correction           -0.002953920
FINAL SINGLE POINT ENERGY     -1038.250924950315

DIPOLE MOMENT
-------------

Method             : SCF
Type of density    : Electron Density
Multiplicity       :   1
Irrep              :   0
Energy             : -1038.2573825999397741 Eh
Relativity type    :
Basis              : AO
                                X                 Y                 Z
Electronic contribution:     -1.526184323      -9.795881176       2.479469523
Nuclear contribution   :      1.444083469      11.035504552      -2.782203406
                        -----------------------------------------
Total Dipole Moment    :     -0.082100854       1.239623376      -0.302733883
                        -----------------------------------------
Magnitude (a.u.)       :      1.278692484
Magnitude (Debye)      :      3.250177999

Rotational constants in cm-1:             0.150645             0.065398             0.048131
Rotational constants in MHz :          4516.233847          1960.586483          1442.917177

                             ****ORCA TERMINATED NORMALLY****
TOTAL RUN TIME: 0 days 0 hours 0 minutes 15 seconds 168 msec
