                         Program Version 6.0.0  -   RELEASE  -
|  1> ! r2scan-3c def2/J RI DEFGRID2 scfconv6 printgap
|  2> %output
|  3>     printlevel normal
|  4> end
|  5> %cpcm
|  6>     smd true
|  7>     smdsolvent "water"
|  8> end
|  9> * xyz 0 1
| 10> C 0.987047018 2.1107408009 -0.3808528055
| 11> C 0.3425188709 0.8648346042 0.1987461116
| 12> H 0.1009827962 0.9972509554 1.2549645741
| 13> C -0.8930510017 0.4650600632 -0.5838423158
| 14> Cl -1.7171675873 -0.9395539261 0.1734676732
| 15> Cl 1.5330140044 -0.5018552708 0.1568949333
| 16> H 0.296258245 2.9450318076 -0.298648289
| 17> H 1.8937244282 2.3491430451 0.1665112777
| 18> H 1.2394197964 1.9575060122 -1.425848885
| 19> H -1.6135623316 1.2811977359 -0.5888047792
| 20> H -0.6410332078 0.1704667824 -1.6010918605
| 21> *
| 22>
| 23>                          ****END OF INPUT****

CARTESIAN COORDINATES (ANGSTROEM)
---------------------------------
  C      0.987047    2.110741   -0.380853
  C      0.342519    0.864835    0.198746
  H      0.100983    0.997251    1.254965
  C     -0.893051    0.465060   -0.583842
  Cl    -1.717168   -0.939554    0.173468
  Cl     1.533014   -0.501855    0.156895
  H      0.296258    2.945032   -0.298648
  H      1.893724    2.349143    0.166511
  H      1.239420    1.957506   -1.425849
  H     -1.613562    1.281198   -0.588805
  H     -0.641033    0.170467   -1.601092

 Total Charge           Charge          ....    0
 Multiplicity           Mult            ....    1
 Number of Electrons    NEL             ....   58
 Basis Dimension        Dim             ....  141

ORBITAL ENERGIES
----------------

  NO   OCC          E(Eh)            E(eV)
   0   2.0000    -101.205379     -2753.9384
   1   2.0000    -101.201371     -2753.8293
   2   2.0000     -10.103470      -274.9294
   3   2.0000     -10.093006      -274.6446
   4   2.0000     -10.026960      -272.8474
   5   2.0000      -9.361560      -254.7410
   6   2.0000      -9.357728      -254.6367
   7   2.0000      -7.107626      -193.4083
   8   2.0000      -7.103592      -193.2986
   9   2.0000      -7.097734      -193.1392
  10   2.0000      -7.097583      -193.1351
  11   2.0000      -7.094052      -193.0390
  12   2.0000      -7.093811      -193.0324
  13   2.0000      -0.847205       -23.0536
  14   2.0000      -0.796151       -21.6644
  15   2.0000      -0.716176       -19.4881
  16   2.0000      -0.642913       -17.4945
  17   2.0000      -0.556117       -15.1327
  18   2.0000      -0.457816       -12.4578
  19   2.0000      -0.426614       -11.6087
  20   2.0000      -0.414956       -11.2915
  21   2.0000      -0.388189       -10.5632
  22   2.0000      -0.354498        -9.6464
  23   2.0000      -0.345052        -9.3893
  24   2.0000      -0.335078        -9.1179
  25   2.0000      -0.279373        -7.6021
  26   2.0000      -0.275712        -7.5025
  27   2.0000      -0.267624        -7.2824
  28   2.0000      -0.264160        -7.1882
  29   0.0000      -0.007781        -0.2117
  30   0.0000       0.017144         0.4665
  31   0.0000       0.106133         2.8880
  32   0.0000       0.119369         3.2482
  33   0.0000       0.143836         3.9140

MULLIKEN ATOMIC CHARGES
-----------------------
   0 C :   -0.507334
   1 C :    0.036933
   2 H :    0.202654
   3 C :   -0.190754
   4 Cl:   -0.224634
   5 Cl:   -0.246424
   6 H :    0.175274
   7 H :    0.179291
   8 H :    0.174404
   9 H :    0.200014
  10 H :    0.200574
Sum of atomic charges:    0.0000000

LOEWDIN ATOMIC CHARGES
----------------------
   0 C :   -0.420839
   1 C :   -0.272051
   2 H :    0.177008
   3 C :   -0.329007
   4 Cl:   -0.015074
   5 Cl:   -0.008463
   6 H :    0.172244
   7 H :    0.168462
   8 H :    0.167291
   9 H :    0.182367
  10 H :    0.178062

  Mayer bond orders larger than 0.100000
B(  0-C ,  1-C ) :   0.9196 B(  0-C ,  6-H ) :   0.9527 B(  0-C ,  7-H ) :   0.9582
B(  0-C ,  8-H ) :   0.9701 B(  1-C ,  2-H ) :   0.9302 B(  1-C ,  3-C ) :   0.9546
B(  1-C ,  5-Cl) :   0.8892 B(  3-C ,  4-Cl) :   0.9525 B(  3-C ,  9-H ) :   0.9346
B(  3-C , 10-H ) :   0.9470

Dispersion correction           -0.002953920
FINAL SINGLE POINT ENERGY     -1038.257408134741

DIPOLE MOMENT
-------------

Method             : SCF
Type of density    : Electron Density
Multiplicity       :   1
Irrep              :   0
Energy             : -1038.2638657843656347 Eh
Relativity type    :
Basis              : AO
                                X                 Y                 Z
Electronic contribution:     -1.624127615      -9.314053268       2.357803943
Nuclear contribution   :      1.444083469      11.035504552      -2.782203406
                        -----------------------------------------
Total Dipole Moment    :     -0.180044146       1.721451284      -0.424399463
                        -----------------------------------------
Magnitude (a.u.)       :      1.782112601
Magnitude (Debye)      :      4.529770245

Rotational constants in cm-1:             0.150645             0.065398             0.048131
Rotational constants in MHz :          4516.233847          1960.586483          1442.917177

                             ****ORCA TERMINATED NORMALLY****
TOTAL RUN TIME: 0 days 0 hours 0 minutes 19 seconds 24 msec
