                         Program Version 6.0.0  -   RELEASE  -
|  1> ! wb97x-v def2-tzvp def2/J RIJCOSX DEFGRID2 scfconv7 GCP(DFT/TZ) printgap
|  2> %output
|  3>     printlevel normal
|  4> end
|  5> * xyz 0 1
|  6> C -3.6032533405940868 -1.0412758518102376 0.17589670131670512
|  7> C -2.1136137931551686 -1.3267068248307232 0.029073440491885753
|  8> C -1.201312256880285 -0.12473241891690204 0.09558684484430656
|  9> C -1.689145752019945 1.1540136846509226 0.2699629186310918
| 10> C -0.8335405209200999 2.2759104433122523 0.33144630959382254
| 11> C 0.5247115201429743 2.124101914648683 0.21923478174935437
| 12> C 1.0812921604558565 0.8336363803686303 0.03949172412459482
| 13> C 0.21514361814475164 -0.3065577900788556 -0.02455240181440007
| 14> C 0.8053343888891229 -1.5834028559949256 -0.20584680130129837
| 15> C 2.1699396819248773 -1.7281252882749005 -0.31616511135290076
| 16> C 3.0177059965081074 -0.6033039482601958 -0.2514682821258349
| 17> C 2.48108102935622 0.6500788780660455 -0.07769496321849763
| 18> H -4.165434990762192 -1.9769827893060175 0.10678560920873152
| 19> H -3.9686322517028376 -0.3745824029610564 -0.6118057539059043
| 20> H -3.835332844801358 -0.5842014697028418 1.1432966687180275
| 21> H -1.9394653224155847 -1.843826540136071 -0.9239888485575982
| 22> H -1.806950235481386 -2.040239326035682 0.8053460447896754
| 23> H -2.7571425777461704 1.3164646669127176 0.3634696637711316
| 24> H -1.2639808732484628 3.2631398725006053 0.4692646989485513
| 25> H 1.1900711632919516 2.9815283889472832 0.26574402942303865
| 26> H 0.1746255603460377 -2.463543243668159 -0.2588960179764357
| 27> H 2.598370233378476 -2.7161540515447435 -0.45384742313380244
| 28> H 4.092095936451031 -0.7311742245093839 -0.3394983370742245
| 29> H 3.124250145107276 1.5244609308865584 -0.027145086016177194
| 30> *
| 31>
| 32>                          ****END OF INPUT****

CARTESIAN COORDINATES (ANGSTROEM)
---------------------------------
  C     -3.603253   -1.041276    0.175897
  C     -2.113614   -1.326707    0.029073
  C     -1.201312   -0.124732    0.095587
  C     -1.689146    1.154014    0.269963
  C     -0.833541    2.275910    0.331446
  C      0.524712    2.124102    0.219235
  C      1.081292    0.833636    0.039492
  C      0.215144   -0.306558   -0.024552
  C      0.805334   -1.583403   -0.205847
  C      2.169940   -1.728125   -0.316165
  C      3.017706   -0.603304   -0.251468
  C      2.481081    0.650079   -0.077695
  H     -4.165435   -1.976983    0.106786
  H     -3.968632   -0.374582   -0.611806
  H     -3.835333   -0.584201    1.143297
  H     -1.939465   -1.843827   -0.923989
  H     -1.806950   -2.040239    0.805346
  H     -2.757143    1.316465    0.363470
  H     -1.263981    3.263140    0.469265
  H      1.190071    2.981528    0.265744
  H      0.174626   -2.463543   -0.258896
  H      2.598370   -2.716154   -0.453847
  H      4.092096   -0.731174   -0.339498
  H      3.124250    1.524461   -0.027145

 Total Charge           Charge          ....    0
 Multiplicity           Mult            ....    1
 Number of Electrons    NEL             ....   84
 Basis Dimension        Dim             ....  444

ORBITAL ENERGIES
----------------

  NO   OCC          E(Eh)            E(eV)
   0   2.0000     -12.061005      -328.1966
   1   2.0000     -12.059882      -328.1661
   2   2.0000     -12.058103      -328.1177
   3   2.0000     -12.052825      -327.9740
   4   2.0000     -12.052240      -327.9581
   5   2.0000     -12.051927      -327.9496
   6   2.0000     -12.050600      -327.9135
   7   2.0000     -12.050254      -327.9041
   8   2.0000     -12.049517      -327.8840
   9   2.0000     -12.047782      -327.8368
  10   2.0000     -12.045825      -327.7836
  11   2.0000     -12.039705      -327.6170
  12   2.0000      -1.400942       -38.1216
  13   2.0000      -1.349733       -36.7281
  14   2.0000      -1.315594       -35.7991
  15   2.0000      -1.271155       -34.5899
  16   2.0000      -1.267627       -34.4939
  17   2.0000      -1.232162       -33.5288
  18   2.0000      -1.143548       -31.1175
  19   2.0000      -1.122871       -30.5549
  20   2.0000      -1.113138       -30.2900
  21   2.0000      -1.060485       -28.8573
  22   2.0000      -0.996164       -27.1070
  23   2.0000      -0.978013       -26.6131
  24   2.0000      -0.969541       -26.3826
  25   2.0000      -0.913966       -24.8703
  26   2.0000      -0.905386       -24.6368
  27   2.0000      -0.897214       -24.4144
  28   2.0000      -0.882453       -24.0128
  29   2.0000      -0.875693       -23.8288
  30   2.0000      -0.861308       -23.4374
  31   2.0000      -0.834204       -22.6999
  32   2.0000      -0.831700       -22.6317
  33   2.0000      -0.814579       -22.1658
  34   2.0000      -0.803164       -21.8552
  35   2.0000      -0.798402       -21.7256
  36   2.0000      -0.783418       -21.3179
  37   2.0000      -0.774287       -21.0694
  38   2.0000      -0.722509       -19.6605
  39   2.0000      -0.673242       -18.3199
  40   2.0000      -0.626654       -17.0521
  41   2.0000      -0.594340       -16.1728
  42   0.0000      -0.281163        -7.6508
  43   0.0000      -0.254500        -6.9253
  44   0.0000      -0.196431        -5.3451
  45   0.0000      -0.127724        -3.4756
  46   0.0000      -0.056175        -1.5286

MULLIKEN ATOMIC CHARGES
-----------------------
   0 C :   -0.369149
   1 C :   -0.168709
   2 C :    0.104345
   3 C :   -0.202749
   4 C :   -0.121690
   5 C :   -0.228534
   6 C :    0.189650
   7 C :    0.065769
   8 C :   -0.240672
   9 C :   -0.132839
  10 C :   -0.104548
  11 C :   -0.198634
  12 H :    0.121818
  13 H :    0.119108
  14 H :    0.119666
  15 H :    0.110985
  16 H :    0.110959
  17 H :    0.127789
  18 H :    0.114082
  19 H :    0.109942
  20 H :    0.129083
  21 H :    0.115952
  22 H :    0.116448
  23 H :    0.111931
Sum of atomic charges:   -0.0000000

LOEWDIN ATOMIC CHARGES
----------------------
   0 C :   -0.301692
   1 C :   -0.243694
   2 C :   -0.102811
   3 C :   -0.118324
   4 C :   -0.140393
   5 C :   -0.107289
   6 C :   -0.090082
   7 C :   -0.061325
   8 C :   -0.103470
   9 C :   -0.140630
  10 C :   -0.142436
  11 C :   -0.099942
  12 H :    0.118943
  13 H :    0.118863
  14 H :    0.119020
  15 H :    0.144075
  16 H :    0.144028
  17 H :    0.146340
  18 H :    0.141798
  19 H :    0.144249
  20 H :    0.146549
  21 H :    0.141594
  22 H :    0.141519
  23 H :    0.145109

  Mayer bond orders larger than 0.100000
B(  0-C ,  1-C ) :   0.9954 B(  0-C , 12-H ) :   0.9811 B(  0-C , 13-H ) :   0.9819
B(  0-C , 14-H ) :   0.9821 B(  1-C ,  2-C ) :   0.9490 B(  1-C , 15-H ) :   0.9681
B(  1-C , 16-H ) :   0.9698 B(  2-C ,  3-C ) :   1.5209 B(  2-C ,  7-C ) :   1.1695
B(  3-C ,  4-C ) :   1.2820 B(  3-C , 17-H ) :   0.9667 B(  4-C ,  5-C ) :   1.5858
B(  4-C , 18-H ) :   0.9810 B(  5-C ,  6-C ) :   1.1944 B(  5-C , 19-H ) :   0.9852
B(  6-C ,  7-C ) :   1.2954 B(  6-C , 11-C ) :   1.2281 B(  7-C ,  8-C ) :   1.2236
B(  8-C ,  9-C ) :   1.6007 B(  8-C , 20-H ) :   0.9650 B(  9-C , 10-C ) :   1.2801
B(  9-C , 21-H ) :   0.9748 B( 10-C , 11-C ) :   1.5610 B( 10-C , 22-H ) :   0.9771
B( 11-C , 23-H ) :   0.9821

FINAL SINGLE POINT ENERGY      -464.535091561984

DIPOLE MOMENT
-------------

Method             : SCF
Type of density    : Electron Density
Multiplicity       :   1
Irrep              :   0
Energy             :  -464.5485379202839908 Eh
Relativity type    :
Basis              : AO
                                X                 Y                 Z
Electronic contribution:      8.014102360       3.296486292      -0.225064889
Nuclear contribution   :     -8.146328436      -3.435100221       0.219638954
                        -----------------------------------------
Total Dipole Moment    :     -0.132226076      -0.138613929      -0.005425935
                        -----------------------------------------
Magnitude (a.u.)       :      0.191642890
Magnitude (Debye)      :      0.487117514

Rotational constants in cm-1:             0.054699             0.026302             0.017879
Rotational constants in MHz :          1639.835011           788.527616           536.004834

                             ****ORCA TERMINATED NORMALLY****
TOTAL RUN TIME: 0 days 0 hours 5 minutes 48 seconds 513 msec
