                         Program Version 6.0.0  -   RELEASE  -
|  1> ! wb97x-v def2-tzvp def2/J RIJCOSX DEFGRID2 scfconv7 GCP(DFT/TZ) printgap
|  2> %output
|  3>     printlevel normal
|  4> end
|  5> %cpcm
|  6>     smd true
|  7>     smdsolvent "water"
|  8> end
|  9> * xyz 0 1
| 10> C -3.6032533405940868 -1.0412758518102376 0.17589670131670512
| 11> C -2.1136137931551686 -1.3267068248307232 0.029073440491885753
| 12> C -1.201312256880285 -0.12473241891690204 0.09558684484430656
| 13> C -1.689145752019945 1.1540136846509226 0.2699629186310918
| 14> C -0.8335405209200999 2.2759104433122523 0.33144630959382254
| 15> C 0.5247115201429743 2.124101914648683 0.21923478174935437
| 16> C 1.0812921604558565 0.8336363803686303 0.03949172412459482
| 17> C 0.21514361814475164 -0.3065577900788556 -0.02455240181440007
| 18> C 0.8053343888891229 -1.5834028559949256 -0.20584680130129837
| 19> C 2.1699396819248773 -1.7281252882749005 -0.31616511135290076
| 20> C 3.0177059965081074 -0.6033039482601958 -0.2514682821258349
| 21> C 2.48108102935622 0.6500788780660455 -0.07769496321849763
| 22> H -4.165434990762192 -1.9769827893060175 0.10678560920873152
| 23> H -3.9686322517028376 -0.3745824029610564 -0.6118057539059043
| 24> H -3.835332844801358 -0.5842014697028418 1.1432966687180275
| 25> H -1.9394653224155847 -1.843826540136071 -0.9239888485575982
| 26> H -1.806950235481386 -2.040239326035682 0.8053460447896754
| 27> H -2.7571425777461704 1.3164646669127176 0.3634696637711316
| 28> H -1.2639808732484628 3.2631398725006053 0.4692646989485513
| 29> H 1.1900711632919516 2.9815283889472832 0.26574402942303865
| 30> H 0.1746255603460377 -2.463543243668159 -0.2588960179764357
| 31> H 2.598370233378476 -2.7161540515447435 -0.45384742313380244
| 32> H 4.092095936451031 -0.7311742245093839 -0.3394983370742245
| 33> H 3.124250145107276 1.5244609308865584 -0.027145086016177194
| 34> *
| 35>
| 36>                          ****END OF INPUT****

CARTESIAN COORDINATES (ANGSTROEM)
---------------------------------
  C     -3.603253   -1.041276    0.175897
  C     -2.113614   -1.326707    0.029073
  C     -1.201312   -0.124732    0.095587
  C     -1.689146    1.154014    0.269963
  C     -0.833541    2.275910    0.331446
  C      0.524712    2.124102    0.219235
  C      1.081292    0.833636    0.039492
  C      0.215144   -0.306558   -0.024552
  C      0.805334   -1.583403   -0.205847
  C      2.169940   -1.728125   -0.316165
  C      3.017706   -0.603304   -0.251468
  C      2.481081    0.650079   -0.077695
  H     -4.165435   -1.976983    0.106786
  H     -3.968632   -0.374582   -0.611806
  H     -3.835333   -0.584201    1.143297
  H     -1.939465   -1.843827   -0.923989
  H     -1.806950   -2.040239    0.805346
  H     -2.757143    1.316465    0.363470
  H     -1.263981    3.263140    0.469265
  H      1.190071    2.981528    0.265744
  H      0.174626   -2.463543   -0.258896
  H      2.598370   -2.716154   -0.453847
  H      4.092096   -0.731174   -0.339498
  H      3.124250    1.524461   -0.027145

 Total Charge           Charge          ....    0
 Multiplicity           Mult            ....    1
 Number of Electrons    NEL             ....   84
 Basis Dimension        Dim             ....  444

ORBITAL ENERGIES
----------------

  NO   OCC          E(Eh)            E(eV)
   0   2.0000     -12.061182      -328.2014
   1   2.0000     -12.060189      -328.1744
   2   2.0000     -12.058591      -328.1309
   3   2.0000     -12.051111      -327.9274
   4   2.0000     -12.050542      -327.9119
   5   2.0000     -12.048983      -327.8695
   6   2.0000     -12.048821      -327.8651
   7   2.0000     -12.047806      -327.8375
   8   2.0000     -12.046192      -327.7936
   9   2.0000     -12.043693      -327.7255
  10   2.0000     -12.041792      -327.6738
  11   2.0000     -12.027800      -327.2931
  12   2.0000      -1.401871       -38.1468
  13   2.0000      -1.349465       -36.7208
  14   2.0000      -1.313762       -35.7493
  15   2.0000      -1.268598       -34.5203
  16   2.0000      -1.266548       -34.4645
  17   2.0000      -1.227990       -33.4153
  18   2.0000      -1.139674       -31.0121
  19   2.0000      -1.121935       -30.5294
  20   2.0000      -1.109397       -30.1882
  21   2.0000      -1.056739       -28.7553
  22   2.0000      -0.994182       -27.0531
  23   2.0000      -0.976546       -26.5732
  24   2.0000      -0.967951       -26.3393
  25   2.0000      -0.911493       -24.8030
  26   2.0000      -0.903221       -24.5779
  27   2.0000      -0.892134       -24.2762
  28   2.0000      -0.878223       -23.8977
  29   2.0000      -0.865697       -23.5568
  30   2.0000      -0.857647       -23.3378
  31   2.0000      -0.830058       -22.5870
  32   2.0000      -0.824614       -22.4389
  33   2.0000      -0.809548       -22.0289
  34   2.0000      -0.798006       -21.7149
  35   2.0000      -0.797814       -21.7096
  36   2.0000      -0.775367       -21.0988
  37   2.0000      -0.766359       -20.8537
  38   2.0000      -0.723539       -19.6885
  39   2.0000      -0.674172       -18.3451
  40   2.0000      -0.628786       -17.1101
  41   2.0000      -0.594986       -16.1904
  42   0.0000      -0.281585        -7.6623
  43   0.0000      -0.256290        -6.9740
  44   0.0000      -0.197463        -5.3733
  45   0.0000      -0.127709        -3.4751
  46   0.0000      -0.050568        -1.3760

MULLIKEN ATOMIC CHARGES
-----------------------
   0 C :   -0.401526
   1 C :   -0.161637
   2 C :    0.073209
   3 C :   -0.240211
   4 C :   -0.160189
   5 C :   -0.276643
   6 C :    0.167086
   7 C :    0.053362
   8 C :   -0.276839
   9 C :   -0.176793
  10 C :   -0.143774
  11 C :   -0.241293
  12 H :    0.138942
  13 H :    0.129775
  14 H :    0.129815
  15 H :    0.127641
  16 H :    0.127727
  17 H :    0.166160
  18 H :    0.158546
  19 H :    0.156695
  20 H :    0.169798
  21 H :    0.160658
  22 H :    0.161109
  23 H :    0.158380
Sum of atomic charges:   -0.0000000

LOEWDIN ATOMIC CHARGES
----------------------
   0 C :   -0.304992
   1 C :   -0.241454
   2 C :   -0.108591
   3 C :   -0.125816
   4 C :   -0.149439
   5 C :   -0.117594
   6 C :   -0.104517
   7 C :   -0.073366
   8 C :   -0.108551
   9 C :   -0.148608
  10 C :   -0.150136
  11 C :   -0.107954
  12 H :    0.121914
  13 H :    0.121138
  14 H :    0.121188
  15 H :    0.149690
  16 H :    0.149617
  17 H :    0.155386
  18 H :    0.151421
  19 H :    0.154759
  20 H :    0.157012
  21 H :    0.151511
  22 H :    0.151422
  23 H :    0.155960

  Mayer bond orders larger than 0.100000
B(  0-C ,  1-C ) :   0.9886 B(  0-C , 12-H ) :   0.9784 B(  0-C , 13-H ) :   0.9784
B(  0-C , 14-H ) :   0.9785 B(  1-C ,  2-C ) :   0.9716 B(  1-C , 15-H ) :   0.9631
B(  1-C , 16-H ) :   0.9649 B(  2-C ,  3-C ) :   1.5011 B(  2-C ,  7-C ) :   1.1590
B(  3-C ,  4-C ) :   1.2608 B(  3-C , 17-H ) :   0.9748 B(  4-C ,  5-C ) :   1.5626
B(  4-C , 18-H ) :   0.9860 B(  5-C ,  6-C ) :   1.1808 B(  5-C , 19-H ) :   0.9919
B(  6-C ,  7-C ) :   1.2657 B(  6-C , 11-C ) :   1.2167 B(  7-C ,  8-C ) :   1.2119
B(  8-C ,  9-C ) :   1.5743 B(  8-C , 20-H ) :   0.9738 B(  9-C , 10-C ) :   1.2599
B(  9-C , 21-H ) :   0.9798 B( 10-C , 11-C ) :   1.5396 B( 10-C , 22-H ) :   0.9799
B( 11-C , 23-H ) :   0.9879

FINAL SINGLE POINT ENERGY      -464.538225341704

DIPOLE MOMENT
-------------

Method             : SCF
Type of density    : Electron Density
Multiplicity       :   1
Irrep              :   0
Energy             :  -464.5516717000037943 Eh
Relativity type    :
Basis              : AO
                                X                 Y                 Z
Electronic contribution:      7.974134243       3.211546491      -0.231984910
Nuclear contribution   :     -8.146328436      -3.435100221       0.219638954
                        -----------------------------------------
Total Dipole Moment    :     -0.172194193      -0.223553730      -0.012345956
                        -----------------------------------------
Magnitude (a.u.)       :      0.282452709
Magnitude (Debye)      :      0.717937732

Rotational constants in cm-1:             0.054699             0.026302             0.017879
Rotational constants in MHz :          1639.835011           788.527616           536.004834

                             ****ORCA TERMINATED NORMALLY****
TOTAL RUN TIME: 0 days 0 hours 5 minutes 59 seconds 130 msec
