                         Program Version 6.0.0  -   RELEASE  -
|  1> ! pbe def2-sv(p) def2/J RI DEFGRID1 loosescf d4 GCP(DFT/SV(P)) printgap
|  2> %output
|  3>     printlevel normal
|  4> end
|  5> * xyz 0 1
|  6> C -2.4726552265 0.8646209205 0.9635326092
|  7> C -1.4316925261 0.3998491778 -0.0569460962
|  8> C -2.079473131 -0.609333915 -1.0047078388
|  9> C -0.2248652444 -0.2095727966 0.6754068174
| 10> C 1.1809113537 -0.1221091582 0.0142928655
| 11> C 1.1823024169 0.4333055732 -1.4130738193
| 12> C 2.0744243184 0.7879206479 0.8673722064
| 13> C 1.7982836923 -1.5254698527 -0.0177589711
| 14> H -2.7868843297 0.0328474666 1.5908389106
| 15> H -2.0657878834 1.6442129305 1.6037192056
| 16> H -3.3498234393 1.2615971386 0.4573623446
| 17> H -1.1172258966 1.2741707708 -0.6308838543
| 18> H -1.3603997469 -1.0108196819 -1.7128005296
| 19> H -2.4955672376 -1.439804389 -0.4372149686
| 20> H -2.8858532984 -0.1418604906 -1.5658364188
| 21> H -0.1541974965 0.272141685 1.6523395578
| 22> H -0.457547407 -1.2593748261 0.8652749763
| 23> H 2.194663425 0.3947709844 -1.8107322623
| 24> H 0.8582627992 1.4704053832 -1.4350878554
| 25> H 0.5431565813 -0.1476978298 -2.0704814429
| 26> H 3.0679420465 0.8671391946 0.4309044875
| 27> H 2.1770275743 0.3915892554 1.8753493814
| 28> H 1.6487007241 1.7870309431 0.9303187564
| 29> H 1.8418740097 -1.9473200933 0.984047044
| 30> H 2.8102619092 -1.4902852253 -0.4159899699
| 31> H 1.2068342857 -2.1876731498 -0.6462028382
| 32> *
| 33>
| 34>                          ****END OF INPUT****

CARTESIAN COORDINATES (ANGSTROEM)
---------------------------------
  C     -2.472655    0.864621    0.963533
  C     -1.431693    0.399849   -0.056946
  C     -2.079473   -0.609334   -1.004708
  C     -0.224865   -0.209573    0.675407
  C      1.180911   -0.122109    0.014293
  C      1.182302    0.433306   -1.413074
  C      2.074424    0.787921    0.867372
  C      1.798284   -1.525470   -0.017759
  H     -2.786884    0.032847    1.590839
  H     -2.065788    1.644213    1.603719
  H     -3.349823    1.261597    0.457362
  H     -1.117226    1.274171   -0.630884
  H     -1.360400   -1.010820   -1.712801
  H     -2.495567   -1.439804   -0.437215
  H     -2.885853   -0.141860   -1.565836
  H     -0.154197    0.272142    1.652340
  H     -0.457547   -1.259375    0.865275
  H      2.194663    0.394771   -1.810732
  H      0.858263    1.470405   -1.435088
  H      0.543157   -0.147698   -2.070481
  H      3.067942    0.867139    0.430904
  H      2.177028    0.391589    1.875349
  H      1.648701    1.787031    0.930319
  H      1.841874   -1.947320    0.984047
  H      2.810262   -1.490285   -0.415990
  H      1.206834   -2.187673   -0.646203

 Total Charge           Charge          ....    0
 Multiplicity           Mult            ....    1
 Number of Electrons    NEL             ....   66
 Basis Dimension        Dim             ....  148

ORBITAL ENERGIES
----------------

  NO   OCC          E(Eh)            E(eV)
   0   2.0000      -9.903043      -269.4755
   1   2.0000      -9.889756      -269.1139
   2   2.0000      -9.874163      -268.6896
   3   2.0000      -9.868876      -268.5458
   4   2.0000      -9.868204      -268.5275
   5   2.0000      -9.868193      -268.5272
   6   2.0000      -9.867829      -268.5173
   7   2.0000      -9.867699      -268.5138
   8   2.0000      -0.747038       -20.3279
   9   2.0000      -0.707105       -19.2413
  10   2.0000      -0.613632       -16.6978
  11   2.0000      -0.609270       -16.5791
  12   2.0000      -0.603327       -16.4174
  13   2.0000      -0.599371       -16.3097
  14   2.0000      -0.502007       -13.6603
  15   2.0000      -0.468511       -12.7488
  16   2.0000      -0.421145       -11.4599
  17   2.0000      -0.403692       -10.9850
  18   2.0000      -0.395076       -10.7506
  19   2.0000      -0.385190       -10.4815
  20   2.0000      -0.371187       -10.1005
  21   2.0000      -0.363093        -9.8803
  22   2.0000      -0.346057        -9.4167
  23   2.0000      -0.335207        -9.1214
  24   2.0000      -0.332615        -9.0509
  25   2.0000      -0.317773        -8.6470
  26   2.0000      -0.310100        -8.4382
  27   2.0000      -0.305179        -8.3043
  28   2.0000      -0.290377        -7.9016
  29   2.0000      -0.285930        -7.7806
  30   2.0000      -0.268566        -7.3080
  31   2.0000      -0.263653        -7.1744
  32   2.0000      -0.258686        -7.0392
  33   0.0000       0.026699         0.7265
  34   0.0000       0.056374         1.5340
  35   0.0000       0.065159         1.7731
  36   0.0000       0.073101         1.9892
  37   0.0000       0.079616         2.1665

MULLIKEN ATOMIC CHARGES
-----------------------
   0 C :   -0.244148
   1 C :   -0.177235
   2 C :   -0.261177
   3 C :   -0.063552
   4 C :   -0.239515
   5 C :   -0.200985
   6 C :   -0.227756
   7 C :   -0.229075
   8 H :    0.093217
   9 H :    0.099401
  10 H :    0.094122
  11 H :    0.073599
  12 H :    0.108282
  13 H :    0.092921
  14 H :    0.096795
  15 H :    0.068509
  16 H :    0.065235
  17 H :    0.091627
  18 H :    0.098201
  19 H :    0.096104
  20 H :    0.089565
  21 H :    0.097180
  22 H :    0.095851
  23 H :    0.096986
  24 H :    0.089286
  25 H :    0.096563
Sum of atomic charges:    0.0000000

LOEWDIN ATOMIC CHARGES
----------------------
   0 C :   -0.327508
   1 C :   -0.158289
   2 C :   -0.330103
   3 C :   -0.198024
   4 C :   -0.103020
   5 C :   -0.319639
   6 C :   -0.317482
   7 C :   -0.317331
   8 H :    0.115388
   9 H :    0.115043
  10 H :    0.115073
  11 H :    0.114532
  12 H :    0.113399
  13 H :    0.115600
  14 H :    0.116635
  15 H :    0.116760
  16 H :    0.116660
  17 H :    0.117365
  18 H :    0.115522
  19 H :    0.115581
  20 H :    0.113296
  21 H :    0.114229
  22 H :    0.114415
  23 H :    0.114754
  24 H :    0.112725
  25 H :    0.114420

  Mayer bond orders larger than 0.100000
B(  0-C ,  1-C ) :   1.1070 B(  0-C ,  8-H ) :   0.9499 B(  0-C ,  9-H ) :   0.9482
B(  0-C , 10-H ) :   0.9509 B(  1-C ,  2-C ) :   1.1093 B(  1-C ,  3-C ) :   1.0950
B(  1-C , 11-H ) :   0.8937 B(  2-C , 12-H ) :   0.9428 B(  2-C , 13-H ) :   0.9449
B(  2-C , 14-H ) :   0.9501 B(  3-C ,  4-C ) :   1.0101 B(  3-C , 15-H ) :   0.9175
B(  3-C , 16-H ) :   0.9075 B(  4-C ,  5-C ) :   1.1249 B(  4-C ,  6-C ) :   1.0813
B(  4-C ,  7-C ) :   1.0772 B(  5-C , 17-H ) :   0.9404 B(  5-C , 18-H ) :   0.9358
B(  5-C , 19-H ) :   0.9307 B(  6-C , 20-H ) :   0.9478 B(  6-C , 21-H ) :   0.9443
B(  6-C , 22-H ) :   0.9489 B(  7-C , 23-H ) :   0.9463 B(  7-C , 24-H ) :   0.9473
B(  7-C , 25-H ) :   0.9485

Dispersion correction           -0.023061913
FINAL SINGLE POINT ENERGY      -314.866044870713

DIPOLE MOMENT
-------------

Method             : SCF
Type of density    : Electron Density
Multiplicity       :   1
Irrep              :   0
Energy             :  -314.9528928966594776 Eh
Relativity type    :
Basis              : AO
                                X                 Y                 Z
Electronic contribution:      0.304347082       0.248531517       0.289794347
Nuclear contribution   :     -0.304492911      -0.214773280      -0.314354956
                        -----------------------------------------
Total Dipole Moment    :     -0.000145829       0.033758237      -0.024560609
                        -----------------------------------------
Magnitude (a.u.)       :      0.041747614
Magnitude (Debye)      :      0.106114002

Rotational constants in cm-1:             0.098675             0.040234             0.036420
Rotational constants in MHz :          2958.206479          1206.176945          1091.832700

                             ****ORCA TERMINATED NORMALLY****
TOTAL RUN TIME: 0 days 0 hours 0 minutes 11 seconds 751 msec
