                         Program Version 6.0.0  -   RELEASE  -
|  1> ! pbe def2-sv(p) def2/J RI DEFGRID1 loosescf d4 GCP(DFT/SV(P)) printgap
|  2> %output
|  3>     printlevel normal
|  4> end
|  5> * xyz 0 1
|  6> C -2.1966504191 0.6922912551 0.0480035807
|  7> C -2.1967606227 -0.692254722 0.0477919986
|  8> C -1.0023963121 -1.3986585521 -0.0043628673
|  9> C 0.1848622099 -0.6965597237 -0.0511104836
| 10> C 0.1849440952 0.6966416733 -0.0510816498
| 11> C -1.002311798 1.3987248168 -0.0039978792
| 12> C 1.5887331302 1.2217517361 -0.1224275759
| 13> C 2.4427214782 -1.54572e-05 0.2541480691
| 14> C 1.5886111599 -1.2218787777 -0.1218692599
| 15> H -3.1336308384 1.2278549717 0.0910231699
| 16> H -3.1337744015 -1.2277267202 0.0905065854
| 17> H -1.0050465294 -2.4790207004 -0.0039247705
| 18> H -1.0049360289 2.4790481656 -0.0031702595
| 19> H 1.8040556201 1.5488141859 -1.1433277503
| 20> H 1.7539012796 2.0688301059 0.542850514
| 21> H 3.408228784 -0.0001679767 -0.2483022473
| 22> H 2.6187003535 0.0001561925 1.3309100166
| 23> H 1.8042256233 -1.5499477452 -1.1422757025
| 24> H 1.7532981239 -2.0683439516 0.5441753479
| 25> *
| 26>
| 27>                          ****END OF INPUT****

CARTESIAN COORDINATES (ANGSTROEM)
---------------------------------
  C     -2.196650    0.692291    0.048004
  C     -2.196761   -0.692255    0.047792
  C     -1.002396   -1.398659   -0.004363
  C      0.184862   -0.696560   -0.051110
  C      0.184944    0.696642   -0.051082
  C     -1.002312    1.398725   -0.003998
  C      1.588733    1.221752   -0.122428
  C      2.442721   -0.000015    0.254148
  C      1.588611   -1.221879   -0.121869
  H     -3.133631    1.227855    0.091023
  H     -3.133774   -1.227727    0.090507
  H     -1.005047   -2.479021   -0.003925
  H     -1.004936    2.479048   -0.003170
  H      1.804056    1.548814   -1.143328
  H      1.753901    2.068830    0.542851
  H      3.408229   -0.000168   -0.248302
  H      2.618700    0.000156    1.330910
  H      1.804226   -1.549948   -1.142276
  H      1.753298   -2.068344    0.544175

 Total Charge           Charge          ....    0
 Multiplicity           Mult            ....    1
 Number of Electrons    NEL             ....   64
 Basis Dimension        Dim             ....  146

ORBITAL ENERGIES
----------------

  NO   OCC          E(Eh)            E(eV)
   0   2.0000      -9.889262      -269.1005
   1   2.0000      -9.889059      -269.0950
   2   2.0000      -9.887120      -269.0422
   3   2.0000      -9.887086      -269.0413
   4   2.0000      -9.886357      -269.0215
   5   2.0000      -9.885628      -269.0016
   6   2.0000      -9.885623      -269.0015
   7   2.0000      -9.885372      -268.9947
   8   2.0000      -9.885203      -268.9901
   9   2.0000      -0.788369       -21.4526
  10   2.0000      -0.730845       -19.8873
  11   2.0000      -0.676449       -18.4071
  12   2.0000      -0.638043       -17.3620
  13   2.0000      -0.617684       -16.8080
  14   2.0000      -0.542799       -14.7703
  15   2.0000      -0.517336       -14.0774
  16   2.0000      -0.506594       -13.7851
  17   2.0000      -0.452128       -12.3030
  18   2.0000      -0.428962       -11.6726
  19   2.0000      -0.409475       -11.1424
  20   2.0000      -0.391387       -10.6502
  21   2.0000      -0.365975        -9.9587
  22   2.0000      -0.360481        -9.8092
  23   2.0000      -0.359364        -9.7788
  24   2.0000      -0.331585        -9.0229
  25   2.0000      -0.306965        -8.3529
  26   2.0000      -0.305717        -8.3190
  27   2.0000      -0.294123        -8.0035
  28   2.0000      -0.290762        -7.9120
  29   2.0000      -0.283808        -7.7228
  30   2.0000      -0.220719        -6.0061
  31   2.0000      -0.208070        -5.6619
  32   0.0000      -0.032627        -0.8878
  33   0.0000      -0.023632        -0.6430
  34   0.0000       0.042561         1.1582
  35   0.0000       0.052895         1.4394
  36   0.0000       0.074782         2.0349

MULLIKEN ATOMIC CHARGES
-----------------------
   0 C :   -0.047050
   1 C :   -0.047029
   2 C :   -0.144979
   3 C :    0.013689
   4 C :    0.013773
   5 C :   -0.144986
   6 C :   -0.089466
   7 C :   -0.174512
   8 C :   -0.089361
   9 H :    0.048391
  10 H :    0.048382
  11 H :    0.031310
  12 H :    0.031287
  13 H :    0.095642
  14 H :    0.089573
  15 H :    0.085018
  16 H :    0.095150
  17 H :    0.095605
  18 H :    0.089561
Sum of atomic charges:   -0.0000000

LOEWDIN ATOMIC CHARGES
----------------------
   0 C :   -0.126433
   1 C :   -0.126443
   2 C :   -0.124806
   3 C :   -0.041056
   4 C :   -0.041063
   5 C :   -0.124818
   6 C :   -0.212493
   7 C :   -0.217165
   8 C :   -0.212521
   9 H :    0.121353
  10 H :    0.121360
  11 H :    0.120912
  12 H :    0.120915
  13 H :    0.128086
  14 H :    0.123874
  15 H :    0.116939
  16 H :    0.121387
  17 H :    0.128080
  18 H :    0.123894

  Mayer bond orders larger than 0.100000
B(  0-C ,  1-C ) :   1.3881 B(  0-C ,  5-C ) :   1.3496 B(  0-C ,  9-H ) :   0.9619
B(  1-C ,  2-C ) :   1.3495 B(  1-C , 10-H ) :   0.9619 B(  2-C ,  3-C ) :   1.3887
B(  2-C , 11-H ) :   0.9736 B(  3-C ,  4-C ) :   1.4420 B(  3-C ,  8-C ) :   1.0618
B(  4-C ,  5-C ) :   1.3887 B(  4-C ,  6-C ) :   1.0618 B(  5-C , 12-H ) :   0.9736
B(  6-C ,  7-C ) :   1.1368 B(  6-C , 13-H ) :   0.8881 B(  6-C , 14-H ) :   0.9113
B(  7-C ,  8-C ) :   1.1368 B(  7-C , 15-H ) :   0.9265 B(  7-C , 16-H ) :   0.9268
B(  8-C , 17-H ) :   0.8881 B(  8-C , 18-H ) :   0.9113

Dispersion correction           -0.020465331
FINAL SINGLE POINT ENERGY      -348.193678242665

DIPOLE MOMENT
-------------

Method             : SCF
Type of density    : Electron Density
Multiplicity       :   1
Irrep              :   0
Energy             :  -348.2458377543615029 Eh
Relativity type    :
Basis              : AO
                                X                 Y                 Z
Electronic contribution:     -4.352310073       0.000391841      -0.081552205
Nuclear contribution   :      4.564210271      -0.000472342       0.054849930
                        -----------------------------------------
Total Dipole Moment    :      0.211900198      -0.000080501      -0.026702276
                        -----------------------------------------
Magnitude (a.u.)       :      0.213576009
Magnitude (Debye)      :      0.542867074

Rotational constants in cm-1:             0.119333             0.050664             0.036543
Rotational constants in MHz :          3577.527978          1518.872212          1095.535838

                             ****ORCA TERMINATED NORMALLY****
TOTAL RUN TIME: 0 days 0 hours 0 minutes 9 seconds 226 msec
