                         Program Version 6.0.0  -   RELEASE  -
|  1> ! pbe def2-sv(p) def2/J RI DEFGRID1 loosescf d4 GCP(DFT/SV(P)) printgap
|  2> %output
|  3>     printlevel normal
|  4> end
|  5> * xyz 0 1
|  6> C -0.9383350233 1.3973291128 -0.4540106948
|  7> C -0.4737278467 0.0093362665 -0.0031472261
|  8> C -0.9157943384 -1.0771187135 -0.9710637957
|  9> C -0.9152830153 -0.3017023965 1.4184414155
| 10> Cl 1.3643594757 -0.0113719076 0.0040078225
| 11> H -1.5275987113 1.3221924304 -1.3633872192
| 12> H -1.5454033678 1.8625111896 0.3173308994
| 13> H -0.0937451136 2.0499972448 -0.6547976075
| 14> H -0.5454797204 -0.8715611019 -1.9723434304
| 15> H -0.5417833249 -2.0480219915 -0.6556321139
| 16> H -2.0022512935 -1.1117717479 -0.996175697
| 17> H -0.5455983945 0.4532138706 2.1079022005
| 18> H -0.5402803881 -1.2723155781 1.7335753445
| 19> H -2.0017130972 -0.3160484787 1.4591011234
| 20> *
| 21>
| 22>                          ****END OF INPUT****

CARTESIAN COORDINATES (ANGSTROEM)
---------------------------------
  C     -0.938335    1.397329   -0.454011
  C     -0.473728    0.009336   -0.003147
  C     -0.915794   -1.077119   -0.971064
  C     -0.915283   -0.301702    1.418441
  Cl     1.364359   -0.011372    0.004008
  H     -1.527599    1.322192   -1.363387
  H     -1.545403    1.862511    0.317331
  H     -0.093745    2.049997   -0.654798
  H     -0.545480   -0.871561   -1.972343
  H     -0.541783   -2.048022   -0.655632
  H     -2.002251   -1.111772   -0.996176
  H     -0.545598    0.453214    2.107902
  H     -0.540280   -1.272316    1.733575
  H     -2.001713   -0.316048    1.459101

 Total Charge           Charge          ....    0
 Multiplicity           Mult            ....    1
 Number of Electrons    NEL             ....   50
 Basis Dimension        Dim             ....   92

ORBITAL ENERGIES
----------------

  NO   OCC          E(Eh)            E(eV)
   0   2.0000    -100.606300     -2737.6366
   1   2.0000      -9.963856      -271.1303
   2   2.0000      -9.885748      -269.0049
   3   2.0000      -9.885729      -269.0044
   4   2.0000      -9.884236      -268.9637
   5   2.0000      -9.142364      -248.7764
   6   2.0000      -6.973532      -189.7594
   7   2.0000      -6.962203      -189.4512
   8   2.0000      -6.962165      -189.4501
   9   2.0000      -0.784391       -21.3444
  10   2.0000      -0.683606       -18.6019
  11   2.0000      -0.628331       -17.0977
  12   2.0000      -0.628076       -17.0908
  13   2.0000      -0.490933       -13.3590
  14   2.0000      -0.421245       -11.4627
  15   2.0000      -0.406652       -11.0656
  16   2.0000      -0.406549       -11.0627
  17   2.0000      -0.363584        -9.8936
  18   2.0000      -0.363468        -9.8905
  19   2.0000      -0.329634        -8.9698
  20   2.0000      -0.311560        -8.4780
  21   2.0000      -0.311331        -8.4717
  22   2.0000      -0.305122        -8.3028
  23   2.0000      -0.239198        -6.5089
  24   2.0000      -0.239034        -6.5045
  25   0.0000      -0.002113        -0.0575
  26   0.0000       0.033964         0.9242
  27   0.0000       0.086518         2.3543
  28   0.0000       0.088462         2.4072
  29   0.0000       0.093563         2.5460

MULLIKEN ATOMIC CHARGES
-----------------------
   0 C :   -0.184161
   1 C :   -0.282894
   2 C :   -0.186703
   3 C :   -0.187143
   4 Cl:   -0.137468
   5 H :    0.103657
   6 H :    0.103647
   7 H :    0.117279
   8 H :    0.113762
   9 H :    0.109318
  10 H :    0.103687
  11 H :    0.113848
  12 H :    0.109344
  13 H :    0.103828
Sum of atomic charges:    0.0000000

LOEWDIN ATOMIC CHARGES
----------------------
   0 C :   -0.340250
   1 C :   -0.124847
   2 C :   -0.337110
   3 C :   -0.337202
   4 Cl:    0.019086
   5 H :    0.125718
   6 H :    0.125773
   7 H :    0.129863
   8 H :    0.123621
   9 H :    0.122736
  10 H :    0.123108
  11 H :    0.123657
  12 H :    0.122765
  13 H :    0.123083

  Mayer bond orders larger than 0.100000
B(  0-C ,  1-C ) :   1.0430 B(  0-C ,  5-H ) :   0.9495 B(  0-C ,  6-H ) :   0.9492
B(  0-C ,  7-H ) :   0.9388 B(  1-C ,  2-C ) :   1.0852 B(  1-C ,  3-C ) :   1.0853
B(  1-C ,  4-Cl) :   1.0015 B(  2-C ,  8-H ) :   0.9413 B(  2-C ,  9-H ) :   0.9451
B(  2-C , 10-H ) :   0.9317 B(  3-C , 11-H ) :   0.9415 B(  3-C , 12-H ) :   0.9451
B(  3-C , 13-H ) :   0.9314

Dispersion correction           -0.011211728
FINAL SINGLE POINT ENERGY      -617.301292545779

DIPOLE MOMENT
-------------

Method             : SCF
Type of density    : Electron Density
Multiplicity       :   1
Irrep              :   0
Energy             :  -617.3467948231516402 Eh
Relativity type    :
Basis              : AO
                                X                 Y                 Z
Electronic contribution:      9.830125656      -0.047893407       0.018255483
Nuclear contribution   :    -10.597334712       0.079242366      -0.028295406
                        -----------------------------------------
Total Dipole Moment    :     -0.767209057       0.031348959      -0.010039923
                        -----------------------------------------
Magnitude (a.u.)       :      0.767914900
Magnitude (Debye)      :      1.951884557

Rotational constants in cm-1:             0.151181             0.099890             0.099338
Rotational constants in MHz :          4532.299441          2994.616810          2978.082676

                             ****ORCA TERMINATED NORMALLY****
TOTAL RUN TIME: 0 days 0 hours 0 minutes 8 seconds 664 msec
