                         Program Version 6.0.0  -   RELEASE  -
|  1> ! wb97x-v def2-tzvp def2/J RIJCOSX DEFGRID2 scfconv7 GCP(DFT/TZ) printgap
|  2> %output
|  3>     printlevel normal
|  4> end
|  5> * xyz 0 1
|  6> C -3.415577057430776 0.576825574088903 -0.018700216004019374
|  7> C -1.9421404293705118 0.5590338866985917 0.3543459101555896
|  8> H -1.7994481299580287 1.0033396840567481 1.3514155468388542
|  9> C -1.0768292552832845 1.3775192532152154 -0.6302432544554979
| 10> C 0.4057040469631795 1.3416155557518425 -0.2722246489046861
| 11> C 0.9314586441814853 -0.10431720524711519 -0.22496051316212118
| 12> H 0.7669427501324998 -0.5436304187882572 -1.2208712345585688
| 13> C 0.0959891329834229 -0.9128437409161259 0.7881581073744477
| 14> C -1.3662534349776376 -0.8351236945575576 0.4428250622870032
| 15> O -2.0332933715702537 -1.8425938402782354 0.22105340266126425
| 16> C 2.4210978511790238 -0.14902899851978832 0.03875049936821344
| 17> C 2.95297530510164 -0.491196489350099 1.2162429079462294
| 18> C 3.282384573339077 0.22714838733866533 -1.1333695833788304
| 19> H -3.782359423049226 1.6072392157636604 -0.04489762901306379
| 20> H -3.5726947984559927 0.13413743745626003 -1.0077755179357388
| 21> H -4.018652035830323 0.01730980651458956 0.7021320066996133
| 22> H -1.2234270514324663 0.9756731028167214 -1.642032540949494
| 23> H -1.4423048275919095 2.4100620873255143 -0.6365988607546912
| 24> H 0.9715536472979783 1.9260380366609238 -1.004500778635741
| 25> H 0.564410299054921 1.80434337193292 0.7112657621301142
| 26> H 0.40975323286142507 -1.9596127099331202 0.8193984359960289
| 27> H 0.22287931194246444 -0.4739348330255789 1.786972648691182
| 28> H 4.030294226586859 -0.4855785946059239 1.359345945532077
| 29> H 2.347465447748956 -0.786907744792559 2.067328749619921
| 30> H 3.024408269858253 1.2208522572451337 -1.5176557571704334
| 31> H 4.3425716095681794 0.22397239951769685 -0.8679482347212238
| 32> H 3.1268325859116057 -0.4775436378535419 -1.96007925107365
| 33> *
| 34>
| 35>                          ****END OF INPUT****

CARTESIAN COORDINATES (ANGSTROEM)
---------------------------------
  C     -3.415577    0.576826   -0.018700
  C     -1.942140    0.559034    0.354346
  H     -1.799448    1.003340    1.351416
  C     -1.076829    1.377519   -0.630243
  C      0.405704    1.341616   -0.272225
  C      0.931459   -0.104317   -0.224961
  H      0.766943   -0.543630   -1.220871
  C      0.095989   -0.912844    0.788158
  C     -1.366253   -0.835124    0.442825
  O     -2.033293   -1.842594    0.221053
  C      2.421098   -0.149029    0.038750
  C      2.952975   -0.491196    1.216243
  C      3.282385    0.227148   -1.133370
  H     -3.782359    1.607239   -0.044898
  H     -3.572695    0.134137   -1.007776
  H     -4.018652    0.017310    0.702132
  H     -1.223427    0.975673   -1.642033
  H     -1.442305    2.410062   -0.636599
  H      0.971554    1.926038   -1.004501
  H      0.564410    1.804343    0.711266
  H      0.409753   -1.959613    0.819398
  H      0.222879   -0.473935    1.786973
  H      4.030294   -0.485579    1.359346
  H      2.347465   -0.786908    2.067329
  H      3.024408    1.220852   -1.517656
  H      4.342572    0.223972   -0.867948
  H      3.126833   -0.477544   -1.960079

 Total Charge           Charge          ....    0
 Multiplicity           Mult            ....    1
 Number of Electrons    NEL             ....   84
 Basis Dimension        Dim             ....  437

ORBITAL ENERGIES
----------------

  NO   OCC          E(Eh)            E(eV)
   0   2.0000     -21.657119      -589.3202
   1   2.0000     -12.131489      -330.1146
   2   2.0000     -12.068703      -328.4061
   3   2.0000     -12.064666      -328.2963
   4   2.0000     -12.061252      -328.2034
   5   2.0000     -12.057449      -328.0999
   6   2.0000     -12.055410      -328.0444
   7   2.0000     -12.053020      -327.9793
   8   2.0000     -12.047305      -327.8238
   9   2.0000     -12.038175      -327.5754
  10   2.0000     -12.035510      -327.5029
  11   2.0000      -1.698589       -46.2210
  12   2.0000      -1.369557       -37.2676
  13   2.0000      -1.328589       -36.1528
  14   2.0000      -1.276386       -34.7322
  15   2.0000      -1.255579       -34.1660
  16   2.0000      -1.193661       -32.4812
  17   2.0000      -1.182549       -32.1788
  18   2.0000      -1.114681       -30.3320
  19   2.0000      -1.099984       -29.9321
  20   2.0000      -1.054895       -28.7052
  21   2.0000      -0.997430       -27.1415
  22   2.0000      -0.965876       -26.2828
  23   2.0000      -0.959944       -26.1214
  24   2.0000      -0.923085       -25.1184
  25   2.0000      -0.906963       -24.6797
  26   2.0000      -0.900358       -24.5000
  27   2.0000      -0.888692       -24.1825
  28   2.0000      -0.882448       -24.0126
  29   2.0000      -0.853640       -23.2287
  30   2.0000      -0.852553       -23.1991
  31   2.0000      -0.839026       -22.8311
  32   2.0000      -0.835204       -22.7271
  33   2.0000      -0.818065       -22.2607
  34   2.0000      -0.809910       -22.0388
  35   2.0000      -0.807457       -21.9720
  36   2.0000      -0.805349       -21.9147
  37   2.0000      -0.784304       -21.3420
  38   2.0000      -0.777075       -21.1453
  39   2.0000      -0.764346       -20.7989
  40   2.0000      -0.758710       -20.6455
  41   2.0000      -0.649846       -17.6832
  42   0.0000      -0.311904        -8.4873
  43   0.0000      -0.206262        -5.6127
  44   0.0000      -0.068472        -1.8632
  45   0.0000      -0.055562        -1.5119
  46   0.0000      -0.052391        -1.4256

MULLIKEN ATOMIC CHARGES
-----------------------
   0 C :   -0.332301
   1 C :   -0.009080
   2 H :    0.084589
   3 C :   -0.222429
   4 C :   -0.211259
   5 C :   -0.016694
   6 H :    0.088860
   7 C :   -0.178506
   8 C :    0.118818
   9 O :   -0.303827
  10 C :    0.031761
  11 C :   -0.297025
  12 C :   -0.357908
  13 H :    0.109941
  14 H :    0.115252
  15 H :    0.125414
  16 H :    0.108483
  17 H :    0.109295
  18 H :    0.106605
  19 H :    0.104478
  20 H :    0.131744
  21 H :    0.109306
  22 H :    0.111612
  23 H :    0.119524
  24 H :    0.113240
  25 H :    0.116554
  26 H :    0.123551
Sum of atomic charges:    0.0000000

LOEWDIN ATOMIC CHARGES
----------------------
   0 C :   -0.271015
   1 C :   -0.247663
   2 H :    0.162738
   3 C :   -0.221644
   4 C :   -0.221399
   5 C :   -0.204989
   6 H :    0.162671
   7 C :   -0.183338
   8 C :   -0.284659
   9 O :    0.111992
  10 C :   -0.203567
  11 C :   -0.190607
  12 C :   -0.252600
  13 H :    0.118682
  14 H :    0.125454
  15 H :    0.125379
  16 H :    0.140992
  17 H :    0.137613
  18 H :    0.136106
  19 H :    0.140934
  20 H :    0.149900
  21 H :    0.151043
  22 H :    0.120784
  23 H :    0.120875
  24 H :    0.123228
  25 H :    0.125348
  26 H :    0.127743

  Mayer bond orders larger than 0.100000
B(  0-C ,  1-C ) :   0.9865 B(  0-C , 13-H ) :   0.9848 B(  0-C , 14-H ) :   0.9693
B(  0-C , 15-H ) :   0.9792 B(  1-C ,  2-H ) :   0.9433 B(  1-C ,  3-C ) :   0.9562
B(  1-C ,  8-C ) :   0.9336 B(  3-C ,  4-C ) :   0.9822 B(  3-C , 16-H ) :   0.9685
B(  3-C , 17-H ) :   0.9724 B(  4-C ,  5-C ) :   0.9304 B(  4-C , 18-H ) :   0.9687
B(  4-C , 19-H ) :   0.9723 B(  5-C ,  6-H ) :   0.9655 B(  5-C ,  7-C ) :   0.9704
B(  5-C , 10-C ) :   0.9236 B(  7-C ,  8-C ) :   1.0125 B(  7-C , 20-H ) :   0.9487
B(  7-C , 21-H ) :   0.9534 B(  8-C ,  9-O ) :   2.1874 B( 10-C , 11-C ) :   1.9115
B( 10-C , 12-C ) :   0.9735 B( 11-C , 22-H ) :   0.9634 B( 11-C , 23-H ) :   0.9754
B( 12-C , 24-H ) :   0.9707 B( 12-C , 25-H ) :   0.9858 B( 12-C , 26-H ) :   0.9750

FINAL SINGLE POINT ENERGY      -465.944360562824

DIPOLE MOMENT
-------------

Method             : SCF
Type of density    : Electron Density
Multiplicity       :   1
Irrep              :   0
Energy             :  -465.9624063483236114 Eh
Relativity type    :
Basis              : AO
                                X                 Y                 Z
Electronic contribution:     -3.130219959      -5.416482094       1.896273396
Nuclear contribution   :      3.795451298       6.529677113      -1.936965002
                        -----------------------------------------
Total Dipole Moment    :      0.665231339       1.113195020      -0.040691606
                        -----------------------------------------
Magnitude (a.u.)       :      1.297455854
Magnitude (Debye)      :      3.297870695

Rotational constants in cm-1:             0.073256             0.021881             0.018814
Rotational constants in MHz :          2196.167176           655.980947           564.020477

                             ****ORCA TERMINATED NORMALLY****
TOTAL RUN TIME: 0 days 0 hours 6 minutes 31 seconds 975 msec
