                         Program Version 6.0.0  -   RELEASE  -
|  1> ! wb97x-v def2-tzvp def2/J RIJCOSX DEFGRID2 scfconv7 GCP(DFT/TZ) printgap
|  2> %output
|  3>     printlevel normal
|  4> end
|  5> %cpcm
|  6>     smd true
|  7>     smdsolvent "water"
|  8> end
|  9> * xyz 0 1
| 10> C -3.415577057430776 0.576825574088903 -0.018700216004019374
| 11> C -1.9421404293705118 0.5590338866985917 0.3543459101555896
| 12> H -1.7994481299580287 1.0033396840567481 1.3514155468388542
| 13> C -1.0768292552832845 1.3775192532152154 -0.6302432544554979
| 14> C 0.4057040469631795 1.3416155557518425 -0.2722246489046861
| 15> C 0.9314586441814853 -0.10431720524711519 -0.22496051316212118
| 16> H 0.7669427501324998 -0.5436304187882572 -1.2208712345585688
| 17> C 0.0959891329834229 -0.9128437409161259 0.7881581073744477
| 18> C -1.3662534349776376 -0.8351236945575576 0.4428250622870032
| 19> O -2.0332933715702537 -1.8425938402782354 0.22105340266126425
| 20> C 2.4210978511790238 -0.14902899851978832 0.03875049936821344
| 21> C 2.95297530510164 -0.491196489350099 1.2162429079462294
| 22> C 3.282384573339077 0.22714838733866533 -1.1333695833788304
| 23> H -3.782359423049226 1.6072392157636604 -0.04489762901306379
| 24> H -3.5726947984559927 0.13413743745626003 -1.0077755179357388
| 25> H -4.018652035830323 0.01730980651458956 0.7021320066996133
| 26> H -1.2234270514324663 0.9756731028167214 -1.642032540949494
| 27> H -1.4423048275919095 2.4100620873255143 -0.6365988607546912
| 28> H 0.9715536472979783 1.9260380366609238 -1.004500778635741
| 29> H 0.564410299054921 1.80434337193292 0.7112657621301142
| 30> H 0.40975323286142507 -1.9596127099331202 0.8193984359960289
| 31> H 0.22287931194246444 -0.4739348330255789 1.786972648691182
| 32> H 4.030294226586859 -0.4855785946059239 1.359345945532077
| 33> H 2.347465447748956 -0.786907744792559 2.067328749619921
| 34> H 3.024408269858253 1.2208522572451337 -1.5176557571704334
| 35> H 4.3425716095681794 0.22397239951769685 -0.8679482347212238
| 36> H 3.1268325859116057 -0.4775436378535419 -1.96007925107365
| 37> *
| 38>
| 39>                          ****END OF INPUT****

CARTESIAN COORDINATES (ANGSTROEM)
---------------------------------
  C     -3.415577    0.576826   -0.018700
  C     -1.942140    0.559034    0.354346
  H     -1.799448    1.003340    1.351416
  C     -1.076829    1.377519   -0.630243
  C      0.405704    1.341616   -0.272225
  C      0.931459   -0.104317   -0.224961
  H      0.766943   -0.543630   -1.220871
  C      0.095989   -0.912844    0.788158
  C     -1.366253   -0.835124    0.442825
  O     -2.033293   -1.842594    0.221053
  C      2.421098   -0.149029    0.038750
  C      2.952975   -0.491196    1.216243
  C      3.282385    0.227148   -1.133370
  H     -3.782359    1.607239   -0.044898
  H     -3.572695    0.134137   -1.007776
  H     -4.018652    0.017310    0.702132
  H     -1.223427    0.975673   -1.642033
  H     -1.442305    2.410062   -0.636599
  H      0.971554    1.926038   -1.004501
  H      0.564410    1.804343    0.711266
  H      0.409753   -1.959613    0.819398
  H      0.222879   -0.473935    1.786973
  H      4.030294   -0.485579    1.359346
  H      2.347465   -0.786908    2.067329
  H      3.024408    1.220852   -1.517656
  H      4.342572    0.223972   -0.867948
  H      3.126833   -0.477544   -1.960079

 Total Charge           Charge          ....    0
 Multiplicity           Mult            ....    1
 Number of Electrons    NEL             ....   84
 Basis Dimension        Dim             ....  437

ORBITAL ENERGIES
----------------

  NO   OCC          E(Eh)            E(eV)
   0   2.0000     -21.668265      -589.6235
   1   2.0000     -12.139257      -330.3260
   2   2.0000     -12.056441      -328.0724
   3   2.0000     -12.054582      -328.0218
   4   2.0000     -12.051159      -327.9287
   5   2.0000     -12.043580      -327.7225
   6   2.0000     -12.041278      -327.6598
   7   2.0000     -12.037632      -327.5606
   8   2.0000     -12.031317      -327.3888
   9   2.0000     -12.028223      -327.3046
  10   2.0000     -12.026503      -327.2578
  11   2.0000      -1.713223       -46.6192
  12   2.0000      -1.357906       -36.9505
  13   2.0000      -1.318543       -35.8794
  14   2.0000      -1.266399       -34.4605
  15   2.0000      -1.244767       -33.8718
  16   2.0000      -1.180976       -32.1360
  17   2.0000      -1.174009       -31.9464
  18   2.0000      -1.109901       -30.2019
  19   2.0000      -1.094314       -29.7778
  20   2.0000      -1.055465       -28.7207
  21   2.0000      -0.986638       -26.8478
  22   2.0000      -0.964012       -26.2321
  23   2.0000      -0.957631       -26.0585
  24   2.0000      -0.919298       -25.0154
  25   2.0000      -0.903755       -24.5924
  26   2.0000      -0.893957       -24.3258
  27   2.0000      -0.876722       -23.8568
  28   2.0000      -0.871445       -23.7132
  29   2.0000      -0.845786       -23.0150
  30   2.0000      -0.840729       -22.8774
  31   2.0000      -0.832342       -22.6492
  32   2.0000      -0.822484       -22.3809
  33   2.0000      -0.804907       -21.9026
  34   2.0000      -0.799089       -21.7443
  35   2.0000      -0.796266       -21.6675
  36   2.0000      -0.795348       -21.6425
  37   2.0000      -0.771817       -21.0022
  38   2.0000      -0.765037       -20.8177
  39   2.0000      -0.754956       -20.5434
  40   2.0000      -0.745782       -20.2938
  41   2.0000      -0.640924       -17.4404
  42   0.0000      -0.310267        -8.4428
  43   0.0000      -0.197428        -5.3723
  44   0.0000      -0.062310        -1.6955
  45   0.0000      -0.044501        -1.2109
  46   0.0000      -0.037916        -1.0317

MULLIKEN ATOMIC CHARGES
-----------------------
   0 C :   -0.412317
   1 C :    0.013754
   2 H :    0.115395
   3 C :   -0.237621
   4 C :   -0.238374
   5 C :    0.010352
   6 H :    0.104753
   7 C :   -0.189973
   8 C :    0.204465
   9 O :   -0.447714
  10 C :   -0.009461
  11 C :   -0.393219
  12 C :   -0.402460
  13 H :    0.136669
  14 H :    0.127300
  15 H :    0.134727
  16 H :    0.118734
  17 H :    0.126823
  18 H :    0.130444
  19 H :    0.113214
  20 H :    0.129199
  21 H :    0.142753
  22 H :    0.150107
  23 H :    0.155774
  24 H :    0.138881
  25 H :    0.136555
  26 H :    0.141241
Sum of atomic charges:    0.0000000

LOEWDIN ATOMIC CHARGES
----------------------
   0 C :   -0.280985
   1 C :   -0.240202
   2 H :    0.175696
   3 C :   -0.217227
   4 C :   -0.219087
   5 C :   -0.200513
   6 H :    0.168899
   7 C :   -0.179838
   8 C :   -0.261783
   9 O :    0.031886
  10 C :   -0.207312
  11 C :   -0.214493
  12 C :   -0.256382
  13 H :    0.125891
  14 H :    0.124249
  15 H :    0.123087
  16 H :    0.144486
  17 H :    0.142805
  18 H :    0.142053
  19 H :    0.143665
  20 H :    0.148151
  21 H :    0.164414
  22 H :    0.125525
  23 H :    0.126666
  24 H :    0.129956
  25 H :    0.128137
  26 H :    0.132254

  Mayer bond orders larger than 0.100000
B(  0-C ,  1-C ) :   0.9497 B(  0-C , 13-H ) :   0.9821 B(  0-C , 14-H ) :   0.9708
B(  0-C , 15-H ) :   0.9821 B(  1-C ,  2-H ) :   0.9319 B(  1-C ,  3-C ) :   0.9534
B(  1-C ,  8-C ) :   0.9554 B(  3-C ,  4-C ) :   0.9931 B(  3-C , 16-H ) :   0.9650
B(  3-C , 17-H ) :   0.9673 B(  4-C ,  5-C ) :   0.9456 B(  4-C , 18-H ) :   0.9632
B(  4-C , 19-H ) :   0.9679 B(  5-C ,  6-H ) :   0.9623 B(  5-C ,  7-C ) :   0.9659
B(  5-C , 10-C ) :   0.9127 B(  7-C ,  8-C ) :   1.0364 B(  7-C , 20-H ) :   0.9545
B(  7-C , 21-H ) :   0.9319 B(  8-C ,  9-O ) :   2.0226 B( 10-C , 11-C ) :   1.8981
B( 10-C , 12-C ) :   0.9785 B( 11-C , 22-H ) :   0.9651 B( 11-C , 23-H ) :   0.9720
B( 12-C , 24-H ) :   0.9652 B( 12-C , 25-H ) :   0.9827 B( 12-C , 26-H ) :   0.9695

FINAL SINGLE POINT ENERGY      -465.952257528030

DIPOLE MOMENT
-------------

Method             : SCF
Type of density    : Electron Density
Multiplicity       :   1
Irrep              :   0
Energy             :  -465.9703033135302803 Eh
Relativity type    :
Basis              : AO
                                X                 Y                 Z
Electronic contribution:     -2.884531291      -4.837990436       1.892330669
Nuclear contribution   :      3.795451298       6.529677113      -1.936965002
                        -----------------------------------------
Total Dipole Moment    :      0.910920007       1.691686677      -0.044634333
                        -----------------------------------------
Magnitude (a.u.)       :      1.921866618
Magnitude (Debye)      :      4.884996726

Rotational constants in cm-1:             0.073256             0.021881             0.018814
Rotational constants in MHz :          2196.167176           655.980947           564.020477

                             ****ORCA TERMINATED NORMALLY****
TOTAL RUN TIME: 0 days 0 hours 6 minutes 35 seconds 218 msec
