                         Program Version 6.0.0  -   RELEASE  -
|  1> ! r2scan-3c def2/J RI DEFGRID2 scfconv6 printgap
|  2> %output
|  3>     printlevel normal
|  4> end
|  5> * xyz 0 1
|  6> C -2.3925079989 -1.1240248014 -0.3578337699
|  7> C -1.0672397271 -0.6159343173 0.2350192091
|  8> H -1.1165525121 -0.624734434 1.3368139674
|  9> C -0.7805082806 0.8352208857 -0.2038044363
| 10> H -0.8670969801 0.9134488477 -1.2983120039
| 11> C 0.6459776745 1.2542752846 0.1760345311
| 12> H 0.6883557687 1.3895212984 1.2674885533
| 13> C 1.6606720888 0.1762924486 -0.2268106208
| 14> H 1.7098203016 0.140540712 -1.3270034513
| 15> C 1.2122262569 -1.2024246626 0.292594906
| 16> H 1.2122844195 -1.1821665037 1.3962982088
| 17> O -0.066903639 -1.5138543245 -0.2002813586
| 18> O 2.0876321904 -2.202733984 -0.0885700848
| 19> O 2.9090487124 0.5351097981 0.3111416581
| 20> O 0.9282650423 2.466647102 -0.4749771906
| 21> O -1.6676755425 1.7202211545 0.4285978494
| 22> O -3.5038794481 -0.3906879002 0.0885676993
| 23> H -2.4861247623 -2.1898963861 -0.1279705707
| 24> H -2.3584228085 -1.0077934313 -1.4435073329
| 25> H 1.8669903616 -2.4930845485 -0.9880367367
| 26> H 3.5221172216 -0.2094056607 0.2108448211
| 27> H 1.822483986 2.7456598423 -0.2272116971
| 28> H -2.5763133571 1.4632571083 0.1887318543
| 29> H -3.7182561328 -0.640233457 0.9988834326
| 30> *
| 31>
| 32>                          ****END OF INPUT****

CARTESIAN COORDINATES (ANGSTROEM)
---------------------------------
  C     -2.392508   -1.124025   -0.357834
  C     -1.067240   -0.615934    0.235019
  H     -1.116553   -0.624734    1.336814
  C     -0.780508    0.835221   -0.203804
  H     -0.867097    0.913449   -1.298312
  C      0.645978    1.254275    0.176035
  H      0.688356    1.389521    1.267489
  C      1.660672    0.176292   -0.226811
  H      1.709820    0.140541   -1.327003
  C      1.212226   -1.202425    0.292595
  H      1.212284   -1.182167    1.396298
  O     -0.066904   -1.513854   -0.200281
  O      2.087632   -2.202734   -0.088570
  O      2.909049    0.535110    0.311142
  O      0.928265    2.466647   -0.474977
  O     -1.667676    1.720221    0.428598
  O     -3.503879   -0.390688    0.088568
  H     -2.486125   -2.189896   -0.127971
  H     -2.358423   -1.007793   -1.443507
  H      1.866990   -2.493085   -0.988037
  H      3.522117   -0.209406    0.210845
  H      1.822484    2.745660   -0.227212
  H     -2.576313    1.463257    0.188732
  H     -3.718256   -0.640233    0.998883

 Total Charge           Charge          ....    0
 Multiplicity           Mult            ....    1
 Number of Electrons    NEL             ....   96
 Basis Dimension        Dim             ....  318

ORBITAL ENERGIES
----------------

  NO   OCC          E(Eh)            E(eV)
   0   2.0000     -18.981340      -516.5085
   1   2.0000     -18.981270      -516.5066
   2   2.0000     -18.978051      -516.4190
   3   2.0000     -18.963646      -516.0270
   4   2.0000     -18.947492      -515.5875
   5   2.0000     -18.944802      -515.5143
   6   2.0000     -10.145128      -276.0630
   7   2.0000     -10.099830      -274.8303
   8   2.0000     -10.097531      -274.7678
   9   2.0000     -10.088454      -274.5208
  10   2.0000     -10.088341      -274.5177
  11   2.0000     -10.087049      -274.4826
  12   2.0000      -1.062123       -28.9018
  13   2.0000      -1.020749       -27.7760
  14   2.0000      -1.007877       -27.4257
  15   2.0000      -0.998790       -27.1785
  16   2.0000      -0.987285       -26.8654
  17   2.0000      -0.976392       -26.5690
  18   2.0000      -0.750047       -20.4098
  19   2.0000      -0.741708       -20.1829
  20   2.0000      -0.663916       -18.0661
  21   2.0000      -0.619527       -16.8582
  22   2.0000      -0.603831       -16.4311
  23   2.0000      -0.561715       -15.2850
  24   2.0000      -0.526543       -14.3280
  25   2.0000      -0.508372       -13.8335
  26   2.0000      -0.504370       -13.7246
  27   2.0000      -0.492137       -13.3917
  28   2.0000      -0.479165       -13.0388
  29   2.0000      -0.466257       -12.6875
  30   2.0000      -0.445844       -12.1320
  31   2.0000      -0.417368       -11.3572
  32   2.0000      -0.415219       -11.2987
  33   2.0000      -0.386169       -10.5082
  34   2.0000      -0.381106       -10.3704
  35   2.0000      -0.376042       -10.2326
  36   2.0000      -0.361937        -9.8488
  37   2.0000      -0.348931        -9.4949
  38   2.0000      -0.333048        -9.0627
  39   2.0000      -0.318521        -8.6674
  40   2.0000      -0.315781        -8.5928
  41   2.0000      -0.308167        -8.3857
  42   2.0000      -0.281502        -7.6601
  43   2.0000      -0.269969        -7.3462
  44   2.0000      -0.260053        -7.0764
  45   2.0000      -0.242729        -6.6050
  46   2.0000      -0.238550        -6.4913
  47   2.0000      -0.220676        -6.0049
  48   0.0000       0.023883         0.6499
  49   0.0000       0.041256         1.1226
  50   0.0000       0.058766         1.5991
  51   0.0000       0.077007         2.0955
  52   0.0000       0.086137         2.3439

MULLIKEN ATOMIC CHARGES
-----------------------
   0 C :   -0.243217
   1 C :   -0.086058
   2 H :    0.170863
   3 C :   -0.024055
   4 H :    0.173097
   5 C :   -0.066881
   6 H :    0.169431
   7 C :    0.124655
   8 H :    0.162237
   9 C :   -0.138689
  10 H :    0.154984
  11 O :   -0.188261
  12 O :   -0.385561
  13 O :   -0.441629
  14 O :   -0.417976
  15 O :   -0.418569
  16 O :   -0.425226
  17 H :    0.152226
  18 H :    0.152094
  19 H :    0.324131
  20 H :    0.309556
  21 H :    0.311138
  22 H :    0.316745
  23 H :    0.314965
Sum of atomic charges:   -0.0000000

LOEWDIN ATOMIC CHARGES
----------------------
   0 C :    0.050479
   1 C :    0.112817
   2 H :    0.182565
   3 C :    0.116031
   4 H :    0.184676
   5 C :    0.119499
   6 H :    0.189156
   7 C :    0.107431
   8 H :    0.182607
   9 C :    0.292147
  10 H :    0.195004
  11 O :   -0.688155
  12 O :   -0.496198
  13 O :   -0.578160
  14 O :   -0.557739
  15 O :   -0.572962
  16 O :   -0.604491
  17 H :    0.173150
  18 H :    0.187100
  19 H :    0.284716
  20 H :    0.282535
  21 H :    0.280495
  22 H :    0.284492
  23 H :    0.272804

  Mayer bond orders larger than 0.100000
B(  0-C ,  1-C ) :   0.8982 B(  0-C , 16-O ) :   0.9995 B(  0-C , 17-H ) :   0.9832
B(  0-C , 18-H ) :   0.9803 B(  1-C ,  2-H ) :   0.9659 B(  1-C ,  3-C ) :   0.7362
B(  1-C , 11-O ) :   0.7863 B(  3-C ,  4-H ) :   0.9903 B(  3-C ,  5-C ) :   0.9294
B(  3-C , 15-O ) :   0.8967 B(  5-C ,  6-H ) :   1.0030 B(  5-C ,  7-C ) :   0.8452
B(  5-C , 14-O ) :   0.9288 B(  7-C ,  8-H ) :   0.9512 B(  7-C ,  9-C ) :   0.7748
B(  7-C , 13-O ) :   0.8962 B(  9-C , 10-H ) :   1.0070 B(  9-C , 11-O ) :   0.9474
B(  9-C , 12-O ) :   1.0966 B( 12-O , 19-H ) :   0.8705 B( 13-O , 20-H ) :   0.8764
B( 14-O , 21-H ) :   0.8806 B( 15-O , 22-H ) :   0.8508 B( 16-O , 23-H ) :   0.8874

Dispersion correction           -0.007986277
FINAL SINGLE POINT ENERGY      -687.073612548323

DIPOLE MOMENT
-------------

Method             : SCF
Type of density    : Electron Density
Multiplicity       :   1
Irrep              :   0
Energy             :  -687.0854277596901056 Eh
Relativity type    :
Basis              : AO
                                X                 Y                 Z
Electronic contribution:      2.007447361       0.442608133       0.048539672
Nuclear contribution   :     -2.148291628      -1.580985478      -0.011223127
                        -----------------------------------------
Total Dipole Moment    :     -0.140844267      -1.138377346       0.037316545
                        -----------------------------------------
Magnitude (a.u.)       :      1.147663981
Magnitude (Debye)      :      2.917130011

Rotational constants in cm-1:             0.043845             0.024397             0.016496
Rotational constants in MHz :          1314.436004           731.417143           494.535477

                             ****ORCA TERMINATED NORMALLY****
TOTAL RUN TIME: 0 days 0 hours 0 minutes 43 seconds 440 msec
