                         Program Version 6.0.0  -   RELEASE  -
|  1> ! r2scan-3c def2/J RI DEFGRID2 scfconv6 printgap
|  2> %output
|  3>     printlevel normal
|  4> end
|  5> %cpcm
|  6>     smd true
|  7>     smdsolvent "water"
|  8> end
|  9> * xyz 0 1
| 10> C -2.3925079989 -1.1240248014 -0.3578337699
| 11> C -1.0672397271 -0.6159343173 0.2350192091
| 12> H -1.1165525121 -0.624734434 1.3368139674
| 13> C -0.7805082806 0.8352208857 -0.2038044363
| 14> H -0.8670969801 0.9134488477 -1.2983120039
| 15> C 0.6459776745 1.2542752846 0.1760345311
| 16> H 0.6883557687 1.3895212984 1.2674885533
| 17> C 1.6606720888 0.1762924486 -0.2268106208
| 18> H 1.7098203016 0.140540712 -1.3270034513
| 19> C 1.2122262569 -1.2024246626 0.292594906
| 20> H 1.2122844195 -1.1821665037 1.3962982088
| 21> O -0.066903639 -1.5138543245 -0.2002813586
| 22> O 2.0876321904 -2.202733984 -0.0885700848
| 23> O 2.9090487124 0.5351097981 0.3111416581
| 24> O 0.9282650423 2.466647102 -0.4749771906
| 25> O -1.6676755425 1.7202211545 0.4285978494
| 26> O -3.5038794481 -0.3906879002 0.0885676993
| 27> H -2.4861247623 -2.1898963861 -0.1279705707
| 28> H -2.3584228085 -1.0077934313 -1.4435073329
| 29> H 1.8669903616 -2.4930845485 -0.9880367367
| 30> H 3.5221172216 -0.2094056607 0.2108448211
| 31> H 1.822483986 2.7456598423 -0.2272116971
| 32> H -2.5763133571 1.4632571083 0.1887318543
| 33> H -3.7182561328 -0.640233457 0.9988834326
| 34> *
| 35>
| 36>                          ****END OF INPUT****

CARTESIAN COORDINATES (ANGSTROEM)
---------------------------------
  C     -2.392508   -1.124025   -0.357834
  C     -1.067240   -0.615934    0.235019
  H     -1.116553   -0.624734    1.336814
  C     -0.780508    0.835221   -0.203804
  H     -0.867097    0.913449   -1.298312
  C      0.645978    1.254275    0.176035
  H      0.688356    1.389521    1.267489
  C      1.660672    0.176292   -0.226811
  H      1.709820    0.140541   -1.327003
  C      1.212226   -1.202425    0.292595
  H      1.212284   -1.182167    1.396298
  O     -0.066904   -1.513854   -0.200281
  O      2.087632   -2.202734   -0.088570
  O      2.909049    0.535110    0.311142
  O      0.928265    2.466647   -0.474977
  O     -1.667676    1.720221    0.428598
  O     -3.503879   -0.390688    0.088568
  H     -2.486125   -2.189896   -0.127971
  H     -2.358423   -1.007793   -1.443507
  H      1.866990   -2.493085   -0.988037
  H      3.522117   -0.209406    0.210845
  H      1.822484    2.745660   -0.227212
  H     -2.576313    1.463257    0.188732
  H     -3.718256   -0.640233    0.998883

 Total Charge           Charge          ....    0
 Multiplicity           Mult            ....    1
 Number of Electrons    NEL             ....   96
 Basis Dimension        Dim             ....  318

ORBITAL ENERGIES
----------------

  NO   OCC          E(Eh)            E(eV)
   0   2.0000     -18.976830      -516.3858
   1   2.0000     -18.969917      -516.1977
   2   2.0000     -18.964620      -516.0536
   3   2.0000     -18.961960      -515.9812
   4   2.0000     -18.958721      -515.8930
   5   2.0000     -18.955365      -515.8017
   6   2.0000     -10.136764      -275.8354
   7   2.0000     -10.088536      -274.5230
   8   2.0000     -10.087210      -274.4870
   9   2.0000     -10.086580      -274.4698
  10   2.0000     -10.083451      -274.3847
  11   2.0000     -10.079736      -274.2836
  12   2.0000      -1.055516       -28.7220
  13   2.0000      -1.011934       -27.5361
  14   2.0000      -1.006931       -27.4000
  15   2.0000      -0.995153       -27.0795
  16   2.0000      -0.985604       -26.8197
  17   2.0000      -0.983164       -26.7533
  18   2.0000      -0.746461       -20.3122
  19   2.0000      -0.733299       -19.9541
  20   2.0000      -0.654607       -17.8128
  21   2.0000      -0.614285       -16.7156
  22   2.0000      -0.594972       -16.1900
  23   2.0000      -0.556595       -15.1457
  24   2.0000      -0.519610       -14.1393
  25   2.0000      -0.507163       -13.8006
  26   2.0000      -0.496625       -13.5139
  27   2.0000      -0.486819       -13.2470
  28   2.0000      -0.469607       -12.7787
  29   2.0000      -0.460709       -12.5365
  30   2.0000      -0.441723       -12.0199
  31   2.0000      -0.410742       -11.1769
  32   2.0000      -0.405734       -11.0406
  33   2.0000      -0.384763       -10.4699
  34   2.0000      -0.382996       -10.4218
  35   2.0000      -0.373078       -10.1520
  36   2.0000      -0.363560        -9.8930
  37   2.0000      -0.343766        -9.3543
  38   2.0000      -0.338113        -9.2005
  39   2.0000      -0.316625        -8.6158
  40   2.0000      -0.310191        -8.4407
  41   2.0000      -0.304444        -8.2843
  42   2.0000      -0.281318        -7.6550
  43   2.0000      -0.271129        -7.3778
  44   2.0000      -0.253494        -6.8979
  45   2.0000      -0.246693        -6.7129
  46   2.0000      -0.242009        -6.5854
  47   2.0000      -0.221863        -6.0372
  48   0.0000       0.037471         1.0196
  49   0.0000       0.059194         1.6107
  50   0.0000       0.080742         2.1971
  51   0.0000       0.090449         2.4612
  52   0.0000       0.098701         2.6858

MULLIKEN ATOMIC CHARGES
-----------------------
   0 C :   -0.243302
   1 C :   -0.096318
   2 H :    0.203813
   3 C :   -0.018550
   4 H :    0.187258
   5 C :   -0.023088
   6 H :    0.177757
   7 C :    0.082454
   8 H :    0.182706
   9 C :   -0.108974
  10 H :    0.177930
  11 O :   -0.234231
  12 O :   -0.437372
  13 O :   -0.499191
  14 O :   -0.494374
  15 O :   -0.495843
  16 O :   -0.481746
  17 H :    0.163107
  18 H :    0.169544
  19 H :    0.372504
  20 H :    0.348887
  21 H :    0.353157
  22 H :    0.351295
  23 H :    0.362576
Sum of atomic charges:   -0.0000000

LOEWDIN ATOMIC CHARGES
----------------------
   0 C :    0.051187
   1 C :    0.119454
   2 H :    0.194655
   3 C :    0.114463
   4 H :    0.192298
   5 C :    0.115670
   6 H :    0.195457
   7 C :    0.111910
   8 H :    0.191628
   9 C :    0.294640
  10 H :    0.204543
  11 O :   -0.700185
  12 O :   -0.512090
  13 O :   -0.597591
  14 O :   -0.595674
  15 O :   -0.610468
  16 O :   -0.617876
  17 H :    0.180003
  18 H :    0.190940
  19 H :    0.301287
  20 H :    0.295905
  21 H :    0.294652
  22 H :    0.294375
  23 H :    0.290818

  Mayer bond orders larger than 0.100000
B(  0-C ,  1-C ) :   0.9070 B(  0-C , 16-O ) :   0.9984 B(  0-C , 17-H ) :   0.9681
B(  0-C , 18-H ) :   0.9790 B(  1-C ,  2-H ) :   0.9608 B(  1-C ,  3-C ) :   0.7686
B(  1-C , 11-O ) :   0.7964 B(  3-C ,  4-H ) :   0.9723 B(  3-C ,  5-C ) :   0.9267
B(  3-C , 15-O ) :   0.8730 B(  5-C ,  6-H ) :   0.9713 B(  5-C ,  7-C ) :   0.8854
B(  5-C , 14-O ) :   0.9038 B(  7-C ,  8-H ) :   0.9529 B(  7-C ,  9-C ) :   0.7985
B(  7-C , 13-O ) :   0.8833 B(  9-C , 10-H ) :   0.9952 B(  9-C , 11-O ) :   0.9330
B(  9-C , 12-O ) :   1.0916 B( 12-O , 19-H ) :   0.8430 B( 13-O , 20-H ) :   0.8584
B( 14-O , 21-H ) :   0.8603 B( 15-O , 22-H ) :   0.8357 B( 16-O , 23-H ) :   0.8609

Dispersion correction           -0.007986277
FINAL SINGLE POINT ENERGY      -687.108305303360

DIPOLE MOMENT
-------------

Method             : SCF
Type of density    : Electron Density
Multiplicity       :   1
Irrep              :   0
Energy             :  -687.1201205147267501 Eh
Relativity type    :
Basis              : AO
                                X                 Y                 Z
Electronic contribution:      2.037421468      -0.029735238       0.090664150
Nuclear contribution   :     -2.148291628      -1.580985478      -0.011223127
                        -----------------------------------------
Total Dipole Moment    :     -0.110870160      -1.610720717       0.079441023
                        -----------------------------------------
Magnitude (a.u.)       :      1.616485167
Magnitude (Debye)      :      4.108778765

Rotational constants in cm-1:             0.043845             0.024397             0.016496
Rotational constants in MHz :          1314.436004           731.417143           494.535477

                             ****ORCA TERMINATED NORMALLY****
TOTAL RUN TIME: 0 days 0 hours 0 minutes 52 seconds 159 msec
