                         Program Version 6.0.0  -   RELEASE  -
|  1> ! pbe def2-sv(p) def2/J RI DEFGRID1 loosescf d4 GCP(DFT/SV(P)) printgap
|  2> %output
|  3>     printlevel normal
|  4> end
|  5> * xyz 0 1
|  6> C 3.7309746607 0.3053101793 0.1533622317
|  7> C 2.2915271157 0.1761526495 -0.3371227773
|  8> H 2.3045651775 -0.0690963562 -1.405598639
|  9> C 1.5201370253 1.4788942687 -0.1471185099
| 10> C 0.0784044384 1.3380294434 -0.6263467834
| 11> C -0.6692239448 0.2313758724 0.12569202
| 12> H -0.6602371551 0.469287869 1.1945320065
| 13> C 0.1099812105 -1.0827043647 -0.0681995749
| 14> H 0.1080169834 -1.321185783 -1.1466616511
| 15> C 1.5596763855 -0.9375758653 0.4061162681
| 16> O -0.5318141499 -2.1323595597 0.6357546592
| 17> C -2.1439063366 0.0745220631 -0.3197694805
| 18> C -2.9882895795 -0.5010492017 0.8187191687
| 19> C -2.7932569885 1.3783915471 -0.7866443246
| 20> H 4.2457667108 1.0967318276 -0.3857881448
| 21> H 3.7491908613 0.5440443213 1.2143763942
| 22> H 4.2731609679 -0.6247938922 0.0006463531
| 23> H 1.526089322 1.7480289841 0.911502418
| 24> H 2.0090739869 2.2833618715 -0.7000580247
| 25> H -0.4297144023 2.2892281472 -0.476772679
| 26> H 0.0734506512 1.1116155835 -1.6953137105
| 27> H 1.5521239147 -0.7237993523 1.4775919098
| 28> H 2.0816461251 -1.8865954039 0.2567204302
| 29> H -0.0141141603 -2.941883538 0.5309602205
| 30> H -2.1674131694 -0.6322457128 -1.1572541027
| 31> H -2.5495131031 -1.419824571 1.1932483552
| 32> H -3.9972277405 -0.7126174927 0.4714372699
| 33> H -3.0492033389 0.2147489901 1.6361614974
| 34> H -3.8430535458 1.1947803599 -1.0049000405
| 35> H -2.3264541801 1.762703077 -1.6886325106
| 36> H -2.7385567158 2.1350620436 -0.0073835021
| 37> *
| 38>
| 39>                          ****END OF INPUT****

CARTESIAN COORDINATES (ANGSTROEM)
---------------------------------
  C      3.730975    0.305310    0.153362
  C      2.291527    0.176153   -0.337123
  H      2.304565   -0.069096   -1.405599
  C      1.520137    1.478894   -0.147119
  C      0.078404    1.338029   -0.626347
  C     -0.669224    0.231376    0.125692
  H     -0.660237    0.469288    1.194532
  C      0.109981   -1.082704   -0.068200
  H      0.108017   -1.321186   -1.146662
  C      1.559676   -0.937576    0.406116
  O     -0.531814   -2.132360    0.635755
  C     -2.143906    0.074522   -0.319769
  C     -2.988290   -0.501049    0.818719
  C     -2.793257    1.378392   -0.786644
  H      4.245767    1.096732   -0.385788
  H      3.749191    0.544044    1.214376
  H      4.273161   -0.624794    0.000646
  H      1.526089    1.748029    0.911502
  H      2.009074    2.283362   -0.700058
  H     -0.429714    2.289228   -0.476773
  H      0.073451    1.111616   -1.695314
  H      1.552124   -0.723799    1.477592
  H      2.081646   -1.886595    0.256720
  H     -0.014114   -2.941884    0.530960
  H     -2.167413   -0.632246   -1.157254
  H     -2.549513   -1.419825    1.193248
  H     -3.997228   -0.712617    0.471437
  H     -3.049203    0.214749    1.636161
  H     -3.843054    1.194780   -1.004900
  H     -2.326454    1.762703   -1.688633
  H     -2.738557    2.135062   -0.007384

 Total Charge           Charge          ....    0
 Multiplicity           Mult            ....    1
 Number of Electrons    NEL             ....   88
 Basis Dimension        Dim             ....  194

ORBITAL ENERGIES
----------------

  NO   OCC          E(Eh)            E(eV)
   0   2.0000     -18.740198      -509.9467
   1   2.0000      -9.933667      -270.3088
   2   2.0000      -9.894067      -269.2313
   3   2.0000      -9.886494      -269.0252
   4   2.0000      -9.883222      -268.9362
   5   2.0000      -9.880981      -268.8752
   6   2.0000      -9.880282      -268.8562
   7   2.0000      -9.880002      -268.8485
   8   2.0000      -9.873185      -268.6630
   9   2.0000      -9.864037      -268.4141
  10   2.0000      -9.851293      -268.0673
  11   2.0000      -0.918752       -25.0005
  12   2.0000      -0.758943       -20.6519
  13   2.0000      -0.717958       -19.5366
  14   2.0000      -0.667606       -18.1665
  15   2.0000      -0.655542       -17.8382
  16   2.0000      -0.604068       -16.4375
  17   2.0000      -0.595804       -16.2127
  18   2.0000      -0.546555       -14.8725
  19   2.0000      -0.525599       -14.3023
  20   2.0000      -0.501598       -13.6492
  21   2.0000      -0.488679       -13.2976
  22   2.0000      -0.455510       -12.3951
  23   2.0000      -0.427578       -11.6350
  24   2.0000      -0.408332       -11.1113
  25   2.0000      -0.395605       -10.7649
  26   2.0000      -0.390726       -10.6322
  27   2.0000      -0.376849       -10.2546
  28   2.0000      -0.360665        -9.8142
  29   2.0000      -0.349922        -9.5219
  30   2.0000      -0.344239        -9.3672
  31   2.0000      -0.341351        -9.2886
  32   2.0000      -0.327507        -8.9119
  33   2.0000      -0.322400        -8.7729
  34   2.0000      -0.316392        -8.6095
  35   2.0000      -0.299479        -8.1492
  36   2.0000      -0.297951        -8.1077
  37   2.0000      -0.294580        -8.0159
  38   2.0000      -0.283468        -7.7136
  39   2.0000      -0.270397        -7.3579
  40   2.0000      -0.267627        -7.2825
  41   2.0000      -0.259105        -7.0506
  42   2.0000      -0.242929        -6.6104
  43   2.0000      -0.210797        -5.7361
  44   0.0000       0.026297         0.7156
  45   0.0000       0.039001         1.0613
  46   0.0000       0.044546         1.2122
  47   0.0000       0.049687         1.3521
  48   0.0000       0.075059         2.0425

MULLIKEN ATOMIC CHARGES
-----------------------
   0 C :   -0.195443
   1 C :   -0.211626
   2 H :    0.060953
   3 C :   -0.089191
   4 C :   -0.114671
   5 C :   -0.158592
   6 H :    0.053511
   7 C :    0.072417
   8 H :    0.040863
   9 C :   -0.094787
  10 O :   -0.407719
  11 C :   -0.118686
  12 C :   -0.251373
  13 C :   -0.231231
  14 H :    0.096040
  15 H :    0.090682
  16 H :    0.094242
  17 H :    0.065509
  18 H :    0.076220
  19 H :    0.089051
  20 H :    0.070316
  21 H :    0.070462
  22 H :    0.061037
  23 H :    0.296113
  24 H :    0.061006
  25 H :    0.121782
  26 H :    0.085885
  27 H :    0.081002
  28 H :    0.094489
  29 H :    0.100504
  30 H :    0.091239
Sum of atomic charges:    0.0000000

LOEWDIN ATOMIC CHARGES
----------------------
   0 C :   -0.326534
   1 C :   -0.153734
   2 H :    0.113162
   3 C :   -0.214595
   4 C :   -0.216001
   5 C :   -0.136732
   6 H :    0.117700
   7 C :   -0.043727
   8 H :    0.092342
   9 C :   -0.228900
  10 O :   -0.318821
  11 C :   -0.144528
  12 C :   -0.338468
  13 C :   -0.331388
  14 H :    0.117437
  15 H :    0.117138
  16 H :    0.116349
  17 H :    0.114662
  18 H :    0.115614
  19 H :    0.120608
  20 H :    0.114479
  21 H :    0.118181
  22 H :    0.107635
  23 H :    0.281767
  24 H :    0.114497
  25 H :    0.123764
  26 H :    0.111168
  27 H :    0.110161
  28 H :    0.117495
  29 H :    0.114311
  30 H :    0.114958

  Mayer bond orders larger than 0.100000
B(  0-C ,  1-C ) :   1.1107 B(  0-C , 14-H ) :   0.9481 B(  0-C , 15-H ) :   0.9463
B(  0-C , 16-H ) :   0.9489 B(  1-C ,  2-H ) :   0.8901 B(  1-C ,  3-C ) :   1.1010
B(  1-C ,  9-C ) :   1.0780 B(  3-C ,  4-C ) :   1.1403 B(  3-C , 17-H ) :   0.9020
B(  3-C , 18-H ) :   0.9110 B(  4-C ,  5-C ) :   1.1103 B(  4-C , 19-H ) :   0.8946
B(  4-C , 20-H ) :   0.8978 B(  5-C ,  6-H ) :   0.8720 B(  5-C ,  7-C ) :   1.0629
B(  5-C , 11-C ) :   1.0152 B(  7-C ,  8-H ) :   0.8829 B(  7-C ,  9-C ) :   1.0925
B(  7-C , 10-O ) :   1.0522 B(  9-C , 21-H ) :   0.8904 B(  9-C , 22-H ) :   0.9047
B( 10-O , 23-H ) :   0.8464 B( 11-C , 12-C ) :   1.1257 B( 11-C , 13-C ) :   1.1410
B( 11-C , 24-H ) :   0.8860 B( 12-C , 25-H ) :   0.9274 B( 12-C , 26-H ) :   0.9478
B( 12-C , 27-H ) :   0.9466 B( 13-C , 28-H ) :   0.9467 B( 13-C , 29-H ) :   0.9345
B( 13-C , 30-H ) :   0.9422

Dispersion correction           -0.031275729
FINAL SINGLE POINT ENERGY      -467.196379676940

DIPOLE MOMENT
-------------

Method             : SCF
Type of density    : Electron Density
Multiplicity       :   1
Irrep              :   0
Energy             :  -467.3093342976369513 Eh
Relativity type    :
Basis              : AO
                                X                 Y                 Z
Electronic contribution:      0.442771858      -4.367238400       0.438844220
Nuclear contribution   :      0.130579708       4.206566900      -0.723448112
                        -----------------------------------------
Total Dipole Moment    :      0.573351566      -0.160671500      -0.284603891
                        -----------------------------------------
Magnitude (a.u.)       :      0.659959638
Magnitude (Debye)      :      1.677484088

Rotational constants in cm-1:             0.062045             0.023396             0.018165
Rotational constants in MHz :          1860.052405           701.390908           544.572612

                             ****ORCA TERMINATED NORMALLY****
TOTAL RUN TIME: 0 days 0 hours 0 minutes 14 seconds 202 msec
