                         Program Version 6.0.0  -   RELEASE  -
|  1> ! pbe def2-sv(p) def2/J RI DEFGRID1 loosescf d4 GCP(DFT/SV(P)) printgap
|  2> %output
|  3>     printlevel normal
|  4> end
|  5> * xyz 0 1
|  6> C -2.4076479594 -1.2003722619 -0.1524033056
|  7> C -1.0797136037 -0.6299744879 0.3888393246
|  8> H -1.0951981419 -0.5834085468 1.489762883
|  9> C -0.8066264111 0.7942066155 -0.1190304962
| 10> H -0.9862473823 0.8257669755 -1.2051735945
| 11> C 0.646355933 1.2241136905 0.1686820358
| 12> H 0.7635742055 1.365763669 1.2501443377
| 13> C 1.6351682035 0.1501608493 -0.2853320771
| 14> H 1.5806813779 0.0304304964 -1.3797395371
| 15> C 1.2242991003 -1.1939736458 0.3409662833
| 16> H 1.2827782796 -1.1056026625 1.4466985721
| 17> O -0.0861263052 -1.5420202318 -0.0356508713
| 18> O 2.0849120158 -2.1651160409 -0.1306171657
| 19> O 2.9272496621 0.5209677959 0.1122071025
| 20> O 0.8941543971 2.4875267363 -0.3937427204
| 21> O -1.6920587609 1.6593650618 0.549297975
| 22> O -3.4122629139 -0.2528931341 -0.3813468589
| 23> H -2.7579545405 -1.982588521 0.5336998896
| 24> H -2.1956661367 -1.6612538714 -1.1207508846
| 25> H 1.7247020408 -3.0447579849 0.0615590569
| 26> H 3.5382292421 -0.2020022132 -0.0972952193
| 27> H 1.083264916 2.4012712891 -1.3392214002
| 28> H -1.4344742946 2.5734076251 0.3521666459
| 29> H -3.474930104 0.3457942802 0.3782778293
| 30> *
| 31>
| 32>                          ****END OF INPUT****

CARTESIAN COORDINATES (ANGSTROEM)
---------------------------------
  C     -2.407648   -1.200372   -0.152403
  C     -1.079714   -0.629974    0.388839
  H     -1.095198   -0.583409    1.489763
  C     -0.806626    0.794207   -0.119030
  H     -0.986247    0.825767   -1.205174
  C      0.646356    1.224114    0.168682
  H      0.763574    1.365764    1.250144
  C      1.635168    0.150161   -0.285332
  H      1.580681    0.030430   -1.379740
  C      1.224299   -1.193974    0.340966
  H      1.282778   -1.105603    1.446699
  O     -0.086126   -1.542020   -0.035651
  O      2.084912   -2.165116   -0.130617
  O      2.927250    0.520968    0.112207
  O      0.894154    2.487527   -0.393743
  O     -1.692059    1.659365    0.549298
  O     -3.412263   -0.252893   -0.381347
  H     -2.757955   -1.982589    0.533700
  H     -2.195666   -1.661254   -1.120751
  H      1.724702   -3.044758    0.061559
  H      3.538229   -0.202002   -0.097295
  H      1.083265    2.401271   -1.339221
  H     -1.434474    2.573408    0.352167
  H     -3.474930    0.345794    0.378278

 Total Charge           Charge          ....    0
 Multiplicity           Mult            ....    1
 Number of Electrons    NEL             ....   96
 Basis Dimension        Dim             ....  192

ORBITAL ENERGIES
----------------

  NO   OCC          E(Eh)            E(eV)
   0   2.0000     -18.780980      -511.0564
   1   2.0000     -18.774146      -510.8705
   2   2.0000     -18.760991      -510.5125
   3   2.0000     -18.760182      -510.4905
   4   2.0000     -18.754430      -510.3340
   5   2.0000     -18.739268      -509.9214
   6   2.0000      -9.993980      -271.9500
   7   2.0000      -9.949400      -270.7369
   8   2.0000      -9.947454      -270.6840
   9   2.0000      -9.946951      -270.6703
  10   2.0000      -9.945489      -270.6305
  11   2.0000      -9.929591      -270.1979
  12   2.0000      -0.994102       -27.0509
  13   2.0000      -0.952042       -25.9064
  14   2.0000      -0.939750       -25.5719
  15   2.0000      -0.925008       -25.1708
  16   2.0000      -0.922413       -25.1001
  17   2.0000      -0.913213       -24.8498
  18   2.0000      -0.705949       -19.2098
  19   2.0000      -0.696570       -18.9546
  20   2.0000      -0.615140       -16.7388
  21   2.0000      -0.593271       -16.1437
  22   2.0000      -0.563790       -15.3415
  23   2.0000      -0.539369       -14.6770
  24   2.0000      -0.513002       -13.9595
  25   2.0000      -0.495503       -13.4833
  26   2.0000      -0.474336       -12.9073
  27   2.0000      -0.454031       -12.3548
  28   2.0000      -0.442805       -12.0493
  29   2.0000      -0.440651       -11.9907
  30   2.0000      -0.432083       -11.7576
  31   2.0000      -0.414575       -11.2812
  32   2.0000      -0.383375       -10.4322
  33   2.0000      -0.374815       -10.1992
  34   2.0000      -0.355557        -9.6752
  35   2.0000      -0.353734        -9.6256
  36   2.0000      -0.329852        -8.9757
  37   2.0000      -0.329426        -8.9641
  38   2.0000      -0.307500        -8.3675
  39   2.0000      -0.303354        -8.2547
  40   2.0000      -0.282852        -7.6968
  41   2.0000      -0.267032        -7.2663
  42   2.0000      -0.261351        -7.1117
  43   2.0000      -0.246609        -6.7106
  44   2.0000      -0.239849        -6.5266
  45   2.0000      -0.223382        -6.0785
  46   2.0000      -0.213911        -5.8208
  47   2.0000      -0.205689        -5.5971
  48   0.0000       0.010161         0.2765
  49   0.0000       0.020442         0.5563
  50   0.0000       0.034612         0.9418
  51   0.0000       0.048299         1.3143
  52   0.0000       0.057885         1.5751

MULLIKEN ATOMIC CHARGES
-----------------------
   0 C :    0.091797
   1 C :   -0.008689
   2 H :    0.055732
   3 C :    0.058301
   4 H :    0.048121
   5 C :    0.071960
   6 H :    0.067762
   7 C :    0.041170
   8 H :    0.044940
   9 C :    0.166433
  10 H :    0.041610
  11 O :   -0.309335
  12 O :   -0.388061
  13 O :   -0.405703
  14 O :   -0.411655
  15 O :   -0.429543
  16 O :   -0.434475
  17 H :    0.074426
  18 H :    0.086947
  19 H :    0.313597
  20 H :    0.308568
  21 H :    0.303391
  22 H :    0.309862
  23 H :    0.302843
Sum of atomic charges:    0.0000000

LOEWDIN ATOMIC CHARGES
----------------------
   0 C :   -0.122031
   1 C :   -0.068433
   2 H :    0.102380
   3 C :   -0.077230
   4 H :    0.102757
   5 C :   -0.075912
   6 H :    0.120793
   7 C :   -0.090294
   8 H :    0.099785
   9 C :   -0.004314
  10 H :    0.082691
  11 O :   -0.148317
  12 O :   -0.301104
  13 O :   -0.313541
  14 O :   -0.306916
  15 O :   -0.318140
  16 O :   -0.332835
  17 H :    0.096471
  18 H :    0.115187
  19 H :    0.294894
  20 H :    0.289122
  21 H :    0.288262
  22 H :    0.288444
  23 H :    0.278283

  Mayer bond orders larger than 0.100000
B(  0-C ,  1-C ) :   1.0375 B(  0-C , 16-O ) :   1.1084 B(  0-C , 17-H ) :   0.9254
B(  0-C , 18-H ) :   0.9112 B(  1-C ,  2-H ) :   0.8733 B(  1-C ,  3-C ) :   1.0013
B(  1-C , 11-O ) :   0.9960 B(  3-C ,  4-H ) :   0.8717 B(  3-C ,  5-C ) :   1.0028
B(  3-C , 15-O ) :   1.0301 B(  5-C ,  6-H ) :   0.8650 B(  5-C ,  7-C ) :   1.0034
B(  5-C , 14-O ) :   1.0541 B(  7-C ,  8-H ) :   0.8612 B(  7-C ,  9-C ) :   0.9884
B(  7-C , 13-O ) :   1.0970 B(  9-C , 10-H ) :   0.8868 B(  9-C , 11-O ) :   1.0104
B(  9-C , 12-O ) :   1.1642 B( 12-O , 19-H ) :   0.8357 B( 13-O , 20-H ) :   0.8382
B( 14-O , 21-H ) :   0.8460 B( 15-O , 22-H ) :   0.8276 B( 16-O , 23-H ) :   0.8274

Dispersion correction           -0.023855776
FINAL SINGLE POINT ENERGY      -685.696443500787

DIPOLE MOMENT
-------------

Method             : SCF
Type of density    : Electron Density
Multiplicity       :   1
Irrep              :   0
Energy             :  -685.8270742798439414 Eh
Relativity type    :
Basis              : AO
                                X                 Y                 Z
Electronic contribution:      2.254401919       0.493965223      -0.310289724
Nuclear contribution   :     -1.838753747      -0.962564636       0.343097699
                        -----------------------------------------
Total Dipole Moment    :      0.415648172      -0.468599413       0.032807976
                        -----------------------------------------
Magnitude (a.u.)       :      0.627236141
Magnitude (Debye)      :      1.594307568

Rotational constants in cm-1:             0.043555             0.024893             0.016722
Rotational constants in MHz :          1305.758900           746.278823           501.303223

                             ****ORCA TERMINATED NORMALLY****
TOTAL RUN TIME: 0 days 0 hours 0 minutes 11 seconds 626 msec
