                         Program Version 6.0.0  -   RELEASE  -
|  1> ! pbe def2-sv(p) def2/J RI DEFGRID1 loosescf d4 GCP(DFT/SV(P)) printgap
|  2> %output
|  3>     printlevel normal
|  4> end
|  5> * xyz 0 1
|  6> C -2.3378608005 0.1402673775 -1.2617725236
|  7> C -1.6953807635 -0.4328821759 0.0036402647
|  8> C -2.3403331365 0.1626968967 1.2573400686
|  9> C -0.2044650415 -0.1971879263 0.0022158337
| 10> C 0.677678409 -1.2701663125 0.0065862303
| 11> C 2.0469607111 -1.0670996317 0.0047295402
| 12> C 2.5572002475 0.219185804 -0.0015087767
| 13> C 1.6883964703 1.2974916178 -0.006035588
| 14> C 0.3210574657 1.0898931659 -0.0042887188
| 15> H -1.8739252355 -0.2868102517 -2.1481081468
| 16> H -2.2199378616 1.2201245504 -1.2993503264
| 17> H -3.4003397023 -0.0906233487 -1.2801307755
| 18> H -1.8677960223 -1.514997166 0.0131729412
| 19> H -1.8768117511 -0.2469837863 2.1520550134
| 20> H -3.4024317762 -0.0697008664 1.2786401861
| 21> H -2.2245540912 1.2432754964 1.2749951393
| 22> H 0.2883030599 -2.2786817448 0.0114331505
| 23> H 2.7161171765 -1.9150345482 0.0081348258
| 24> H 3.6248382417 0.3810868988 -0.002820906
| 25> H 2.0785520559 2.3047945147 -0.0108218353
| 26> H -0.3417546723 1.9423586926 -0.0079998762
| 27> *
| 28>
| 29>                          ****END OF INPUT****

CARTESIAN COORDINATES (ANGSTROEM)
---------------------------------
  C     -2.337861    0.140267   -1.261773
  C     -1.695381   -0.432882    0.003640
  C     -2.340333    0.162697    1.257340
  C     -0.204465   -0.197188    0.002216
  C      0.677678   -1.270166    0.006586
  C      2.046961   -1.067100    0.004730
  C      2.557200    0.219186   -0.001509
  C      1.688396    1.297492   -0.006036
  C      0.321057    1.089893   -0.004289
  H     -1.873925   -0.286810   -2.148108
  H     -2.219938    1.220125   -1.299350
  H     -3.400340   -0.090623   -1.280131
  H     -1.867796   -1.514997    0.013173
  H     -1.876812   -0.246984    2.152055
  H     -3.402432   -0.069701    1.278640
  H     -2.224554    1.243275    1.274995
  H      0.288303   -2.278682    0.011433
  H      2.716117   -1.915035    0.008135
  H      3.624838    0.381087   -0.002821
  H      2.078552    2.304795   -0.010822
  H     -0.341755    1.942359   -0.008000

 Total Charge           Charge          ....    0
 Multiplicity           Mult            ....    1
 Number of Electrons    NEL             ....   66
 Basis Dimension        Dim             ....  150

ORBITAL ENERGIES
----------------

  NO   OCC          E(Eh)            E(eV)
   0   2.0000      -9.899856      -269.3888
   1   2.0000      -9.897792      -269.3326
   2   2.0000      -9.887587      -269.0549
   3   2.0000      -9.887074      -269.0410
   4   2.0000      -9.886951      -269.0376
   5   2.0000      -9.886510      -269.0256
   6   2.0000      -9.885154      -268.9887
   7   2.0000      -9.875680      -268.7309
   8   2.0000      -9.875675      -268.7308
   9   2.0000      -0.777254       -21.1502
  10   2.0000      -0.723871       -19.6975
  11   2.0000      -0.666041       -18.1239
  12   2.0000      -0.652613       -17.7585
  13   2.0000      -0.612408       -16.6645
  14   2.0000      -0.553545       -15.0627
  15   2.0000      -0.538233       -14.6461
  16   2.0000      -0.501171       -13.6375
  17   2.0000      -0.459093       -12.4926
  18   2.0000      -0.419918       -11.4265
  19   2.0000      -0.401593       -10.9279
  20   2.0000      -0.385860       -10.4998
  21   2.0000      -0.380564       -10.3557
  22   2.0000      -0.372098       -10.1253
  23   2.0000      -0.368306       -10.0221
  24   2.0000      -0.343889        -9.3577
  25   2.0000      -0.330049        -8.9811
  26   2.0000      -0.321769        -8.7558
  27   2.0000      -0.305706        -8.3187
  28   2.0000      -0.298506        -8.1228
  29   2.0000      -0.284385        -7.7385
  30   2.0000      -0.279569        -7.6075
  31   2.0000      -0.225635        -6.1399
  32   2.0000      -0.217139        -5.9087
  33   0.0000      -0.031765        -0.8644
  34   0.0000      -0.028239        -0.7684
  35   0.0000       0.037172         1.0115
  36   0.0000       0.054532         1.4839
  37   0.0000       0.059955         1.6315

MULLIKEN ATOMIC CHARGES
-----------------------
   0 C :   -0.241774
   1 C :   -0.141578
   2 C :   -0.242138
   3 C :    0.132319
   4 C :   -0.127729
   5 C :   -0.047530
   6 C :   -0.049458
   7 C :   -0.049252
   8 C :   -0.136426
   9 H :    0.106452
  10 H :    0.099247
  11 H :    0.099038
  12 H :    0.062085
  13 H :    0.106567
  14 H :    0.099027
  15 H :    0.099354
  16 H :    0.037376
  17 H :    0.049050
  18 H :    0.051000
  19 H :    0.048977
  20 H :    0.045395
Sum of atomic charges:   -0.0000000

LOEWDIN ATOMIC CHARGES
----------------------
   0 C :   -0.323265
   1 C :   -0.142095
   2 C :   -0.323337
   3 C :   -0.026938
   4 C :   -0.126357
   5 C :   -0.122097
   6 C :   -0.129511
   7 C :   -0.121222
   8 C :   -0.121371
   9 H :    0.121630
  10 H :    0.116822
  11 H :    0.117734
  12 H :    0.116887
  13 H :    0.121649
  14 H :    0.117774
  15 H :    0.116786
  16 H :    0.120145
  17 H :    0.122416
  18 H :    0.122170
  19 H :    0.122282
  20 H :    0.119894

  Mayer bond orders larger than 0.100000
B(  0-C ,  1-C ) :   1.1022 B(  0-C ,  9-H ) :   0.9518 B(  0-C , 10-H ) :   0.9468
B(  0-C , 11-H ) :   0.9486 B(  1-C ,  2-C ) :   1.1022 B(  1-C ,  3-C ) :   1.0112
B(  1-C , 12-H ) :   0.8894 B(  2-C , 13-H ) :   0.9518 B(  2-C , 14-H ) :   0.9486
B(  2-C , 15-H ) :   0.9466 B(  3-C ,  4-C ) :   1.4037 B(  3-C ,  8-C ) :   1.3665
B(  4-C ,  5-C ) :   1.3641 B(  4-C , 16-H ) :   0.9598 B(  5-C ,  6-C ) :   1.3852
B(  5-C , 17-H ) :   0.9633 B(  6-C ,  7-C ) :   1.3742 B(  6-C , 18-H ) :   0.9651
B(  7-C ,  8-C ) :   1.3864 B(  7-C , 19-H ) :   0.9634 B(  8-C , 20-H ) :   0.9588

Dispersion correction           -0.021363696
FINAL SINGLE POINT ENERGY      -349.368555561930

DIPOLE MOMENT
-------------

Method             : SCF
Type of density    : Electron Density
Multiplicity       :   1
Irrep              :   0
Energy             :  -349.4281095523386398 Eh
Relativity type    :
Basis              : AO
                                X                 Y                 Z
Electronic contribution:      7.836685626      -0.666942901       0.010047663
Nuclear contribution   :     -7.974176542       0.646217383      -0.010132776
                        -----------------------------------------
Total Dipole Moment    :     -0.137490916      -0.020725518      -0.000085113
                        -----------------------------------------
Magnitude (a.u.)       :      0.139044260
Magnitude (Debye)      :      0.353422423

Rotational constants in cm-1:             0.112965             0.036685             0.033675
Rotational constants in MHz :          3386.613018          1099.800567          1009.543096

                             ****ORCA TERMINATED NORMALLY****
TOTAL RUN TIME: 0 days 0 hours 0 minutes 9 seconds 752 msec
