                         Program Version 6.0.0  -   RELEASE  -
|  1> ! r2scan-3c def2/J RI DEFGRID2 scfconv6 printgap
|  2> %output
|  3>     printlevel normal
|  4> end
|  5> * xyz 0 1
|  6> C -2.3908664505 0.0650102506 -0.0080611098
|  7> C -0.9242493506 0.4749052389 0.054717405
|  8> C 0.0009744827 -0.694888864 -0.1157927521
|  9> C 1.3236071431 -0.6241319529 -0.0862245801
| 10> C 2.1054385331 0.6330290863 0.1282823902
| 11> H -3.0353636819 0.9319346459 0.1184402633
| 12> H -2.6198401658 -0.6511635294 0.7782988778
| 13> H -2.617018614 -0.3937314112 -0.9682729283
| 14> H -0.7201045881 1.2150470689 -0.7254997792
| 15> H -0.7218718188 0.9590080107 1.0145631572
| 16> H -0.4767124204 -1.6531029477 -0.2680303453
| 17> H 1.9062353064 -1.5281225625 -0.2028462942
| 18> H 2.2186128228 0.8269446952 1.1954378828
| 19> H 1.5986764821 1.4877082476 -0.313961147
| 20> H 3.0981733633 0.5461387812 -0.3054574722
| 21> *
| 22>
| 23>                          ****END OF INPUT****

CARTESIAN COORDINATES (ANGSTROEM)
---------------------------------
  C     -2.390866    0.065010   -0.008061
  C     -0.924249    0.474905    0.054717
  C      0.000974   -0.694889   -0.115793
  C      1.323607   -0.624132   -0.086225
  C      2.105439    0.633029    0.128282
  H     -3.035364    0.931935    0.118440
  H     -2.619840   -0.651164    0.778299
  H     -2.617019   -0.393731   -0.968273
  H     -0.720105    1.215047   -0.725500
  H     -0.721872    0.959008    1.014563
  H     -0.476712   -1.653103   -0.268030
  H      1.906235   -1.528123   -0.202846
  H      2.218613    0.826945    1.195438
  H      1.598676    1.487708   -0.313961
  H      3.098173    0.546139   -0.305457

 Total Charge           Charge          ....    0
 Multiplicity           Mult            ....    1
 Number of Electrons    NEL             ....   40
 Basis Dimension        Dim             ....  145

ORBITAL ENERGIES
----------------

  NO   OCC          E(Eh)            E(eV)
   0   2.0000     -10.028261      -272.8828
   1   2.0000     -10.021885      -272.7094
   2   2.0000     -10.021568      -272.7007
   3   2.0000     -10.018768      -272.6245
   4   2.0000     -10.017692      -272.5953
   5   2.0000      -0.772506       -21.0210
   6   2.0000      -0.718462       -19.5503
   7   2.0000      -0.646261       -17.5857
   8   2.0000      -0.581524       -15.8241
   9   2.0000      -0.495678       -13.4881
  10   2.0000      -0.437240       -11.8979
  11   2.0000      -0.417992       -11.3741
  12   2.0000      -0.397378       -10.8132
  13   2.0000      -0.379704       -10.3323
  14   2.0000      -0.348458        -9.4820
  15   2.0000      -0.338468        -9.2102
  16   2.0000      -0.320796        -8.7293
  17   2.0000      -0.317923        -8.6511
  18   2.0000      -0.291285        -7.9263
  19   2.0000      -0.216421        -5.8891
  20   0.0000      -0.005052        -0.1375
  21   0.0000       0.094787         2.5793
  22   0.0000       0.110384         3.0037
  23   0.0000       0.129569         3.5257
  24   0.0000       0.142858         3.8874

MULLIKEN ATOMIC CHARGES
-----------------------
   0 C :   -0.495945
   1 C :   -0.226871
   2 C :   -0.177741
   3 C :   -0.127776
   4 C :   -0.472294
   5 H :    0.144623
   6 H :    0.148437
   7 H :    0.148094
   8 H :    0.150948
   9 H :    0.149751
  10 H :    0.151286
  11 H :    0.150488
  12 H :    0.164491
  13 H :    0.147382
  14 H :    0.145127
Sum of atomic charges:   -0.0000000

LOEWDIN ATOMIC CHARGES
----------------------
   0 C :   -0.422645
   1 C :   -0.312168
   2 C :   -0.214710
   3 C :   -0.212225
   4 C :   -0.415064
   5 H :    0.150290
   6 H :    0.151737
   7 H :    0.151644
   8 H :    0.160165
   9 H :    0.160644
  10 H :    0.164531
  11 H :    0.159945
  12 H :    0.163709
  13 H :    0.158078
  14 H :    0.156070

  Mayer bond orders larger than 0.100000
B(  0-C ,  1-C ) :   0.8945 B(  0-C ,  5-H ) :   0.9759 B(  0-C ,  6-H ) :   0.9847
B(  0-C ,  7-H ) :   0.9820 B(  1-C ,  2-C ) :   0.9105 B(  1-C ,  8-H ) :   0.9716
B(  1-C ,  9-H ) :   0.9677 B(  2-C ,  3-C ) :   1.9419 B(  2-C , 10-H ) :   0.9585
B(  3-C ,  4-C ) :   0.9063 B(  3-C , 11-H ) :   0.9483 B(  4-C , 12-H ) :   0.9684
B(  4-C , 13-H ) :   0.9807 B(  4-C , 14-H ) :   0.9737

Dispersion correction           -0.003232298
FINAL SINGLE POINT ENERGY      -196.458611516743

DIPOLE MOMENT
-------------

Method             : SCF
Type of density    : Electron Density
Multiplicity       :   1
Irrep              :   0
Energy             :  -196.4615111998698183 Eh
Relativity type    :
Basis              : AO
                                X                 Y                 Z
Electronic contribution:      1.297857434      -1.485843574      -0.254981911
Nuclear contribution   :     -1.284556848       1.633038462       0.302721862
                        -----------------------------------------
Total Dipole Moment    :      0.013300586       0.147194889       0.047739951
                        -----------------------------------------
Magnitude (a.u.)       :      0.155313695
Magnitude (Debye)      :      0.394776039

Rotational constants in cm-1:             0.473679             0.082963             0.073486
Rotational constants in MHz :         14200.527081          2487.168784          2203.051954

                             ****ORCA TERMINATED NORMALLY****
TOTAL RUN TIME: 0 days 0 hours 0 minutes 11 seconds 109 msec
