                         Program Version 6.0.0  -   RELEASE  -
|  1> ! r2scan-3c def2/J RI DEFGRID2 scfconv6 printgap
|  2> %output
|  3>     printlevel normal
|  4> end
|  5> %cpcm
|  6>     smd true
|  7>     smdsolvent "water"
|  8> end
|  9> * xyz 0 1
| 10> C -2.3908664505 0.0650102506 -0.0080611098
| 11> C -0.9242493506 0.4749052389 0.054717405
| 12> C 0.0009744827 -0.694888864 -0.1157927521
| 13> C 1.3236071431 -0.6241319529 -0.0862245801
| 14> C 2.1054385331 0.6330290863 0.1282823902
| 15> H -3.0353636819 0.9319346459 0.1184402633
| 16> H -2.6198401658 -0.6511635294 0.7782988778
| 17> H -2.617018614 -0.3937314112 -0.9682729283
| 18> H -0.7201045881 1.2150470689 -0.7254997792
| 19> H -0.7218718188 0.9590080107 1.0145631572
| 20> H -0.4767124204 -1.6531029477 -0.2680303453
| 21> H 1.9062353064 -1.5281225625 -0.2028462942
| 22> H 2.2186128228 0.8269446952 1.1954378828
| 23> H 1.5986764821 1.4877082476 -0.313961147
| 24> H 3.0981733633 0.5461387812 -0.3054574722
| 25> *
| 26>
| 27>                          ****END OF INPUT****

CARTESIAN COORDINATES (ANGSTROEM)
---------------------------------
  C     -2.390866    0.065010   -0.008061
  C     -0.924249    0.474905    0.054717
  C      0.000974   -0.694889   -0.115793
  C      1.323607   -0.624132   -0.086225
  C      2.105439    0.633029    0.128282
  H     -3.035364    0.931935    0.118440
  H     -2.619840   -0.651164    0.778299
  H     -2.617019   -0.393731   -0.968273
  H     -0.720105    1.215047   -0.725500
  H     -0.721872    0.959008    1.014563
  H     -0.476712   -1.653103   -0.268030
  H      1.906235   -1.528123   -0.202846
  H      2.218613    0.826945    1.195438
  H      1.598676    1.487708   -0.313961
  H      3.098173    0.546139   -0.305457

 Total Charge           Charge          ....    0
 Multiplicity           Mult            ....    1
 Number of Electrons    NEL             ....   40
 Basis Dimension        Dim             ....  145

ORBITAL ENERGIES
----------------

  NO   OCC          E(Eh)            E(eV)
   0   2.0000     -10.021899      -272.7097
   1   2.0000     -10.020175      -272.6628
   2   2.0000     -10.017541      -272.5911
   3   2.0000     -10.014391      -272.5054
   4   2.0000     -10.010033      -272.3868
   5   2.0000      -0.769431       -20.9373
   6   2.0000      -0.713004       -19.4018
   7   2.0000      -0.641650       -17.4602
   8   2.0000      -0.576133       -15.6774
   9   2.0000      -0.491247       -13.3675
  10   2.0000      -0.433110       -11.7855
  11   2.0000      -0.411695       -11.2028
  12   2.0000      -0.392257       -10.6739
  13   2.0000      -0.373588       -10.1659
  14   2.0000      -0.341436        -9.2909
  15   2.0000      -0.332363        -9.0441
  16   2.0000      -0.313894        -8.5415
  17   2.0000      -0.312589        -8.5060
  18   2.0000      -0.286248        -7.7892
  19   2.0000      -0.217139        -5.9087
  20   0.0000      -0.004960        -0.1350
  21   0.0000       0.101140         2.7522
  22   0.0000       0.117150         3.1878
  23   0.0000       0.136703         3.7199
  24   0.0000       0.146361         3.9827

MULLIKEN ATOMIC CHARGES
-----------------------
   0 C :   -0.523781
   1 C :   -0.229768
   2 C :   -0.228474
   3 C :   -0.171548
   4 C :   -0.500133
   5 H :    0.156742
   6 H :    0.157594
   7 H :    0.157320
   8 H :    0.167560
   9 H :    0.162328
  10 H :    0.173883
  11 H :    0.174172
  12 H :    0.179475
  13 H :    0.163097
  14 H :    0.161531
Sum of atomic charges:   -0.0000000

LOEWDIN ATOMIC CHARGES
----------------------
   0 C :   -0.429400
   1 C :   -0.314871
   2 C :   -0.229527
   3 C :   -0.225379
   4 C :   -0.422134
   5 H :    0.153495
   6 H :    0.154068
   7 H :    0.154032
   8 H :    0.165806
   9 H :    0.164936
  10 H :    0.169931
  11 H :    0.165845
  12 H :    0.169215
  13 H :    0.162860
  14 H :    0.161122

  Mayer bond orders larger than 0.100000
B(  0-C ,  1-C ) :   0.8864 B(  0-C ,  5-H ) :   0.9737 B(  0-C ,  6-H ) :   0.9817
B(  0-C ,  7-H ) :   0.9791 B(  1-C ,  2-C ) :   0.8962 B(  1-C ,  8-H ) :   0.9690
B(  1-C ,  9-H ) :   0.9661 B(  2-C ,  3-C ) :   1.9096 B(  2-C , 10-H ) :   0.9601
B(  3-C ,  4-C ) :   0.8961 B(  3-C , 11-H ) :   0.9532 B(  4-C , 12-H ) :   0.9622
B(  4-C , 13-H ) :   0.9780 B(  4-C , 14-H ) :   0.9693

Dispersion correction           -0.003232298
FINAL SINGLE POINT ENERGY      -196.457392016231

DIPOLE MOMENT
-------------

Method             : SCF
Type of density    : Electron Density
Multiplicity       :   1
Irrep              :   0
Energy             :  -196.4602916993571853 Eh
Relativity type    :
Basis              : AO
                                X                 Y                 Z
Electronic contribution:      1.309258164      -1.417761320      -0.236910437
Nuclear contribution   :     -1.284556848       1.633038462       0.302721862
                        -----------------------------------------
Total Dipole Moment    :      0.024701316       0.215277142       0.065811425
                        -----------------------------------------
Magnitude (a.u.)       :      0.226463124
Magnitude (Debye)      :      0.575623516

Rotational constants in cm-1:             0.473679             0.082963             0.073486
Rotational constants in MHz :         14200.527081          2487.168784          2203.051954

                             ****ORCA TERMINATED NORMALLY****
TOTAL RUN TIME: 0 days 0 hours 0 minutes 13 seconds 942 msec
