                         Program Version 6.0.0  -   RELEASE  -
|  1> ! r2scan-3c def2/J RI DEFGRID2 scfconv6 printgap
|  2> %output
|  3>     printlevel normal
|  4> end
|  5> * xyz 0 1
|  6> C 0.8665959612 -1.8248258491 -0.0014480718
|  7> C 1.8808421964 -0.891779319 0.0068512282
|  8> C 1.5911764761 0.4784429251 0.0109448485
|  9> C 0.248724239 0.8759394122 0.0091627883
| 10> C -0.7448167397 -0.0798549173 0.0001247072
| 11> C -0.4646834184 -1.4344175586 -0.0044019877
| 12> Cl -2.4122332388 0.4428069163 -0.0006579653
| 13> N 2.5887607174 1.4077568344 -0.0437793577
| 14> H 1.1064741559 -2.8767812879 -0.002893575
| 15> H 2.910991824 -1.2128307353 0.0079051001
| 16> H -0.0063440065 1.9238280936 0.0119069011
| 17> H -1.2609022651 -2.1599998433 -0.0084750345
| 18> H 2.3532627609 2.3587541759 0.1801198676
| 19> H 3.5184753978 1.1058552783 0.1899323618
| 20> *
| 21>
| 22>                          ****END OF INPUT****

CARTESIAN COORDINATES (ANGSTROEM)
---------------------------------
  C      0.866596   -1.824826   -0.001448
  C      1.880842   -0.891779    0.006851
  C      1.591176    0.478443    0.010945
  C      0.248724    0.875939    0.009163
  C     -0.744817   -0.079855    0.000125
  C     -0.464683   -1.434418   -0.004402
  Cl    -2.412233    0.442807   -0.000658
  N      2.588761    1.407757   -0.043779
  H      1.106474   -2.876781   -0.002894
  H      2.910992   -1.212831    0.007905
  H     -0.006344    1.923828    0.011907
  H     -1.260902   -2.160000   -0.008475
  H      2.353263    2.358754    0.180120
  H      3.518475    1.105855    0.189932

 Total Charge           Charge          ....    0
 Multiplicity           Mult            ....    1
 Number of Electrons    NEL             ....   66
 Basis Dimension        Dim             ....  195

ORBITAL ENERGIES
----------------

  NO   OCC          E(Eh)            E(eV)
   0   2.0000    -101.211640     -2754.1087
   1   2.0000     -14.180024      -385.8581
   2   2.0000     -10.094994      -274.6987
   3   2.0000     -10.087240      -274.4878
   4   2.0000     -10.041734      -273.2495
   5   2.0000     -10.037446      -273.1328
   6   2.0000     -10.033263      -273.0190
   7   2.0000     -10.030818      -272.9524
   8   2.0000      -9.367489      -254.9023
   9   2.0000      -7.113631      -193.5717
  10   2.0000      -7.103790      -193.3039
  11   2.0000      -7.103365      -193.2924
  12   2.0000      -0.906522       -24.6677
  13   2.0000      -0.847696       -23.0670
  14   2.0000      -0.789968       -21.4961
  15   2.0000      -0.714503       -19.4426
  16   2.0000      -0.694759       -18.9054
  17   2.0000      -0.589936       -16.0530
  18   2.0000      -0.576828       -15.6963
  19   2.0000      -0.503357       -13.6970
  20   2.0000      -0.495543       -13.4844
  21   2.0000      -0.459390       -12.5006
  22   2.0000      -0.417599       -11.3634
  23   2.0000      -0.412293       -11.2191
  24   2.0000      -0.399081       -10.8595
  25   2.0000      -0.378930       -10.3112
  26   2.0000      -0.344024        -9.3614
  27   2.0000      -0.329021        -8.9531
  28   2.0000      -0.327120        -8.9014
  29   2.0000      -0.282720        -7.6932
  30   2.0000      -0.279068        -7.5938
  31   2.0000      -0.228132        -6.2078
  32   2.0000      -0.192793        -5.2462
  33   0.0000      -0.036556        -0.9947
  34   0.0000      -0.018923        -0.5149
  35   0.0000       0.014922         0.4061
  36   0.0000       0.064889         1.7657
  37   0.0000       0.101249         2.7551

MULLIKEN ATOMIC CHARGES
-----------------------
   0 C :   -0.098463
   1 C :   -0.381785
   2 C :    0.548445
   3 C :   -0.477105
   4 C :    0.249170
   5 C :   -0.275400
   6 Cl:   -0.164773
   7 N :   -0.512479
   8 H :    0.149604
   9 H :    0.138972
  10 H :    0.151283
  11 H :    0.160572
  12 H :    0.256459
  13 H :    0.255499
Sum of atomic charges:   -0.0000000

LOEWDIN ATOMIC CHARGES
----------------------
   0 C :   -0.142844
   1 C :   -0.171469
   2 C :    0.134506
   3 C :   -0.178049
   4 C :   -0.149473
   5 C :   -0.214910
   6 Cl:    0.111918
   7 N :   -0.590762
   8 H :    0.170251
   9 H :    0.168949
  10 H :    0.178207
  11 H :    0.176289
  12 H :    0.253692
  13 H :    0.253697

  Mayer bond orders larger than 0.100000
B(  0-C ,  1-C ) :   1.4484 B(  0-C ,  5-C ) :   1.3983 B(  0-C ,  8-H ) :   0.9449
B(  1-C ,  2-C ) :   1.3168 B(  1-C ,  9-H ) :   0.9456 B(  2-C ,  3-C ) :   1.2951
B(  2-C ,  7-N ) :   0.9632 B(  3-C ,  4-C ) :   1.4413 B(  3-C , 10-H ) :   0.9317
B(  4-C ,  5-C ) :   1.4005 B(  4-C ,  6-Cl) :   0.8664 B(  5-C , 11-H ) :   0.9449
B(  7-N , 12-H ) :   0.9289 B(  7-N , 13-H ) :   0.9284

Dispersion correction           -0.004872581
FINAL SINGLE POINT ENERGY      -747.110317147047

DIPOLE MOMENT
-------------

Method             : SCF
Type of density    : Electron Density
Multiplicity       :   1
Irrep              :   0
Energy             :  -747.1122245290038109 Eh
Relativity type    :
Basis              : AO
                                X                 Y                 Z
Electronic contribution:    -10.101873122       1.674864043      -0.107561466
Nuclear contribution   :     11.340822371      -1.394507858       0.355737209
                        -----------------------------------------
Total Dipole Moment    :      1.238949249       0.280356184       0.248175743
                        -----------------------------------------
Magnitude (a.u.)       :      1.294289779
Magnitude (Debye)      :      3.289823171

Rotational constants in cm-1:             0.115295             0.039983             0.029698
Rotational constants in MHz :          3456.468880          1198.646663           890.318847

                             ****ORCA TERMINATED NORMALLY****
TOTAL RUN TIME: 0 days 0 hours 0 minutes 22 seconds 345 msec
