                         Program Version 6.0.0  -   RELEASE  -
|  1> ! r2scan-3c def2/J RI DEFGRID2 scfconv6 printgap
|  2> %output
|  3>     printlevel normal
|  4> end
|  5> %cpcm
|  6>     smd true
|  7>     smdsolvent "water"
|  8> end
|  9> * xyz 0 1
| 10> C 0.8665959612 -1.8248258491 -0.0014480718
| 11> C 1.8808421964 -0.891779319 0.0068512282
| 12> C 1.5911764761 0.4784429251 0.0109448485
| 13> C 0.248724239 0.8759394122 0.0091627883
| 14> C -0.7448167397 -0.0798549173 0.0001247072
| 15> C -0.4646834184 -1.4344175586 -0.0044019877
| 16> Cl -2.4122332388 0.4428069163 -0.0006579653
| 17> N 2.5887607174 1.4077568344 -0.0437793577
| 18> H 1.1064741559 -2.8767812879 -0.002893575
| 19> H 2.910991824 -1.2128307353 0.0079051001
| 20> H -0.0063440065 1.9238280936 0.0119069011
| 21> H -1.2609022651 -2.1599998433 -0.0084750345
| 22> H 2.3532627609 2.3587541759 0.1801198676
| 23> H 3.5184753978 1.1058552783 0.1899323618
| 24> *
| 25>
| 26>                          ****END OF INPUT****

CARTESIAN COORDINATES (ANGSTROEM)
---------------------------------
  C      0.866596   -1.824826   -0.001448
  C      1.880842   -0.891779    0.006851
  C      1.591176    0.478443    0.010945
  C      0.248724    0.875939    0.009163
  C     -0.744817   -0.079855    0.000125
  C     -0.464683   -1.434418   -0.004402
  Cl    -2.412233    0.442807   -0.000658
  N      2.588761    1.407757   -0.043779
  H      1.106474   -2.876781   -0.002894
  H      2.910992   -1.212831    0.007905
  H     -0.006344    1.923828    0.011907
  H     -1.260902   -2.160000   -0.008475
  H      2.353263    2.358754    0.180120
  H      3.518475    1.105855    0.189932

 Total Charge           Charge          ....    0
 Multiplicity           Mult            ....    1
 Number of Electrons    NEL             ....   66
 Basis Dimension        Dim             ....  195

ORBITAL ENERGIES
----------------

  NO   OCC          E(Eh)            E(eV)
   0   2.0000    -101.219840     -2754.3319
   1   2.0000     -14.162421      -385.3791
   2   2.0000     -10.096140      -274.7299
   3   2.0000     -10.083203      -274.3779
   4   2.0000     -10.038462      -273.1604
   5   2.0000     -10.034287      -273.0468
   6   2.0000     -10.029132      -272.9065
   7   2.0000     -10.028123      -272.8791
   8   2.0000      -9.375850      -255.1299
   9   2.0000      -7.121821      -193.7946
  10   2.0000      -7.112238      -193.5338
  11   2.0000      -7.111781      -193.5214
  12   2.0000      -0.894200       -24.3324
  13   2.0000      -0.850314       -23.1382
  14   2.0000      -0.790657       -21.5149
  15   2.0000      -0.711758       -19.3679
  16   2.0000      -0.692700       -18.8493
  17   2.0000      -0.584554       -15.9065
  18   2.0000      -0.570743       -15.5307
  19   2.0000      -0.495003       -13.4697
  20   2.0000      -0.483940       -13.1687
  21   2.0000      -0.451554       -12.2874
  22   2.0000      -0.410675       -11.1750
  23   2.0000      -0.410061       -11.1583
  24   2.0000      -0.394924       -10.7464
  25   2.0000      -0.380283       -10.3480
  26   2.0000      -0.340223        -9.2579
  27   2.0000      -0.330554        -8.9948
  28   2.0000      -0.321789        -8.7563
  29   2.0000      -0.287278        -7.8172
  30   2.0000      -0.283307        -7.7092
  31   2.0000      -0.231405        -6.2968
  32   2.0000      -0.188836        -5.1385
  33   0.0000      -0.037196        -1.0121
  34   0.0000      -0.018548        -0.5047
  35   0.0000       0.010887         0.2963
  36   0.0000       0.086425         2.3517
  37   0.0000       0.113523         3.0891

MULLIKEN ATOMIC CHARGES
-----------------------
   0 C :   -0.134737
   1 C :   -0.398795
   2 C :    0.460835
   3 C :   -0.475325
   4 C :    0.245322
   5 C :   -0.315259
   6 Cl:   -0.183227
   7 N :   -0.568293
   8 H :    0.184953
   9 H :    0.181236
  10 H :    0.190244
  11 H :    0.189398
  12 H :    0.311875
  13 H :    0.311774
Sum of atomic charges:   -0.0000000

LOEWDIN ATOMIC CHARGES
----------------------
   0 C :   -0.153933
   1 C :   -0.175854
   2 C :    0.127251
   3 C :   -0.185363
   4 C :   -0.167667
   5 C :   -0.236021
   6 Cl:    0.093518
   7 N :   -0.578670
   8 H :    0.181759
   9 H :    0.184104
  10 H :    0.191532
  11 H :    0.183889
  12 H :    0.267548
  13 H :    0.267907

  Mayer bond orders larger than 0.100000
B(  0-C ,  1-C ) :   1.4150 B(  0-C ,  5-C ) :   1.3699 B(  0-C ,  8-H ) :   0.9523
B(  1-C ,  2-C ) :   1.2951 B(  1-C ,  9-H ) :   0.9586 B(  2-C ,  3-C ) :   1.3224
B(  2-C ,  7-N ) :   0.9793 B(  3-C ,  4-C ) :   1.3874 B(  3-C , 10-H ) :   0.9368
B(  4-C ,  5-C ) :   1.3386 B(  4-C ,  6-Cl) :   0.8653 B(  5-C , 11-H ) :   0.9526
B(  7-N , 12-H ) :   0.9034 B(  7-N , 13-H ) :   0.9028

Dispersion correction           -0.004872581
FINAL SINGLE POINT ENERGY      -747.119634038449

DIPOLE MOMENT
-------------

Method             : SCF
Type of density    : Electron Density
Multiplicity       :   1
Irrep              :   0
Energy             :  -747.1215414204051513 Eh
Relativity type    :
Basis              : AO
                                X                 Y                 Z
Electronic contribution:     -9.623735153       1.825882596      -0.019187053
Nuclear contribution   :     11.340822371      -1.394507858       0.355737209
                        -----------------------------------------
Total Dipole Moment    :      1.717087219       0.431374738       0.336550156
                        -----------------------------------------
Magnitude (a.u.)       :      1.802148354
Magnitude (Debye)      :      4.580697081

Rotational constants in cm-1:             0.115295             0.039983             0.029698
Rotational constants in MHz :          3456.468880          1198.646663           890.318847

                             ****ORCA TERMINATED NORMALLY****
TOTAL RUN TIME: 0 days 0 hours 0 minutes 24 seconds 900 msec
