                         Program Version 6.0.0  -   RELEASE  -
|  1> ! r2scan-3c def2/J RI DEFGRID2 scfconv6 printgap
|  2> %output
|  3>     printlevel normal
|  4> end
|  5> * xyz 0 1
|  6> C -1.5842522351 0.898614767 -0.2868070988
|  7> C -1.3310322951 -0.4899866981 0.2849733994
|  8> C 0.0799649539 -0.9913717697 0.4060718239
|  9> C 1.266005201 -0.4728188697 0.1214578274
| 10> C 1.6585895469 0.8529105717 -0.4456523372
| 11> H -2.6572404319 1.0804036898 -0.3175550407
| 12> H -1.2005640238 0.9787808265 -1.300420249
| 13> H -1.1326812191 1.6661244971 0.3362688607
| 14> H -1.7723280965 -0.540450054 1.2866429755
| 15> H -1.8724943996 -1.2210321567 -0.3258210828
| 16> H 0.0879927929 -1.9970685701 0.8166330436
| 17> H 2.1265148291 -1.1035780599 0.322620553
| 18> H 2.3676557907 1.3341466025 0.2279636697
| 19> H 0.8213268068 1.518339153 -0.6027918461
| 20> H 2.1680049148 0.6991581952 -1.3973496428
| 21> *
| 22>
| 23>                          ****END OF INPUT****

CARTESIAN COORDINATES (ANGSTROEM)
---------------------------------
  C     -1.584252    0.898615   -0.286807
  C     -1.331032   -0.489987    0.284973
  C      0.079965   -0.991372    0.406072
  C      1.266005   -0.472819    0.121458
  C      1.658590    0.852911   -0.445652
  H     -2.657240    1.080404   -0.317555
  H     -1.200564    0.978781   -1.300420
  H     -1.132681    1.666124    0.336269
  H     -1.772328   -0.540450    1.286643
  H     -1.872494   -1.221032   -0.325821
  H      0.087993   -1.997069    0.816633
  H      2.126515   -1.103578    0.322621
  H      2.367656    1.334147    0.227964
  H      0.821327    1.518339   -0.602792
  H      2.168005    0.699158   -1.397350

 Total Charge           Charge          ....    0
 Multiplicity           Mult            ....    1
 Number of Electrons    NEL             ....   40
 Basis Dimension        Dim             ....  145

ORBITAL ENERGIES
----------------

  NO   OCC          E(Eh)            E(eV)
   0   2.0000     -10.031604      -272.9738
   1   2.0000     -10.023294      -272.7477
   2   2.0000     -10.021557      -272.7004
   3   2.0000     -10.019183      -272.6358
   4   2.0000     -10.018400      -272.6145
   5   2.0000      -0.768721       -20.9180
   6   2.0000      -0.716508       -19.4972
   7   2.0000      -0.655964       -17.8497
   8   2.0000      -0.586202       -15.9514
   9   2.0000      -0.485901       -13.2220
  10   2.0000      -0.438001       -11.9186
  11   2.0000      -0.418416       -11.3857
  12   2.0000      -0.387515       -10.5448
  13   2.0000      -0.377333       -10.2677
  14   2.0000      -0.358007        -9.7419
  15   2.0000      -0.352959        -9.6045
  16   2.0000      -0.325166        -8.8482
  17   2.0000      -0.305069        -8.3013
  18   2.0000      -0.283825        -7.7233
  19   2.0000      -0.216616        -5.8944
  20   0.0000       0.007317         0.1991
  21   0.0000       0.083465         2.2712
  22   0.0000       0.118739         3.2311
  23   0.0000       0.126745         3.4489
  24   0.0000       0.141910         3.8616

MULLIKEN ATOMIC CHARGES
-----------------------
   0 C :   -0.519213
   1 C :   -0.195851
   2 C :   -0.180776
   3 C :   -0.100025
   4 C :   -0.478307
   5 H :    0.144084
   6 H :    0.153606
   7 H :    0.151907
   8 H :    0.141523
   9 H :    0.140866
  10 H :    0.143401
  11 H :    0.142954
  12 H :    0.147420
  13 H :    0.157976
  14 H :    0.150434
Sum of atomic charges:   -0.0000000

LOEWDIN ATOMIC CHARGES
----------------------
   0 C :   -0.427078
   1 C :   -0.302619
   2 C :   -0.213019
   3 C :   -0.216117
   4 C :   -0.411932
   5 H :    0.151014
   6 H :    0.151485
   7 H :    0.150615
   8 H :    0.160584
   9 H :    0.160442
  10 H :    0.162172
  11 H :    0.159675
  12 H :    0.157795
  13 H :    0.158164
  14 H :    0.158818

  Mayer bond orders larger than 0.100000
B(  0-C ,  1-C ) :   0.8868 B(  0-C ,  5-H ) :   0.9691 B(  0-C ,  6-H ) :   0.9802
B(  0-C ,  7-H ) :   0.9798 B(  1-C ,  2-C ) :   0.9409 B(  1-C ,  8-H ) :   0.9674
B(  1-C ,  9-H ) :   0.9681 B(  2-C ,  3-C ) :   1.9367 B(  2-C , 10-H ) :   0.9351
B(  3-C ,  4-C ) :   0.9013 B(  3-C , 11-H ) :   0.9422 B(  4-C , 12-H ) :   0.9673
B(  4-C , 13-H ) :   0.9842 B(  4-C , 14-H ) :   0.9668

Dispersion correction           -0.003369765
FINAL SINGLE POINT ENERGY      -196.454677870417

DIPOLE MOMENT
-------------

Method             : SCF
Type of density    : Electron Density
Multiplicity       :   1
Irrep              :   0
Energy             :  -196.4577663468025150 Eh
Relativity type    :
Basis              : AO
                                X                 Y                 Z
Electronic contribution:      0.903669044      -2.187550955       0.863681879
Nuclear contribution   :     -0.998039025       2.265519062      -0.894836152
                        -----------------------------------------
Total Dipole Moment    :     -0.094369981       0.077968107      -0.031154272
                        -----------------------------------------
Magnitude (a.u.)       :      0.126314321
Magnitude (Debye)      :      0.321065488

Rotational constants in cm-1:             0.258270             0.119397             0.085541
Rotational constants in MHz :          7742.740499          3579.445643          2564.465047

                             ****ORCA TERMINATED NORMALLY****
TOTAL RUN TIME: 0 days 0 hours 0 minutes 11 seconds 21 msec
