                         Program Version 6.0.0  -   RELEASE  -
|  1> ! r2scan-3c def2/J RI DEFGRID2 scfconv6 printgap
|  2> %output
|  3>     printlevel normal
|  4> end
|  5> %cpcm
|  6>     smd true
|  7>     smdsolvent "water"
|  8> end
|  9> * xyz 0 1
| 10> C -1.5842522351 0.898614767 -0.2868070988
| 11> C -1.3310322951 -0.4899866981 0.2849733994
| 12> C 0.0799649539 -0.9913717697 0.4060718239
| 13> C 1.266005201 -0.4728188697 0.1214578274
| 14> C 1.6585895469 0.8529105717 -0.4456523372
| 15> H -2.6572404319 1.0804036898 -0.3175550407
| 16> H -1.2005640238 0.9787808265 -1.300420249
| 17> H -1.1326812191 1.6661244971 0.3362688607
| 18> H -1.7723280965 -0.540450054 1.2866429755
| 19> H -1.8724943996 -1.2210321567 -0.3258210828
| 20> H 0.0879927929 -1.9970685701 0.8166330436
| 21> H 2.1265148291 -1.1035780599 0.322620553
| 22> H 2.3676557907 1.3341466025 0.2279636697
| 23> H 0.8213268068 1.518339153 -0.6027918461
| 24> H 2.1680049148 0.6991581952 -1.3973496428
| 25> *
| 26>
| 27>                          ****END OF INPUT****

CARTESIAN COORDINATES (ANGSTROEM)
---------------------------------
  C     -1.584252    0.898615   -0.286807
  C     -1.331032   -0.489987    0.284973
  C      0.079965   -0.991372    0.406072
  C      1.266005   -0.472819    0.121458
  C      1.658590    0.852911   -0.445652
  H     -2.657240    1.080404   -0.317555
  H     -1.200564    0.978781   -1.300420
  H     -1.132681    1.666124    0.336269
  H     -1.772328   -0.540450    1.286643
  H     -1.872494   -1.221032   -0.325821
  H      0.087993   -1.997069    0.816633
  H      2.126515   -1.103578    0.322621
  H      2.367656    1.334147    0.227964
  H      0.821327    1.518339   -0.602792
  H      2.168005    0.699158   -1.397350

 Total Charge           Charge          ....    0
 Multiplicity           Mult            ....    1
 Number of Electrons    NEL             ....   40
 Basis Dimension        Dim             ....  145

ORBITAL ENERGIES
----------------

  NO   OCC          E(Eh)            E(eV)
   0   2.0000     -10.025169      -272.7987
   1   2.0000     -10.022241      -272.7191
   2   2.0000     -10.020814      -272.6802
   3   2.0000     -10.013011      -272.4679
   4   2.0000     -10.009717      -272.3782
   5   2.0000      -0.765990       -20.8437
   6   2.0000      -0.711395       -19.3580
   7   2.0000      -0.651525       -17.7289
   8   2.0000      -0.580808       -15.8046
   9   2.0000      -0.481397       -13.0995
  10   2.0000      -0.434626       -11.8268
  11   2.0000      -0.411707       -11.2031
  12   2.0000      -0.382181       -10.3997
  13   2.0000      -0.372241       -10.1292
  14   2.0000      -0.352362        -9.5883
  15   2.0000      -0.346416        -9.4265
  16   2.0000      -0.317781        -8.6473
  17   2.0000      -0.299162        -8.1406
  18   2.0000      -0.279037        -7.5930
  19   2.0000      -0.217985        -5.9317
  20   0.0000       0.006796         0.1849
  21   0.0000       0.088436         2.4065
  22   0.0000       0.126250         3.4354
  23   0.0000       0.133786         3.6405
  24   0.0000       0.146368         3.9829

MULLIKEN ATOMIC CHARGES
-----------------------
   0 C :   -0.537809
   1 C :   -0.212374
   2 C :   -0.227960
   3 C :   -0.144495
   4 C :   -0.501687
   5 H :    0.155885
   6 H :    0.162030
   7 H :    0.161596
   8 H :    0.156911
   9 H :    0.156491
  10 H :    0.165818
  11 H :    0.165700
  12 H :    0.162316
  13 H :    0.172524
  14 H :    0.165055
Sum of atomic charges:    0.0000000

LOEWDIN ATOMIC CHARGES
----------------------
   0 C :   -0.432620
   1 C :   -0.306088
   2 C :   -0.227763
   3 C :   -0.230844
   4 C :   -0.418910
   5 H :    0.154279
   6 H :    0.154104
   7 H :    0.153692
   8 H :    0.165839
   9 H :    0.165741
  10 H :    0.167806
  11 H :    0.165248
  12 H :    0.163073
  13 H :    0.162328
  14 H :    0.164113

  Mayer bond orders larger than 0.100000
B(  0-C ,  1-C ) :   0.8791 B(  0-C ,  5-H ) :   0.9670 B(  0-C ,  6-H ) :   0.9765
B(  0-C ,  7-H ) :   0.9758 B(  1-C ,  2-C ) :   0.9240 B(  1-C ,  8-H ) :   0.9657
B(  1-C ,  9-H ) :   0.9669 B(  2-C ,  3-C ) :   1.8989 B(  2-C , 10-H ) :   0.9412
B(  3-C ,  4-C ) :   0.8931 B(  3-C , 11-H ) :   0.9461 B(  4-C , 12-H ) :   0.9620
B(  4-C , 13-H ) :   0.9818 B(  4-C , 14-H ) :   0.9611

Dispersion correction           -0.003369765
FINAL SINGLE POINT ENERGY      -196.453572907587

DIPOLE MOMENT
-------------

Method             : SCF
Type of density    : Electron Density
Multiplicity       :   1
Irrep              :   0
Energy             :  -196.4566613839727722 Eh
Relativity type    :
Basis              : AO
                                X                 Y                 Z
Electronic contribution:      0.873332152      -2.153890933       0.850824455
Nuclear contribution   :     -0.998039025       2.265519062      -0.894836152
                        -----------------------------------------
Total Dipole Moment    :     -0.124706873       0.111628129      -0.044011697
                        -----------------------------------------
Magnitude (a.u.)       :      0.173059738
Magnitude (Debye)      :      0.439882895

Rotational constants in cm-1:             0.258270             0.119397             0.085541
Rotational constants in MHz :          7742.740499          3579.445643          2564.465047

                             ****ORCA TERMINATED NORMALLY****
TOTAL RUN TIME: 0 days 0 hours 0 minutes 13 seconds 998 msec
