                         Program Version 6.0.0  -   RELEASE  -
|  1> ! pbe def2-sv(p) def2/J RI DEFGRID1 loosescf d4 GCP(DFT/SV(P)) printgap
|  2> %output
|  3>     printlevel normal
|  4> end
|  5> * xyz 0 1
|  6> C -1.9081609152 -0.5683828317 -0.7904696539
|  7> C -1.2141551294 -0.0874339168 0.4974081787
|  8> H -1.9391457994 -0.0637246226 1.3203500919
|  9> C -0.6281809735 1.3274414807 0.3419171667
| 10> H -1.3745548833 1.9499399317 -0.1639757674
| 11> C 0.6732207492 1.3201777444 -0.4885143695
| 12> H 1.1764068674 2.2822664052 -0.3078364857
| 13> C 1.6387501523 0.2378012879 0.0252842545
| 14> H 2.4119677064 0.093423114 -0.7405220589
| 15> C 0.9453645686 -1.1229753256 0.2321490737
| 16> H 1.583287891 -1.7428478806 0.8901536787
| 17> O -0.2439849981 -1.023265672 0.9625588614
| 18> O 0.800047323 -1.7377200052 -1.0083593824
| 19> O 2.1738391258 0.7163052395 1.2356502878
| 20> O 0.450625238 1.1189001751 -1.8596469865
| 21> O -0.416442625 1.9364035806 1.592178055
| 22> O -2.301505669 -1.9162860838 -0.7076865237
| 23> H -1.2147534108 -0.5084360559 -1.6309748404
| 24> H -2.7697160489 0.0823840843 -0.9858318183
| 25> H 0.1947699799 -2.4923222524 -0.9259947764
| 26> H 2.907528097 0.1552890126 1.5246878423
| 27> H 0.1192917537 1.9356238122 -2.2592018668
| 28> H 0.3570267746 1.5260620698 2.0129275449
| 29> H -2.9181406909 -2.02870368 0.0297153382
| 30> *
| 31>
| 32>                          ****END OF INPUT****

CARTESIAN COORDINATES (ANGSTROEM)
---------------------------------
  C     -1.908161   -0.568383   -0.790470
  C     -1.214155   -0.087434    0.497408
  H     -1.939146   -0.063725    1.320350
  C     -0.628181    1.327441    0.341917
  H     -1.374555    1.949940   -0.163976
  C      0.673221    1.320178   -0.488514
  H      1.176407    2.282266   -0.307836
  C      1.638750    0.237801    0.025284
  H      2.411968    0.093423   -0.740522
  C      0.945365   -1.122975    0.232149
  H      1.583288   -1.742848    0.890154
  O     -0.243985   -1.023266    0.962559
  O      0.800047   -1.737720   -1.008359
  O      2.173839    0.716305    1.235650
  O      0.450625    1.118900   -1.859647
  O     -0.416443    1.936404    1.592178
  O     -2.301506   -1.916286   -0.707687
  H     -1.214753   -0.508436   -1.630975
  H     -2.769716    0.082384   -0.985832
  H      0.194770   -2.492322   -0.925995
  H      2.907528    0.155289    1.524688
  H      0.119292    1.935624   -2.259202
  H      0.357027    1.526062    2.012928
  H     -2.918141   -2.028704    0.029715

 Total Charge           Charge          ....    0
 Multiplicity           Mult            ....    1
 Number of Electrons    NEL             ....   96
 Basis Dimension        Dim             ....  192

ORBITAL ENERGIES
----------------

  NO   OCC          E(Eh)            E(eV)
   0   2.0000     -18.774160      -510.8709
   1   2.0000     -18.762699      -510.5590
   2   2.0000     -18.760280      -510.4932
   3   2.0000     -18.751178      -510.2455
   4   2.0000     -18.746291      -510.1125
   5   2.0000     -18.735609      -509.8218
   6   2.0000      -9.982947      -271.6498
   7   2.0000      -9.947137      -270.6754
   8   2.0000      -9.946189      -270.6496
   9   2.0000      -9.938132      -270.4303
  10   2.0000      -9.935618      -270.3619
  11   2.0000      -9.920950      -269.9628
  12   2.0000      -0.977850       -26.6087
  13   2.0000      -0.947483       -25.7823
  14   2.0000      -0.936430       -25.4816
  15   2.0000      -0.921422       -25.0732
  16   2.0000      -0.916111       -24.9287
  17   2.0000      -0.899967       -24.4894
  18   2.0000      -0.698865       -19.0171
  19   2.0000      -0.690146       -18.7798
  20   2.0000      -0.611321       -16.6349
  21   2.0000      -0.590684       -16.0733
  22   2.0000      -0.568953       -15.4820
  23   2.0000      -0.528349       -14.3771
  24   2.0000      -0.488312       -13.2876
  25   2.0000      -0.482669       -13.1341
  26   2.0000      -0.478817       -13.0293
  27   2.0000      -0.450019       -12.2456
  28   2.0000      -0.440606       -11.9895
  29   2.0000      -0.422322       -11.4920
  30   2.0000      -0.416023       -11.3206
  31   2.0000      -0.403558       -10.9814
  32   2.0000      -0.386529       -10.5180
  33   2.0000      -0.374804       -10.1989
  34   2.0000      -0.360329        -9.8050
  35   2.0000      -0.338815        -9.2196
  36   2.0000      -0.332395        -9.0449
  37   2.0000      -0.312791        -8.5115
  38   2.0000      -0.305664        -8.3175
  39   2.0000      -0.293757        -7.9935
  40   2.0000      -0.283073        -7.7028
  41   2.0000      -0.252582        -6.8731
  42   2.0000      -0.245286        -6.6746
  43   2.0000      -0.241575        -6.5736
  44   2.0000      -0.235279        -6.4023
  45   2.0000      -0.218615        -5.9488
  46   2.0000      -0.216503        -5.8913
  47   2.0000      -0.194565        -5.2944
  48   0.0000       0.005770         0.1570
  49   0.0000       0.018295         0.4978
  50   0.0000       0.029626         0.8062
  51   0.0000       0.052312         1.4235
  52   0.0000       0.069107         1.8805

MULLIKEN ATOMIC CHARGES
-----------------------
   0 C :    0.001305
   1 C :    0.016433
   2 H :    0.062505
   3 C :    0.070385
   4 H :    0.052770
   5 C :    0.019985
   6 H :    0.080461
   7 C :    0.035028
   8 H :    0.085444
   9 C :    0.204844
  10 H :    0.038341
  11 O :   -0.311842
  12 O :   -0.396388
  13 O :   -0.424009
  14 O :   -0.391365
  15 O :   -0.429894
  16 O :   -0.434416
  17 H :    0.125963
  18 H :    0.067805
  19 H :    0.309546
  20 H :    0.311280
  21 H :    0.307412
  22 H :    0.303884
  23 H :    0.294523
Sum of atomic charges:    0.0000000

LOEWDIN ATOMIC CHARGES
----------------------
   0 C :   -0.159733
   1 C :   -0.074390
   2 H :    0.111340
   3 C :   -0.072626
   4 H :    0.109684
   5 C :   -0.071094
   6 H :    0.109192
   7 C :   -0.076796
   8 H :    0.116144
   9 C :   -0.006530
  10 H :    0.084596
  11 O :   -0.143510
  12 O :   -0.308292
  13 O :   -0.307434
  14 O :   -0.300913
  15 O :   -0.322800
  16 O :   -0.334687
  17 H :    0.122152
  18 H :    0.096477
  19 H :    0.287432
  20 H :    0.292939
  21 H :    0.291452
  22 H :    0.275154
  23 H :    0.282242

  Mayer bond orders larger than 0.100000
B(  0-C ,  1-C ) :   1.0296 B(  0-C , 16-O ) :   1.0440 B(  0-C , 17-H ) :   0.8869
B(  0-C , 18-H ) :   0.9117 B(  1-C ,  2-H ) :   0.8934 B(  1-C ,  3-C ) :   0.9929
B(  1-C , 11-O ) :   1.0074 B(  3-C ,  4-H ) :   0.8925 B(  3-C ,  5-C ) :   0.9661
B(  3-C , 15-O ) :   1.0596 B(  5-C ,  6-H ) :   0.9023 B(  5-C ,  7-C ) :   0.9999
B(  5-C , 14-O ) :   1.0828 B(  7-C ,  8-H ) :   0.8874 B(  7-C ,  9-C ) :   0.9725
B(  7-C , 13-O ) :   1.0245 B(  9-C , 10-H ) :   0.9013 B(  9-C , 11-O ) :   1.0728
B(  9-C , 12-O ) :   1.1419 B( 12-O , 19-H ) :   0.8181 B( 13-O , 20-H ) :   0.8405
B( 14-O , 21-H ) :   0.8443 B( 15-O , 22-H ) :   0.8196 B( 16-O , 23-H ) :   0.8525

Dispersion correction           -0.026012806
FINAL SINGLE POINT ENERGY      -685.692829358936

DIPOLE MOMENT
-------------

Method             : SCF
Type of density    : Electron Density
Multiplicity       :   1
Irrep              :   0
Energy             :  -685.8238388075919829 Eh
Relativity type    :
Basis              : AO
                                X                 Y                 Z
Electronic contribution:      1.580765621      -1.051346855       1.276866656
Nuclear contribution   :     -1.368534329       1.102024124      -1.156869689
                        -----------------------------------------
Total Dipole Moment    :      0.212231293       0.050677269       0.119996967
                        -----------------------------------------
Magnitude (a.u.)       :      0.249017227
Magnitude (Debye)      :      0.632951489

Rotational constants in cm-1:             0.041684             0.028470             0.025314
Rotational constants in MHz :          1249.669227           853.501457           758.889556

                             ****ORCA TERMINATED NORMALLY****
TOTAL RUN TIME: 0 days 0 hours 0 minutes 12 seconds 73 msec
