                         Program Version 6.0.0  -   RELEASE  -
|  1> ! r2scan-3c def2/J RI DEFGRID2 scfconv6 printgap
|  2> %output
|  3>     printlevel normal
|  4> end
|  5> * xyz 0 1
|  6> C 2.3936837248 0.0551607497 -0.0002022181
|  7> C 0.9033362565 0.0146528244 0.0007963477
|  8> C 0.1324435304 1.1815640361 0.0001419691
|  9> N -1.1891024027 1.1565898736 -0.0002178968
| 10> C -1.7694411426 -0.0387342603 -7.25594e-05
| 11> C -1.0165785997 -1.2025804245 -0.0002053331
| 12> N 0.3093098107 -1.1755539709 0.0002508327
| 13> H 2.7520668876 0.6166601576 0.8596791484
| 14> H 2.786953178 -0.9555783658 0.0344938947
| 15> H 2.750899898 0.552467262 -0.8995682206
| 16> H 0.591346107 2.1604599639 0.0001919836
| 17> H -2.8492495642 -0.0484620933 0.000214989
| 18> H -1.4734543666 -2.1819260408 -0.000929522
| 19> *
| 20>
| 21>                          ****END OF INPUT****

CARTESIAN COORDINATES (ANGSTROEM)
---------------------------------
  C      2.393684    0.055161   -0.000202
  C      0.903336    0.014653    0.000796
  C      0.132444    1.181564    0.000142
  N     -1.189102    1.156590   -0.000218
  C     -1.769441   -0.038734   -0.000073
  C     -1.016579   -1.202580   -0.000205
  N      0.309310   -1.175554    0.000251
  H      2.752067    0.616660    0.859679
  H      2.786953   -0.955578    0.034494
  H      2.750900    0.552467   -0.899568
  H      0.591346    2.160460    0.000192
  H     -2.849250   -0.048462    0.000215
  H     -1.473454   -2.181926   -0.000930

 Total Charge           Charge          ....    0
 Multiplicity           Mult            ....    1
 Number of Electrons    NEL             ....   50
 Basis Dimension        Dim             ....  173

ORBITAL ENERGIES
----------------

  NO   OCC          E(Eh)            E(eV)
   0   2.0000     -14.174282      -385.7018
   1   2.0000     -14.171444      -385.6246
   2   2.0000     -10.087648      -274.4989
   3   2.0000     -10.077125      -274.2125
   4   2.0000     -10.075680      -274.1732
   5   2.0000     -10.074622      -274.1444
   6   2.0000     -10.036109      -273.0964
   7   2.0000      -0.954757       -25.9803
   8   2.0000      -0.880322       -23.9548
   9   2.0000      -0.768616       -20.9151
  10   2.0000      -0.690537       -18.7905
  11   2.0000      -0.630733       -17.1631
  12   2.0000      -0.598454       -16.2848
  13   2.0000      -0.495751       -13.4901
  14   2.0000      -0.487957       -13.2780
  15   2.0000      -0.445742       -12.1293
  16   2.0000      -0.423270       -11.5178
  17   2.0000      -0.397269       -10.8102
  18   2.0000      -0.378278       -10.2935
  19   2.0000      -0.373434       -10.1616
  20   2.0000      -0.353105        -9.6085
  21   2.0000      -0.310179        -8.4404
  22   2.0000      -0.275424        -7.4947
  23   2.0000      -0.251127        -6.8335
  24   2.0000      -0.216393        -5.8884
  25   0.0000      -0.076927        -2.0933
  26   0.0000      -0.051444        -1.3999
  27   0.0000       0.076811         2.0901
  28   0.0000       0.088751         2.4150
  29   0.0000       0.108729         2.9587

MULLIKEN ATOMIC CHARGES
-----------------------
   0 C :   -0.574627
   1 C :    0.317819
   2 C :   -0.185668
   3 N :   -0.151137
   4 C :   -0.073317
   5 C :   -0.059820
   6 N :   -0.186545
   7 H :    0.159189
   8 H :    0.181183
   9 H :    0.160999
  10 H :    0.138182
  11 H :    0.135968
  12 H :    0.137776
Sum of atomic charges:    0.0000000

LOEWDIN ATOMIC CHARGES
----------------------
   0 C :   -0.359740
   1 C :    0.141096
   2 C :    0.101593
   3 N :   -0.569565
   4 C :    0.085364
   5 C :    0.099110
   6 N :   -0.575734
   7 H :    0.169115
   8 H :    0.177379
   9 H :    0.169955
  10 H :    0.187967
  11 H :    0.186766
  12 H :    0.186693

  Mayer bond orders larger than 0.100000
B(  0-C ,  1-C ) :   0.8375 B(  0-C ,  7-H ) :   0.9661 B(  0-C ,  8-H ) :   0.9953
B(  0-C ,  9-H ) :   0.9627 B(  1-C ,  2-C ) :   1.2936 B(  1-C ,  6-N ) :   1.3228
B(  2-C ,  3-N ) :   1.4910 B(  2-C ,  5-C ) :   0.1100 B(  2-C , 10-H ) :   0.9684
B(  3-N ,  4-C ) :   1.4186 B(  4-C ,  5-C ) :   1.3142 B(  4-C , 11-H ) :   0.9711
B(  5-C ,  6-N ) :   1.4378 B(  5-C , 12-H ) :   0.9663

Dispersion correction           -0.003729406
FINAL SINGLE POINT ENERGY      -303.552417224038

DIPOLE MOMENT
-------------

Method             : SCF
Type of density    : Electron Density
Multiplicity       :   1
Irrep              :   0
Energy             :  -303.5572217972791691 Eh
Relativity type    :
Basis              : AO
                                X                 Y                 Z
Electronic contribution:     -3.993611565      -0.143631770       0.003593660
Nuclear contribution   :      4.271880057       0.134636965      -0.005551677
                        -----------------------------------------
Total Dipole Moment    :      0.278268492      -0.008994805      -0.001958018
                        -----------------------------------------
Magnitude (a.u.)       :      0.278420714
Magnitude (Debye)      :      0.707689214

Rotational constants in cm-1:             0.198397             0.090939             0.063086
Rotational constants in MHz :          5947.795524          2726.287854          1891.261281

                             ****ORCA TERMINATED NORMALLY****
TOTAL RUN TIME: 0 days 0 hours 0 minutes 17 seconds 168 msec
