                         Program Version 6.0.0  -   RELEASE  -
|  1> ! r2scan-3c def2/J RI DEFGRID2 scfconv6 printgap
|  2> %output
|  3>     printlevel normal
|  4> end
|  5> %cpcm
|  6>     smd true
|  7>     smdsolvent "water"
|  8> end
|  9> * xyz 0 1
| 10> C 2.3936837248 0.0551607497 -0.0002022181
| 11> C 0.9033362565 0.0146528244 0.0007963477
| 12> C 0.1324435304 1.1815640361 0.0001419691
| 13> N -1.1891024027 1.1565898736 -0.0002178968
| 14> C -1.7694411426 -0.0387342603 -7.25594e-05
| 15> C -1.0165785997 -1.2025804245 -0.0002053331
| 16> N 0.3093098107 -1.1755539709 0.0002508327
| 17> H 2.7520668876 0.6166601576 0.8596791484
| 18> H 2.786953178 -0.9555783658 0.0344938947
| 19> H 2.750899898 0.552467262 -0.8995682206
| 20> H 0.591346107 2.1604599639 0.0001919836
| 21> H -2.8492495642 -0.0484620933 0.000214989
| 22> H -1.4734543666 -2.1819260408 -0.000929522
| 23> *
| 24>
| 25>                          ****END OF INPUT****

CARTESIAN COORDINATES (ANGSTROEM)
---------------------------------
  C      2.393684    0.055161   -0.000202
  C      0.903336    0.014653    0.000796
  C      0.132444    1.181564    0.000142
  N     -1.189102    1.156590   -0.000218
  C     -1.769441   -0.038734   -0.000073
  C     -1.016579   -1.202580   -0.000205
  N      0.309310   -1.175554    0.000251
  H      2.752067    0.616660    0.859679
  H      2.786953   -0.955578    0.034494
  H      2.750900    0.552467   -0.899568
  H      0.591346    2.160460    0.000192
  H     -2.849250   -0.048462    0.000215
  H     -1.473454   -2.181926   -0.000930

 Total Charge           Charge          ....    0
 Multiplicity           Mult            ....    1
 Number of Electrons    NEL             ....   50
 Basis Dimension        Dim             ....  173

ORBITAL ENERGIES
----------------

  NO   OCC          E(Eh)            E(eV)
   0   2.0000     -14.174745      -385.7144
   1   2.0000     -14.170987      -385.6122
   2   2.0000     -10.083675      -274.3908
   3   2.0000     -10.072045      -274.0743
   4   2.0000     -10.070514      -274.0326
   5   2.0000     -10.069427      -274.0030
   6   2.0000     -10.022462      -272.7251
   7   2.0000      -0.953328       -25.9414
   8   2.0000      -0.879788       -23.9402
   9   2.0000      -0.762227       -20.7412
  10   2.0000      -0.682117       -18.5613
  11   2.0000      -0.626239       -17.0408
  12   2.0000      -0.592961       -16.1353
  13   2.0000      -0.492046       -13.3892
  14   2.0000      -0.482938       -13.1414
  15   2.0000      -0.436442       -11.8762
  16   2.0000      -0.417109       -11.3501
  17   2.0000      -0.388835       -10.5807
  18   2.0000      -0.369598       -10.0573
  19   2.0000      -0.361907        -9.8480
  20   2.0000      -0.344301        -9.3689
  21   2.0000      -0.310626        -8.4526
  22   2.0000      -0.280809        -7.6412
  23   2.0000      -0.245925        -6.6919
  24   2.0000      -0.218260        -5.9392
  25   0.0000      -0.076127        -2.0715
  26   0.0000      -0.047130        -1.2825
  27   0.0000       0.079867         2.1733
  28   0.0000       0.093502         2.5443
  29   0.0000       0.121603         3.3090

MULLIKEN ATOMIC CHARGES
-----------------------
   0 C :   -0.601383
   1 C :    0.320104
   2 C :   -0.178642
   3 N :   -0.205148
   4 C :   -0.089018
   5 C :   -0.068991
   6 N :   -0.232908
   7 H :    0.182467
   8 H :    0.182311
   9 H :    0.184032
  10 H :    0.169557
  11 H :    0.167731
  12 H :    0.169890
Sum of atomic charges:    0.0000000

LOEWDIN ATOMIC CHARGES
----------------------
   0 C :   -0.361153
   1 C :    0.146144
   2 C :    0.107695
   3 N :   -0.605780
   4 C :    0.085621
   5 C :    0.101374
   6 N :   -0.606067
   7 H :    0.178853
   8 H :    0.176060
   9 H :    0.179543
  10 H :    0.200535
  11 H :    0.198407
  12 H :    0.198769

  Mayer bond orders larger than 0.100000
B(  0-C ,  1-C ) :   0.8445 B(  0-C ,  7-H ) :   0.9542 B(  0-C ,  8-H ) :   0.9974
B(  0-C ,  9-H ) :   0.9511 B(  1-C ,  2-C ) :   1.3078 B(  1-C ,  6-N ) :   1.3218
B(  2-C ,  3-N ) :   1.4908 B(  2-C ,  5-C ) :   0.1100 B(  2-C , 10-H ) :   0.9539
B(  3-N ,  4-C ) :   1.4129 B(  4-C ,  5-C ) :   1.3300 B(  4-C , 11-H ) :   0.9605
B(  5-C ,  6-N ) :   1.4294 B(  5-C , 12-H ) :   0.9553

Dispersion correction           -0.003729406
FINAL SINGLE POINT ENERGY      -303.562172108923

DIPOLE MOMENT
-------------

Method             : SCF
Type of density    : Electron Density
Multiplicity       :   1
Irrep              :   0
Energy             :  -303.5669766821632720 Eh
Relativity type    :
Basis              : AO
                                X                 Y                 Z
Electronic contribution:     -3.905199601      -0.096324863       0.002691573
Nuclear contribution   :      4.271880057       0.134636965      -0.005551677
                        -----------------------------------------
Total Dipole Moment    :      0.366680456       0.038312102      -0.002860104
                        -----------------------------------------
Magnitude (a.u.)       :      0.368687610
Magnitude (Debye)      :      0.937129431

Rotational constants in cm-1:             0.198397             0.090939             0.063086
Rotational constants in MHz :          5947.795524          2726.287854          1891.261281

                             ****ORCA TERMINATED NORMALLY****
TOTAL RUN TIME: 0 days 0 hours 0 minutes 22 seconds 583 msec
