                         Program Version 6.0.0  -   RELEASE  -
|  1> ! pbe def2-sv(p) def2/J RI DEFGRID1 loosescf d4 GCP(DFT/SV(P)) printgap
|  2> %output
|  3>     printlevel normal
|  4> end
|  5> * xyz 0 1
|  6> C 0.4107331469 1.7143001725 -0.155583831
|  7> C 0.4484556763 0.2798233113 0.3298732826
|  8> H 0.3066121647 0.2243390368 1.4110208389
|  9> C -0.543303752 -0.6233049537 -0.382930105
| 10> Cl -2.2140141862 -0.1688974482 0.0759931342
| 11> Cl 2.0896067036 -0.4160947264 0.0221080037
| 12> H 0.6187651121 1.7613861305 -1.2212913207
| 13> H -0.5785845112 2.1247829594 0.0304849384
| 14> H 1.1458494955 2.3131595119 0.3738111011
| 15> H -0.4686085708 -0.5172739837 -1.4641421608
| 16> H -0.4122928227 -1.6649223987 -0.0942711651
| 17> *
| 18>
| 19>                          ****END OF INPUT****

CARTESIAN COORDINATES (ANGSTROEM)
---------------------------------
  C      0.410733    1.714300   -0.155584
  C      0.448456    0.279823    0.329873
  H      0.306612    0.224339    1.411021
  C     -0.543304   -0.623305   -0.382930
  Cl    -2.214014   -0.168897    0.075993
  Cl     2.089607   -0.416095    0.022108
  H      0.618765    1.761386   -1.221291
  H     -0.578585    2.124783    0.030485
  H      1.145849    2.313160    0.373811
  H     -0.468609   -0.517274   -1.464142
  H     -0.412293   -1.664922   -0.094271

 Total Charge           Charge          ....    0
 Multiplicity           Mult            ....    1
 Number of Electrons    NEL             ....   58
 Basis Dimension        Dim             ....   90

ORBITAL ENERGIES
----------------

  NO   OCC          E(Eh)            E(eV)
   0   2.0000    -100.632382     -2738.3463
   1   2.0000    -100.628887     -2738.2512
   2   2.0000      -9.964941      -271.1598
   3   2.0000      -9.953847      -270.8580
   4   2.0000      -9.894031      -269.2303
   5   2.0000      -9.168102      -249.4767
   6   2.0000      -9.164659      -249.3830
   7   2.0000      -6.999708      -190.4717
   8   2.0000      -6.996087      -190.3732
   9   2.0000      -6.987909      -190.1507
  10   2.0000      -6.987505      -190.1397
  11   2.0000      -6.984519      -190.0584
  12   2.0000      -6.984241      -190.0509
  13   2.0000      -0.810249       -22.0480
  14   2.0000      -0.766936       -20.8694
  15   2.0000      -0.675757       -18.3883
  16   2.0000      -0.620487       -16.8843
  17   2.0000      -0.534352       -14.5404
  18   2.0000      -0.447238       -12.1700
  19   2.0000      -0.426962       -11.6182
  20   2.0000      -0.408202       -11.1077
  21   2.0000      -0.377259       -10.2657
  22   2.0000      -0.351213        -9.5570
  23   2.0000      -0.341401        -9.2900
  24   2.0000      -0.331662        -9.0250
  25   2.0000      -0.270363        -7.3570
  26   2.0000      -0.257850        -7.0165
  27   2.0000      -0.256814        -6.9883
  28   2.0000      -0.252603        -6.8737
  29   0.0000      -0.017070        -0.4645
  30   0.0000       0.012384         0.3370
  31   0.0000       0.058601         1.5946
  32   0.0000       0.063767         1.7352
  33   0.0000       0.079997         2.1768

MULLIKEN ATOMIC CHARGES
-----------------------
   0 C :   -0.217060
   1 C :   -0.184154
   2 H :    0.136898
   3 C :   -0.115283
   4 Cl:   -0.138034
   5 Cl:   -0.125727
   6 H :    0.110176
   7 H :    0.119546
   8 H :    0.122305
   9 H :    0.141544
  10 H :    0.149788
Sum of atomic charges:   -0.0000000

LOEWDIN ATOMIC CHARGES
----------------------
   0 C :   -0.353174
   1 C :   -0.211203
   2 H :    0.128680
   3 C :   -0.289354
   4 Cl:    0.041308
   5 Cl:    0.042455
   6 H :    0.125535
   7 H :    0.127946
   8 H :    0.129024
   9 H :    0.129377
  10 H :    0.129406

  Mayer bond orders larger than 0.100000
B(  0-C ,  1-C ) :   1.0967 B(  0-C ,  6-H ) :   0.9433 B(  0-C ,  7-H ) :   0.9271
B(  0-C ,  8-H ) :   0.9461 B(  1-C ,  2-H ) :   0.9070 B(  1-C ,  3-C ) :   1.0360
B(  1-C ,  5-Cl) :   1.0137 B(  3-C ,  4-Cl) :   1.0283 B(  3-C ,  9-H ) :   0.9182
B(  3-C , 10-H ) :   0.9244

Dispersion correction           -0.009536057
FINAL SINGLE POINT ENERGY     -1037.366324327222

DIPOLE MOMENT
-------------

Method             : SCF
Type of density    : Electron Density
Multiplicity       :   1
Irrep              :   0
Energy             : -1037.4019478906691347 Eh
Relativity type    :
Basis              : AO
                                X                 Y                 Z
Electronic contribution:     -0.743267524      -4.605654868       0.990693950
Nuclear contribution   :      0.740898588       4.764414123      -1.036435173
                        -----------------------------------------
Total Dipole Moment    :     -0.002368936       0.158759256      -0.045741222
                        -----------------------------------------
Magnitude (a.u.)       :      0.165234296
Magnitude (Debye)      :      0.419992203

Rotational constants in cm-1:             0.228908             0.048370             0.041794
Rotational constants in MHz :          6862.481181          1450.097432          1252.949274

                             ****ORCA TERMINATED NORMALLY****
TOTAL RUN TIME: 0 days 0 hours 0 minutes 5 seconds 623 msec
