                         Program Version 6.0.0  -   RELEASE  -
|  1> ! pbe def2-sv(p) def2/J RI DEFGRID1 loosescf d4 GCP(DFT/SV(P)) printgap
|  2> %output
|  3>     printlevel normal
|  4> end
|  5> * xyz 0 1
|  6> C -3.6788480957 -0.1850549859 -0.0402799896
|  7> C -3.0390209353 -1.0425259552 0.8393225255
|  8> C -1.6603708737 -1.1513141786 0.8234192943
|  9> C -0.904474109 -0.3946641013 -0.0670440246
| 10> C -1.5546010519 0.4592772708 -0.9523334194
| 11> C -2.9339006469 0.5613088064 -0.9382193146
| 12> C 0.5641494995 -0.5248510053 -0.0790799027
| 13> C 1.1462518992 -1.7812047612 -0.2358242789
| 14> C 2.5193432855 -1.9366894142 -0.2624302589
| 15> C 3.3434318462 -0.8320468124 -0.1248048829
| 16> C 2.7902004068 0.4249367589 0.0475419533
| 17> C 1.4137947128 0.5682476816 0.0685676706
| 18> Cl 0.7510843537 2.1611222979 0.3400789511
| 19> H -4.7549136322 -0.0998691551 -0.0280564104
| 20> H -3.6157315755 -1.627717892 1.5397400986
| 21> H -1.158828602 -1.8128219351 1.5142734195
| 22> H -0.9770803342 1.0332417412 -1.6621304039
| 23> H -3.4285034498 1.2256523589 -1.631128207
| 24> H 0.4984371386 -2.6368059309 -0.3508972034
| 25> H 2.9463647033 -2.9187301295 -0.3907793405
| 26> H 4.415664685 -0.9438166498 -0.1454384318
| 27> H 3.4178489725 1.2930016501 0.1694867161
| 28> *
| 29>
| 30>                          ****END OF INPUT****

CARTESIAN COORDINATES (ANGSTROEM)
---------------------------------
  C     -3.678848   -0.185055   -0.040280
  C     -3.039021   -1.042526    0.839323
  C     -1.660371   -1.151314    0.823419
  C     -0.904474   -0.394664   -0.067044
  C     -1.554601    0.459277   -0.952333
  C     -2.933901    0.561309   -0.938219
  C      0.564149   -0.524851   -0.079080
  C      1.146252   -1.781205   -0.235824
  C      2.519343   -1.936689   -0.262430
  C      3.343432   -0.832047   -0.124805
  C      2.790200    0.424937    0.047542
  C      1.413795    0.568248    0.068568
  Cl     0.751084    2.161122    0.340079
  H     -4.754914   -0.099869   -0.028056
  H     -3.615732   -1.627718    1.539740
  H     -1.158829   -1.812822    1.514273
  H     -0.977080    1.033242   -1.662130
  H     -3.428503    1.225652   -1.631128
  H      0.498437   -2.636806   -0.350897
  H      2.946365   -2.918730   -0.390779
  H      4.415665   -0.943817   -0.145438
  H      3.417849    1.293002    0.169487

 Total Charge           Charge          ....    0
 Multiplicity           Mult            ....    1
 Number of Electrons    NEL             ....   98
 Basis Dimension        Dim             ....  204

ORBITAL ENERGIES
----------------

  NO   OCC          E(Eh)            E(eV)
   0   2.0000    -100.639020     -2738.5270
   1   2.0000      -9.952508      -270.8215
   2   2.0000      -9.915494      -269.8143
   3   2.0000      -9.907100      -269.5859
   4   2.0000      -9.904849      -269.5247
   5   2.0000      -9.902901      -269.4716
   6   2.0000      -9.902530      -269.4616
   7   2.0000      -9.899585      -269.3814
   8   2.0000      -9.895507      -269.2704
   9   2.0000      -9.894568      -269.2449
  10   2.0000      -9.894443      -269.2415
  11   2.0000      -9.893866      -269.2258
  12   2.0000      -9.893593      -269.2183
  13   2.0000      -9.174406      -249.6483
  14   2.0000      -7.005748      -190.6361
  15   2.0000      -6.994546      -190.3313
  16   2.0000      -6.993747      -190.3095
  17   2.0000      -0.818007       -22.2591
  18   2.0000      -0.779072       -21.1996
  19   2.0000      -0.760619       -20.6975
  20   2.0000      -0.708281       -19.2733
  21   2.0000      -0.672778       -18.3072
  22   2.0000      -0.666118       -18.1260
  23   2.0000      -0.649872       -17.6839
  24   2.0000      -0.568175       -15.4608
  25   2.0000      -0.555039       -15.1034
  26   2.0000      -0.537297       -14.6206
  27   2.0000      -0.522387       -14.2149
  28   2.0000      -0.483772       -13.1641
  29   2.0000      -0.455252       -12.3880
  30   2.0000      -0.431241       -11.7347
  31   2.0000      -0.416805       -11.3418
  32   2.0000      -0.406601       -11.0642
  33   2.0000      -0.399448       -10.8695
  34   2.0000      -0.387563       -10.5461
  35   2.0000      -0.380282       -10.3480
  36   2.0000      -0.377695       -10.2776
  37   2.0000      -0.356272        -9.6946
  38   2.0000      -0.336573        -9.1586
  39   2.0000      -0.332160        -9.0385
  40   2.0000      -0.319578        -8.6962
  41   2.0000      -0.305864        -8.3230
  42   2.0000      -0.302400        -8.2287
  43   2.0000      -0.294150        -8.0042
  44   2.0000      -0.266792        -7.2598
  45   2.0000      -0.248792        -6.7700
  46   2.0000      -0.230620        -6.2755
  47   2.0000      -0.226501        -6.1634
  48   2.0000      -0.211527        -5.7560
  49   0.0000      -0.059047        -1.6068
  50   0.0000      -0.045814        -1.2467
  51   0.0000      -0.035526        -0.9667
  52   0.0000      -0.020392        -0.5549
  53   0.0000       0.010796         0.2938

MULLIKEN ATOMIC CHARGES
-----------------------
   0 C :   -0.043407
   1 C :   -0.051757
   2 C :   -0.095685
   3 C :    0.068085
   4 C :   -0.077238
   5 C :   -0.057085
   6 C :    0.091258
   7 C :   -0.125084
   8 C :   -0.034995
   9 C :   -0.044244
  10 C :   -0.087683
  11 C :    0.055608
  12 Cl:   -0.073523
  13 H :    0.054728
  14 H :    0.053239
  15 H :    0.046889
  16 H :    0.048125
  17 H :    0.054160
  18 H :    0.052869
  19 H :    0.056253
  20 H :    0.060850
  21 H :    0.048636
Sum of atomic charges:   -0.0000000

LOEWDIN ATOMIC CHARGES
----------------------
   0 C :   -0.121913
   1 C :   -0.121473
   2 C :   -0.112871
   3 C :   -0.035615
   4 C :   -0.111619
   5 C :   -0.120616
   6 C :   -0.043328
   7 C :   -0.106479
   8 C :   -0.124916
   9 C :   -0.117922
  10 C :   -0.137333
  11 C :   -0.118625
  12 Cl:    0.135433
  13 H :    0.124075
  14 H :    0.124427
  15 H :    0.125389
  16 H :    0.122919
  17 H :    0.124811
  18 H :    0.129942
  19 H :    0.126872
  20 H :    0.128038
  21 H :    0.130803

  Mayer bond orders larger than 0.100000
B(  0-C ,  1-C ) :   1.3799 B(  0-C ,  5-C ) :   1.3742 B(  0-C , 13-H ) :   0.9654
B(  1-C ,  2-C ) :   1.3626 B(  1-C , 14-H ) :   0.9637 B(  2-C ,  3-C ) :   1.3877
B(  2-C , 15-H ) :   0.9618 B(  3-C ,  4-C ) :   1.3767 B(  3-C ,  6-C ) :   0.9603
B(  4-C ,  5-C ) :   1.3754 B(  4-C , 16-H ) :   0.9601 B(  5-C , 17-H ) :   0.9632
B(  6-C ,  7-C ) :   1.3902 B(  6-C , 11-C ) :   1.4198 B(  7-C ,  8-C ) :   1.3547
B(  7-C , 18-H ) :   0.9610 B(  8-C ,  9-C ) :   1.3585 B(  8-C , 19-H ) :   0.9660
B(  9-C , 10-C ) :   1.3609 B(  9-C , 20-H ) :   0.9630 B( 10-C , 11-C ) :   1.3777
B( 10-C , 21-H ) :   0.9639 B( 11-C , 12-Cl) :   1.0101

Dispersion correction           -0.030687345
FINAL SINGLE POINT ENERGY      -921.568500227781

DIPOLE MOMENT
-------------

Method             : SCF
Type of density    : Electron Density
Multiplicity       :   1
Irrep              :   0
Energy             :  -921.6160592071930751 Eh
Relativity type    :
Basis              : AO
                                X                 Y                 Z
Electronic contribution:      3.631915930       8.550546032       1.303840015
Nuclear contribution   :     -3.500593790      -8.987412840      -1.380490669
                        -----------------------------------------
Total Dipole Moment    :      0.131322140      -0.436866808      -0.076650654
                        -----------------------------------------
Magnitude (a.u.)       :      0.462572627
Magnitude (Debye)      :      1.175766179

Rotational constants in cm-1:             0.043749             0.017531             0.013619
Rotational constants in MHz :          1311.548750           525.558161           408.298259

                             ****ORCA TERMINATED NORMALLY****
TOTAL RUN TIME: 0 days 0 hours 0 minutes 16 seconds 435 msec
