                         Program Version 6.0.0  -   RELEASE  -
|  1> ! pbe def2-sv(p) def2/J RI DEFGRID1 loosescf d4 GCP(DFT/SV(P)) printgap
|  2> %output
|  3>     printlevel normal
|  4> end
|  5> * xyz 0 1
|  6> C -2.4999914439 -0.4322965845 -0.3405305544
|  7> C -1.1073903877 -0.1966567786 0.2573675525
|  8> H -1.1242403259 -0.4455924783 1.3309566613
|  9> C -0.6396657928 1.2708535983 0.0975852877
| 10> H -1.2969220688 1.7965546264 -0.6067502016
| 11> C 0.7863466195 1.312021781 -0.5000936909
| 12> H 1.1802330868 2.3241855925 -0.3574798724
| 13> C 1.6908620067 0.3228345902 0.2515094051
| 14> H 2.66364004 0.2667456924 -0.250703334
| 15> C 1.0735272273 -1.0997629292 0.1836265841
| 16> H 0.9984468479 -1.4886739144 1.2198925541
| 17> O -0.2199358194 -1.0926666645 -0.3953182395
| 18> O 1.8833720645 -1.8894062387 -0.6043386475
| 19> O 1.934800657 0.7216687349 1.5734310612
| 20> O 0.7780452851 1.087998057 -1.8823970975
| 21> O -0.5939925261 1.9357037737 1.3394778695
| 22> O -3.0138490021 -1.6975792073 -0.0192205096
| 23> H -2.4427686164 -0.2953116526 -1.4270543852
| 24> H -3.203246124 0.2901640129 0.0762944637
| 25> H 1.5180720504 -2.7850389542 -0.6802796015
| 26> H 1.1523474687 1.1884483505 1.9169837042
| 27> H 0.567959741 0.1556511835 -2.0498776319
| 28> H -1.4844060401 2.1718701612 1.6344154838
| 29> H -2.4294918933 -2.3742867839 -0.3888595178
| 30> *
| 31>
| 32>                          ****END OF INPUT****

CARTESIAN COORDINATES (ANGSTROEM)
---------------------------------
  C     -2.499991   -0.432297   -0.340531
  C     -1.107390   -0.196657    0.257368
  H     -1.124240   -0.445592    1.330957
  C     -0.639666    1.270854    0.097585
  H     -1.296922    1.796555   -0.606750
  C      0.786347    1.312022   -0.500094
  H      1.180233    2.324186   -0.357480
  C      1.690862    0.322835    0.251509
  H      2.663640    0.266746   -0.250703
  C      1.073527   -1.099763    0.183627
  H      0.998447   -1.488674    1.219893
  O     -0.219936   -1.092667   -0.395318
  O      1.883372   -1.889406   -0.604339
  O      1.934801    0.721669    1.573431
  O      0.778045    1.087998   -1.882397
  O     -0.593993    1.935704    1.339478
  O     -3.013849   -1.697579   -0.019221
  H     -2.442769   -0.295312   -1.427054
  H     -3.203246    0.290164    0.076294
  H      1.518072   -2.785039   -0.680280
  H      1.152347    1.188448    1.916984
  H      0.567960    0.155651   -2.049878
  H     -1.484406    2.171870    1.634415
  H     -2.429492   -2.374287   -0.388860

 Total Charge           Charge          ....    0
 Multiplicity           Mult            ....    1
 Number of Electrons    NEL             ....   96
 Basis Dimension        Dim             ....  192

ORBITAL ENERGIES
----------------

  NO   OCC          E(Eh)            E(eV)
   0   2.0000     -18.787963      -511.2465
   1   2.0000     -18.783643      -511.1289
   2   2.0000     -18.771272      -510.7923
   3   2.0000     -18.755388      -510.3601
   4   2.0000     -18.748923      -510.1841
   5   2.0000     -18.739239      -509.9206
   6   2.0000      -9.989238      -271.8210
   7   2.0000      -9.955115      -270.8924
   8   2.0000      -9.953741      -270.8551
   9   2.0000      -9.947503      -270.6853
  10   2.0000      -9.944685      -270.6086
  11   2.0000      -9.935160      -270.3495
  12   2.0000      -0.996119       -27.1058
  13   2.0000      -0.959590       -26.1118
  14   2.0000      -0.938461       -25.5368
  15   2.0000      -0.930402       -25.3175
  16   2.0000      -0.921443       -25.0737
  17   2.0000      -0.915584       -24.9143
  18   2.0000      -0.710490       -19.3334
  19   2.0000      -0.686421       -18.6785
  20   2.0000      -0.632496       -17.2111
  21   2.0000      -0.585398       -15.9295
  22   2.0000      -0.576539       -15.6884
  23   2.0000      -0.523773       -14.2526
  24   2.0000      -0.514709       -14.0059
  25   2.0000      -0.501753       -13.6534
  26   2.0000      -0.492772       -13.4090
  27   2.0000      -0.473348       -12.8805
  28   2.0000      -0.463409       -12.6100
  29   2.0000      -0.432078       -11.7574
  30   2.0000      -0.412980       -11.2378
  31   2.0000      -0.394962       -10.7475
  32   2.0000      -0.391760       -10.6603
  33   2.0000      -0.381984       -10.3943
  34   2.0000      -0.366188        -9.9645
  35   2.0000      -0.357263        -9.7216
  36   2.0000      -0.331827        -9.0295
  37   2.0000      -0.330449        -8.9920
  38   2.0000      -0.314398        -8.5552
  39   2.0000      -0.303064        -8.2468
  40   2.0000      -0.286845        -7.8055
  41   2.0000      -0.272834        -7.4242
  42   2.0000      -0.267194        -7.2707
  43   2.0000      -0.252802        -6.8791
  44   2.0000      -0.239085        -6.5058
  45   2.0000      -0.231657        -6.3037
  46   2.0000      -0.212941        -5.7944
  47   2.0000      -0.205228        -5.5845
  48   0.0000      -0.005375        -0.1463
  49   0.0000       0.015826         0.4307
  50   0.0000       0.036169         0.9842
  51   0.0000       0.047945         1.3047
  52   0.0000       0.051249         1.3946

MULLIKEN ATOMIC CHARGES
-----------------------
   0 C :    0.068730
   1 C :    0.015394
   2 H :    0.056991
   3 C :    0.016766
   4 H :    0.074208
   5 C :    0.022801
   6 H :    0.088521
   7 C :    0.044808
   8 H :    0.090643
   9 C :    0.180295
  10 H :    0.053330
  11 O :   -0.332537
  12 O :   -0.374805
  13 O :   -0.427250
  14 O :   -0.418250
  15 O :   -0.419781
  16 O :   -0.430197
  17 H :    0.081746
  18 H :    0.082762
  19 H :    0.304264
  20 H :    0.305295
  21 H :    0.302720
  22 H :    0.315506
  23 H :    0.298041
Sum of atomic charges:   -0.0000000

LOEWDIN ATOMIC CHARGES
----------------------
   0 C :   -0.126695
   1 C :   -0.083964
   2 H :    0.105739
   3 C :   -0.080491
   4 H :    0.110938
   5 C :   -0.070838
   6 H :    0.123182
   7 C :   -0.082637
   8 H :    0.124934
   9 C :   -0.006666
  10 H :    0.087010
  11 O :   -0.171274
  12 O :   -0.287512
  13 O :   -0.320084
  14 O :   -0.310705
  15 O :   -0.309935
  16 O :   -0.333525
  17 H :    0.104584
  18 H :    0.114114
  19 H :    0.288282
  20 H :    0.272960
  21 H :    0.274286
  22 H :    0.295594
  23 H :    0.282703

  Mayer bond orders larger than 0.100000
B(  0-C ,  1-C ) :   1.0369 B(  0-C , 16-O ) :   1.0823 B(  0-C , 17-H ) :   0.9051
B(  0-C , 18-H ) :   0.9230 B(  1-C ,  2-H ) :   0.8637 B(  1-C ,  3-C ) :   0.9660
B(  1-C , 11-O ) :   1.0074 B(  3-C ,  4-H ) :   0.8957 B(  3-C ,  5-C ) :   0.9764
B(  3-C , 15-O ) :   1.0224 B(  5-C ,  6-H ) :   0.8926 B(  5-C ,  7-C ) :   1.0179
B(  5-C , 14-O ) :   1.0607 B(  7-C ,  8-H ) :   0.8909 B(  7-C ,  9-C ) :   0.9394
B(  7-C , 13-O ) :   1.0806 B(  9-C , 10-H ) :   0.8911 B(  9-C , 11-O ) :   0.9770
B(  9-C , 12-O ) :   1.1694 B( 12-O , 19-H ) :   0.8400 B( 13-O , 20-H ) :   0.8114
B( 14-O , 21-H ) :   0.8300 B( 15-O , 22-H ) :   0.8399 B( 16-O , 23-H ) :   0.8466

Dispersion correction           -0.024745777
FINAL SINGLE POINT ENERGY      -685.693515559489

DIPOLE MOMENT
-------------

Method             : SCF
Type of density    : Electron Density
Multiplicity       :   1
Irrep              :   0
Energy             :  -685.8252284734476234 Eh
Relativity type    :
Basis              : AO
                                X                 Y                 Z
Electronic contribution:      2.552511792      -1.101422719      -0.272423458
Nuclear contribution   :     -3.647831998       0.741119445       0.391894336
                        -----------------------------------------
Total Dipole Moment    :     -1.095320206      -0.360303274       0.119470878
                        -----------------------------------------
Magnitude (a.u.)       :      1.159231683
Magnitude (Debye)      :      2.946532772

Rotational constants in cm-1:             0.038512             0.026823             0.021475
Rotational constants in MHz :          1154.553290           804.123513           643.801500

                             ****ORCA TERMINATED NORMALLY****
TOTAL RUN TIME: 0 days 0 hours 0 minutes 12 seconds 48 msec
