                         Program Version 6.0.0  -   RELEASE  -
|  1> ! pbe def2-sv(p) def2/J RI DEFGRID1 loosescf d4 GCP(DFT/SV(P)) printgap
|  2> %output
|  3>     printlevel normal
|  4> end
|  5> * xyz 0 1
|  6> C -3.186698037 -0.3082329974 0.0002669904
|  7> O -2.0856289798 0.580847299 -0.0001833041
|  8> C -0.8244558748 0.0589143298 -0.0001897634
|  9> C -0.5253118295 -1.2994992305 -0.0002955416
| 10> C 0.7997948494 -1.7011034782 -0.0002085904
| 11> C 1.8297588186 -0.7813656033 1.17828e-05
| 12> C 1.5309025013 0.5784119382 0.0001383235
| 13> C 0.2077254725 0.9927194487 5.00763e-05
| 14> O 2.4961157469 1.5357688036 0.0002358792
| 15> H -3.1870018217 -0.9360081073 0.8950713731
| 16> H -3.1874262473 -0.9364799641 -0.8942235363
| 17> H -4.067874602 0.3293044521 0.0003033955
| 18> H -1.3042961339 -2.0433339177 -0.0004130637
| 19> H 1.0295290895 -2.7555671771 -0.0002940185
| 20> H 2.8566486139 -1.1138865324 9.3866e-05
| 21> H -0.0266133751 2.0445894263 0.0001567402
| 22> H 3.3763869308 1.1295494468 0.0011724857
| 23> *
| 24>
| 25>                          ****END OF INPUT****

CARTESIAN COORDINATES (ANGSTROEM)
---------------------------------
  C     -3.186698   -0.308233    0.000267
  O     -2.085629    0.580847   -0.000183
  C     -0.824456    0.058914   -0.000190
  C     -0.525312   -1.299499   -0.000296
  C      0.799795   -1.701103   -0.000209
  C      1.829759   -0.781366    0.000012
  C      1.530903    0.578412    0.000138
  C      0.207725    0.992719    0.000050
  O      2.496116    1.535769    0.000236
  H     -3.187002   -0.936008    0.895071
  H     -3.187426   -0.936480   -0.894224
  H     -4.067875    0.329304    0.000303
  H     -1.304296   -2.043334   -0.000413
  H      1.029529   -2.755567   -0.000294
  H      2.856649   -1.113887    0.000094
  H     -0.026613    2.044589    0.000157
  H      3.376387    1.129549    0.001172

 Total Charge           Charge          ....    0
 Multiplicity           Mult            ....    1
 Number of Electrons    NEL             ....   66
 Basis Dimension        Dim             ....  142

ORBITAL ENERGIES
----------------

  NO   OCC          E(Eh)            E(eV)
   0   2.0000     -18.781817      -511.0792
   1   2.0000     -18.778903      -510.9999
   2   2.0000      -9.949449      -270.7383
   3   2.0000      -9.947413      -270.6829
   4   2.0000      -9.938179      -270.4316
   5   2.0000      -9.893468      -269.2149
   6   2.0000      -9.883285      -268.9378
   7   2.0000      -9.881790      -268.8972
   8   2.0000      -9.876116      -268.7428
   9   2.0000      -0.963464       -26.2172
  10   2.0000      -0.959855       -26.1190
  11   2.0000      -0.766459       -20.8564
  12   2.0000      -0.681819       -18.5532
  13   2.0000      -0.661923       -18.0118
  14   2.0000      -0.624843       -17.0029
  15   2.0000      -0.551939       -15.0190
  16   2.0000      -0.543610       -14.7924
  17   2.0000      -0.497343       -13.5334
  18   2.0000      -0.447835       -12.1862
  19   2.0000      -0.437367       -11.9014
  20   2.0000      -0.430366       -11.7109
  21   2.0000      -0.417639       -11.3645
  22   2.0000      -0.382414       -10.4060
  23   2.0000      -0.371660       -10.1134
  24   2.0000      -0.361048        -9.8246
  25   2.0000      -0.342585        -9.3222
  26   2.0000      -0.329380        -8.9629
  27   2.0000      -0.313167        -8.5217
  28   2.0000      -0.302789        -8.2393
  29   2.0000      -0.278188        -7.5699
  30   2.0000      -0.267321        -7.2742
  31   2.0000      -0.197469        -5.3734
  32   2.0000      -0.188001        -5.1158
  33   0.0000      -0.025825        -0.7027
  34   0.0000      -0.006288        -0.1711
  35   0.0000       0.025530         0.6947
  36   0.0000       0.045215         1.2304
  37   0.0000       0.059034         1.6064

MULLIKEN ATOMIC CHARGES
-----------------------
   0 C :   -0.113920
   1 O :   -0.271572
   2 C :    0.275260
   3 C :   -0.188411
   4 C :   -0.062480
   5 C :   -0.156036
   6 C :    0.247813
   7 C :   -0.200813
   8 O :   -0.336538
   9 H :    0.110351
  10 H :    0.110362
  11 H :    0.124930
  12 H :    0.034277
  13 H :    0.051003
  14 H :    0.022247
  15 H :    0.036929
  16 H :    0.316597
Sum of atomic charges:   -0.0000000

LOEWDIN ATOMIC CHARGES
----------------------
   0 C :   -0.201811
   1 O :   -0.092593
   2 C :    0.039259
   3 C :   -0.199980
   4 C :   -0.108817
   5 C :   -0.198627
   6 C :    0.027282
   7 C :   -0.171824
   8 O :   -0.234799
   9 H :    0.109264
  10 H :    0.109259
  11 H :    0.122138
  12 H :    0.124599
  13 H :    0.123967
  14 H :    0.118357
  15 H :    0.136591
  16 H :    0.297732

  Mayer bond orders larger than 0.100000
B(  0-C ,  1-O ) :   0.9895 B(  0-C ,  9-H ) :   0.9422 B(  0-C , 10-H ) :   0.9422
B(  0-C , 11-H ) :   0.9593 B(  1-O ,  2-C ) :   1.1366 B(  2-C ,  3-C ) :   1.2911
B(  2-C ,  7-C ) :   1.3250 B(  3-C ,  4-C ) :   1.3545 B(  3-C , 12-H ) :   0.9653
B(  4-C ,  5-C ) :   1.3818 B(  4-C , 13-H ) :   0.9574 B(  5-C ,  6-C ) :   1.2932
B(  5-C , 14-H ) :   0.9606 B(  6-C ,  7-C ) :   1.3459 B(  6-C ,  8-O ) :   1.1840
B(  7-C , 15-H ) :   0.9746 B(  8-O , 16-H ) :   0.8429

Dispersion correction           -0.016505096
FINAL SINGLE POINT ENERGY      -421.093309684997

DIPOLE MOMENT
-------------

Method             : SCF
Type of density    : Electron Density
Multiplicity       :   1
Irrep              :   0
Energy             :  -421.1520423384031346 Eh
Relativity type    :
Basis              : AO
                                X                 Y                 Z
Electronic contribution:      4.281996308       3.320080698      -0.000968917
Nuclear contribution   :     -4.225674994      -3.985733506       0.001752570
                        -----------------------------------------
Total Dipole Moment    :      0.056321314      -0.665652808       0.000783652
                        -----------------------------------------
Magnitude (a.u.)       :      0.668031710
Magnitude (Debye)      :      1.698001664

Rotational constants in cm-1:             0.122467             0.037666             0.028966
Rotational constants in MHz :          3671.474835          1129.183916           868.372343

                             ****ORCA TERMINATED NORMALLY****
TOTAL RUN TIME: 0 days 0 hours 0 minutes 8 seconds 126 msec
