                         Program Version 6.0.0  -   RELEASE  -
|  1> ! r2scan-3c def2/J RI DEFGRID2 scfconv6 printgap
|  2> %output
|  3>     printlevel normal
|  4> end
|  5> * xyz 0 1
|  6> C -2.6300356644 1.3509965997 0.5074018253
|  7> C -1.9368104995 0.2662783816 -0.3120791501
|  8> C -0.4413541774 0.224698652 -0.1386513276
|  9> C 0.3271027034 1.3709296081 -0.0092785326
| 10> C 1.7023501925 1.3086007343 0.1423210427
| 11> C 2.3352912265 0.0800617647 0.1650320257
| 12> C 1.5914087682 -1.0785920795 0.031217328
| 13> C 0.2128526597 -1.0141286254 -0.1233544486
| 14> O -0.5382844324 -2.1453774 -0.2637659805
| 15> H -2.3813171483 2.3438845593 0.1426765172
| 16> H -2.3377839087 1.2821518096 1.5527335506
| 17> H -3.7082510917 1.2283218101 0.4404360559
| 18> H -2.1628675978 0.4139392759 -1.3726807774
| 19> H -2.3354932321 -0.7102583548 -0.0307862765
| 20> H -0.15635108 2.3348366521 -0.0281092205
| 21> H 2.2752031503 2.2178252466 0.2418416489
| 22> H 3.4062691194 0.0179170469 0.284358727
| 23> H 2.083688623 -2.040951315 0.0459069906
| 24> H 0.0284783037 -2.929502772 -0.2188282735
| 25> *
| 26>
| 27>                          ****END OF INPUT****

CARTESIAN COORDINATES (ANGSTROEM)
---------------------------------
  C     -2.630036    1.350997    0.507402
  C     -1.936810    0.266278   -0.312079
  C     -0.441354    0.224699   -0.138651
  C      0.327103    1.370930   -0.009279
  C      1.702350    1.308601    0.142321
  C      2.335291    0.080062    0.165032
  C      1.591409   -1.078592    0.031217
  C      0.212853   -1.014129   -0.123354
  O     -0.538284   -2.145377   -0.263766
  H     -2.381317    2.343885    0.142677
  H     -2.337784    1.282152    1.552734
  H     -3.708251    1.228322    0.440436
  H     -2.162868    0.413939   -1.372681
  H     -2.335493   -0.710258   -0.030786
  H     -0.156351    2.334837   -0.028109
  H      2.275203    2.217825    0.241842
  H      3.406269    0.017917    0.284359
  H      2.083689   -2.040951    0.045907
  H      0.028478   -2.929503   -0.218828

 Total Charge           Charge          ....    0
 Multiplicity           Mult            ....    1
 Number of Electrons    NEL             ....   66
 Basis Dimension        Dim             ....  226

ORBITAL ENERGIES
----------------

  NO   OCC          E(Eh)            E(eV)
   0   2.0000     -18.985174      -516.6128
   1   2.0000     -10.092625      -274.6343
   2   2.0000     -10.035848      -273.0893
   3   2.0000     -10.032209      -272.9903
   4   2.0000     -10.031648      -272.9750
   5   2.0000     -10.028901      -272.9003
   6   2.0000     -10.027810      -272.8706
   7   2.0000     -10.023878      -272.7636
   8   2.0000     -10.017540      -272.5911
   9   2.0000      -1.028391       -27.9839
  10   2.0000      -0.822424       -22.3793
  11   2.0000      -0.754399       -20.5283
  12   2.0000      -0.706479       -19.2243
  13   2.0000      -0.690268       -18.7831
  14   2.0000      -0.607442       -16.5293
  15   2.0000      -0.585746       -15.9389
  16   2.0000      -0.543137       -14.7795
  17   2.0000      -0.512442       -13.9443
  18   2.0000      -0.460296       -12.5253
  19   2.0000      -0.439462       -11.9584
  20   2.0000      -0.413289       -11.2462
  21   2.0000      -0.403559       -10.9814
  22   2.0000      -0.397475       -10.8159
  23   2.0000      -0.376991       -10.2585
  24   2.0000      -0.360582        -9.8119
  25   2.0000      -0.345219        -9.3939
  26   2.0000      -0.338945        -9.2232
  27   2.0000      -0.324404        -8.8275
  28   2.0000      -0.309189        -8.4135
  29   2.0000      -0.301313        -8.1991
  30   2.0000      -0.294213        -8.0059
  31   2.0000      -0.228309        -6.2126
  32   2.0000      -0.201153        -5.4737
  33   0.0000      -0.029129        -0.7926
  34   0.0000      -0.012504        -0.3402
  35   0.0000       0.055244         1.5033
  36   0.0000       0.088475         2.4075
  37   0.0000       0.097205         2.6451

MULLIKEN ATOMIC CHARGES
-----------------------
   0 C :   -0.472016
   1 C :   -0.330731
   2 C :    0.021672
   3 C :   -0.181030
   4 C :   -0.202634
   5 C :   -0.133903
   6 C :   -0.333783
   7 C :    0.381490
   8 O :   -0.411650
   9 H :    0.136872
  10 H :    0.160454
  11 H :    0.149021
  12 H :    0.165818
  13 H :    0.175480
  14 H :    0.141998
  15 H :    0.144336
  16 H :    0.146173
  17 H :    0.133501
  18 H :    0.308933
Sum of atomic charges:   -0.0000000

LOEWDIN ATOMIC CHARGES
----------------------
   0 C :   -0.413575
   1 C :   -0.273240
   2 C :   -0.072095
   3 C :   -0.149089
   4 C :   -0.186654
   5 C :   -0.161521
   6 C :   -0.170952
   7 C :    0.188709
   8 O :   -0.519591
   9 H :    0.147296
  10 H :    0.156215
  11 H :    0.151810
  12 H :    0.168013
  13 H :    0.179884
  14 H :    0.170374
  15 H :    0.165935
  16 H :    0.167089
  17 H :    0.166992
  18 H :    0.284397

  Mayer bond orders larger than 0.100000
B(  0-C ,  1-C ) :   0.8734 B(  0-C ,  9-H ) :   0.9666 B(  0-C , 10-H ) :   0.9871
B(  0-C , 11-H ) :   0.9756 B(  1-C ,  2-C ) :   0.8130 B(  1-C , 12-H ) :   0.9672
B(  1-C , 13-H ) :   1.0153 B(  2-C ,  3-C ) :   1.3918 B(  2-C ,  7-C ) :   1.4938
B(  3-C ,  4-C ) :   1.4260 B(  3-C , 14-H ) :   0.9411 B(  4-C ,  5-C ) :   1.4365
B(  4-C , 15-H ) :   0.9486 B(  5-C ,  6-C ) :   1.3988 B(  5-C , 16-H ) :   0.9412
B(  6-C ,  7-C ) :   1.2880 B(  6-C , 17-H ) :   0.9519 B(  7-C ,  8-O ) :   0.9633
B(  8-O , 18-H ) :   0.8842

Dispersion correction           -0.006166962
FINAL SINGLE POINT ENERGY      -385.999565691383

DIPOLE MOMENT
-------------

Method             : SCF
Type of density    : Electron Density
Multiplicity       :   1
Irrep              :   0
Energy             :  -386.0003982660326187 Eh
Relativity type    :
Basis              : AO
                                X                 Y                 Z
Electronic contribution:      5.172375051      -4.203842489      -0.975810863
Nuclear contribution   :     -4.969412219       3.869264748       0.988250314
                        -----------------------------------------
Total Dipole Moment    :      0.202962833      -0.334577741       0.012439451
                        -----------------------------------------
Magnitude (a.u.)       :      0.391523838
Magnitude (Debye)      :      0.995174509

Rotational constants in cm-1:             0.083295             0.049490             0.032030
Rotational constants in MHz :          2497.113972          1483.680092           960.233661

                             ****ORCA TERMINATED NORMALLY****
TOTAL RUN TIME: 0 days 0 hours 0 minutes 27 seconds 389 msec
