                         Program Version 6.0.0  -   RELEASE  -
|  1> ! r2scan-3c def2/J RI DEFGRID2 scfconv6 printgap
|  2> %output
|  3>     printlevel normal
|  4> end
|  5> %cpcm
|  6>     smd true
|  7>     smdsolvent "water"
|  8> end
|  9> * xyz 0 1
| 10> C -2.6300356644 1.3509965997 0.5074018253
| 11> C -1.9368104995 0.2662783816 -0.3120791501
| 12> C -0.4413541774 0.224698652 -0.1386513276
| 13> C 0.3271027034 1.3709296081 -0.0092785326
| 14> C 1.7023501925 1.3086007343 0.1423210427
| 15> C 2.3352912265 0.0800617647 0.1650320257
| 16> C 1.5914087682 -1.0785920795 0.031217328
| 17> C 0.2128526597 -1.0141286254 -0.1233544486
| 18> O -0.5382844324 -2.1453774 -0.2637659805
| 19> H -2.3813171483 2.3438845593 0.1426765172
| 20> H -2.3377839087 1.2821518096 1.5527335506
| 21> H -3.7082510917 1.2283218101 0.4404360559
| 22> H -2.1628675978 0.4139392759 -1.3726807774
| 23> H -2.3354932321 -0.7102583548 -0.0307862765
| 24> H -0.15635108 2.3348366521 -0.0281092205
| 25> H 2.2752031503 2.2178252466 0.2418416489
| 26> H 3.4062691194 0.0179170469 0.284358727
| 27> H 2.083688623 -2.040951315 0.0459069906
| 28> H 0.0284783037 -2.929502772 -0.2188282735
| 29> *
| 30>
| 31>                          ****END OF INPUT****

CARTESIAN COORDINATES (ANGSTROEM)
---------------------------------
  C     -2.630036    1.350997    0.507402
  C     -1.936810    0.266278   -0.312079
  C     -0.441354    0.224699   -0.138651
  C      0.327103    1.370930   -0.009279
  C      1.702350    1.308601    0.142321
  C      2.335291    0.080062    0.165032
  C      1.591409   -1.078592    0.031217
  C      0.212853   -1.014129   -0.123354
  O     -0.538284   -2.145377   -0.263766
  H     -2.381317    2.343885    0.142677
  H     -2.337784    1.282152    1.552734
  H     -3.708251    1.228322    0.440436
  H     -2.162868    0.413939   -1.372681
  H     -2.335493   -0.710258   -0.030786
  H     -0.156351    2.334837   -0.028109
  H      2.275203    2.217825    0.241842
  H      3.406269    0.017917    0.284359
  H      2.083689   -2.040951    0.045907
  H      0.028478   -2.929503   -0.218828

 Total Charge           Charge          ....    0
 Multiplicity           Mult            ....    1
 Number of Electrons    NEL             ....   66
 Basis Dimension        Dim             ....  226

ORBITAL ENERGIES
----------------

  NO   OCC          E(Eh)            E(eV)
   0   2.0000     -18.981293      -516.5072
   1   2.0000     -10.092901      -274.6418
   2   2.0000     -10.037283      -273.1284
   3   2.0000     -10.030638      -272.9475
   4   2.0000     -10.028916      -272.9007
   5   2.0000     -10.028873      -272.8995
   6   2.0000     -10.025860      -272.8175
   7   2.0000     -10.024048      -272.7682
   8   2.0000     -10.012022      -272.4410
   9   2.0000      -1.024575       -27.8801
  10   2.0000      -0.823758       -22.4156
  11   2.0000      -0.753276       -20.4977
  12   2.0000      -0.706080       -19.2134
  13   2.0000      -0.688357       -18.7311
  14   2.0000      -0.605352       -16.4725
  15   2.0000      -0.582226       -15.8432
  16   2.0000      -0.540983       -14.7209
  17   2.0000      -0.508353       -13.8330
  18   2.0000      -0.458569       -12.4783
  19   2.0000      -0.437047       -11.8927
  20   2.0000      -0.411620       -11.2007
  21   2.0000      -0.399623       -10.8743
  22   2.0000      -0.393250       -10.7009
  23   2.0000      -0.377295       -10.2667
  24   2.0000      -0.359839        -9.7917
  25   2.0000      -0.342348        -9.3158
  26   2.0000      -0.335812        -9.1379
  27   2.0000      -0.321170        -8.7395
  28   2.0000      -0.312167        -8.4945
  29   2.0000      -0.298365        -8.1189
  30   2.0000      -0.291912        -7.9433
  31   2.0000      -0.231102        -6.2886
  32   2.0000      -0.204088        -5.5535
  33   0.0000      -0.030975        -0.8429
  34   0.0000      -0.015510        -0.4221
  35   0.0000       0.075846         2.0639
  36   0.0000       0.098334         2.6758
  37   0.0000       0.105964         2.8834

MULLIKEN ATOMIC CHARGES
-----------------------
   0 C :   -0.509845
   1 C :   -0.323078
   2 C :    0.000977
   3 C :   -0.216465
   4 C :   -0.245401
   5 C :   -0.165171
   6 C :   -0.332249
   7 C :    0.321945
   8 O :   -0.451764
   9 H :    0.157557
  10 H :    0.165791
  11 H :    0.162298
  12 H :    0.182080
  13 H :    0.177356
  14 H :    0.173840
  15 H :    0.174577
  16 H :    0.179076
  17 H :    0.180927
  18 H :    0.367549
Sum of atomic charges:   -0.0000000

LOEWDIN ATOMIC CHARGES
----------------------
   0 C :   -0.418967
   1 C :   -0.275871
   2 C :   -0.083025
   3 C :   -0.162739
   4 C :   -0.203294
   5 C :   -0.176080
   6 C :   -0.168872
   7 C :    0.178191
   8 O :   -0.532784
   9 H :    0.154047
  10 H :    0.156798
  11 H :    0.155945
  12 H :    0.173337
  13 H :    0.178471
  14 H :    0.181095
  15 H :    0.175242
  16 H :    0.177654
  17 H :    0.185251
  18 H :    0.305602

  Mayer bond orders larger than 0.100000
B(  0-C ,  1-C ) :   0.8638 B(  0-C ,  9-H ) :   0.9639 B(  0-C , 10-H ) :   0.9862
B(  0-C , 11-H ) :   0.9713 B(  1-C ,  2-C ) :   0.8115 B(  1-C , 12-H ) :   0.9585
B(  1-C , 13-H ) :   1.0192 B(  2-C ,  3-C ) :   1.3723 B(  2-C ,  7-C ) :   1.4366
B(  3-C ,  4-C ) :   1.3874 B(  3-C , 14-H ) :   0.9522 B(  4-C ,  5-C ) :   1.3823
B(  4-C , 15-H ) :   0.9623 B(  5-C ,  6-C ) :   1.3489 B(  5-C , 16-H ) :   0.9545
B(  6-C ,  7-C ) :   1.2923 B(  6-C , 17-H ) :   0.9651 B(  7-C ,  8-O ) :   0.9780
B(  8-O , 18-H ) :   0.8536

Dispersion correction           -0.006166962
FINAL SINGLE POINT ENERGY      -386.007478631989

DIPOLE MOMENT
-------------

Method             : SCF
Type of density    : Electron Density
Multiplicity       :   1
Irrep              :   0
Energy             :  -386.0083112066379840 Eh
Relativity type    :
Basis              : AO
                                X                 Y                 Z
Electronic contribution:      5.284403093      -4.342489885      -0.981474080
Nuclear contribution   :     -4.969412219       3.869264748       0.988250314
                        -----------------------------------------
Total Dipole Moment    :      0.314990874      -0.473225138       0.006776233
                        -----------------------------------------
Magnitude (a.u.)       :      0.568513147
Magnitude (Debye)      :      1.445045581

Rotational constants in cm-1:             0.083295             0.049490             0.032030
Rotational constants in MHz :          2497.113972          1483.680092           960.233661

                             ****ORCA TERMINATED NORMALLY****
TOTAL RUN TIME: 0 days 0 hours 0 minutes 33 seconds 231 msec
