                         Program Version 6.0.0  -   RELEASE  -
|  1> ! wb97x-v def2-tzvp def2/J RIJCOSX DEFGRID2 scfconv7 GCP(DFT/TZ) printgap
|  2> %output
|  3>     printlevel normal
|  4> end
|  5> * xyz 0 1
|  6> C -2.4536759008675073 1.1621246046839495 0.06776192779802241
|  7> C -1.43481509102731 0.04915279365088233 -0.18694408068404714
|  8> C -2.08741413985105 -1.3166203427015086 0.04133684345434703
|  9> C -0.17797025740833225 0.23978372454637056 0.6928181059133574
| 10> C 1.191386527756211 0.019510209730967062 0.011529125823929455
| 11> C 1.4292020066369093 1.0987421390876073 -1.0524518415876416
| 12> C 2.28134026595294 0.13923370041696645 1.084107645574797
| 13> C 1.2840712424535625 -1.365626186469321 -0.6373642893625586
| 14> H -3.352760298524503 1.0249182698064585 -0.5437483964347514
| 15> H -2.762102312051775 1.1695837975125003 1.120632353494977
| 16> H -2.032138794367554 2.1462945228721892 -0.16480014423828737
| 17> H -1.1386511111318278 0.10834655460119434 -1.242179964935387
| 18> H -2.933177885497354 -1.468016989352587 -0.6391311741210477
| 19> H -1.3808488510895984 -2.1379441890750117 -0.11153437747813134
| 20> H -2.4672019906387206 -1.3892608035918523 1.067980693731473
| 21> H -0.1712231295536803 1.2609316478028794 1.097556971912995
| 22> H -0.2480407390851412 -0.43180212454842304 1.5603716702860357
| 23> H 2.4107708052876133 0.9669264066393187 -1.5220281971913907
| 24> H 1.3990626806586217 2.0990367762973707 -0.6049530475054873
| 25> H 0.675110876018701 1.0592254568875037 -1.845443487470447
| 26> H 3.2779208694962056 0.03094129167683185 0.6405560318023943
| 27> H 2.166038450079239 -0.6363298365164001 1.850097523624183
| 28> H 2.236951420570735 1.115604962777532 1.5806824564602604
| 29> H 1.1260504308910333 -2.1599273667877212 0.10105119827835682
| 30> H 2.2766934218553105 -1.5096896904483244 -1.0800268571681693
| 31> H 0.5450344063723668 -1.4892528538960046 -1.436193737927225
| 32> *
| 33>
| 34>                          ****END OF INPUT****

CARTESIAN COORDINATES (ANGSTROEM)
---------------------------------
  C     -2.453676    1.162125    0.067762
  C     -1.434815    0.049153   -0.186944
  C     -2.087414   -1.316620    0.041337
  C     -0.177970    0.239784    0.692818
  C      1.191387    0.019510    0.011529
  C      1.429202    1.098742   -1.052452
  C      2.281340    0.139234    1.084108
  C      1.284071   -1.365626   -0.637364
  H     -3.352760    1.024918   -0.543748
  H     -2.762102    1.169584    1.120632
  H     -2.032139    2.146295   -0.164800
  H     -1.138651    0.108347   -1.242180
  H     -2.933178   -1.468017   -0.639131
  H     -1.380849   -2.137944   -0.111534
  H     -2.467202   -1.389261    1.067981
  H     -0.171223    1.260932    1.097557
  H     -0.248041   -0.431802    1.560372
  H      2.410771    0.966926   -1.522028
  H      1.399063    2.099037   -0.604953
  H      0.675111    1.059225   -1.845443
  H      3.277921    0.030941    0.640556
  H      2.166038   -0.636330    1.850098
  H      2.236951    1.115605    1.580682
  H      1.126050   -2.159927    0.101051
  H      2.276693   -1.509690   -1.080027
  H      0.545034   -1.489253   -1.436194

 Total Charge           Charge          ....    0
 Multiplicity           Mult            ....    1
 Number of Electrons    NEL             ....   66
 Basis Dimension        Dim             ....  356

ORBITAL ENERGIES
----------------

  NO   OCC          E(Eh)            E(eV)
   0   2.0000     -12.054043      -328.0072
   1   2.0000     -12.045069      -327.7630
   2   2.0000     -12.033215      -327.4404
   3   2.0000     -12.030155      -327.3572
   4   2.0000     -12.029988      -327.3526
   5   2.0000     -12.029685      -327.3444
   6   2.0000     -12.029258      -327.3328
   7   2.0000     -12.029189      -327.3309
   8   2.0000      -1.336827       -36.3769
   9   2.0000      -1.291819       -35.1522
  10   2.0000      -1.176632       -32.0178
  11   2.0000      -1.174267       -31.9534
  12   2.0000      -1.170230       -31.8436
  13   2.0000      -1.169304       -31.8184
  14   2.0000      -1.044273       -28.4161
  15   2.0000      -0.995568       -27.0908
  16   2.0000      -0.901728       -24.5373
  17   2.0000      -0.886492       -24.1227
  18   2.0000      -0.881318       -23.9819
  19   2.0000      -0.858379       -23.3577
  20   2.0000      -0.849716       -23.1219
  21   2.0000      -0.842783       -22.9333
  22   2.0000      -0.812413       -22.1069
  23   2.0000      -0.808738       -22.0069
  24   2.0000      -0.805348       -21.9146
  25   2.0000      -0.791680       -21.5427
  26   2.0000      -0.787589       -21.4314
  27   2.0000      -0.783568       -21.3220
  28   2.0000      -0.771767       -21.0009
  29   2.0000      -0.767803       -20.8930
  30   2.0000      -0.753193       -20.4954
  31   2.0000      -0.750002       -20.4086
  32   2.0000      -0.736884       -20.0516
  33   0.0000      -0.051406        -1.3988
  34   0.0000      -0.037853        -1.0300
  35   0.0000      -0.028357        -0.7716
  36   0.0000      -0.022678        -0.6171
  37   0.0000      -0.016870        -0.4591

MULLIKEN ATOMIC CHARGES
-----------------------
   0 C :   -0.357940
   1 C :    0.012897
   2 C :   -0.365695
   3 C :   -0.225666
   4 C :    0.082933
   5 C :   -0.351175
   6 C :   -0.346978
   7 C :   -0.381071
   8 H :    0.109138
   9 H :    0.108225
  10 H :    0.112133
  11 H :    0.064305
  12 H :    0.108362
  13 H :    0.117357
  14 H :    0.106560
  15 H :    0.103504
  16 H :    0.098419
  17 H :    0.110785
  18 H :    0.108957
  19 H :    0.107912
  20 H :    0.110678
  21 H :    0.109571
  22 H :    0.109209
  23 H :    0.115238
  24 H :    0.114180
  25 H :    0.118162
Sum of atomic charges:   -0.0000000

LOEWDIN ATOMIC CHARGES
----------------------
   0 C :   -0.286036
   1 C :   -0.304037
   2 C :   -0.286005
   3 C :   -0.195583
   4 C :   -0.361202
   5 C :   -0.257665
   6 C :   -0.259627
   7 C :   -0.258917
   8 H :    0.116636
   9 H :    0.119009
  10 H :    0.116608
  11 H :    0.143691
  12 H :    0.116834
  13 H :    0.116613
  14 H :    0.118458
  15 H :    0.140832
  16 H :    0.140530
  17 H :    0.120584
  18 H :    0.120615
  19 H :    0.117488
  20 H :    0.119711
  21 H :    0.119485
  22 H :    0.120141
  23 H :    0.120212
  24 H :    0.121200
  25 H :    0.120424

  Mayer bond orders larger than 0.100000
B(  0-C ,  1-C ) :   0.9661 B(  0-C ,  8-H ) :   0.9863 B(  0-C ,  9-H ) :   0.9790
B(  0-C , 10-H ) :   0.9838 B(  1-C ,  2-C ) :   0.9774 B(  1-C ,  3-C ) :   0.9075
B(  1-C , 11-H ) :   0.9822 B(  2-C , 12-H ) :   0.9852 B(  2-C , 13-H ) :   0.9821
B(  2-C , 14-H ) :   0.9763 B(  3-C ,  4-C ) :   0.9717 B(  3-C , 15-H ) :   0.9827
B(  3-C , 16-H ) :   0.9674 B(  4-C ,  5-C ) :   0.9925 B(  4-C ,  6-C ) :   0.9824
B(  4-C ,  7-C ) :   0.9612 B(  5-C , 17-H ) :   0.9804 B(  5-C , 18-H ) :   0.9794
B(  5-C , 19-H ) :   0.9709 B(  6-C , 20-H ) :   0.9823 B(  6-C , 21-H ) :   0.9761
B(  6-C , 22-H ) :   0.9768 B(  7-C , 23-H ) :   0.9823 B(  7-C , 24-H ) :   0.9784
B(  7-C , 25-H ) :   0.9756

FINAL SINGLE POINT ENERGY      -315.714235358158

DIPOLE MOMENT
-------------

Method             : SCF
Type of density    : Electron Density
Multiplicity       :   1
Irrep              :   0
Energy             :  -315.7335561093578917 Eh
Relativity type    :
Basis              : AO
                                X                 Y                 Z
Electronic contribution:      0.372277327       0.240330331       0.140379730
Nuclear contribution   :     -0.351012893      -0.236425376      -0.171954910
                        -----------------------------------------
Total Dipole Moment    :      0.021264434       0.003904955      -0.031575180
                        -----------------------------------------
Magnitude (a.u.)       :      0.038267700
Magnitude (Debye)      :      0.097268762

Rotational constants in cm-1:             0.097639             0.040779             0.036600
Rotational constants in MHz :          2927.140519          1222.522382          1097.228348

                             ****ORCA TERMINATED NORMALLY****
TOTAL RUN TIME: 0 days 0 hours 4 minutes 8 seconds 349 msec
