                         Program Version 6.0.0  -   RELEASE  -
|  1> ! wb97x-v def2-tzvp def2/J RIJCOSX DEFGRID2 scfconv7 GCP(DFT/TZ) printgap
|  2> %output
|  3>     printlevel normal
|  4> end
|  5> %cpcm
|  6>     smd true
|  7>     smdsolvent "water"
|  8> end
|  9> * xyz 0 1
| 10> C -2.4536759008675073 1.1621246046839495 0.06776192779802241
| 11> C -1.43481509102731 0.04915279365088233 -0.18694408068404714
| 12> C -2.08741413985105 -1.3166203427015086 0.04133684345434703
| 13> C -0.17797025740833225 0.23978372454637056 0.6928181059133574
| 14> C 1.191386527756211 0.019510209730967062 0.011529125823929455
| 15> C 1.4292020066369093 1.0987421390876073 -1.0524518415876416
| 16> C 2.28134026595294 0.13923370041696645 1.084107645574797
| 17> C 1.2840712424535625 -1.365626186469321 -0.6373642893625586
| 18> H -3.352760298524503 1.0249182698064585 -0.5437483964347514
| 19> H -2.762102312051775 1.1695837975125003 1.120632353494977
| 20> H -2.032138794367554 2.1462945228721892 -0.16480014423828737
| 21> H -1.1386511111318278 0.10834655460119434 -1.242179964935387
| 22> H -2.933177885497354 -1.468016989352587 -0.6391311741210477
| 23> H -1.3808488510895984 -2.1379441890750117 -0.11153437747813134
| 24> H -2.4672019906387206 -1.3892608035918523 1.067980693731473
| 25> H -0.1712231295536803 1.2609316478028794 1.097556971912995
| 26> H -0.2480407390851412 -0.43180212454842304 1.5603716702860357
| 27> H 2.4107708052876133 0.9669264066393187 -1.5220281971913907
| 28> H 1.3990626806586217 2.0990367762973707 -0.6049530475054873
| 29> H 0.675110876018701 1.0592254568875037 -1.845443487470447
| 30> H 3.2779208694962056 0.03094129167683185 0.6405560318023943
| 31> H 2.166038450079239 -0.6363298365164001 1.850097523624183
| 32> H 2.236951420570735 1.115604962777532 1.5806824564602604
| 33> H 1.1260504308910333 -2.1599273667877212 0.10105119827835682
| 34> H 2.2766934218553105 -1.5096896904483244 -1.0800268571681693
| 35> H 0.5450344063723668 -1.4892528538960046 -1.436193737927225
| 36> *
| 37>
| 38>                          ****END OF INPUT****

CARTESIAN COORDINATES (ANGSTROEM)
---------------------------------
  C     -2.453676    1.162125    0.067762
  C     -1.434815    0.049153   -0.186944
  C     -2.087414   -1.316620    0.041337
  C     -0.177970    0.239784    0.692818
  C      1.191387    0.019510    0.011529
  C      1.429202    1.098742   -1.052452
  C      2.281340    0.139234    1.084108
  C      1.284071   -1.365626   -0.637364
  H     -3.352760    1.024918   -0.543748
  H     -2.762102    1.169584    1.120632
  H     -2.032139    2.146295   -0.164800
  H     -1.138651    0.108347   -1.242180
  H     -2.933178   -1.468017   -0.639131
  H     -1.380849   -2.137944   -0.111534
  H     -2.467202   -1.389261    1.067981
  H     -0.171223    1.260932    1.097557
  H     -0.248041   -0.431802    1.560372
  H      2.410771    0.966926   -1.522028
  H      1.399063    2.099037   -0.604953
  H      0.675111    1.059225   -1.845443
  H      3.277921    0.030941    0.640556
  H      2.166038   -0.636330    1.850098
  H      2.236951    1.115605    1.580682
  H      1.126050   -2.159927    0.101051
  H      2.276693   -1.509690   -1.080027
  H      0.545034   -1.489253   -1.436194

 Total Charge           Charge          ....    0
 Multiplicity           Mult            ....    1
 Number of Electrons    NEL             ....   66
 Basis Dimension        Dim             ....  356

ORBITAL ENERGIES
----------------

  NO   OCC          E(Eh)            E(eV)
   0   2.0000     -12.045256      -327.7681
   1   2.0000     -12.035648      -327.5066
   2   2.0000     -12.023536      -327.1770
   3   2.0000     -12.021600      -327.1244
   4   2.0000     -12.020486      -327.0941
   5   2.0000     -12.020389      -327.0914
   6   2.0000     -12.019967      -327.0799
   7   2.0000     -12.019551      -327.0686
   8   2.0000      -1.327489       -36.1228
   9   2.0000      -1.282885       -34.9091
  10   2.0000      -1.167571       -31.7712
  11   2.0000      -1.165435       -31.7131
  12   2.0000      -1.161966       -31.6187
  13   2.0000      -1.160525       -31.5795
  14   2.0000      -1.035609       -28.1804
  15   2.0000      -0.986577       -26.8461
  16   2.0000      -0.892429       -24.2842
  17   2.0000      -0.877278       -23.8719
  18   2.0000      -0.872363       -23.7382
  19   2.0000      -0.849549       -23.1174
  20   2.0000      -0.840881       -22.8815
  21   2.0000      -0.833833       -22.6897
  22   2.0000      -0.803479       -21.8638
  23   2.0000      -0.799785       -21.7633
  24   2.0000      -0.796931       -21.6856
  25   2.0000      -0.782391       -21.2900
  26   2.0000      -0.778813       -21.1926
  27   2.0000      -0.774578       -21.0773
  28   2.0000      -0.763011       -20.7626
  29   2.0000      -0.758755       -20.6468
  30   2.0000      -0.744018       -20.2457
  31   2.0000      -0.740998       -20.1636
  32   2.0000      -0.727521       -19.7968
  33   0.0000      -0.042212        -1.1487
  34   0.0000      -0.026804        -0.7294
  35   0.0000      -0.019032        -0.5179
  36   0.0000      -0.013304        -0.3620
  37   0.0000      -0.006707        -0.1825

MULLIKEN ATOMIC CHARGES
-----------------------
   0 C :   -0.413649
   1 C :    0.026135
   2 C :   -0.421264
   3 C :   -0.262405
   4 C :    0.142281
   5 C :   -0.419285
   6 C :   -0.415359
   7 C :   -0.437014
   8 H :    0.124415
   9 H :    0.120979
  10 H :    0.126769
  11 H :    0.082569
  12 H :    0.123559
  13 H :    0.130150
  14 H :    0.119937
  15 H :    0.115543
  16 H :    0.109983
  17 H :    0.126921
  18 H :    0.124442
  19 H :    0.126530
  20 H :    0.127264
  21 H :    0.125450
  22 H :    0.124854
  23 H :    0.128860
  24 H :    0.130082
  25 H :    0.132255
Sum of atomic charges:   -0.0000000

LOEWDIN ATOMIC CHARGES
----------------------
   0 C :   -0.293653
   1 C :   -0.303288
   2 C :   -0.293022
   3 C :   -0.197503
   4 C :   -0.358790
   5 C :   -0.264852
   6 C :   -0.267416
   7 C :   -0.264752
   8 H :    0.118229
   9 H :    0.120300
  10 H :    0.118481
  11 H :    0.147749
  12 H :    0.118342
  13 H :    0.118178
  14 H :    0.119896
  15 H :    0.142375
  16 H :    0.141792
  17 H :    0.122308
  18 H :    0.122484
  19 H :    0.120347
  20 H :    0.121721
  21 H :    0.121383
  22 H :    0.121947
  23 H :    0.122317
  24 H :    0.122616
  25 H :    0.122809

  Mayer bond orders larger than 0.100000
B(  0-C ,  1-C ) :   0.9549 B(  0-C ,  8-H ) :   0.9849 B(  0-C ,  9-H ) :   0.9775
B(  0-C , 10-H ) :   0.9818 B(  1-C ,  2-C ) :   0.9667 B(  1-C ,  3-C ) :   0.9062
B(  1-C , 11-H ) :   0.9822 B(  2-C , 12-H ) :   0.9838 B(  2-C , 13-H ) :   0.9803
B(  2-C , 14-H ) :   0.9756 B(  3-C ,  4-C ) :   0.9691 B(  3-C , 15-H ) :   0.9827
B(  3-C , 16-H ) :   0.9683 B(  4-C ,  5-C ) :   0.9748 B(  4-C ,  6-C ) :   0.9612
B(  4-C ,  7-C ) :   0.9503 B(  5-C , 17-H ) :   0.9798 B(  5-C , 18-H ) :   0.9786
B(  5-C , 19-H ) :   0.9707 B(  6-C , 20-H ) :   0.9813 B(  6-C , 21-H ) :   0.9763
B(  6-C , 22-H ) :   0.9770 B(  7-C , 23-H ) :   0.9800 B(  7-C , 24-H ) :   0.9777
B(  7-C , 25-H ) :   0.9748

FINAL SINGLE POINT ENERGY      -315.710064498505

DIPOLE MOMENT
-------------

Method             : SCF
Type of density    : Electron Density
Multiplicity       :   1
Irrep              :   0
Energy             :  -315.7293852497052740 Eh
Relativity type    :
Basis              : AO
                                X                 Y                 Z
Electronic contribution:      0.376698616       0.239308140       0.117418487
Nuclear contribution   :     -0.351012893      -0.236425376      -0.171954910
                        -----------------------------------------
Total Dipole Moment    :      0.025685723       0.002882764      -0.054536423
                        -----------------------------------------
Magnitude (a.u.)       :      0.060351372
Magnitude (Debye)      :      0.153400997

Rotational constants in cm-1:             0.097639             0.040779             0.036600
Rotational constants in MHz :          2927.140519          1222.522382          1097.228348

                             ****ORCA TERMINATED NORMALLY****
TOTAL RUN TIME: 0 days 0 hours 4 minutes 22 seconds 644 msec
