                         Program Version 6.0.0  -   RELEASE  -
|  1> ! r2scan-3c def2/J RI DEFGRID2 scfconv6 printgap
|  2> %output
|  3>     printlevel normal
|  4> end
|  5> * xyz 0 1
|  6> C -2.3926779861 -1.1584919216 -0.3036772014
|  7> C -1.0587123026 -0.6255258374 0.2457546277
|  8> H -1.0816627406 -0.6098291236 1.3482237587
|  9> C -0.7796233421 0.8041799722 -0.2491915856
| 10> H -0.8100017204 0.8097834796 -1.3509033844
| 11> C 0.6224069509 1.2352783555 0.1981133251
| 12> H 0.6272079212 1.3153841439 1.2972148019
| 13> C 1.6667499305 0.1952222197 -0.2238570073
| 14> H 1.7164312983 0.1815668274 -1.3242394698
| 15> C 1.2429034308 -1.2008138079 0.2725535121
| 16> H 1.2643148634 -1.2006815658 1.3743144268
| 17> O -0.0536862633 -1.5129260087 -0.1991845167
| 18> O 2.0911332376 -2.2061881156 -0.1240797621
| 19> O 2.9251667194 0.4842593276 0.3225422463
| 20> O 0.9956815675 2.4651967016 -0.3742902634
| 21> O -1.6913356829 1.7367400166 0.274739071
| 22> O -3.4947514639 -0.4142017751 0.1523490538
| 23> H -2.4752896486 -2.2177621323 -0.0449498393
| 24> H -2.3842840329 -1.0711315499 -1.3925374983
| 25> H 2.0674647481 -2.29785369 -1.090153722
| 26> H 3.1526570506 1.3983336826 0.0898604654
| 27> H 0.296804844 3.1109313943 -0.1924110052
| 28> H -2.5946675162 1.408879058 0.1149061072
| 29> H -3.7076765211 -0.6645951437 1.0626619486
| 30> *
| 31>
| 32>                          ****END OF INPUT****

CARTESIAN COORDINATES (ANGSTROEM)
---------------------------------
  C     -2.392678   -1.158492   -0.303677
  C     -1.058712   -0.625526    0.245755
  H     -1.081663   -0.609829    1.348224
  C     -0.779623    0.804180   -0.249192
  H     -0.810002    0.809783   -1.350903
  C      0.622407    1.235278    0.198113
  H      0.627208    1.315384    1.297215
  C      1.666750    0.195222   -0.223857
  H      1.716431    0.181567   -1.324239
  C      1.242903   -1.200814    0.272554
  H      1.264315   -1.200682    1.374314
  O     -0.053686   -1.512926   -0.199185
  O      2.091133   -2.206188   -0.124080
  O      2.925167    0.484259    0.322542
  O      0.995682    2.465197   -0.374290
  O     -1.691336    1.736740    0.274739
  O     -3.494751   -0.414202    0.152349
  H     -2.475290   -2.217762   -0.044950
  H     -2.384284   -1.071132   -1.392537
  H      2.067465   -2.297854   -1.090154
  H      3.152657    1.398334    0.089860
  H      0.296805    3.110931   -0.192411
  H     -2.594668    1.408879    0.114906
  H     -3.707677   -0.664595    1.062662

 Total Charge           Charge          ....    0
 Multiplicity           Mult            ....    1
 Number of Electrons    NEL             ....   96
 Basis Dimension        Dim             ....  318

ORBITAL ENERGIES
----------------

  NO   OCC          E(Eh)            E(eV)
   0   2.0000     -18.985684      -516.6267
   1   2.0000     -18.974511      -516.3227
   2   2.0000     -18.964323      -516.0455
   3   2.0000     -18.960922      -515.9529
   4   2.0000     -18.958063      -515.8751
   5   2.0000     -18.953238      -515.7438
   6   2.0000     -10.140104      -275.9262
   7   2.0000     -10.100178      -274.8398
   8   2.0000     -10.099163      -274.8122
   9   2.0000     -10.091819      -274.6124
  10   2.0000     -10.090285      -274.5706
  11   2.0000     -10.089210      -274.5414
  12   2.0000      -1.052732       -28.6463
  13   2.0000      -1.024476       -27.8774
  14   2.0000      -1.012199       -27.5433
  15   2.0000      -0.997323       -27.1385
  16   2.0000      -0.984614       -26.7927
  17   2.0000      -0.981488       -26.7077
  18   2.0000      -0.752933       -20.4884
  19   2.0000      -0.741403       -20.1746
  20   2.0000      -0.665103       -18.0984
  21   2.0000      -0.616966       -16.7885
  22   2.0000      -0.602161       -16.3856
  23   2.0000      -0.568061       -15.4577
  24   2.0000      -0.527522       -14.3546
  25   2.0000      -0.519876       -14.1466
  26   2.0000      -0.501857       -13.6562
  27   2.0000      -0.486724       -13.2444
  28   2.0000      -0.467048       -12.7090
  29   2.0000      -0.460247       -12.5239
  30   2.0000      -0.437672       -11.9097
  31   2.0000      -0.432066       -11.7571
  32   2.0000      -0.418666       -11.3925
  33   2.0000      -0.408228       -11.1084
  34   2.0000      -0.381609       -10.3841
  35   2.0000      -0.375394       -10.2150
  36   2.0000      -0.359030        -9.7697
  37   2.0000      -0.338873        -9.2212
  38   2.0000      -0.331922        -9.0321
  39   2.0000      -0.321812        -8.7570
  40   2.0000      -0.317645        -8.6436
  41   2.0000      -0.307762        -8.3746
  42   2.0000      -0.275772        -7.5041
  43   2.0000      -0.267360        -7.2752
  44   2.0000      -0.255873        -6.9627
  45   2.0000      -0.250043        -6.8040
  46   2.0000      -0.239252        -6.5104
  47   2.0000      -0.229628        -6.2485
  48   0.0000       0.018808         0.5118
  49   0.0000       0.045408         1.2356
  50   0.0000       0.063064         1.7161
  51   0.0000       0.076640         2.0855
  52   0.0000       0.085623         2.3299

MULLIKEN ATOMIC CHARGES
-----------------------
   0 C :   -0.243115
   1 C :   -0.095594
   2 H :    0.171827
   3 C :    0.019571
   4 H :    0.170113
   5 C :   -0.024791
   6 H :    0.169310
   7 C :    0.079329
   8 H :    0.159324
   9 C :   -0.182904
  10 H :    0.155301
  11 O :   -0.178323
  12 O :   -0.345892
  13 O :   -0.419199
  14 O :   -0.447047
  15 O :   -0.443352
  16 O :   -0.429986
  17 H :    0.155148
  18 H :    0.152059
  19 H :    0.312117
  20 H :    0.315315
  21 H :    0.314942
  22 H :    0.319568
  23 H :    0.316278
Sum of atomic charges:    0.0000000

LOEWDIN ATOMIC CHARGES
----------------------
   0 C :    0.050798
   1 C :    0.110178
   2 H :    0.180505
   3 C :    0.102151
   4 H :    0.181060
   5 C :    0.107474
   6 H :    0.185826
   7 C :    0.116594
   8 H :    0.181176
   9 C :    0.300709
  10 H :    0.198976
  11 O :   -0.684567
  12 O :   -0.464977
  13 O :   -0.557835
  14 O :   -0.577279
  15 O :   -0.593213
  16 O :   -0.608088
  17 H :    0.174685
  18 H :    0.187139
  19 H :    0.280462
  20 H :    0.284128
  21 H :    0.283968
  22 H :    0.286806
  23 H :    0.273325

  Mayer bond orders larger than 0.100000
B(  0-C ,  1-C ) :   0.8921 B(  0-C , 16-O ) :   0.9946 B(  0-C , 17-H ) :   0.9833
B(  0-C , 18-H ) :   0.9795 B(  1-C ,  2-H ) :   0.9589 B(  1-C ,  3-C ) :   0.7585
B(  1-C , 11-O ) :   0.7893 B(  3-C ,  4-H ) :   0.9773 B(  3-C ,  5-C ) :   0.8439
B(  3-C , 15-O ) :   0.8822 B(  5-C ,  6-H ) :   0.9942 B(  5-C ,  7-C ) :   0.8742
B(  5-C , 14-O ) :   0.9224 B(  7-C ,  8-H ) :   0.9472 B(  7-C ,  9-C ) :   0.8475
B(  7-C , 13-O ) :   0.8896 B(  9-C , 10-H ) :   1.0032 B(  9-C , 11-O ) :   0.9107
B(  9-C , 12-O ) :   1.1472 B( 12-O , 19-H ) :   0.8759 B( 13-O , 20-H ) :   0.8772
B( 14-O , 21-H ) :   0.8763 B( 15-O , 22-H ) :   0.8452 B( 16-O , 23-H ) :   0.8877

Dispersion correction           -0.008001325
FINAL SINGLE POINT ENERGY      -687.076467134773

DIPOLE MOMENT
-------------

Method             : SCF
Type of density    : Electron Density
Multiplicity       :   1
Irrep              :   0
Energy             :  -687.0882877614141080 Eh
Relativity type    :
Basis              : AO
                                X                 Y                 Z
Electronic contribution:      2.573889241      -0.142562252       0.059564703
Nuclear contribution   :     -3.674350436       0.161136179      -0.100563477
                        -----------------------------------------
Total Dipole Moment    :     -1.100461196       0.018573926      -0.040998774
                        -----------------------------------------
Magnitude (a.u.)       :      1.101381284
Magnitude (Debye)      :      2.799488746

Rotational constants in cm-1:             0.043752             0.024499             0.016448
Rotational constants in MHz :          1311.650297           734.457019           493.091043

                             ****ORCA TERMINATED NORMALLY****
TOTAL RUN TIME: 0 days 0 hours 0 minutes 47 seconds 922 msec
