                         Program Version 6.0.0  -   RELEASE  -
|  1> ! r2scan-3c def2/J RI DEFGRID2 scfconv6 printgap
|  2> %output
|  3>     printlevel normal
|  4> end
|  5> %cpcm
|  6>     smd true
|  7>     smdsolvent "water"
|  8> end
|  9> * xyz 0 1
| 10> C -2.3926779861 -1.1584919216 -0.3036772014
| 11> C -1.0587123026 -0.6255258374 0.2457546277
| 12> H -1.0816627406 -0.6098291236 1.3482237587
| 13> C -0.7796233421 0.8041799722 -0.2491915856
| 14> H -0.8100017204 0.8097834796 -1.3509033844
| 15> C 0.6224069509 1.2352783555 0.1981133251
| 16> H 0.6272079212 1.3153841439 1.2972148019
| 17> C 1.6667499305 0.1952222197 -0.2238570073
| 18> H 1.7164312983 0.1815668274 -1.3242394698
| 19> C 1.2429034308 -1.2008138079 0.2725535121
| 20> H 1.2643148634 -1.2006815658 1.3743144268
| 21> O -0.0536862633 -1.5129260087 -0.1991845167
| 22> O 2.0911332376 -2.2061881156 -0.1240797621
| 23> O 2.9251667194 0.4842593276 0.3225422463
| 24> O 0.9956815675 2.4651967016 -0.3742902634
| 25> O -1.6913356829 1.7367400166 0.274739071
| 26> O -3.4947514639 -0.4142017751 0.1523490538
| 27> H -2.4752896486 -2.2177621323 -0.0449498393
| 28> H -2.3842840329 -1.0711315499 -1.3925374983
| 29> H 2.0674647481 -2.29785369 -1.090153722
| 30> H 3.1526570506 1.3983336826 0.0898604654
| 31> H 0.296804844 3.1109313943 -0.1924110052
| 32> H -2.5946675162 1.408879058 0.1149061072
| 33> H -3.7076765211 -0.6645951437 1.0626619486
| 34> *
| 35>
| 36>                          ****END OF INPUT****

CARTESIAN COORDINATES (ANGSTROEM)
---------------------------------
  C     -2.392678   -1.158492   -0.303677
  C     -1.058712   -0.625526    0.245755
  H     -1.081663   -0.609829    1.348224
  C     -0.779623    0.804180   -0.249192
  H     -0.810002    0.809783   -1.350903
  C      0.622407    1.235278    0.198113
  H      0.627208    1.315384    1.297215
  C      1.666750    0.195222   -0.223857
  H      1.716431    0.181567   -1.324239
  C      1.242903   -1.200814    0.272554
  H      1.264315   -1.200682    1.374314
  O     -0.053686   -1.512926   -0.199185
  O      2.091133   -2.206188   -0.124080
  O      2.925167    0.484259    0.322542
  O      0.995682    2.465197   -0.374290
  O     -1.691336    1.736740    0.274739
  O     -3.494751   -0.414202    0.152349
  H     -2.475290   -2.217762   -0.044950
  H     -2.384284   -1.071132   -1.392537
  H      2.067465   -2.297854   -1.090154
  H      3.152657    1.398334    0.089860
  H      0.296805    3.110931   -0.192411
  H     -2.594668    1.408879    0.114906
  H     -3.707677   -0.664595    1.062662

 Total Charge           Charge          ....    0
 Multiplicity           Mult            ....    1
 Number of Electrons    NEL             ....   96
 Basis Dimension        Dim             ....  318

ORBITAL ENERGIES
----------------

  NO   OCC          E(Eh)            E(eV)
   0   2.0000     -18.974307      -516.3172
   1   2.0000     -18.970415      -516.2112
   2   2.0000     -18.965411      -516.0751
   3   2.0000     -18.961525      -515.9693
   4   2.0000     -18.960551      -515.9428
   5   2.0000     -18.956203      -515.8245
   6   2.0000     -10.138928      -275.8943
   7   2.0000     -10.087416      -274.4925
   8   2.0000     -10.087225      -274.4873
   9   2.0000     -10.085612      -274.4434
  10   2.0000     -10.083833      -274.3950
  11   2.0000     -10.079701      -274.2826
  12   2.0000      -1.053788       -28.6750
  13   2.0000      -1.013819       -27.5874
  14   2.0000      -1.007050       -27.4032
  15   2.0000      -0.995484       -27.0885
  16   2.0000      -0.985635       -26.8205
  17   2.0000      -0.982957       -26.7476
  18   2.0000      -0.746450       -20.3119
  19   2.0000      -0.734509       -19.9870
  20   2.0000      -0.655446       -17.8356
  21   2.0000      -0.614149       -16.7118
  22   2.0000      -0.592848       -16.1322
  23   2.0000      -0.562329       -15.3018
  24   2.0000      -0.521683       -14.1957
  25   2.0000      -0.514566       -14.0020
  26   2.0000      -0.490939       -13.3591
  27   2.0000      -0.479975       -13.0608
  28   2.0000      -0.460353       -12.5268
  29   2.0000      -0.457010       -12.4359
  30   2.0000      -0.436509       -11.8780
  31   2.0000      -0.430498       -11.7144
  32   2.0000      -0.407373       -11.0852
  33   2.0000      -0.397128       -10.8064
  34   2.0000      -0.378302       -10.2941
  35   2.0000      -0.372098       -10.1253
  36   2.0000      -0.360659        -9.8140
  37   2.0000      -0.342819        -9.3286
  38   2.0000      -0.334569        -9.1041
  39   2.0000      -0.315490        -8.5849
  40   2.0000      -0.313929        -8.5424
  41   2.0000      -0.305818        -8.3217
  42   2.0000      -0.276876        -7.5342
  43   2.0000      -0.266380        -7.2486
  44   2.0000      -0.251936        -6.8555
  45   2.0000      -0.251365        -6.8400
  46   2.0000      -0.241783        -6.5792
  47   2.0000      -0.226677        -6.1682
  48   0.0000       0.033936         0.9234
  49   0.0000       0.063916         1.7393
  50   0.0000       0.079959         2.1758
  51   0.0000       0.090203         2.4545
  52   0.0000       0.099097         2.6966

MULLIKEN ATOMIC CHARGES
-----------------------
   0 C :   -0.244783
   1 C :   -0.101413
   2 H :    0.204322
   3 C :    0.005168
   4 H :    0.186870
   5 C :   -0.000422
   6 H :    0.180905
   7 C :    0.056905
   8 H :    0.184231
   9 C :   -0.135956
  10 H :    0.177978
  11 O :   -0.233641
  12 O :   -0.426982
  13 O :   -0.492666
  14 O :   -0.501330
  15 O :   -0.500194
  16 O :   -0.481611
  17 H :    0.163813
  18 H :    0.169202
  19 H :    0.369018
  20 H :    0.354531
  21 H :    0.351803
  22 H :    0.351066
  23 H :    0.363188
Sum of atomic charges:    0.0000000

LOEWDIN ATOMIC CHARGES
----------------------
   0 C :    0.050793
   1 C :    0.116590
   2 H :    0.193404
   3 C :    0.105305
   4 H :    0.188979
   5 C :    0.108277
   6 H :    0.192674
   7 C :    0.117672
   8 H :    0.193005
   9 C :    0.297964
  10 H :    0.207804
  11 O :   -0.701270
  12 O :   -0.498481
  13 O :   -0.591196
  14 O :   -0.598685
  15 O :   -0.613739
  16 O :   -0.618543
  17 H :    0.180109
  18 H :    0.190717
  19 H :    0.299734
  20 H :    0.297531
  21 H :    0.295530
  22 H :    0.294623
  23 H :    0.291203

  Mayer bond orders larger than 0.100000
B(  0-C ,  1-C ) :   0.9023 B(  0-C , 16-O ) :   0.9977 B(  0-C , 17-H ) :   0.9690
B(  0-C , 18-H ) :   0.9780 B(  1-C ,  2-H ) :   0.9509 B(  1-C ,  3-C ) :   0.7808
B(  1-C , 11-O ) :   0.7915 B(  3-C ,  4-H ) :   0.9706 B(  3-C ,  5-C ) :   0.8699
B(  3-C , 15-O ) :   0.8704 B(  5-C ,  6-H ) :   0.9681 B(  5-C ,  7-C ) :   0.8981
B(  5-C , 14-O ) :   0.9027 B(  7-C ,  8-H ) :   0.9437 B(  7-C ,  9-C ) :   0.8572
B(  7-C , 13-O ) :   0.8690 B(  9-C , 10-H ) :   0.9916 B(  9-C , 11-O ) :   0.9141
B(  9-C , 12-O ) :   1.1226 B( 12-O , 19-H ) :   0.8463 B( 13-O , 20-H ) :   0.8585
B( 14-O , 21-H ) :   0.8584 B( 15-O , 22-H ) :   0.8317 B( 16-O , 23-H ) :   0.8610

Dispersion correction           -0.008001325
FINAL SINGLE POINT ENERGY      -687.110208713793

DIPOLE MOMENT
-------------

Method             : SCF
Type of density    : Electron Density
Multiplicity       :   1
Irrep              :   0
Energy             :  -687.1220293404338690 Eh
Relativity type    :
Basis              : AO
                                X                 Y                 Z
Electronic contribution:      2.184552068      -0.085109146       0.052856402
Nuclear contribution   :     -3.674350436       0.161136179      -0.100563477
                        -----------------------------------------
Total Dipole Moment    :     -1.489798368       0.076027032      -0.047707075
                        -----------------------------------------
Magnitude (a.u.)       :      1.492499666
Magnitude (Debye)      :      3.793632666

Rotational constants in cm-1:             0.043752             0.024499             0.016448
Rotational constants in MHz :          1311.650297           734.457019           493.091043

                             ****ORCA TERMINATED NORMALLY****
TOTAL RUN TIME: 0 days 0 hours 0 minutes 57 seconds 169 msec
