                         Program Version 6.0.0  -   RELEASE  -
|  1> ! pbe def2-sv(p) def2/J RI DEFGRID1 loosescf d4 GCP(DFT/SV(P)) printgap
|  2> %output
|  3>     printlevel normal
|  4> end
|  5> * xyz 0 1
|  6> C -2.2683189846 -1.122078459 0.0429171341
|  7> C -0.8747805772 -0.5612887018 0.3599880013
|  8> H -0.8250221848 -0.3381094071 1.4359453908
|  9> C -0.5894093969 0.7235382112 -0.422025654
| 10> H -0.6017052941 0.4786093989 -1.4955276537
| 11> C 0.8138061834 1.2641306928 -0.0734728616
| 12> H 0.6956350946 2.0429987657 0.6919151751
| 13> C 1.7153249964 0.1675664778 0.534784131
| 14> H 2.7636408994 0.4115273291 0.3006637304
| 15> C 1.4085127477 -1.1794906348 -0.1408040401
| 16> H 2.003230829 -1.9909943914 0.3003832729
| 17> O 0.0644771045 -1.5763172782 0.029214261
| 18> O 1.7821410953 -1.1533639769 -1.4836170137
| 19> O 1.5069399807 0.1521362904 1.921934736
| 20> O 1.3589523282 1.7775091137 -1.2673160268
| 21> O -1.5966634824 1.6579723039 -0.1265775595
| 22> O -3.2913970915 -0.4393768336 0.7148620406
| 23> H -2.3025226657 -2.1595178167 0.3814839215
| 24> H -2.4289789152 -1.1038595433 -1.0437288443
| 25> H 1.4902870715 -0.3296439182 -1.910675836
| 26> H 2.0907804394 -0.495582611 2.3423102717
| 27> H 2.1344635212 2.3258159921 -1.0808922102
| 28> H -1.4906052248 2.4367150085 -0.6924340362
| 29> H -3.1870866905 0.5104627033 0.5363176226
| 30> *
| 31>
| 32>                          ****END OF INPUT****

CARTESIAN COORDINATES (ANGSTROEM)
---------------------------------
  C     -2.268319   -1.122078    0.042917
  C     -0.874781   -0.561289    0.359988
  H     -0.825022   -0.338109    1.435945
  C     -0.589409    0.723538   -0.422026
  H     -0.601705    0.478609   -1.495528
  C      0.813806    1.264131   -0.073473
  H      0.695635    2.042999    0.691915
  C      1.715325    0.167566    0.534784
  H      2.763641    0.411527    0.300664
  C      1.408513   -1.179491   -0.140804
  H      2.003231   -1.990994    0.300383
  O      0.064477   -1.576317    0.029214
  O      1.782141   -1.153364   -1.483617
  O      1.506940    0.152136    1.921935
  O      1.358952    1.777509   -1.267316
  O     -1.596663    1.657972   -0.126578
  O     -3.291397   -0.439377    0.714862
  H     -2.302523   -2.159518    0.381484
  H     -2.428979   -1.103860   -1.043729
  H      1.490287   -0.329644   -1.910676
  H      2.090780   -0.495583    2.342310
  H      2.134464    2.325816   -1.080892
  H     -1.490605    2.436715   -0.692434
  H     -3.187087    0.510463    0.536318

 Total Charge           Charge          ....    0
 Multiplicity           Mult            ....    1
 Number of Electrons    NEL             ....   96
 Basis Dimension        Dim             ....  192

ORBITAL ENERGIES
----------------

  NO   OCC          E(Eh)            E(eV)
   0   2.0000     -18.784679      -511.1571
   1   2.0000     -18.777742      -510.9683
   2   2.0000     -18.770513      -510.7716
   3   2.0000     -18.761327      -510.5216
   4   2.0000     -18.750735      -510.2334
   5   2.0000     -18.724560      -509.5212
   6   2.0000      -9.984597      -271.6947
   7   2.0000      -9.959624      -271.0152
   8   2.0000      -9.955981      -270.9160
   9   2.0000      -9.955272      -270.8967
  10   2.0000      -9.935257      -270.3521
  11   2.0000      -9.917085      -269.8576
  12   2.0000      -0.978678       -26.6312
  13   2.0000      -0.959050       -26.0971
  14   2.0000      -0.949820       -25.8459
  15   2.0000      -0.942383       -25.6436
  16   2.0000      -0.908165       -24.7124
  17   2.0000      -0.899853       -24.4862
  18   2.0000      -0.715292       -19.4641
  19   2.0000      -0.688638       -18.7388
  20   2.0000      -0.616786       -16.7836
  21   2.0000      -0.596779       -16.2392
  22   2.0000      -0.568941       -15.4817
  23   2.0000      -0.525202       -14.2915
  24   2.0000      -0.514918       -14.0116
  25   2.0000      -0.489102       -13.3092
  26   2.0000      -0.479531       -13.0487
  27   2.0000      -0.470265       -12.7966
  28   2.0000      -0.456588       -12.4244
  29   2.0000      -0.434827       -11.8322
  30   2.0000      -0.425071       -11.5668
  31   2.0000      -0.391095       -10.6422
  32   2.0000      -0.387188       -10.5359
  33   2.0000      -0.382166       -10.3993
  34   2.0000      -0.354404        -9.6438
  35   2.0000      -0.352218        -9.5843
  36   2.0000      -0.333693        -9.0802
  37   2.0000      -0.323991        -8.8163
  38   2.0000      -0.311243        -8.4693
  39   2.0000      -0.298927        -8.1342
  40   2.0000      -0.287805        -7.8316
  41   2.0000      -0.264165        -7.1883
  42   2.0000      -0.259315        -7.0563
  43   2.0000      -0.253934        -6.9099
  44   2.0000      -0.234075        -6.3695
  45   2.0000      -0.221107        -6.0166
  46   2.0000      -0.214485        -5.8364
  47   2.0000      -0.198886        -5.4120
  48   0.0000      -0.000094        -0.0026
  49   0.0000       0.010667         0.2903
  50   0.0000       0.015590         0.4242
  51   0.0000       0.048248         1.3129
  52   0.0000       0.064778         1.7627

MULLIKEN ATOMIC CHARGES
-----------------------
   0 C :    0.108338
   1 C :    0.010702
   2 H :    0.077807
   3 C :    0.043002
   4 H :    0.055510
   5 C :    0.031130
   6 H :    0.074065
   7 C :    0.006148
   8 H :    0.059944
   9 C :    0.187734
  10 H :    0.055418
  11 O :   -0.302288
  12 O :   -0.397937
  13 O :   -0.403925
  14 O :   -0.415720
  15 O :   -0.421918
  16 O :   -0.448437
  17 H :    0.090628
  18 H :    0.054835
  19 H :    0.300108
  20 H :    0.310792
  21 H :    0.311008
  22 H :    0.315108
  23 H :    0.297946
Sum of atomic charges:   -0.0000000

LOEWDIN ATOMIC CHARGES
----------------------
   0 C :   -0.118690
   1 C :   -0.070716
   2 H :    0.112614
   3 C :   -0.072703
   4 H :    0.105628
   5 C :   -0.077832
   6 H :    0.115631
   7 C :   -0.100048
   8 H :    0.101950
   9 C :   -0.005250
  10 H :    0.101408
  11 O :   -0.142331
  12 O :   -0.309045
  13 O :   -0.307256
  14 O :   -0.313687
  15 O :   -0.306916
  16 O :   -0.343697
  17 H :    0.117239
  18 H :    0.092849
  19 H :    0.270044
  20 H :    0.293344
  21 H :    0.291817
  22 H :    0.295314
  23 H :    0.270333

  Mayer bond orders larger than 0.100000
B(  0-C ,  1-C ) :   1.0260 B(  0-C , 16-O ) :   1.0867 B(  0-C , 17-H ) :   0.9199
B(  0-C , 18-H ) :   0.9041 B(  1-C ,  2-H ) :   0.8672 B(  1-C ,  3-C ) :   1.0853
B(  1-C , 11-O ) :   0.9850 B(  3-C ,  4-H ) :   0.8515 B(  3-C ,  5-C ) :   1.0334
B(  3-C , 15-O ) :   1.0351 B(  5-C ,  6-H ) :   0.8524 B(  5-C ,  7-C ) :   1.0019
B(  5-C , 14-O ) :   1.0498 B(  7-C ,  8-H ) :   0.8888 B(  7-C ,  9-C ) :   1.0030
B(  7-C , 13-O ) :   1.0369 B(  9-C , 10-H ) :   0.8987 B(  9-C , 11-O ) :   1.0624
B(  9-C , 12-O ) :   1.1324 B( 12-O , 19-H ) :   0.8167 B( 13-O , 20-H ) :   0.8425
B( 14-O , 21-H ) :   0.8408 B( 15-O , 22-H ) :   0.8400 B( 16-O , 23-H ) :   0.8237

Dispersion correction           -0.024861602
FINAL SINGLE POINT ENERGY      -685.691173975644

DIPOLE MOMENT
-------------

Method             : SCF
Type of density    : Electron Density
Multiplicity       :   1
Irrep              :   0
Energy             :  -685.8230052734741093 Eh
Relativity type    :
Basis              : AO
                                X                 Y                 Z
Electronic contribution:      1.080360205      -0.176554281       0.106693974
Nuclear contribution   :      0.318363149       1.684044367      -0.222889472
                        -----------------------------------------
Total Dipole Moment    :      1.398723354       1.507490086      -0.116195498
                        -----------------------------------------
Magnitude (a.u.)       :      2.059722014
Magnitude (Debye)      :      5.235397295

Rotational constants in cm-1:             0.042999             0.025050             0.021645
Rotational constants in MHz :          1289.068532           750.977170           648.891268

                             ****ORCA TERMINATED NORMALLY****
TOTAL RUN TIME: 0 days 0 hours 0 minutes 12 seconds 58 msec
