                         Program Version 6.0.0  -   RELEASE  -
|  1> ! pbe def2-sv(p) def2/J RI DEFGRID1 loosescf d4 GCP(DFT/SV(P)) printgap
|  2> %output
|  3>     printlevel normal
|  4> end
|  5> * xyz 0 1
|  6> C -2.233256474 -1.1751601646 0.1005106187
|  7> C -0.8669574462 -0.5425526623 0.4125865786
|  8> H -0.8299305438 -0.2505717662 1.4727552573
|  9> C -0.5712319581 0.7042465921 -0.4273752741
| 10> H -0.5794163853 0.4125691168 -1.4895427954
| 11> C 0.8290227576 1.2692465752 -0.0848363707
| 12> H 0.7079285519 2.035414419 0.6891176871
| 13> C 1.7571113874 0.1802298701 0.4878834618
| 14> H 2.7867052376 0.434947188 0.1998739997
| 15> C 1.3919782697 -1.1655420388 -0.157046156
| 16> H 2.0402761318 -1.9696099667 0.2253662049
| 17> O 0.0910241061 -1.5736460776 0.1765815115
| 18> O 1.5604730685 -1.0156016454 -1.5358243713
| 19> O 1.6103798357 0.1496547645 1.8821866022
| 20> O 1.40729608 1.9126100159 -1.1905612914
| 21> O -1.5752319451 1.6511127797 -0.1696820839
| 22> O -3.3336686013 -0.4684254284 0.5975457785
| 23> H -2.2050528991 -2.1984243816 0.5009951442
| 24> H -2.3754318423 -1.2287934412 -0.9809669693
| 25> H 1.3903563106 -1.8579513355 -1.9849963714
| 26> H 2.2755461927 -0.4326472713 2.277543467
| 27> H 1.6068313606 1.2460147393 -1.8671924358
| 28> H -1.4383779401 2.4217218273 -0.7388493381
| 29> H -3.2285028382 -0.3275915688 1.5486539309
| 30> *
| 31>
| 32>                          ****END OF INPUT****

CARTESIAN COORDINATES (ANGSTROEM)
---------------------------------
  C     -2.233256   -1.175160    0.100511
  C     -0.866957   -0.542553    0.412587
  H     -0.829931   -0.250572    1.472755
  C     -0.571232    0.704247   -0.427375
  H     -0.579416    0.412569   -1.489543
  C      0.829023    1.269247   -0.084836
  H      0.707929    2.035414    0.689118
  C      1.757111    0.180230    0.487883
  H      2.786705    0.434947    0.199874
  C      1.391978   -1.165542   -0.157046
  H      2.040276   -1.969610    0.225366
  O      0.091024   -1.573646    0.176582
  O      1.560473   -1.015602   -1.535824
  O      1.610380    0.149655    1.882187
  O      1.407296    1.912610   -1.190561
  O     -1.575232    1.651113   -0.169682
  O     -3.333669   -0.468425    0.597546
  H     -2.205053   -2.198424    0.500995
  H     -2.375432   -1.228793   -0.980967
  H      1.390356   -1.857951   -1.984996
  H      2.275546   -0.432647    2.277543
  H      1.606831    1.246015   -1.867192
  H     -1.438378    2.421722   -0.738849
  H     -3.228503   -0.327592    1.548654

 Total Charge           Charge          ....    0
 Multiplicity           Mult            ....    1
 Number of Electrons    NEL             ....   96
 Basis Dimension        Dim             ....  192

ORBITAL ENERGIES
----------------

  NO   OCC          E(Eh)            E(eV)
   0   2.0000     -18.780493      -511.0432
   1   2.0000     -18.771306      -510.7932
   2   2.0000     -18.765329      -510.6306
   3   2.0000     -18.743483      -510.0361
   4   2.0000     -18.741643      -509.9860
   5   2.0000     -18.733608      -509.7674
   6   2.0000      -9.993816      -271.9456
   7   2.0000      -9.946835      -270.6671
   8   2.0000      -9.936419      -270.3837
   9   2.0000      -9.934802      -270.3397
  10   2.0000      -9.934290      -270.3258
  11   2.0000      -9.921839      -269.9870
  12   2.0000      -0.988579       -26.9006
  13   2.0000      -0.942398       -25.6440
  14   2.0000      -0.930009       -25.3068
  15   2.0000      -0.924938       -25.1688
  16   2.0000      -0.911770       -24.8105
  17   2.0000      -0.909206       -24.7407
  18   2.0000      -0.697237       -18.9728
  19   2.0000      -0.692590       -18.8463
  20   2.0000      -0.612442       -16.6654
  21   2.0000      -0.589211       -16.0332
  22   2.0000      -0.562312       -15.3013
  23   2.0000      -0.526415       -14.3245
  24   2.0000      -0.506643       -13.7865
  25   2.0000      -0.480433       -13.0732
  26   2.0000      -0.469734       -12.7821
  27   2.0000      -0.457200       -12.4411
  28   2.0000      -0.440965       -11.9993
  29   2.0000      -0.434683       -11.8283
  30   2.0000      -0.417855       -11.3704
  31   2.0000      -0.400212       -10.8903
  32   2.0000      -0.380387       -10.3509
  33   2.0000      -0.367416        -9.9979
  34   2.0000      -0.353970        -9.6320
  35   2.0000      -0.351536        -9.5658
  36   2.0000      -0.335194        -9.1211
  37   2.0000      -0.308265        -8.3883
  38   2.0000      -0.299870        -8.1599
  39   2.0000      -0.288832        -7.8595
  40   2.0000      -0.279754        -7.6125
  41   2.0000      -0.263989        -7.1835
  42   2.0000      -0.259825        -7.0702
  43   2.0000      -0.237831        -6.4717
  44   2.0000      -0.229532        -6.2459
  45   2.0000      -0.220883        -6.0105
  46   2.0000      -0.210227        -5.7206
  47   2.0000      -0.190667        -5.1883
  48   0.0000       0.008578         0.2334
  49   0.0000       0.014998         0.4081
  50   0.0000       0.033977         0.9246
  51   0.0000       0.045694         1.2434
  52   0.0000       0.066352         1.8055

MULLIKEN ATOMIC CHARGES
-----------------------
   0 C :    0.100027
   1 C :    0.008388
   2 H :    0.062330
   3 C :    0.059201
   4 H :    0.032674
   5 C :    0.101920
   6 H :    0.071921
   7 C :    0.001723
   8 H :    0.073460
   9 C :    0.159715
  10 H :    0.052070
  11 O :   -0.312963
  12 O :   -0.401043
  13 O :   -0.405245
  14 O :   -0.434763
  15 O :   -0.402904
  16 O :   -0.420866
  17 H :    0.072833
  18 H :    0.067811
  19 H :    0.309843
  20 H :    0.304666
  21 H :    0.303102
  22 H :    0.303939
  23 H :    0.292161
Sum of atomic charges:    0.0000000

LOEWDIN ATOMIC CHARGES
----------------------
   0 C :   -0.123992
   1 C :   -0.066282
   2 H :    0.106549
   3 C :   -0.077780
   4 H :    0.097352
   5 C :   -0.069660
   6 H :    0.123816
   7 C :   -0.090363
   8 H :    0.108671
   9 C :   -0.011679
  10 H :    0.090871
  11 O :   -0.143904
  12 O :   -0.314237
  13 O :   -0.305838
  14 O :   -0.318714
  15 O :   -0.312424
  16 O :   -0.325084
  17 H :    0.095072
  18 H :    0.111062
  19 H :    0.290644
  20 H :    0.290004
  21 H :    0.276511
  22 H :    0.288755
  23 H :    0.280649

  Mayer bond orders larger than 0.100000
B(  0-C ,  1-C ) :   1.0129 B(  0-C , 16-O ) :   1.0944 B(  0-C , 17-H ) :   0.9178
B(  0-C , 18-H ) :   0.9096 B(  1-C ,  2-H ) :   0.8726 B(  1-C ,  3-C ) :   1.0688
B(  1-C , 11-O ) :   0.9588 B(  3-C ,  4-H ) :   0.8440 B(  3-C ,  5-C ) :   1.0226
B(  3-C , 15-O ) :   1.0874 B(  5-C ,  6-H ) :   0.8511 B(  5-C ,  7-C ) :   0.9974
B(  5-C , 14-O ) :   1.0376 B(  7-C ,  8-H ) :   0.8850 B(  7-C ,  9-C ) :   1.0189
B(  7-C , 13-O ) :   1.0428 B(  9-C , 10-H ) :   0.8966 B(  9-C , 11-O ) :   1.0916
B(  9-C , 12-O ) :   1.1055 B( 12-O , 19-H ) :   0.8358 B( 13-O , 20-H ) :   0.8452
B( 14-O , 21-H ) :   0.8342 B( 15-O , 22-H ) :   0.8447 B( 16-O , 23-H ) :   0.8504

Dispersion correction           -0.024802722
FINAL SINGLE POINT ENERGY      -685.686857521305

DIPOLE MOMENT
-------------

Method             : SCF
Type of density    : Electron Density
Multiplicity       :   1
Irrep              :   0
Energy             :  -685.8168923278369675 Eh
Relativity type    :
Basis              : AO
                                X                 Y                 Z
Electronic contribution:      1.003854259       0.684816919       0.052904404
Nuclear contribution   :      0.138047829      -1.599175061      -0.141690081
                        -----------------------------------------
Total Dipole Moment    :      1.141902089      -0.914358142      -0.088785677
                        -----------------------------------------
Magnitude (a.u.)       :      1.465562721
Magnitude (Debye)      :      3.725164393

Rotational constants in cm-1:             0.042836             0.025136             0.021649
Rotational constants in MHz :          1284.178379           753.555380           649.027672

                             ****ORCA TERMINATED NORMALLY****
TOTAL RUN TIME: 0 days 0 hours 0 minutes 11 seconds 754 msec
