                         Program Version 6.0.0  -   RELEASE  -
|  1> ! r2scan-3c def2/J RI DEFGRID2 scfconv6 printgap
|  2> %output
|  3>     printlevel normal
|  4> end
|  5> * xyz 0 1
|  6> C -2.0663500931 0.4288693275 0.3268480496
|  7> C -0.8220905751 0.2966385989 -0.5446734819
|  8> C 0.4201056168 -0.1398865623 0.2595286612
|  9> C 0.9414761929 -1.4932979378 -0.2209869969
| 10> C 1.5281731362 0.9088055455 0.1770189516
| 11> H -2.3028804206 -0.5209106096 0.801447685
| 12> H -2.9213107105 0.7348265871 -0.2719841958
| 13> H -1.9096360583 1.1726490504 1.1050084913
| 14> H -1.0205300514 -0.429088991 -1.3353965477
| 15> H -0.6274656998 1.2553287509 -1.0287404722
| 16> H 0.1329300256 -0.2439233445 1.3115595668
| 17> H 0.1651791924 -2.251226601 -0.1446430752
| 18> H 1.7905933439 -1.8112447328 0.3802636257
| 19> H 1.2618776488 -1.4288962788 -1.2589261855
| 20> H 1.1730117938 1.8695930117 0.5426325818
| 21> H 1.85880527 1.0305947652 -0.852497183
| 22> H 2.3837636081 0.6088445968 0.7782652022
| 23> *
| 24>
| 25>                          ****END OF INPUT****

CARTESIAN COORDINATES (ANGSTROEM)
---------------------------------
  C     -2.066350    0.428869    0.326848
  C     -0.822091    0.296639   -0.544673
  C      0.420106   -0.139887    0.259529
  C      0.941476   -1.493298   -0.220987
  C      1.528173    0.908806    0.177019
  H     -2.302880   -0.520911    0.801448
  H     -2.921311    0.734827   -0.271984
  H     -1.909636    1.172649    1.105008
  H     -1.020530   -0.429089   -1.335397
  H     -0.627466    1.255329   -1.028740
  H      0.132930   -0.243923    1.311560
  H      0.165179   -2.251227   -0.144643
  H      1.790593   -1.811245    0.380264
  H      1.261878   -1.428896   -1.258926
  H      1.173012    1.869593    0.542633
  H      1.858805    1.030595   -0.852497
  H      2.383764    0.608845    0.778265

 Total Charge           Charge          ....    0
 Multiplicity           Mult            ....    1
 Number of Electrons    NEL             ....   42
 Basis Dimension        Dim             ....  155

ORBITAL ENERGIES
----------------

  NO   OCC          E(Eh)            E(eV)
   0   2.0000     -10.028884      -272.8998
   1   2.0000     -10.019234      -272.6372
   2   2.0000     -10.014518      -272.5089
   3   2.0000     -10.012409      -272.4515
   4   2.0000     -10.012352      -272.4499
   5   2.0000      -0.773992       -21.0614
   6   2.0000      -0.699563       -19.0361
   7   2.0000      -0.647027       -17.6065
   8   2.0000      -0.585349       -15.9282
   9   2.0000      -0.524437       -14.2707
  10   2.0000      -0.419086       -11.4039
  11   2.0000      -0.417804       -11.3690
  12   2.0000      -0.406873       -11.0716
  13   2.0000      -0.368360       -10.0236
  14   2.0000      -0.359635        -9.7862
  15   2.0000      -0.350556        -9.5391
  16   2.0000      -0.328426        -8.9369
  17   2.0000      -0.312651        -8.5077
  18   2.0000      -0.286576        -7.7981
  19   2.0000      -0.284220        -7.7340
  20   2.0000      -0.279949        -7.6178
  21   0.0000       0.083858         2.2819
  22   0.0000       0.111424         3.0320
  23   0.0000       0.125436         3.4133
  24   0.0000       0.126911         3.4534
  25   0.0000       0.140750         3.8300

MULLIKEN ATOMIC CHARGES
-----------------------
   0 C :   -0.481750
   1 C :   -0.283061
   2 C :    0.031467
   3 C :   -0.506554
   4 C :   -0.505185
   5 H :    0.144503
   6 H :    0.141706
   7 H :    0.144871
   8 H :    0.147838
   9 H :    0.147912
  10 H :    0.146899
  11 H :    0.146049
  12 H :    0.140589
  13 H :    0.149224
  14 H :    0.146102
  15 H :    0.148892
  16 H :    0.140497
Sum of atomic charges:   -0.0000000

LOEWDIN ATOMIC CHARGES
----------------------
   0 C :   -0.421816
   1 C :   -0.310869
   2 C :   -0.250035
   3 C :   -0.418878
   4 C :   -0.418930
   5 H :    0.148570
   6 H :    0.148439
   7 H :    0.148530
   8 H :    0.154993
   9 H :    0.154893
  10 H :    0.154124
  11 H :    0.151997
  12 H :    0.151199
  13 H :    0.152290
  14 H :    0.151945
  15 H :    0.152358
  16 H :    0.151190

  Mayer bond orders larger than 0.100000
B(  0-C ,  1-C ) :   0.8932 B(  0-C ,  5-H ) :   0.9816 B(  0-C ,  6-H ) :   0.9728
B(  0-C ,  7-H ) :   0.9824 B(  1-C ,  2-C ) :   0.8233 B(  1-C ,  8-H ) :   0.9791
B(  1-C ,  9-H ) :   0.9803 B(  2-C ,  3-C ) :   0.9038 B(  2-C ,  4-C ) :   0.9037
B(  2-C , 10-H ) :   0.9624 B(  3-C , 11-H ) :   0.9747 B(  3-C , 12-H ) :   0.9744
B(  3-C , 13-H ) :   0.9866 B(  4-C , 14-H ) :   0.9749 B(  4-C , 15-H ) :   0.9860
B(  4-C , 16-H ) :   0.9746

Dispersion correction           -0.003834701
FINAL SINGLE POINT ENERGY      -197.684805679499

DIPOLE MOMENT
-------------

Method             : SCF
Type of density    : Electron Density
Multiplicity       :   1
Irrep              :   0
Energy             :  -197.6890775711569574 Eh
Relativity type    :
Basis              : AO
                                X                 Y                 Z
Electronic contribution:     -0.004714637       0.015363171      -0.011264445
Nuclear contribution   :     -0.014693529      -0.012621824       0.025320485
                        -----------------------------------------
Total Dipole Moment    :     -0.019408167       0.002741347       0.014056040
                        -----------------------------------------
Magnitude (a.u.)       :      0.024119788
Magnitude (Debye)      :      0.061307629

Rotational constants in cm-1:             0.233777             0.109181             0.086210
Rotational constants in MHz :          7008.450678          3273.166081          2584.518984

                             ****ORCA TERMINATED NORMALLY****
TOTAL RUN TIME: 0 days 0 hours 0 minutes 13 seconds 220 msec
