                         Program Version 6.0.0  -   RELEASE  -
|  1> ! wb97x-v def2-tzvp def2/J RIJCOSX DEFGRID2 scfconv7 GCP(DFT/TZ) printgap
|  2> %output
|  3>     printlevel normal
|  4> end
|  5> * xyz 0 1
|  6> C 2.7653319894500705 -0.012784427885557717 0.7306707494743707
|  7> C 1.9732974212937173 -0.018828025970429974 -0.5819625994554164
|  8> C 0.4922346519242735 0.021301114176371854 -0.32966075941638473
|  9> C -0.1994214051632637 1.2233028134124977 -0.1774079294818807
| 10> C -1.5589754549508739 1.1955853096727376 0.10860979646361474
| 11> C -2.189811202021379 -0.03544389146673452 0.237274385417225
| 12> N -1.5518412568276967 -1.207023892294012 0.09446322360873435
| 13> C -0.24110974561501242 -1.1573177276883904 -0.18217854889054017
| 14> H 2.505114400866775 -0.8822741409047145 1.3434622408898353
| 15> H 2.546077425682261 0.8888512951402198 1.312024629524407
| 16> H 3.8416358940586806 -0.04100264243845273 0.5347330136724728
| 17> H 2.2214616882170963 -0.9192972147426653 -1.1543387927503628
| 18> H 2.262057100920202 0.846493047667604 -1.1882122752462094
| 19> H 0.32408446899098936 2.1694844178662125 -0.28563184936045677
| 20> H -2.1252102140052167 2.1132358482664313 0.2281864503882486
| 21> H -3.2525857887474645 -0.08625479431436137 0.46283632187566887
| 22> H 0.2617816542085531 -2.116628797637868 -0.29997059797726777
| 23> *
| 24>
| 25>                          ****END OF INPUT****

CARTESIAN COORDINATES (ANGSTROEM)
---------------------------------
  C      2.765332   -0.012784    0.730671
  C      1.973297   -0.018828   -0.581963
  C      0.492235    0.021301   -0.329661
  C     -0.199421    1.223303   -0.177408
  C     -1.558975    1.195585    0.108610
  C     -2.189811   -0.035444    0.237274
  N     -1.551841   -1.207024    0.094463
  C     -0.241110   -1.157318   -0.182179
  H      2.505114   -0.882274    1.343462
  H      2.546077    0.888851    1.312025
  H      3.841636   -0.041003    0.534733
  H      2.221462   -0.919297   -1.154339
  H      2.262057    0.846493   -1.188212
  H      0.324084    2.169484   -0.285632
  H     -2.125210    2.113236    0.228186
  H     -3.252586   -0.086255    0.462836
  H      0.261782   -2.116629   -0.299971

 Total Charge           Charge          ....    0
 Multiplicity           Mult            ....    1
 Number of Electrons    NEL             ....   58
 Basis Dimension        Dim             ....  302

ORBITAL ENERGIES
----------------

  NO   OCC          E(Eh)            E(eV)
   0   2.0000     -16.524588      -449.6569
   1   2.0000     -12.081064      -328.7425
   2   2.0000     -12.080668      -328.7317
   3   2.0000     -12.068527      -328.4013
   4   2.0000     -12.064599      -328.2944
   5   2.0000     -12.058627      -328.1319
   6   2.0000     -12.057649      -328.1053
   7   2.0000     -12.044770      -327.7549
   8   2.0000      -1.515180       -41.2302
   9   2.0000      -1.356224       -36.9047
  10   2.0000      -1.310541       -35.6616
  11   2.0000      -1.257178       -34.2095
  12   2.0000      -1.159545       -31.5528
  13   2.0000      -1.144184       -31.1348
  14   2.0000      -1.094792       -29.7908
  15   2.0000      -0.999725       -27.2039
  16   2.0000      -0.973687       -26.4954
  17   2.0000      -0.923031       -25.1170
  18   2.0000      -0.888246       -24.1704
  19   2.0000      -0.874117       -23.7859
  20   2.0000      -0.869967       -23.6730
  21   2.0000      -0.853111       -23.2143
  22   2.0000      -0.837201       -22.7814
  23   2.0000      -0.819814       -22.3083
  24   2.0000      -0.798019       -21.7152
  25   2.0000      -0.781723       -21.2718
  26   2.0000      -0.758213       -20.6320
  27   2.0000      -0.694812       -18.9068
  28   2.0000      -0.647167       -17.6103
  29   0.0000      -0.291157        -7.9228
  30   0.0000      -0.247036        -6.7222
  31   0.0000      -0.101065        -2.7501
  32   0.0000      -0.051188        -1.3929
  33   0.0000      -0.028798        -0.7836

MULLIKEN ATOMIC CHARGES
-----------------------
   0 C :   -0.337558
   1 C :   -0.197239
   2 C :    0.183304
   3 C :   -0.221297
   4 C :   -0.082479
   5 C :   -0.053896
   6 N :   -0.214314
   7 C :   -0.121216
   8 H :    0.116386
   9 H :    0.111359
  10 H :    0.113990
  11 H :    0.108683
  12 H :    0.104786
  13 H :    0.126611
  14 H :    0.122821
  15 H :    0.120964
  16 H :    0.119097
Sum of atomic charges:   -0.0000000

LOEWDIN ATOMIC CHARGES
----------------------
   0 C :   -0.292630
   1 C :   -0.241708
   2 C :   -0.158654
   3 C :   -0.092840
   4 C :   -0.151936
   5 C :   -0.205911
   6 N :    0.121362
   7 C :   -0.174327
   8 H :    0.119946
   9 H :    0.118412
  10 H :    0.116358
  11 H :    0.140705
  12 H :    0.139229
  13 H :    0.146716
  14 H :    0.143409
  15 H :    0.134066
  16 H :    0.137802

  Mayer bond orders larger than 0.100000
B(  0-C ,  1-C ) :   0.9727 B(  0-C ,  8-H ) :   0.9783 B(  0-C ,  9-H ) :   0.9787
B(  0-C , 10-H ) :   0.9782 B(  1-C ,  2-C ) :   0.9106 B(  1-C , 11-H ) :   0.9854
B(  1-C , 12-H ) :   0.9852 B(  2-C ,  3-C ) :   1.4053 B(  2-C ,  7-C ) :   1.3624
B(  3-C ,  4-C ) :   1.4617 B(  3-C , 13-H ) :   0.9653 B(  4-C ,  5-C ) :   1.4105
B(  4-C , 14-H ) :   0.9651 B(  5-C ,  6-N ) :   1.4911 B(  5-C , 15-H ) :   0.9847
B(  6-N ,  7-C ) :   1.5293 B(  7-C , 16-H ) :   0.9960

FINAL SINGLE POINT ENERGY      -326.925601045209

DIPOLE MOMENT
-------------

Method             : SCF
Type of density    : Electron Density
Multiplicity       :   1
Irrep              :   0
Energy             :  -326.9352435491087476 Eh
Relativity type    :
Basis              : AO
                                X                 Y                 Z
Electronic contribution:     -7.469847249      -1.106065813      -0.983652557
Nuclear contribution   :      8.090374292       1.868862924       0.898954779
                        -----------------------------------------
Total Dipole Moment    :      0.620527042       0.762797111      -0.084697778
                        -----------------------------------------
Magnitude (a.u.)       :      0.986958437
Magnitude (Debye)      :      2.508648981

Rotational constants in cm-1:             0.154454             0.050017             0.041616
Rotational constants in MHz :          4630.404482          1499.481337          1247.629675

                             ****ORCA TERMINATED NORMALLY****
TOTAL RUN TIME: 0 days 0 hours 2 minutes 12 seconds 480 msec
