                         Program Version 6.0.0  -   RELEASE  -
|  1> ! wb97x-v def2-tzvp def2/J RIJCOSX DEFGRID2 scfconv7 GCP(DFT/TZ) printgap
|  2> %output
|  3>     printlevel normal
|  4> end
|  5> %cpcm
|  6>     smd true
|  7>     smdsolvent "water"
|  8> end
|  9> * xyz 0 1
| 10> C 2.7653319894500705 -0.012784427885557717 0.7306707494743707
| 11> C 1.9732974212937173 -0.018828025970429974 -0.5819625994554164
| 12> C 0.4922346519242735 0.021301114176371854 -0.32966075941638473
| 13> C -0.1994214051632637 1.2233028134124977 -0.1774079294818807
| 14> C -1.5589754549508739 1.1955853096727376 0.10860979646361474
| 15> C -2.189811202021379 -0.03544389146673452 0.237274385417225
| 16> N -1.5518412568276967 -1.207023892294012 0.09446322360873435
| 17> C -0.24110974561501242 -1.1573177276883904 -0.18217854889054017
| 18> H 2.505114400866775 -0.8822741409047145 1.3434622408898353
| 19> H 2.546077425682261 0.8888512951402198 1.312024629524407
| 20> H 3.8416358940586806 -0.04100264243845273 0.5347330136724728
| 21> H 2.2214616882170963 -0.9192972147426653 -1.1543387927503628
| 22> H 2.262057100920202 0.846493047667604 -1.1882122752462094
| 23> H 0.32408446899098936 2.1694844178662125 -0.28563184936045677
| 24> H -2.1252102140052167 2.1132358482664313 0.2281864503882486
| 25> H -3.2525857887474645 -0.08625479431436137 0.46283632187566887
| 26> H 0.2617816542085531 -2.116628797637868 -0.29997059797726777
| 27> *
| 28>
| 29>                          ****END OF INPUT****

CARTESIAN COORDINATES (ANGSTROEM)
---------------------------------
  C      2.765332   -0.012784    0.730671
  C      1.973297   -0.018828   -0.581963
  C      0.492235    0.021301   -0.329661
  C     -0.199421    1.223303   -0.177408
  C     -1.558975    1.195585    0.108610
  C     -2.189811   -0.035444    0.237274
  N     -1.551841   -1.207024    0.094463
  C     -0.241110   -1.157318   -0.182179
  H      2.505114   -0.882274    1.343462
  H      2.546077    0.888851    1.312025
  H      3.841636   -0.041003    0.534733
  H      2.221462   -0.919297   -1.154339
  H      2.262057    0.846493   -1.188212
  H      0.324084    2.169484   -0.285632
  H     -2.125210    2.113236    0.228186
  H     -3.252586   -0.086255    0.462836
  H      0.261782   -2.116629   -0.299971

 Total Charge           Charge          ....    0
 Multiplicity           Mult            ....    1
 Number of Electrons    NEL             ....   58
 Basis Dimension        Dim             ....  302

ORBITAL ENERGIES
----------------

  NO   OCC          E(Eh)            E(eV)
   0   2.0000     -16.528583      -449.7656
   1   2.0000     -12.078895      -328.6834
   2   2.0000     -12.078183      -328.6641
   3   2.0000     -12.061924      -328.2217
   4   2.0000     -12.059346      -328.1515
   5   2.0000     -12.052697      -327.9706
   6   2.0000     -12.043098      -327.7094
   7   2.0000     -12.030495      -327.3664
   8   2.0000      -1.518243       -41.3135
   9   2.0000      -1.350690       -36.7541
  10   2.0000      -1.305792       -35.5324
  11   2.0000      -1.247878       -33.9565
  12   2.0000      -1.154456       -31.4143
  13   2.0000      -1.139226       -30.9999
  14   2.0000      -1.085029       -29.5251
  15   2.0000      -0.995773       -27.0964
  16   2.0000      -0.968794       -26.3622
  17   2.0000      -0.913724       -24.8637
  18   2.0000      -0.880627       -23.9631
  19   2.0000      -0.867092       -23.5948
  20   2.0000      -0.858363       -23.3572
  21   2.0000      -0.845259       -23.0007
  22   2.0000      -0.831863       -22.6361
  23   2.0000      -0.816855       -22.2277
  24   2.0000      -0.785913       -21.3858
  25   2.0000      -0.770721       -20.9724
  26   2.0000      -0.756252       -20.5787
  27   2.0000      -0.692438       -18.8422
  28   2.0000      -0.644444       -17.5362
  29   0.0000      -0.289901        -7.8886
  30   0.0000      -0.244350        -6.6491
  31   0.0000      -0.096995        -2.6394
  32   0.0000      -0.042108        -1.1458
  33   0.0000      -0.020348        -0.5537

MULLIKEN ATOMIC CHARGES
-----------------------
   0 C :   -0.396595
   1 C :   -0.179213
   2 C :    0.138105
   3 C :   -0.239124
   4 C :   -0.129362
   5 C :   -0.068336
   6 N :   -0.293769
   7 C :   -0.123254
   8 H :    0.128059
   9 H :    0.128172
  10 H :    0.130652
  11 H :    0.124252
  12 H :    0.123694
  13 H :    0.169960
  14 H :    0.168353
  15 H :    0.159841
  16 H :    0.158566
Sum of atomic charges:   -0.0000000

LOEWDIN ATOMIC CHARGES
----------------------
   0 C :   -0.297849
   1 C :   -0.237368
   2 C :   -0.158536
   3 C :   -0.084025
   4 C :   -0.151807
   5 C :   -0.218167
   6 N :    0.075448
   7 C :   -0.182028
   8 H :    0.120847
   9 H :    0.120807
  10 H :    0.119818
  11 H :    0.145410
  12 H :    0.145148
  13 H :    0.159539
  14 H :    0.154889
  15 H :    0.141617
  16 H :    0.146256

  Mayer bond orders larger than 0.100000
B(  0-C ,  1-C ) :   0.9628 B(  0-C ,  8-H ) :   0.9775 B(  0-C ,  9-H ) :   0.9777
B(  0-C , 10-H ) :   0.9753 B(  1-C ,  2-C ) :   0.9208 B(  1-C , 11-H ) :   0.9782
B(  1-C , 12-H ) :   0.9773 B(  2-C ,  3-C ) :   1.3966 B(  2-C ,  7-C ) :   1.3885
B(  3-C ,  4-C ) :   1.4480 B(  3-C , 13-H ) :   0.9663 B(  4-C ,  5-C ) :   1.4301
B(  4-C , 14-H ) :   0.9613 B(  5-C ,  6-N ) :   1.4779 B(  5-C , 15-H ) :   0.9666
B(  6-N ,  7-C ) :   1.5131 B(  7-C , 16-H ) :   0.9724

FINAL SINGLE POINT ENERGY      -326.932681062398

DIPOLE MOMENT
-------------

Method             : SCF
Type of density    : Electron Density
Multiplicity       :   1
Irrep              :   0
Energy             :  -326.9423235662979437 Eh
Relativity type    :
Basis              : AO
                                X                 Y                 Z
Electronic contribution:     -7.208330221      -0.750252513      -1.044771716
Nuclear contribution   :      8.090374292       1.868862924       0.898954779
                        -----------------------------------------
Total Dipole Moment    :      0.882044071       1.118610411      -0.145816936
                        -----------------------------------------
Magnitude (a.u.)       :      1.431975410
Magnitude (Debye)      :      3.639792233

Rotational constants in cm-1:             0.154454             0.050017             0.041616
Rotational constants in MHz :          4630.404482          1499.481337          1247.629675

                             ****ORCA TERMINATED NORMALLY****
TOTAL RUN TIME: 0 days 0 hours 2 minutes 18 seconds 361 msec
