                         Program Version 6.0.0  -   RELEASE  -
|  1> ! pbe def2-sv(p) def2/J RI DEFGRID1 loosescf d4 GCP(DFT/SV(P)) printgap
|  2> %output
|  3>     printlevel normal
|  4> end
|  5> * xyz 0 1
|  6> C -2.5521423836 -0.8971449966 0.3182335394
|  7> C -1.1174872749 -0.4447489467 0.6344432342
|  8> H -0.9822078612 -0.3979616646 1.7262669046
|  9> C -0.8349496065 0.9458646298 0.0265219508
| 10> H -1.0827644181 0.9038633088 -1.0411725247
| 11> C 0.649704157 1.2866813001 0.2077339398
| 12> H 0.870949056 1.3948251687 1.2782169217
| 13> C 1.5317001604 0.1508924178 -0.3413261466
| 14> H 1.3689562645 0.0552396646 -1.4282896363
| 15> C 1.1237760131 -1.1741223765 0.3294402486
| 16> H 1.3146323099 -1.0989647988 1.4120035082
| 17> O -0.2475225187 -1.4201010557 0.0874632544
| 18> O 1.8412432647 -2.2623803976 -0.1038872915
| 19> O 2.8875813665 0.3920256091 -0.0734737069
| 20> O 1.011036225 2.5195276035 -0.364974826
| 21> O -1.6747390384 1.9330016975 0.5607030131
| 22> O -2.7464198648 -1.1137282385 -1.053727664
| 23> H -3.2427377016 -0.1028198542 0.6065924311
| 24> H -2.7725907365 -1.8054133675 0.8906245696
| 25> H 1.7289718611 -2.3833805607 -1.0601718436
| 26> H 3.0698121979 1.3297300178 -0.2511498026
| 27> H 0.595528311 2.6192924194 -1.2337188048
| 28> H -1.4329530468 2.117659574 1.4799083725
| 29> H -2.1464283001 -1.8195889709 -1.3350580219
| 30> *
| 31>
| 32>                          ****END OF INPUT****

CARTESIAN COORDINATES (ANGSTROEM)
---------------------------------
  C     -2.552142   -0.897145    0.318234
  C     -1.117487   -0.444749    0.634443
  H     -0.982208   -0.397962    1.726267
  C     -0.834950    0.945865    0.026522
  H     -1.082764    0.903863   -1.041173
  C      0.649704    1.286681    0.207734
  H      0.870949    1.394825    1.278217
  C      1.531700    0.150892   -0.341326
  H      1.368956    0.055240   -1.428290
  C      1.123776   -1.174122    0.329440
  H      1.314632   -1.098965    1.412004
  O     -0.247523   -1.420101    0.087463
  O      1.841243   -2.262380   -0.103887
  O      2.887581    0.392026   -0.073474
  O      1.011036    2.519528   -0.364975
  O     -1.674739    1.933002    0.560703
  O     -2.746420   -1.113728   -1.053728
  H     -3.242738   -0.102820    0.606592
  H     -2.772591   -1.805413    0.890625
  H      1.728972   -2.383381   -1.060172
  H      3.069812    1.329730   -0.251150
  H      0.595528    2.619292   -1.233719
  H     -1.432953    2.117660    1.479908
  H     -2.146428   -1.819589   -1.335058

 Total Charge           Charge          ....    0
 Multiplicity           Mult            ....    1
 Number of Electrons    NEL             ....   96
 Basis Dimension        Dim             ....  192

ORBITAL ENERGIES
----------------

  NO   OCC          E(Eh)            E(eV)
   0   2.0000     -18.780550      -511.0447
   1   2.0000     -18.767632      -510.6932
   2   2.0000     -18.763317      -510.5758
   3   2.0000     -18.762366      -510.5499
   4   2.0000     -18.751969      -510.2670
   5   2.0000     -18.751726      -510.2604
   6   2.0000      -9.992144      -271.9001
   7   2.0000      -9.952986      -270.8345
   8   2.0000      -9.951080      -270.7827
   9   2.0000      -9.950683      -270.7719
  10   2.0000      -9.945609      -270.6338
  11   2.0000      -9.934163      -270.3223
  12   2.0000      -0.989342       -26.9214
  13   2.0000      -0.956055       -26.0156
  14   2.0000      -0.941315       -25.6145
  15   2.0000      -0.930432       -25.3184
  16   2.0000      -0.921756       -25.0823
  17   2.0000      -0.915349       -24.9079
  18   2.0000      -0.708726       -19.2854
  19   2.0000      -0.694711       -18.9040
  20   2.0000      -0.622481       -16.9386
  21   2.0000      -0.592433       -16.1209
  22   2.0000      -0.571710       -15.5570
  23   2.0000      -0.553483       -15.0610
  24   2.0000      -0.508238       -13.8299
  25   2.0000      -0.483090       -13.1455
  26   2.0000      -0.477374       -12.9900
  27   2.0000      -0.463462       -12.6115
  28   2.0000      -0.454309       -12.3624
  29   2.0000      -0.438313       -11.9271
  30   2.0000      -0.428661       -11.6644
  31   2.0000      -0.419811       -11.4236
  32   2.0000      -0.381652       -10.3853
  33   2.0000      -0.377442       -10.2707
  34   2.0000      -0.368193       -10.0191
  35   2.0000      -0.357910        -9.7392
  36   2.0000      -0.326778        -8.8921
  37   2.0000      -0.317206        -8.6316
  38   2.0000      -0.310442        -8.4475
  39   2.0000      -0.293348        -7.9824
  40   2.0000      -0.290064        -7.8931
  41   2.0000      -0.280301        -7.6274
  42   2.0000      -0.262574        -7.1450
  43   2.0000      -0.256378        -6.9764
  44   2.0000      -0.233514        -6.3542
  45   2.0000      -0.226981        -6.1765
  46   2.0000      -0.219514        -5.9733
  47   2.0000      -0.210544        -5.7292
  48   0.0000       0.007008         0.1907
  49   0.0000       0.014587         0.3969
  50   0.0000       0.031174         0.8483
  51   0.0000       0.039800         1.0830
  52   0.0000       0.048215         1.3120

MULLIKEN ATOMIC CHARGES
-----------------------
   0 C :    0.105090
   1 C :   -0.025415
   2 H :    0.040479
   3 C :    0.049825
   4 H :    0.054771
   5 C :    0.045000
   6 H :    0.050566
   7 C :    0.045264
   8 H :    0.025470
   9 C :    0.205551
  10 H :    0.054401
  11 O :   -0.317178
  12 O :   -0.361028
  13 O :   -0.405005
  14 O :   -0.409771
  15 O :   -0.403130
  16 O :   -0.438541
  17 H :    0.087917
  18 H :    0.083099
  19 H :    0.302516
  20 H :    0.304221
  21 H :    0.306259
  22 H :    0.301266
  23 H :    0.298373
Sum of atomic charges:   -0.0000000

LOEWDIN ATOMIC CHARGES
----------------------
   0 C :   -0.123133
   1 C :   -0.080812
   2 H :    0.099270
   3 C :   -0.084138
   4 H :    0.114518
   5 C :   -0.090841
   6 H :    0.110185
   7 C :   -0.098199
   8 H :    0.091179
   9 C :    0.005866
  10 H :    0.101523
  11 O :   -0.161032
  12 O :   -0.275460
  13 O :   -0.317383
  14 O :   -0.311688
  15 O :   -0.302786
  16 O :   -0.329925
  17 H :    0.120805
  18 H :    0.102263
  19 H :    0.288470
  20 H :    0.283567
  21 H :    0.290271
  22 H :    0.286853
  23 H :    0.280627

  Mayer bond orders larger than 0.100000
B(  0-C ,  1-C ) :   1.0331 B(  0-C , 16-O ) :   1.0672 B(  0-C , 17-H ) :   0.9106
B(  0-C , 18-H ) :   0.9186 B(  1-C ,  2-H ) :   0.8697 B(  1-C ,  3-C ) :   0.9782
B(  1-C , 11-O ) :   0.9874 B(  3-C ,  4-H ) :   0.8548 B(  3-C ,  5-C ) :   1.0134
B(  3-C , 15-O ) :   1.0435 B(  5-C ,  6-H ) :   0.8643 B(  5-C ,  7-C ) :   0.9959
B(  5-C , 14-O ) :   1.0588 B(  7-C ,  8-H ) :   0.8551 B(  7-C ,  9-C ) :   0.9766
B(  7-C , 13-O ) :   1.0983 B(  9-C , 10-H ) :   0.8798 B(  9-C , 11-O ) :   0.9891
B(  9-C , 12-O ) :   1.1746 B( 12-O , 19-H ) :   0.8421 B( 13-O , 20-H ) :   0.8301
B( 14-O , 21-H ) :   0.8451 B( 15-O , 22-H ) :   0.8465 B( 16-O , 23-H ) :   0.8425

Dispersion correction           -0.023959016
FINAL SINGLE POINT ENERGY      -685.698230904298

DIPOLE MOMENT
-------------

Method             : SCF
Type of density    : Electron Density
Multiplicity       :   1
Irrep              :   0
Energy             :  -685.8277381215856394 Eh
Relativity type    :
Basis              : AO
                                X                 Y                 Z
Electronic contribution:      2.490322829      -0.490563931      -1.078602141
Nuclear contribution   :     -2.527352659       0.762961546       0.965455842
                        -----------------------------------------
Total Dipole Moment    :     -0.037029830       0.272397615      -0.113146299
                        -----------------------------------------
Magnitude (a.u.)       :      0.297277234
Magnitude (Debye)      :      0.755618678

Rotational constants in cm-1:             0.038630             0.027214             0.017691
Rotational constants in MHz :          1158.106911           815.840458           530.349192

                             ****ORCA TERMINATED NORMALLY****
TOTAL RUN TIME: 0 days 0 hours 0 minutes 12 seconds 79 msec
