                         Program Version 6.0.0  -   RELEASE  -
|  1> ! wb97x-v def2-tzvp def2/J RIJCOSX DEFGRID2 scfconv7 GCP(DFT/TZ) printgap
|  2> %output
|  3>     printlevel normal
|  4> end
|  5> * xyz 0 1
|  6> C 1.2892965039822126 6.612902311424851e-05 7.671893505990235e-06
|  7> C -0.1598039104149747 2.7867111567419145e-05 -0.00015896616928933065
|  8> C -1.3667381641773508 0.00014707640744113874 -4.4385067253954206e-05
|  9> H 1.6778381252138315 -0.958001103834213 -0.35940971177327197
| 10> H 1.677721556463851 0.7905099119948678 -0.6499052608050837
| 11> H 1.6774966570534209 0.16779878179050256 1.0096023413644004
| 12> H -2.433560396031027 -9.817428379736935e-05 9.984566898776818e-05
| 13> *
| 14>
| 15>                          ****END OF INPUT****

CARTESIAN COORDINATES (ANGSTROEM)
---------------------------------
  C      1.289297    0.000066    0.000008
  C     -0.159804    0.000028   -0.000159
  C     -1.366738    0.000147   -0.000044
  H      1.677838   -0.958001   -0.359410
  H      1.677722    0.790510   -0.649905
  H      1.677497    0.167799    1.009602
  H     -2.433560   -0.000098    0.000100

 Total Charge           Charge          ....    0
 Multiplicity           Mult            ....    1
 Number of Electrons    NEL             ....   22
 Basis Dimension        Dim             ....  117

ORBITAL ENERGIES
----------------

  NO   OCC          E(Eh)            E(eV)
   0   2.0000     -12.069355      -328.4238
   1   2.0000     -12.053083      -327.9811
   2   2.0000     -12.036679      -327.5347
   3   2.0000      -1.309857       -35.6430
   4   2.0000      -1.228743       -33.4358
   5   2.0000      -0.985471       -26.8160
   6   2.0000      -0.931969       -25.3602
   7   2.0000      -0.858167       -23.3519
   8   2.0000      -0.858154       -23.3515
   9   2.0000      -0.674872       -18.3642
  10   2.0000      -0.674871       -18.3642
  11   0.0000      -0.149137        -4.0582
  12   0.0000      -0.149135        -4.0582
  13   0.0000      -0.046151        -1.2558
  14   0.0000       0.011208         0.3050
  15   0.0000       0.049187         1.3385

MULLIKEN ATOMIC CHARGES
-----------------------
   0 C :   -0.391342
   1 C :   -0.067320
   2 C :   -0.153152
   3 H :    0.144776
   4 H :    0.144753
   5 H :    0.144745
   6 H :    0.177541
Sum of atomic charges:   -0.0000000

LOEWDIN ATOMIC CHARGES
----------------------
   0 C :   -0.275999
   1 C :   -0.145316
   2 C :   -0.118688
   3 H :    0.138927
   4 H :    0.138939
   5 H :    0.138945
   6 H :    0.123191

  Mayer bond orders larger than 0.100000
B(  0-C ,  1-C ) :   0.9954 B(  0-C ,  3-H ) :   0.9778 B(  0-C ,  4-H ) :   0.9778
B(  0-C ,  5-H ) :   0.9778 B(  1-C ,  2-C ) :   2.8643 B(  2-C ,  6-H ) :   0.9670

FINAL SINGLE POINT ENERGY      -116.655228382802

DIPOLE MOMENT
-------------

Method             : SCF
Type of density    : Electron Density
Multiplicity       :   1
Irrep              :   0
Energy             :  -116.6586753966017227 Eh
Relativity type    :
Basis              : AO
                                X                 Y                 Z
Electronic contribution:     -2.143950732       0.000037156      -0.000414797
Nuclear contribution   :      2.460259960      -0.000094513       0.000546859
                        -----------------------------------------
Total Dipole Moment    :      0.316309228      -0.000057357       0.000132062
                        -----------------------------------------
Magnitude (a.u.)       :      0.316309261
Magnitude (Debye)      :      0.803994246

Rotational constants in cm-1:             5.323224             0.286832             0.286832
Rotational constants in MHz :        159586.232903          8599.019545          8599.009742

                             ****ORCA TERMINATED NORMALLY****
TOTAL RUN TIME: 0 days 0 hours 0 minutes 17 seconds 89 msec
