                         Program Version 6.0.0  -   RELEASE  -
|  1> ! wb97x-v def2-tzvp def2/J RIJCOSX DEFGRID2 scfconv7 GCP(DFT/TZ) printgap
|  2> %output
|  3>     printlevel normal
|  4> end
|  5> %cpcm
|  6>     smd true
|  7>     smdsolvent "water"
|  8> end
|  9> * xyz 0 1
| 10> C 1.2892965039822126 6.612902311424851e-05 7.671893505990235e-06
| 11> C -0.1598039104149747 2.7867111567419145e-05 -0.00015896616928933065
| 12> C -1.3667381641773508 0.00014707640744113874 -4.4385067253954206e-05
| 13> H 1.6778381252138315 -0.958001103834213 -0.35940971177327197
| 14> H 1.677721556463851 0.7905099119948678 -0.6499052608050837
| 15> H 1.6774966570534209 0.16779878179050256 1.0096023413644004
| 16> H -2.433560396031027 -9.817428379736935e-05 9.984566898776818e-05
| 17> *
| 18>
| 19>                          ****END OF INPUT****

CARTESIAN COORDINATES (ANGSTROEM)
---------------------------------
  C      1.289297    0.000066    0.000008
  C     -0.159804    0.000028   -0.000159
  C     -1.366738    0.000147   -0.000044
  H      1.677838   -0.958001   -0.359410
  H      1.677722    0.790510   -0.649905
  H      1.677497    0.167799    1.009602
  H     -2.433560   -0.000098    0.000100

 Total Charge           Charge          ....    0
 Multiplicity           Mult            ....    1
 Number of Electrons    NEL             ....   22
 Basis Dimension        Dim             ....  117

ORBITAL ENERGIES
----------------

  NO   OCC          E(Eh)            E(eV)
   0   2.0000     -12.059012      -328.1424
   1   2.0000     -12.056633      -328.0777
   2   2.0000     -12.038700      -327.5897
   3   2.0000      -1.313127       -35.7320
   4   2.0000      -1.224497       -33.3202
   5   2.0000      -0.982891       -26.7458
   6   2.0000      -0.926064       -25.1995
   7   2.0000      -0.847343       -23.0574
   8   2.0000      -0.847328       -23.0570
   9   2.0000      -0.680190       -18.5089
  10   2.0000      -0.680186       -18.5088
  11   0.0000      -0.152216        -4.1420
  12   0.0000      -0.152213        -4.1419
  13   0.0000      -0.040212        -1.0942
  14   0.0000       0.023884         0.6499
  15   0.0000       0.061345         1.6693

MULLIKEN ATOMIC CHARGES
-----------------------
   0 C :   -0.416570
   1 C :   -0.079932
   2 C :   -0.245918
   3 H :    0.169393
   4 H :    0.169478
   5 H :    0.169446
   6 H :    0.234103
Sum of atomic charges:   -0.0000000

LOEWDIN ATOMIC CHARGES
----------------------
   0 C :   -0.272636
   1 C :   -0.160471
   2 C :   -0.147476
   3 H :    0.147398
   4 H :    0.147459
   5 H :    0.147447
   6 H :    0.138279

  Mayer bond orders larger than 0.100000
B(  0-C ,  1-C ) :   1.0209 B(  0-C ,  3-H ) :   0.9676 B(  0-C ,  4-H ) :   0.9676
B(  0-C ,  5-H ) :   0.9677 B(  1-C ,  2-C ) :   2.7976 B(  2-C ,  6-H ) :   0.9657

FINAL SINGLE POINT ENERGY      -116.656635131930

DIPOLE MOMENT
-------------

Method             : SCF
Type of density    : Electron Density
Multiplicity       :   1
Irrep              :   0
Energy             :  -116.6600821457297457 Eh
Relativity type    :
Basis              : AO
                                X                 Y                 Z
Electronic contribution:     -2.017199034       0.000301253      -0.000369788
Nuclear contribution   :      2.460259960      -0.000094513       0.000546859
                        -----------------------------------------
Total Dipole Moment    :      0.443060926       0.000206740       0.000177071
                        -----------------------------------------
Magnitude (a.u.)       :      0.443061009
Magnitude (Debye)      :      1.126171587

Rotational constants in cm-1:             5.323224             0.286832             0.286832
Rotational constants in MHz :        159586.232903          8599.019545          8599.009742

                             ****ORCA TERMINATED NORMALLY****
TOTAL RUN TIME: 0 days 0 hours 0 minutes 16 seconds 288 msec
