                         Program Version 6.0.0  -   RELEASE  -
|  1> ! pbe def2-sv(p) def2/J RI DEFGRID1 loosescf d4 GCP(DFT/SV(P)) printgap
|  2> %output
|  3>     printlevel normal
|  4> end
|  5> * xyz 0 1
|  6> C -2.4823568219 -0.4618414718 -0.2021921853
|  7> C -1.0450574576 -0.1833141849 0.2433034583
|  8> H -0.9605202575 -0.3970089669 1.3188574706
|  9> C -0.6290445488 1.2859722271 -0.009370158
| 10> H -1.2418306803 1.713793439 -0.8111520721
| 11> C 0.8441979529 1.3111930242 -0.470331004
| 12> H 1.2471468541 2.3154240043 -0.3048934938
| 13> C 1.6564622145 0.2981767234 0.3625681562
| 14> H 2.7006615793 0.3240795585 0.0274958937
| 15> C 1.1057667706 -1.1313614221 0.0973985072
| 16> H 1.0540530551 -1.6764994849 1.0547457869
| 17> O -0.190391837 -1.0706352676 -0.4712866235
| 18> O 1.916330637 -1.8812880404 -0.7277137239
| 19> O 1.5412218955 0.6625837928 1.7166264334
| 20> O 0.9736398022 1.0506140334 -1.8442261357
| 21> O -0.8560532998 2.0951156133 1.1102421524
| 22> O -2.9202484419 -1.7417025514 0.1735349347
| 23> H -2.5527812416 -0.3320551683 -1.2892857564
| 24> H -3.1448569134 0.2517498997 0.29031033
| 25> H 1.9582148797 -1.4829282639 -1.6117921999
| 26> H 2.2544785551 0.2664056678 2.2360879332
| 27> H 0.4192345487 0.2840227612 -2.0624576104
| 28> H -0.2215033079 1.8511732634 1.804445864
| 29> H -2.3310969164 -2.3975874994 -0.2273345926
| 30> *
| 31>
| 32>                          ****END OF INPUT****

CARTESIAN COORDINATES (ANGSTROEM)
---------------------------------
  C     -2.482357   -0.461841   -0.202192
  C     -1.045057   -0.183314    0.243303
  H     -0.960520   -0.397009    1.318857
  C     -0.629045    1.285972   -0.009370
  H     -1.241831    1.713793   -0.811152
  C      0.844198    1.311193   -0.470331
  H      1.247147    2.315424   -0.304893
  C      1.656462    0.298177    0.362568
  H      2.700662    0.324080    0.027496
  C      1.105767   -1.131361    0.097399
  H      1.054053   -1.676499    1.054746
  O     -0.190392   -1.070635   -0.471287
  O      1.916331   -1.881288   -0.727714
  O      1.541222    0.662584    1.716626
  O      0.973640    1.050614   -1.844226
  O     -0.856053    2.095116    1.110242
  O     -2.920248   -1.741703    0.173535
  H     -2.552781   -0.332055   -1.289286
  H     -3.144857    0.251750    0.290310
  H      1.958215   -1.482928   -1.611792
  H      2.254479    0.266406    2.236088
  H      0.419235    0.284023   -2.062458
  H     -0.221503    1.851173    1.804446
  H     -2.331097   -2.397587   -0.227335

 Total Charge           Charge          ....    0
 Multiplicity           Mult            ....    1
 Number of Electrons    NEL             ....   96
 Basis Dimension        Dim             ....  192

ORBITAL ENERGIES
----------------

  NO   OCC          E(Eh)            E(eV)
   0   2.0000     -18.789029      -511.2755
   1   2.0000     -18.786917      -511.2180
   2   2.0000     -18.771964      -510.8111
   3   2.0000     -18.762505      -510.5537
   4   2.0000     -18.745572      -510.0930
   5   2.0000     -18.745186      -510.0824
   6   2.0000      -9.998890      -272.0836
   7   2.0000      -9.954566      -270.8775
   8   2.0000      -9.948246      -270.7055
   9   2.0000      -9.945470      -270.6300
  10   2.0000      -9.943467      -270.5755
  11   2.0000      -9.935507      -270.3589
  12   2.0000      -0.998928       -27.1822
  13   2.0000      -0.959418       -26.1071
  14   2.0000      -0.942519       -25.6473
  15   2.0000      -0.933692       -25.4070
  16   2.0000      -0.922990       -25.1158
  17   2.0000      -0.917316       -24.9614
  18   2.0000      -0.702061       -19.1040
  19   2.0000      -0.696147       -18.9431
  20   2.0000      -0.623002       -16.9527
  21   2.0000      -0.597075       -16.2472
  22   2.0000      -0.572095       -15.5675
  23   2.0000      -0.541229       -14.7276
  24   2.0000      -0.513589       -13.9755
  25   2.0000      -0.504529       -13.7289
  26   2.0000      -0.487583       -13.2678
  27   2.0000      -0.469096       -12.7647
  28   2.0000      -0.458723       -12.4825
  29   2.0000      -0.431970       -11.7545
  30   2.0000      -0.417144       -11.3511
  31   2.0000      -0.403467       -10.9789
  32   2.0000      -0.383487       -10.4352
  33   2.0000      -0.378558       -10.3011
  34   2.0000      -0.366837        -9.9821
  35   2.0000      -0.359566        -9.7843
  36   2.0000      -0.344024        -9.3614
  37   2.0000      -0.320927        -8.7329
  38   2.0000      -0.316950        -8.6246
  39   2.0000      -0.306995        -8.3538
  40   2.0000      -0.283195        -7.7061
  41   2.0000      -0.276183        -7.5153
  42   2.0000      -0.271218        -7.3802
  43   2.0000      -0.263379        -7.1669
  44   2.0000      -0.251063        -6.8318
  45   2.0000      -0.225727        -6.1424
  46   2.0000      -0.215649        -5.8681
  47   2.0000      -0.202462        -5.5093
  48   0.0000      -0.005084        -0.1384
  49   0.0000       0.016400         0.4463
  50   0.0000       0.033231         0.9043
  51   0.0000       0.049827         1.3559
  52   0.0000       0.060138         1.6365

MULLIKEN ATOMIC CHARGES
-----------------------
   0 C :    0.075203
   1 C :   -0.011151
   2 H :    0.061625
   3 C :    0.058987
   4 H :    0.071017
   5 C :    0.044354
   6 H :    0.083133
   7 C :   -0.006559
   8 H :    0.081888
   9 C :    0.190293
  10 H :    0.060241
  11 O :   -0.322071
  12 O :   -0.375229
  13 O :   -0.423424
  14 O :   -0.423027
  15 O :   -0.425512
  16 O :   -0.433189
  17 H :    0.068697
  18 H :    0.103754
  19 H :    0.297173
  20 H :    0.318459
  21 H :    0.299347
  22 H :    0.307002
  23 H :    0.298987
Sum of atomic charges:   -0.0000000

LOEWDIN ATOMIC CHARGES
----------------------
   0 C :   -0.124820
   1 C :   -0.083461
   2 H :    0.109396
   3 C :   -0.074046
   4 H :    0.116338
   5 C :   -0.071991
   6 H :    0.121140
   7 C :   -0.100327
   8 H :    0.112200
   9 C :   -0.004583
  10 H :    0.099381
  11 O :   -0.166299
  12 O :   -0.287583
  13 O :   -0.313334
  14 O :   -0.313702
  15 O :   -0.313638
  16 O :   -0.335161
  17 H :    0.098225
  18 H :    0.125847
  19 H :    0.281594
  20 H :    0.297823
  21 H :    0.268211
  22 H :    0.276387
  23 H :    0.282401

  Mayer bond orders larger than 0.100000
B(  0-C ,  1-C ) :   1.0568 B(  0-C , 16-O ) :   1.0788 B(  0-C , 17-H ) :   0.9056
B(  0-C , 18-H ) :   0.9180 B(  1-C ,  2-H ) :   0.8602 B(  1-C ,  3-C ) :   0.9591
B(  1-C , 11-O ) :   0.9815 B(  3-C ,  4-H ) :   0.8930 B(  3-C ,  5-C ) :   0.9926
B(  3-C , 15-O ) :   1.0564 B(  5-C ,  6-H ) :   0.8882 B(  5-C ,  7-C ) :   0.9830
B(  5-C , 14-O ) :   1.0422 B(  7-C ,  8-H ) :   0.9011 B(  7-C ,  9-C ) :   0.9223
B(  7-C , 13-O ) :   1.0360 B(  9-C , 10-H ) :   0.8999 B(  9-C , 11-O ) :   1.0011
B(  9-C , 12-O ) :   1.1578 B( 12-O , 19-H ) :   0.8333 B( 13-O , 20-H ) :   0.8389
B( 14-O , 21-H ) :   0.8213 B( 15-O , 22-H ) :   0.8234 B( 16-O , 23-H ) :   0.8461

Dispersion correction           -0.024940658
FINAL SINGLE POINT ENERGY      -685.694754120321

DIPOLE MOMENT
-------------

Method             : SCF
Type of density    : Electron Density
Multiplicity       :   1
Irrep              :   0
Energy             :  -685.8269720909985381 Eh
Relativity type    :
Basis              : AO
                                X                 Y                 Z
Electronic contribution:      1.794255187      -0.984666481      -0.255468762
Nuclear contribution   :     -0.761292234       0.662901048       0.398113749
                        -----------------------------------------
Total Dipole Moment    :      1.032962953      -0.321765433       0.142644987
                        -----------------------------------------
Magnitude (a.u.)       :      1.091280463
Magnitude (Debye)      :      2.773814498

Rotational constants in cm-1:             0.037536             0.027697             0.021880
Rotational constants in MHz :          1125.297546           830.342933           655.940571

                             ****ORCA TERMINATED NORMALLY****
TOTAL RUN TIME: 0 days 0 hours 0 minutes 12 seconds 98 msec
