                         Program Version 6.0.0  -   RELEASE  -
|  1> ! pbe def2-sv(p) def2/J RI DEFGRID1 loosescf d4 GCP(DFT/SV(P)) printgap
|  2> %output
|  3>     printlevel normal
|  4> end
|  5> * xyz 0 1
|  6> C -1.7485705868 -1.004655442 -0.7191946717
|  7> C -1.0681494712 -0.4434557922 0.5461899638
|  8> H -1.7694463922 -0.5455244992 1.3835116877
|  9> C -0.6947253205 1.0451579434 0.4212907985
| 10> H -1.5355823688 1.5724921845 -0.0421941527
| 11> C 0.5668982772 1.2590484164 -0.4435092637
| 12> H 0.9289204654 2.2757634921 -0.2351475592
| 13> C 1.6934796621 0.3131726463 0.0053560301
| 14> H 2.4595433076 0.3114317091 -0.7814552277
| 15> C 1.2114725972 -1.1402685517 0.1727059138
| 16> H 1.9538951209 -1.6804374421 0.7851812675
| 17> O 0.0425217036 -1.2433865624 0.9438269483
| 18> O 1.1054477493 -1.7158641211 -1.0890743102
| 19> O 2.1864246642 0.8209232882 1.2211058517
| 20> O 0.3239048084 1.0757345092 -1.8153294345
| 21> O -0.5369227615 1.6470406083 1.6836968009
| 22> O -3.1017983639 -0.6288730769 -0.8160612402
| 23> H -1.757166305 -2.0939668065 -0.6367005331
| 24> H -1.1835657357 -0.7175132743 -1.6115122242
| 25> H 0.9190672704 -2.6634889439 -1.0092940904
| 26> H 2.998715793 0.3603480351 1.4757428253
| 27> H 0.0331690099 1.9083002596 -2.2125321482
| 28> H 0.2853592365 1.3215416938 2.0845091502
| 29> H -3.1718412477 0.3106819137 -1.0300856138
| 30> *
| 31>
| 32>                          ****END OF INPUT****

CARTESIAN COORDINATES (ANGSTROEM)
---------------------------------
  C     -1.748571   -1.004655   -0.719195
  C     -1.068149   -0.443456    0.546190
  H     -1.769446   -0.545524    1.383512
  C     -0.694725    1.045158    0.421291
  H     -1.535582    1.572492   -0.042194
  C      0.566898    1.259048   -0.443509
  H      0.928920    2.275763   -0.235148
  C      1.693480    0.313173    0.005356
  H      2.459543    0.311432   -0.781455
  C      1.211473   -1.140269    0.172706
  H      1.953895   -1.680437    0.785181
  O      0.042522   -1.243387    0.943827
  O      1.105448   -1.715864   -1.089074
  O      2.186425    0.820923    1.221106
  O      0.323905    1.075735   -1.815329
  O     -0.536923    1.647041    1.683697
  O     -3.101798   -0.628873   -0.816061
  H     -1.757166   -2.093967   -0.636701
  H     -1.183566   -0.717513   -1.611512
  H      0.919067   -2.663489   -1.009294
  H      2.998716    0.360348    1.475743
  H      0.033169    1.908300   -2.212532
  H      0.285359    1.321542    2.084509
  H     -3.171841    0.310682   -1.030086

 Total Charge           Charge          ....    0
 Multiplicity           Mult            ....    1
 Number of Electrons    NEL             ....   96
 Basis Dimension        Dim             ....  192

ORBITAL ENERGIES
----------------

  NO   OCC          E(Eh)            E(eV)
   0   2.0000     -18.777171      -510.9528
   1   2.0000     -18.764454      -510.6068
   2   2.0000     -18.764171      -510.5991
   3   2.0000     -18.763070      -510.5691
   4   2.0000     -18.738839      -509.9097
   5   2.0000     -18.735157      -509.8095
   6   2.0000      -9.988780      -271.8085
   7   2.0000      -9.951079      -270.7826
   8   2.0000      -9.948393      -270.7095
   9   2.0000      -9.938096      -270.4293
  10   2.0000      -9.929296      -270.1899
  11   2.0000      -9.913974      -269.7730
  12   2.0000      -0.980986       -26.6940
  13   2.0000      -0.950879       -25.8747
  14   2.0000      -0.938959       -25.5504
  15   2.0000      -0.921245       -25.0683
  16   2.0000      -0.912559       -24.8320
  17   2.0000      -0.905725       -24.6460
  18   2.0000      -0.699920       -19.0458
  19   2.0000      -0.688937       -18.7469
  20   2.0000      -0.611171       -16.6308
  21   2.0000      -0.593741       -16.1565
  22   2.0000      -0.565931       -15.3998
  23   2.0000      -0.532747       -14.4968
  24   2.0000      -0.489494       -13.3198
  25   2.0000      -0.488910       -13.3039
  26   2.0000      -0.473717       -12.8905
  27   2.0000      -0.458393       -12.4735
  28   2.0000      -0.448016       -12.1911
  29   2.0000      -0.431235       -11.7345
  30   2.0000      -0.412233       -11.2174
  31   2.0000      -0.397066       -10.8047
  32   2.0000      -0.381878       -10.3914
  33   2.0000      -0.369407       -10.0521
  34   2.0000      -0.356276        -9.6948
  35   2.0000      -0.347659        -9.4603
  36   2.0000      -0.328605        -8.9418
  37   2.0000      -0.313990        -8.5441
  38   2.0000      -0.301395        -8.2014
  39   2.0000      -0.298174        -8.1137
  40   2.0000      -0.275671        -7.5014
  41   2.0000      -0.256960        -6.9922
  42   2.0000      -0.249692        -6.7945
  43   2.0000      -0.245071        -6.6687
  44   2.0000      -0.242807        -6.6071
  45   2.0000      -0.230973        -6.2851
  46   2.0000      -0.205318        -5.5870
  47   2.0000      -0.191841        -5.2203
  48   0.0000       0.000748         0.0204
  49   0.0000       0.011508         0.3132
  50   0.0000       0.021638         0.5888
  51   0.0000       0.036805         1.0015
  52   0.0000       0.067910         1.8479

MULLIKEN ATOMIC CHARGES
-----------------------
   0 C :    0.003728
   1 C :    0.037284
   2 H :    0.077329
   3 C :    0.071324
   4 H :    0.031940
   5 C :    0.016322
   6 H :    0.080833
   7 C :    0.037125
   8 H :    0.081267
   9 C :    0.192469
  10 H :    0.041770
  11 O :   -0.313873
  12 O :   -0.381238
  13 O :   -0.421643
  14 O :   -0.393675
  15 O :   -0.429831
  16 O :   -0.434757
  17 H :    0.066789
  18 H :    0.112378
  19 H :    0.306720
  20 H :    0.310659
  21 H :    0.308387
  22 H :    0.303002
  23 H :    0.295692
Sum of atomic charges:    0.0000000

LOEWDIN ATOMIC CHARGES
----------------------
   0 C :   -0.153216
   1 C :   -0.073617
   2 H :    0.120008
   3 C :   -0.073066
   4 H :    0.100507
   5 C :   -0.071934
   6 H :    0.110715
   7 C :   -0.076994
   8 H :    0.114088
   9 C :   -0.012103
  10 H :    0.087678
  11 O :   -0.145038
  12 O :   -0.298759
  13 O :   -0.306153
  14 O :   -0.304872
  15 O :   -0.322276
  16 O :   -0.335194
  17 H :    0.106696
  18 H :    0.106998
  19 H :    0.288521
  20 H :    0.292391
  21 H :    0.292848
  22 H :    0.274987
  23 H :    0.277786

  Mayer bond orders larger than 0.100000
B(  0-C ,  1-C ) :   1.0245 B(  0-C , 16-O ) :   1.0560 B(  0-C , 17-H ) :   0.9116
B(  0-C , 18-H ) :   0.9016 B(  1-C ,  2-H ) :   0.8929 B(  1-C ,  3-C ) :   0.9949
B(  1-C , 11-O ) :   0.9800 B(  3-C ,  4-H ) :   0.8853 B(  3-C ,  5-C ) :   0.9611
B(  3-C , 15-O ) :   1.0595 B(  5-C ,  6-H ) :   0.9021 B(  5-C ,  7-C ) :   0.9982
B(  5-C , 14-O ) :   1.0884 B(  7-C ,  8-H ) :   0.8874 B(  7-C ,  9-C ) :   0.9780
B(  7-C , 13-O ) :   1.0285 B(  9-C , 10-H ) :   0.9024 B(  9-C , 11-O ) :   1.0765
B(  9-C , 12-O ) :   1.1448 B( 12-O , 19-H ) :   0.8345 B( 13-O , 20-H ) :   0.8404
B( 14-O , 21-H ) :   0.8455 B( 15-O , 22-H ) :   0.8209 B( 16-O , 23-H ) :   0.8510

Dispersion correction           -0.025678475
FINAL SINGLE POINT ENERGY      -685.689297740043

DIPOLE MOMENT
-------------

Method             : SCF
Type of density    : Electron Density
Multiplicity       :   1
Irrep              :   0
Energy             :  -685.8195321909036011 Eh
Relativity type    :
Basis              : AO
                                X                 Y                 Z
Electronic contribution:      1.071717485      -0.191152504       1.317906026
Nuclear contribution   :      0.151399364       0.336734406      -1.714930687
                        -----------------------------------------
Total Dipole Moment    :      1.223116850       0.145581902      -0.397024660
                        -----------------------------------------
Magnitude (a.u.)       :      1.294155130
Magnitude (Debye)      :      3.289480920

Rotational constants in cm-1:             0.040291             0.028195             0.024457
Rotational constants in MHz :          1207.900414           845.277034           733.189139

                             ****ORCA TERMINATED NORMALLY****
TOTAL RUN TIME: 0 days 0 hours 0 minutes 12 seconds 238 msec
