                         Program Version 6.0.0  -   RELEASE  -
|  1> ! pbe def2-sv(p) def2/J RI DEFGRID1 loosescf d4 GCP(DFT/SV(P)) printgap
|  2> %output
|  3>     printlevel normal
|  4> end
|  5> * xyz 0 1
|  6> C -2.2295617249 -1.1783370328 0.108190174
|  7> C -0.8530290747 -0.5752543141 0.4355167557
|  8> H -0.8198742513 -0.3175447837 1.5046384884
|  9> C -0.5762042231 0.6890303377 -0.397624191
| 10> H -0.6023609865 0.4158010356 -1.4595793154
| 11> C 0.8182593292 1.2651132368 -0.0703765822
| 12> H 0.7185076541 2.0259070673 0.7127742306
| 13> C 1.7550556518 0.1721537529 0.4863924896
| 14> H 2.781564696 0.4366970857 0.197140085
| 15> C 1.3989595967 -1.1712831426 -0.1683839034
| 16> H 2.0605310472 -1.9706327585 0.200575441
| 17> O 0.1050250473 -1.597880454 0.171228383
| 18> O 1.5530297271 -1.0048751422 -1.5467409781
| 19> O 1.6108142236 0.1334204288 1.8811171909
| 20> O 1.3884836662 1.9262115052 -1.1667465425
| 21> O -1.5994075054 1.6415661022 -0.2372323979
| 22> O -3.2948851488 -0.4151372836 0.6045694282
| 23> H -2.2945813434 -2.1590355455 0.5842439794
| 24> H -2.3123828004 -1.3096101327 -0.978729128
| 25> H 1.3976246064 -1.8461361206 -2.002965589
| 26> H 2.2726042333 -0.4546484828 2.2727916232
| 27> H 1.5526513754 1.2800831269 -1.8715331163
| 28> H -1.4897333449 2.099023026 0.6092165148
| 29> H -3.2390575427 0.469843256 0.2034424691
| 30> *
| 31>
| 32>                          ****END OF INPUT****

CARTESIAN COORDINATES (ANGSTROEM)
---------------------------------
  C     -2.229562   -1.178337    0.108190
  C     -0.853029   -0.575254    0.435517
  H     -0.819874   -0.317545    1.504638
  C     -0.576204    0.689030   -0.397624
  H     -0.602361    0.415801   -1.459579
  C      0.818259    1.265113   -0.070377
  H      0.718508    2.025907    0.712774
  C      1.755056    0.172154    0.486392
  H      2.781565    0.436697    0.197140
  C      1.398960   -1.171283   -0.168384
  H      2.060531   -1.970633    0.200575
  O      0.105025   -1.597880    0.171228
  O      1.553030   -1.004875   -1.546741
  O      1.610814    0.133420    1.881117
  O      1.388484    1.926212   -1.166747
  O     -1.599408    1.641566   -0.237232
  O     -3.294885   -0.415137    0.604569
  H     -2.294581   -2.159036    0.584244
  H     -2.312383   -1.309610   -0.978729
  H      1.397625   -1.846136   -2.002966
  H      2.272604   -0.454648    2.272792
  H      1.552651    1.280083   -1.871533
  H     -1.489733    2.099023    0.609217
  H     -3.239058    0.469843    0.203442

 Total Charge           Charge          ....    0
 Multiplicity           Mult            ....    1
 Number of Electrons    NEL             ....   96
 Basis Dimension        Dim             ....  192

ORBITAL ENERGIES
----------------

  NO   OCC          E(Eh)            E(eV)
   0   2.0000     -18.783210      -511.1171
   1   2.0000     -18.772674      -510.8304
   2   2.0000     -18.770305      -510.7660
   3   2.0000     -18.768066      -510.7050
   4   2.0000     -18.744901      -510.0747
   5   2.0000     -18.729078      -509.6441
   6   2.0000      -9.996978      -272.0316
   7   2.0000      -9.952305      -270.8160
   8   2.0000      -9.947329      -270.6806
   9   2.0000      -9.944513      -270.6039
  10   2.0000      -9.935498      -270.3586
  11   2.0000      -9.921278      -269.9717
  12   2.0000      -0.991253       -26.9734
  13   2.0000      -0.949930       -25.8489
  14   2.0000      -0.944817       -25.7098
  15   2.0000      -0.927141       -25.2288
  16   2.0000      -0.919422       -25.0187
  17   2.0000      -0.904990       -24.6260
  18   2.0000      -0.703529       -19.1440
  19   2.0000      -0.694665       -18.9028
  20   2.0000      -0.615599       -16.7513
  21   2.0000      -0.599189       -16.3048
  22   2.0000      -0.563665       -15.3381
  23   2.0000      -0.532891       -14.5007
  24   2.0000      -0.510219       -13.8838
  25   2.0000      -0.498236       -13.5577
  26   2.0000      -0.475452       -12.9377
  27   2.0000      -0.461469       -12.5572
  28   2.0000      -0.446125       -12.1397
  29   2.0000      -0.432461       -11.7679
  30   2.0000      -0.417906       -11.3718
  31   2.0000      -0.401794       -10.9334
  32   2.0000      -0.386257       -10.5106
  33   2.0000      -0.367410        -9.9977
  34   2.0000      -0.361406        -9.8343
  35   2.0000      -0.352779        -9.5996
  36   2.0000      -0.346569        -9.4306
  37   2.0000      -0.319713        -8.6998
  38   2.0000      -0.304277        -8.2798
  39   2.0000      -0.297208        -8.0874
  40   2.0000      -0.280248        -7.6259
  41   2.0000      -0.277790        -7.5590
  42   2.0000      -0.265701        -7.2301
  43   2.0000      -0.251581        -6.8459
  44   2.0000      -0.229121        -6.2347
  45   2.0000      -0.224526        -6.1097
  46   2.0000      -0.211481        -5.7547
  47   2.0000      -0.199363        -5.4249
  48   0.0000       0.005968         0.1624
  49   0.0000       0.012583         0.3424
  50   0.0000       0.021862         0.5949
  51   0.0000       0.049630         1.3505
  52   0.0000       0.070468         1.9175

MULLIKEN ATOMIC CHARGES
-----------------------
   0 C :    0.100241
   1 C :    0.011930
   2 H :    0.062470
   3 C :    0.059687
   4 H :    0.050648
   5 C :    0.105293
   6 H :    0.060347
   7 C :    0.006545
   8 H :    0.077781
   9 C :    0.159862
  10 H :    0.054635
  11 O :   -0.309079
  12 O :   -0.400980
  13 O :   -0.407994
  14 O :   -0.424258
  15 O :   -0.420183
  16 O :   -0.449505
  17 H :    0.087470
  18 H :    0.053401
  19 H :    0.311163
  20 H :    0.306833
  21 H :    0.304712
  22 H :    0.307016
  23 H :    0.291965
Sum of atomic charges:    0.0000000

LOEWDIN ATOMIC CHARGES
----------------------
   0 C :   -0.121540
   1 C :   -0.080500
   2 H :    0.106869
   3 C :   -0.079952
   4 H :    0.115339
   5 C :   -0.062524
   6 H :    0.118745
   7 C :   -0.089131
   8 H :    0.111110
   9 C :   -0.011657
  10 H :    0.092065
  11 O :   -0.144235
  12 O :   -0.314024
  13 O :   -0.306895
  14 O :   -0.311586
  15 O :   -0.298904
  16 O :   -0.345729
  17 H :    0.114481
  18 H :    0.092086
  19 H :    0.291619
  20 H :    0.291480
  21 H :    0.278425
  22 H :    0.287006
  23 H :    0.267449

  Mayer bond orders larger than 0.100000
B(  0-C ,  1-C ) :   1.0177 B(  0-C , 16-O ) :   1.0930 B(  0-C , 17-H ) :   0.9225
B(  0-C , 18-H ) :   0.9077 B(  1-C ,  2-H ) :   0.8711 B(  1-C ,  3-C ) :   1.0413
B(  1-C , 11-O ) :   0.9520 B(  3-C ,  4-H ) :   0.8401 B(  3-C ,  5-C ) :   1.0179
B(  3-C , 15-O ) :   0.9998 B(  5-C ,  6-H ) :   0.8600 B(  5-C ,  7-C ) :   0.9923
B(  5-C , 14-O ) :   1.0584 B(  7-C ,  8-H ) :   0.8843 B(  7-C ,  9-C ) :   1.0192
B(  7-C , 13-O ) :   1.0379 B(  9-C , 10-H ) :   0.8960 B(  9-C , 11-O ) :   1.0944
B(  9-C , 12-O ) :   1.1077 B( 12-O , 19-H ) :   0.8356 B( 13-O , 20-H ) :   0.8440
B( 14-O , 21-H ) :   0.8343 B( 15-O , 22-H ) :   0.8376 B( 16-O , 23-H ) :   0.8163

Dispersion correction           -0.024958051
FINAL SINGLE POINT ENERGY      -685.693773724684

DIPOLE MOMENT
-------------

Method             : SCF
Type of density    : Electron Density
Multiplicity       :   1
Irrep              :   0
Energy             :  -685.8255405593858995 Eh
Relativity type    :
Basis              : AO
                                X                 Y                 Z
Electronic contribution:      1.257874984       0.567066219      -0.053805430
Nuclear contribution   :      0.020406947      -1.237881008      -0.030606621
                        -----------------------------------------
Total Dipole Moment    :      1.278281931      -0.670814789      -0.084412050
                        -----------------------------------------
Magnitude (a.u.)       :      1.446071427
Magnitude (Debye)      :      3.675621460

Rotational constants in cm-1:             0.042876             0.025422             0.021828
Rotational constants in MHz :          1285.390813           762.124468           654.396441

                             ****ORCA TERMINATED NORMALLY****
TOTAL RUN TIME: 0 days 0 hours 0 minutes 12 seconds 245 msec
