                         Program Version 6.0.0  -   RELEASE  -
|  1> ! pbe def2-sv(p) def2/J RI DEFGRID1 loosescf d4 GCP(DFT/SV(P)) printgap
|  2> %output
|  3>     printlevel normal
|  4> end
|  5> * xyz 0 1
|  6> C -2.5546237966 -0.6609156624 -0.3570201193
|  7> C -1.1709420989 -0.3101453685 0.2045642931
|  8> H -1.2195331075 -0.2497350991 1.3043259978
|  9> C -0.6930973503 1.0507685587 -0.3223719167
| 10> H -0.6842705193 1.0258855412 -1.4229301691
| 11> C 0.7386791529 1.3204625094 0.1594617753
| 12> H 0.7330912556 1.429957364 1.2562022078
| 13> C 1.6483589442 0.1427639645 -0.1990481195
| 14> H 1.7217692489 0.0607605155 -1.2939105197
| 15> C 1.0279326746 -1.162005901 0.3270846468
| 16> H 0.9977110391 -1.1172645679 1.4381649664
| 17> O -0.2745699263 -1.3371738402 -0.1702347996
| 18> O 1.808186818 -2.2171902545 -0.1051891221
| 19> O 2.9085538311 0.382863204 0.3718361275
| 20> O 1.1711986542 2.5162506577 -0.440134885
| 21> O -1.5781618485 2.0352937377 0.1411107515
| 22> O -3.1700641585 -1.7334881297 0.3044884793
| 23> H -2.4342487937 -0.9785907436 -1.3941714534
| 24> H -3.1729219979 0.2424240042 -0.3172543705
| 25> H 1.299793085 -3.0410005546 -0.0434765908
| 26> H 3.482748711 -0.3782863759 0.2009595534
| 27> H 2.1054307367 2.6506349284 -0.2221148371
| 28> H -1.2208875398 2.9030130723 -0.104233211
| 29> H -3.3811045093 -1.4766853575 1.2136286323
| 30> *
| 31>
| 32>                          ****END OF INPUT****

CARTESIAN COORDINATES (ANGSTROEM)
---------------------------------
  C     -2.554624   -0.660916   -0.357020
  C     -1.170942   -0.310145    0.204564
  H     -1.219533   -0.249735    1.304326
  C     -0.693097    1.050769   -0.322372
  H     -0.684271    1.025886   -1.422930
  C      0.738679    1.320463    0.159462
  H      0.733091    1.429957    1.256202
  C      1.648359    0.142764   -0.199048
  H      1.721769    0.060761   -1.293911
  C      1.027933   -1.162006    0.327085
  H      0.997711   -1.117265    1.438165
  O     -0.274570   -1.337174   -0.170235
  O      1.808187   -2.217190   -0.105189
  O      2.908554    0.382863    0.371836
  O      1.171199    2.516251   -0.440135
  O     -1.578162    2.035294    0.141111
  O     -3.170064   -1.733488    0.304488
  H     -2.434249   -0.978591   -1.394171
  H     -3.172922    0.242424   -0.317254
  H      1.299793   -3.041001   -0.043477
  H      3.482749   -0.378286    0.200960
  H      2.105431    2.650635   -0.222115
  H     -1.220888    2.903013   -0.104233
  H     -3.381105   -1.476685    1.213629

 Total Charge           Charge          ....    0
 Multiplicity           Mult            ....    1
 Number of Electrons    NEL             ....   96
 Basis Dimension        Dim             ....  192

ORBITAL ENERGIES
----------------

  NO   OCC          E(Eh)            E(eV)
   0   2.0000     -18.773578      -510.8550
   1   2.0000     -18.768173      -510.7079
   2   2.0000     -18.761414      -510.5240
   3   2.0000     -18.757076      -510.4060
   4   2.0000     -18.754653      -510.3400
   5   2.0000     -18.743274      -510.0304
   6   2.0000      -9.988445      -271.7994
   7   2.0000      -9.946081      -270.6466
   8   2.0000      -9.944485      -270.6032
   9   2.0000      -9.943699      -270.5818
  10   2.0000      -9.941500      -270.5220
  11   2.0000      -9.927560      -270.1426
  12   2.0000      -0.989090       -26.9145
  13   2.0000      -0.948869       -25.8200
  14   2.0000      -0.938824       -25.5467
  15   2.0000      -0.924161       -25.1477
  16   2.0000      -0.919140       -25.0111
  17   2.0000      -0.914184       -24.8762
  18   2.0000      -0.707051       -19.2398
  19   2.0000      -0.693459       -18.8700
  20   2.0000      -0.616232       -16.7685
  21   2.0000      -0.583486       -15.8775
  22   2.0000      -0.560953       -15.2643
  23   2.0000      -0.529868       -14.4185
  24   2.0000      -0.516789       -14.0626
  25   2.0000      -0.484573       -13.1859
  26   2.0000      -0.474736       -12.9182
  27   2.0000      -0.462916       -12.5966
  28   2.0000      -0.453402       -12.3377
  29   2.0000      -0.435689       -11.8557
  30   2.0000      -0.412851       -11.2342
  31   2.0000      -0.395445       -10.7606
  32   2.0000      -0.389738       -10.6053
  33   2.0000      -0.382217       -10.4006
  34   2.0000      -0.361946        -9.8491
  35   2.0000      -0.351048        -9.5525
  36   2.0000      -0.328240        -8.9319
  37   2.0000      -0.318451        -8.6655
  38   2.0000      -0.309763        -8.4291
  39   2.0000      -0.295487        -8.0406
  40   2.0000      -0.287598        -7.8259
  41   2.0000      -0.271027        -7.3750
  42   2.0000      -0.253100        -6.8872
  43   2.0000      -0.244575        -6.6552
  44   2.0000      -0.231131        -6.2894
  45   2.0000      -0.225419        -6.1340
  46   2.0000      -0.211083        -5.7439
  47   2.0000      -0.208764        -5.6808
  48   0.0000       0.016779         0.4566
  49   0.0000       0.026788         0.7289
  50   0.0000       0.033061         0.8996
  51   0.0000       0.046350         1.2613
  52   0.0000       0.056685         1.5425

MULLIKEN ATOMIC CHARGES
-----------------------
   0 C :    0.090293
   1 C :    0.004474
   2 H :    0.039458
   3 C :    0.045353
   4 H :    0.059865
   5 C :    0.069465
   6 H :    0.054094
   7 C :    0.035471
   8 H :    0.059682
   9 C :    0.182517
  10 H :    0.034697
  11 O :   -0.302630
  12 O :   -0.393307
  13 O :   -0.426923
  14 O :   -0.426854
  15 O :   -0.419157
  16 O :   -0.431590
  17 H :    0.083954
  18 H :    0.093328
  19 H :    0.314334
  20 H :    0.313428
  21 H :    0.313123
  22 H :    0.312547
  23 H :    0.294378
Sum of atomic charges:    0.0000000

LOEWDIN ATOMIC CHARGES
----------------------
   0 C :   -0.127521
   1 C :   -0.065637
   2 H :    0.098776
   3 C :   -0.066554
   4 H :    0.106955
   5 C :   -0.075198
   6 H :    0.104156
   7 C :   -0.091907
   8 H :    0.108196
   9 C :   -0.003272
  10 H :    0.078734
  11 O :   -0.144922
  12 O :   -0.305426
  13 O :   -0.322778
  14 O :   -0.324924
  15 O :   -0.317470
  16 O :   -0.332647
  17 H :    0.119431
  18 H :    0.107798
  19 H :    0.295306
  20 H :    0.292859
  21 H :    0.292010
  22 H :    0.291553
  23 H :    0.282480

  Mayer bond orders larger than 0.100000
B(  0-C ,  1-C ) :   1.0358 B(  0-C , 16-O ) :   1.0871 B(  0-C , 17-H ) :   0.9043
B(  0-C , 18-H ) :   0.9172 B(  1-C ,  2-H ) :   0.8674 B(  1-C ,  3-C ) :   0.9998
B(  1-C , 11-O ) :   0.9947 B(  3-C ,  4-H ) :   0.8732 B(  3-C ,  5-C ) :   1.0199
B(  3-C , 15-O ) :   1.0581 B(  5-C ,  6-H ) :   0.8732 B(  5-C ,  7-C ) :   1.0081
B(  5-C , 14-O ) :   1.0836 B(  7-C ,  8-H ) :   0.8648 B(  7-C ,  9-C ) :   0.9914
B(  7-C , 13-O ) :   1.0647 B(  9-C , 10-H ) :   0.8828 B(  9-C , 11-O ) :   1.0205
B(  9-C , 12-O ) :   1.1607 B( 12-O , 19-H ) :   0.8350 B( 13-O , 20-H ) :   0.8374
B( 14-O , 21-H ) :   0.8357 B( 15-O , 22-H ) :   0.8349 B( 16-O , 23-H ) :   0.8543

Dispersion correction           -0.023530948
FINAL SINGLE POINT ENERGY      -685.701707134871

DIPOLE MOMENT
-------------

Method             : SCF
Type of density    : Electron Density
Multiplicity       :   1
Irrep              :   0
Energy             :  -685.8313407856152253 Eh
Relativity type    :
Basis              : AO
                                X                 Y                 Z
Electronic contribution:      2.151276590      -0.900722308      -0.163905100
Nuclear contribution   :     -1.650017065       0.999649851       0.578662317
                        -----------------------------------------
Total Dipole Moment    :      0.501259525       0.098927543       0.414757217
                        -----------------------------------------
Magnitude (a.u.)       :      0.658081545
Magnitude (Debye)      :      1.672710354

Rotational constants in cm-1:             0.039831             0.025521             0.016303
Rotational constants in MHz :          1194.094177           765.089308           488.764370

                             ****ORCA TERMINATED NORMALLY****
TOTAL RUN TIME: 0 days 0 hours 0 minutes 12 seconds 380 msec
