                         Program Version 6.0.0  -   RELEASE  -
|  1> ! wb97x-v def2-tzvp def2/J RIJCOSX DEFGRID2 scfconv7 GCP(DFT/TZ) printgap
|  2> %output
|  3>     printlevel normal
|  4> end
|  5> * xyz 0 1
|  6> C 0.6719969570627705 -4.617547464919529e-06 -0.00020167880922832972
|  7> C -0.6719948312641768 1.0566671085823234e-05 -0.00013626596542798687
|  8> Cl -1.5919669130981098 1.4576914551395206 0.0003197425936489145
|  9> Cl -1.5920012230634832 -1.4576480989867713 0.00032339366699073456
| 10> Cl 1.5919719502664018 -1.4576839099343675 0.0003659212161722488
| 11> Cl 1.5920032772541715 1.4576546586570818 0.0003695789747208984
| 12> *
| 13>
| 14>                          ****END OF INPUT****

CARTESIAN COORDINATES (ANGSTROEM)
---------------------------------
  C      0.671997   -0.000005   -0.000202
  C     -0.671995    0.000011   -0.000136
  Cl    -1.591967    1.457691    0.000320
  Cl    -1.592001   -1.457648    0.000323
  Cl     1.591972   -1.457684    0.000366
  Cl     1.592003    1.457655    0.000370

 Total Charge           Charge          ....    0
 Multiplicity           Mult            ....    1
 Number of Electrons    NEL             ....   80
 Basis Dimension        Dim             ....  210

ORBITAL ENERGIES
----------------

  NO   OCC          E(Eh)            E(eV)
   0   2.0000    -107.179603     -2916.5053
   1   2.0000    -107.179579     -2916.5046
   2   2.0000    -107.179574     -2916.5045
   3   2.0000    -107.179531     -2916.5033
   4   2.0000     -12.196453      -331.8824
   5   2.0000     -12.193637      -331.8057
   6   2.0000     -11.332634      -308.3767
   7   2.0000     -11.332585      -308.3753
   8   2.0000     -11.332518      -308.3735
   9   2.0000     -11.332486      -308.3726
  10   2.0000      -9.125789      -248.3253
  11   2.0000      -9.124387      -248.2872
  12   2.0000      -9.123918      -248.2744
  13   2.0000      -9.123197      -248.2548
  14   2.0000      -9.122144      -248.2262
  15   2.0000      -9.121658      -248.2129
  16   2.0000      -9.121331      -248.2040
  17   2.0000      -9.121299      -248.2032
  18   2.0000      -9.121060      -248.1967
  19   2.0000      -9.120754      -248.1883
  20   2.0000      -9.120249      -248.1746
  21   2.0000      -9.120204      -248.1734
  22   2.0000      -1.510215       -41.0950
  23   2.0000      -1.467929       -39.9444
  24   2.0000      -1.431394       -38.9502
  25   2.0000      -1.419171       -38.6176
  26   2.0000      -1.290834       -35.1254
  27   2.0000      -1.083189       -29.4751
  28   2.0000      -1.008752       -27.4495
  29   2.0000      -1.000441       -27.2234
  30   2.0000      -0.936249       -25.4766
  31   2.0000      -0.897289       -24.4165
  32   2.0000      -0.849995       -23.1295
  33   2.0000      -0.837556       -22.7911
  34   2.0000      -0.834534       -22.7088
  35   2.0000      -0.826086       -22.4789
  36   2.0000      -0.825487       -22.4626
  37   2.0000      -0.821526       -22.3549
  38   2.0000      -0.809958       -22.0401
  39   2.0000      -0.704381       -19.1672
  40   0.0000      -0.343673        -9.3518
  41   0.0000      -0.323128        -8.7928
  42   0.0000      -0.311620        -8.4796
  43   0.0000      -0.309884        -8.4324
  44   0.0000      -0.144392        -3.9291

MULLIKEN ATOMIC CHARGES
-----------------------
   0 C :    0.022774
   1 C :    0.022773
   2 Cl:   -0.011387
   3 Cl:   -0.011387
   4 Cl:   -0.011387
   5 Cl:   -0.011386
Sum of atomic charges:    0.0000000

LOEWDIN ATOMIC CHARGES
----------------------
   0 C :   -0.847085
   1 C :   -0.847085
   2 Cl:    0.423542
   3 Cl:    0.423543
   4 Cl:    0.423542
   5 Cl:    0.423542

  Mayer bond orders larger than 0.100000
B(  0-C ,  1-C ) :   1.7352 B(  0-C ,  4-Cl) :   1.1987 B(  0-C ,  5-Cl) :   1.1987
B(  1-C ,  2-Cl) :   1.1987 B(  1-C ,  3-Cl) :   1.1987

FINAL SINGLE POINT ENERGY     -1916.758746729362

DIPOLE MOMENT
-------------

Method             : SCF
Type of density    : Electron Density
Multiplicity       :   1
Irrep              :   0
Energy             : -1916.7617449260624198 Eh
Relativity type    :
Basis              : AO
                                X                 Y                 Z
Electronic contribution:      0.000000112       0.000000096       0.000474649
Nuclear contribution   :     -0.000000552      -0.000000429      -0.000399454
                        -----------------------------------------
Total Dipole Moment    :     -0.000000441      -0.000000333       0.000075195
                        -----------------------------------------
Magnitude (a.u.)       :      0.000075197
Magnitude (Debye)      :      0.000191137

Rotational constants in cm-1:             0.055946             0.045529             0.025101
Rotational constants in MHz :          1677.206212          1364.935623           752.521962

                             ****ORCA TERMINATED NORMALLY****
TOTAL RUN TIME: 0 days 0 hours 1 minutes 0 seconds 557 msec
