                         Program Version 6.0.0  -   RELEASE  -
|  1> ! wb97x-v def2-tzvp def2/J RIJCOSX DEFGRID2 scfconv7 GCP(DFT/TZ) printgap
|  2> %output
|  3>     printlevel normal
|  4> end
|  5> %cpcm
|  6>     smd true
|  7>     smdsolvent "water"
|  8> end
|  9> * xyz 0 1
| 10> C 0.6719969570627705 -4.617547464919529e-06 -0.00020167880922832972
| 11> C -0.6719948312641768 1.0566671085823234e-05 -0.00013626596542798687
| 12> Cl -1.5919669130981098 1.4576914551395206 0.0003197425936489145
| 13> Cl -1.5920012230634832 -1.4576480989867713 0.00032339366699073456
| 14> Cl 1.5919719502664018 -1.4576839099343675 0.0003659212161722488
| 15> Cl 1.5920032772541715 1.4576546586570818 0.0003695789747208984
| 16> *
| 17>
| 18>                          ****END OF INPUT****

CARTESIAN COORDINATES (ANGSTROEM)
---------------------------------
  C      0.671997   -0.000005   -0.000202
  C     -0.671995    0.000011   -0.000136
  Cl    -1.591967    1.457691    0.000320
  Cl    -1.592001   -1.457648    0.000323
  Cl     1.591972   -1.457684    0.000366
  Cl     1.592003    1.457655    0.000370

 Total Charge           Charge          ....    0
 Multiplicity           Mult            ....    1
 Number of Electrons    NEL             ....   80
 Basis Dimension        Dim             ....  210

ORBITAL ENERGIES
----------------

  NO   OCC          E(Eh)            E(eV)
   0   2.0000    -107.178855     -2916.4849
   1   2.0000    -107.178831     -2916.4843
   2   2.0000    -107.178826     -2916.4841
   3   2.0000    -107.178783     -2916.4830
   4   2.0000     -12.194633      -331.8328
   5   2.0000     -12.191814      -331.7561
   6   2.0000     -11.331871      -308.3559
   7   2.0000     -11.331821      -308.3545
   8   2.0000     -11.331754      -308.3527
   9   2.0000     -11.331722      -308.3518
  10   2.0000      -9.125022      -248.3045
  11   2.0000      -9.123619      -248.2663
  12   2.0000      -9.123148      -248.2535
  13   2.0000      -9.122429      -248.2339
  14   2.0000      -9.121388      -248.2056
  15   2.0000      -9.120891      -248.1921
  16   2.0000      -9.120562      -248.1831
  17   2.0000      -9.120533      -248.1823
  18   2.0000      -9.120302      -248.1760
  19   2.0000      -9.119999      -248.1678
  20   2.0000      -9.119494      -248.1541
  21   2.0000      -9.119447      -248.1528
  22   2.0000      -1.508933       -41.0601
  23   2.0000      -1.466965       -39.9181
  24   2.0000      -1.430504       -38.9260
  25   2.0000      -1.418322       -38.5945
  26   2.0000      -1.289189       -35.0806
  27   2.0000      -1.081995       -29.4426
  28   2.0000      -1.007511       -27.4158
  29   2.0000      -0.999185       -27.1892
  30   2.0000      -0.935111       -25.4457
  31   2.0000      -0.895789       -24.3757
  32   2.0000      -0.849089       -23.1049
  33   2.0000      -0.836880       -22.7727
  34   2.0000      -0.833910       -22.6918
  35   2.0000      -0.825323       -22.4582
  36   2.0000      -0.824882       -22.4462
  37   2.0000      -0.820797       -22.3350
  38   2.0000      -0.809366       -22.0240
  39   2.0000      -0.702660       -19.1204
  40   0.0000      -0.342196        -9.3116
  41   0.0000      -0.321559        -8.7501
  42   0.0000      -0.310216        -8.4414
  43   0.0000      -0.307701        -8.3730
  44   0.0000      -0.142842        -3.8869

MULLIKEN ATOMIC CHARGES
-----------------------
   0 C :    0.030778
   1 C :    0.030776
   2 Cl:   -0.015389
   3 Cl:   -0.015389
   4 Cl:   -0.015388
   5 Cl:   -0.015388
Sum of atomic charges:    0.0000000

LOEWDIN ATOMIC CHARGES
----------------------
   0 C :   -0.843374
   1 C :   -0.843374
   2 Cl:    0.421686
   3 Cl:    0.421687
   4 Cl:    0.421687
   5 Cl:    0.421687

  Mayer bond orders larger than 0.100000
B(  0-C ,  1-C ) :   1.7376 B(  0-C ,  4-Cl) :   1.1956 B(  0-C ,  5-Cl) :   1.1956
B(  1-C ,  2-Cl) :   1.1955 B(  1-C ,  3-Cl) :   1.1956

FINAL SINGLE POINT ENERGY     -1916.755771234564

DIPOLE MOMENT
-------------

Method             : SCF
Type of density    : Electron Density
Multiplicity       :   1
Irrep              :   0
Energy             : -1916.7587694312642270 Eh
Relativity type    :
Basis              : AO
                                X                 Y                 Z
Electronic contribution:     -0.000000060      -0.000000029       0.000454620
Nuclear contribution   :     -0.000000552      -0.000000429      -0.000399454
                        -----------------------------------------
Total Dipole Moment    :     -0.000000612      -0.000000458       0.000055166
                        -----------------------------------------
Magnitude (a.u.)       :      0.000055171
Magnitude (Debye)      :      0.000140234

Rotational constants in cm-1:             0.055946             0.045529             0.025101
Rotational constants in MHz :          1677.206212          1364.935623           752.521962

                             ****ORCA TERMINATED NORMALLY****
TOTAL RUN TIME: 0 days 0 hours 1 minutes 2 seconds 624 msec
