                         Program Version 6.0.0  -   RELEASE  -
|  1> ! pbe def2-sv(p) def2/J RI DEFGRID1 loosescf d4 GCP(DFT/SV(P)) printgap
|  2> %output
|  3>     printlevel normal
|  4> end
|  5> * xyz 0 1
|  6> C -2.4834160117 -0.4771297002 -0.2286589655
|  7> C -1.0419419398 -0.2076178748 0.2133298993
|  8> H -0.9490203864 -0.3993543847 1.2946095736
|  9> C -0.6238095057 1.2574094302 -0.0549408427
| 10> H -1.2109416475 1.6662048299 -0.8845181931
| 11> C 0.8662493801 1.3018549641 -0.4675072648
| 12> H 1.246551673 2.306743786 -0.2544248846
| 13> C 1.6639223536 0.2809499531 0.3660665124
| 14> H 2.704713041 0.2898381316 0.02443075
| 15> C 1.1079329172 -1.1415326987 0.100700324
| 16> H 1.035079313 -1.6738238119 1.0738521614
| 17> O -0.1813628441 -1.099354816 -0.4771891102
| 18> O 1.9550433027 -1.7946906223 -0.7700136967
| 19> O 1.5435945885 0.6411020505 1.7205988959
| 20> O 1.0480429647 1.1064529727 -1.842261071
| 21> O -0.8937960639 2.0777052658 1.0499370111
| 22> O -2.993580988 -1.6984434449 0.2394307162
| 23> H -2.5106581029 -0.5414900123 -1.3177821855
| 24> H -3.1020852511 0.3655324065 0.101922734
| 25> H 1.5603522497 -2.6382098553 -1.0424530753
| 26> H 2.3017384521 0.3184669719 2.2270899492
| 27> H 0.7714648235 0.206092769 -2.0736836703
| 28> H -0.2620287373 1.8634873882 1.7562431002
| 29> H -3.0817357485 -1.6674122102 1.2028728222
| 30> *
| 31>
| 32>                          ****END OF INPUT****

CARTESIAN COORDINATES (ANGSTROEM)
---------------------------------
  C     -2.483416   -0.477130   -0.228659
  C     -1.041942   -0.207618    0.213330
  H     -0.949020   -0.399354    1.294610
  C     -0.623810    1.257409   -0.054941
  H     -1.210942    1.666205   -0.884518
  C      0.866249    1.301855   -0.467507
  H      1.246552    2.306744   -0.254425
  C      1.663922    0.280950    0.366067
  H      2.704713    0.289838    0.024431
  C      1.107933   -1.141533    0.100700
  H      1.035079   -1.673824    1.073852
  O     -0.181363   -1.099355   -0.477189
  O      1.955043   -1.794691   -0.770014
  O      1.543595    0.641102    1.720599
  O      1.048043    1.106453   -1.842261
  O     -0.893796    2.077705    1.049937
  O     -2.993581   -1.698443    0.239431
  H     -2.510658   -0.541490   -1.317782
  H     -3.102085    0.365532    0.101923
  H      1.560352   -2.638210   -1.042453
  H      2.301738    0.318467    2.227090
  H      0.771465    0.206093   -2.073684
  H     -0.262029    1.863487    1.756243
  H     -3.081736   -1.667412    1.202873

 Total Charge           Charge          ....    0
 Multiplicity           Mult            ....    1
 Number of Electrons    NEL             ....   96
 Basis Dimension        Dim             ....  192

ORBITAL ENERGIES
----------------

  NO   OCC          E(Eh)            E(eV)
   0   2.0000     -18.782279      -511.0918
   1   2.0000     -18.776928      -510.9462
   2   2.0000     -18.774835      -510.8892
   3   2.0000     -18.745857      -510.1007
   4   2.0000     -18.743386      -510.0335
   5   2.0000     -18.742084      -509.9980
   6   2.0000      -9.994930      -271.9759
   7   2.0000      -9.950175      -270.7580
   8   2.0000      -9.942741      -270.5557
   9   2.0000      -9.939215      -270.4598
  10   2.0000      -9.935122      -270.3484
  11   2.0000      -9.933299      -270.2988
  12   2.0000      -0.994381       -27.0585
  13   2.0000      -0.955046       -25.9881
  14   2.0000      -0.935379       -25.4530
  15   2.0000      -0.924595       -25.1595
  16   2.0000      -0.916890       -24.9498
  17   2.0000      -0.916349       -24.9351
  18   2.0000      -0.696058       -18.9407
  19   2.0000      -0.693223       -18.8636
  20   2.0000      -0.621308       -16.9066
  21   2.0000      -0.586972       -15.9723
  22   2.0000      -0.568006       -15.4562
  23   2.0000      -0.528050       -14.3690
  24   2.0000      -0.516790       -14.0626
  25   2.0000      -0.488548       -13.2941
  26   2.0000      -0.482691       -13.1347
  27   2.0000      -0.472928       -12.8690
  28   2.0000      -0.453490       -12.3401
  29   2.0000      -0.427250       -11.6261
  30   2.0000      -0.412535       -11.2256
  31   2.0000      -0.396775       -10.7968
  32   2.0000      -0.390707       -10.6317
  33   2.0000      -0.371057       -10.0970
  34   2.0000      -0.360898        -9.8205
  35   2.0000      -0.349226        -9.5029
  36   2.0000      -0.336790        -9.1645
  37   2.0000      -0.318806        -8.6751
  38   2.0000      -0.314739        -8.5645
  39   2.0000      -0.287226        -7.8158
  40   2.0000      -0.278653        -7.5825
  41   2.0000      -0.276550        -7.5253
  42   2.0000      -0.258408        -7.0317
  43   2.0000      -0.254448        -6.9239
  44   2.0000      -0.248675        -6.7668
  45   2.0000      -0.221734        -6.0337
  46   2.0000      -0.213020        -5.7966
  47   2.0000      -0.193430        -5.2635
  48   0.0000       0.001395         0.0380
  49   0.0000       0.022334         0.6077
  50   0.0000       0.028034         0.7628
  51   0.0000       0.050883         1.3846
  52   0.0000       0.058884         1.6023

MULLIKEN ATOMIC CHARGES
-----------------------
   0 C :    0.068879
   1 C :    0.010008
   2 H :    0.034257
   3 C :    0.058476
   4 H :    0.070648
   5 C :    0.044915
   6 H :    0.077932
   7 C :    0.000581
   8 H :    0.090924
   9 C :    0.187420
  10 H :    0.042155
  11 O :   -0.312282
  12 O :   -0.379957
  13 O :   -0.423829
  14 O :   -0.415096
  15 O :   -0.430478
  16 O :   -0.430889
  17 H :    0.087622
  18 H :    0.092797
  19 H :    0.311295
  20 H :    0.317121
  21 H :    0.298484
  22 H :    0.304781
  23 H :    0.294237
Sum of atomic charges:    0.0000000

LOEWDIN ATOMIC CHARGES
----------------------
   0 C :   -0.127091
   1 C :   -0.079756
   2 H :    0.096340
   3 C :   -0.075297
   4 H :    0.117829
   5 C :   -0.070526
   6 H :    0.120101
   7 C :   -0.091472
   8 H :    0.119064
   9 C :   -0.006612
  10 H :    0.078747
  11 O :   -0.159287
  12 O :   -0.292784
  13 O :   -0.314555
  14 O :   -0.310421
  15 O :   -0.317705
  16 O :   -0.334101
  17 H :    0.119793
  18 H :    0.107073
  19 H :    0.293150
  20 H :    0.297308
  21 H :    0.272575
  22 H :    0.275302
  23 H :    0.282321

  Mayer bond orders larger than 0.100000
B(  0-C ,  1-C ) :   1.0333 B(  0-C , 16-O ) :   1.0834 B(  0-C , 17-H ) :   0.9049
B(  0-C , 18-H ) :   0.9227 B(  1-C ,  2-H ) :   0.8616 B(  1-C ,  3-C ) :   0.9567
B(  1-C , 11-O ) :   1.0035 B(  3-C ,  4-H ) :   0.8895 B(  3-C ,  5-C ) :   0.9751
B(  3-C , 15-O ) :   1.0366 B(  5-C ,  6-H ) :   0.8891 B(  5-C ,  7-C ) :   1.0057
B(  5-C , 14-O ) :   1.0659 B(  7-C ,  8-H ) :   0.8942 B(  7-C ,  9-C ) :   0.9258
B(  7-C , 13-O ) :   1.0425 B(  9-C , 10-H ) :   0.8989 B(  9-C , 11-O ) :   1.0170
B(  9-C , 12-O ) :   1.1623 B( 12-O , 19-H ) :   0.8367 B( 13-O , 20-H ) :   0.8408
B( 14-O , 21-H ) :   0.8315 B( 15-O , 22-H ) :   0.8266 B( 16-O , 23-H ) :   0.8541

Dispersion correction           -0.024716586
FINAL SINGLE POINT ENERGY      -685.691655754539

DIPOLE MOMENT
-------------

Method             : SCF
Type of density    : Electron Density
Multiplicity       :   1
Irrep              :   0
Energy             :  -685.8226544634793527 Eh
Relativity type    :
Basis              : AO
                                X                 Y                 Z
Electronic contribution:      2.004833144      -0.903446776      -0.831801588
Nuclear contribution   :     -1.396957103       0.078769539       1.976634143
                        -----------------------------------------
Total Dipole Moment    :      0.607876041      -0.824677237       1.144832555
                        -----------------------------------------
Magnitude (a.u.)       :      1.536309671
Magnitude (Debye)      :      3.904988849

Rotational constants in cm-1:             0.038034             0.026892             0.021627
Rotational constants in MHz :          1140.236550           806.204380           648.366860

                             ****ORCA TERMINATED NORMALLY****
TOTAL RUN TIME: 0 days 0 hours 0 minutes 12 seconds 281 msec
