                         Program Version 6.0.0  -   RELEASE  -
|  1> ! pbe def2-sv(p) def2/J RI DEFGRID1 loosescf d4 GCP(DFT/SV(P)) printgap
|  2> %output
|  3>     printlevel normal
|  4> end
|  5> * xyz 0 1
|  6> C -1.833188382 -0.9615629418 -0.8378291822
|  7> C -1.2806012637 -0.1746022699 0.3578009499
|  8> H -2.0980384014 -0.0590088129 1.0776354732
|  9> C -0.7781475438 1.231175936 -0.0636978306
| 10> H -0.9391303236 1.3857011882 -1.1358115297
| 11> C 0.7302420997 1.3508962541 0.1940166833
| 12> H 0.9149618458 1.4214521396 1.2788792001
| 13> C 1.4331134349 0.0894546198 -0.324293527
| 14> H 1.1773339434 -0.0520607412 -1.3834954929
| 15> C 0.9313368045 -1.1270407863 0.4757793443
| 16> H 1.6213193063 -1.3031840086 1.3177085272
| 17> O -0.3030499194 -0.8934532955 1.1002849479
| 18> O 0.9085938598 -2.2266256876 -0.3820869987
| 19> O 2.8160586895 0.283404407 -0.170025785
| 20> O 1.206513024 2.4992629586 -0.4541131888
| 21> O -1.5138484035 2.2518113874 0.5542619476
| 22> O -2.4528865951 -2.1324441774 -0.3569139634
| 23> H -1.0189030507 -1.2097083591 -1.5290642843
| 24> H -2.5599508292 -0.3166131341 -1.3466882742
| 25> H 0.5825778024 -3.0066112074 0.0925700248
| 26> H 3.3003302513 -0.4308899306 -0.6074263795
| 27> H 2.1764988458 2.4780378807 -0.4280926497
| 28> H -1.2964473869 2.2936563938 1.497151313
| 29> H -2.858652766 -2.6054361364 -1.0969568628
| 30> *
| 31>
| 32>                          ****END OF INPUT****

CARTESIAN COORDINATES (ANGSTROEM)
---------------------------------
  C     -1.833188   -0.961563   -0.837829
  C     -1.280601   -0.174602    0.357801
  H     -2.098038   -0.059009    1.077635
  C     -0.778148    1.231176   -0.063698
  H     -0.939130    1.385701   -1.135812
  C      0.730242    1.350896    0.194017
  H      0.914962    1.421452    1.278879
  C      1.433113    0.089455   -0.324294
  H      1.177334   -0.052061   -1.383495
  C      0.931337   -1.127041    0.475779
  H      1.621319   -1.303184    1.317709
  O     -0.303050   -0.893453    1.100285
  O      0.908594   -2.226626   -0.382087
  O      2.816059    0.283404   -0.170026
  O      1.206513    2.499263   -0.454113
  O     -1.513848    2.251811    0.554262
  O     -2.452887   -2.132444   -0.356914
  H     -1.018903   -1.209708   -1.529064
  H     -2.559951   -0.316613   -1.346688
  H      0.582578   -3.006611    0.092570
  H      3.300330   -0.430890   -0.607426
  H      2.176499    2.478038   -0.428093
  H     -1.296447    2.293656    1.497151
  H     -2.858653   -2.605436   -1.096957

 Total Charge           Charge          ....    0
 Multiplicity           Mult            ....    1
 Number of Electrons    NEL             ....   96
 Basis Dimension        Dim             ....  192

ORBITAL ENERGIES
----------------

  NO   OCC          E(Eh)            E(eV)
   0   2.0000     -18.767224      -510.6821
   1   2.0000     -18.764203      -510.5999
   2   2.0000     -18.763596      -510.5834
   3   2.0000     -18.748542      -510.1738
   4   2.0000     -18.743114      -510.0261
   5   2.0000     -18.741859      -509.9919
   6   2.0000      -9.983841      -271.6741
   7   2.0000      -9.944999      -270.6172
   8   2.0000      -9.941149      -270.5124
   9   2.0000      -9.940062      -270.4828
  10   2.0000      -9.939139      -270.4577
  11   2.0000      -9.930734      -270.2290
  12   2.0000      -0.979427       -26.6516
  13   2.0000      -0.946505       -25.7557
  14   2.0000      -0.931445       -25.3459
  15   2.0000      -0.922893       -25.1132
  16   2.0000      -0.910861       -24.7858
  17   2.0000      -0.908974       -24.7344
  18   2.0000      -0.703187       -19.1347
  19   2.0000      -0.691536       -18.8177
  20   2.0000      -0.620033       -16.8720
  21   2.0000      -0.584321       -15.9002
  22   2.0000      -0.561295       -15.2736
  23   2.0000      -0.524369       -14.2688
  24   2.0000      -0.506359       -13.7787
  25   2.0000      -0.490777       -13.3547
  26   2.0000      -0.463258       -12.6059
  27   2.0000      -0.456867       -12.4320
  28   2.0000      -0.442678       -12.0459
  29   2.0000      -0.426654       -11.6098
  30   2.0000      -0.414047       -11.2668
  31   2.0000      -0.399718       -10.8769
  32   2.0000      -0.391136       -10.6433
  33   2.0000      -0.376644       -10.2490
  34   2.0000      -0.357090        -9.7169
  35   2.0000      -0.345263        -9.3951
  36   2.0000      -0.330076        -8.9818
  37   2.0000      -0.309387        -8.4188
  38   2.0000      -0.300482        -8.1765
  39   2.0000      -0.296948        -8.0804
  40   2.0000      -0.280805        -7.6411
  41   2.0000      -0.261328        -7.1111
  42   2.0000      -0.248177        -6.7532
  43   2.0000      -0.239079        -6.5057
  44   2.0000      -0.230505        -6.2724
  45   2.0000      -0.218549        -5.9470
  46   2.0000      -0.218166        -5.9366
  47   2.0000      -0.199956        -5.4411
  48   0.0000       0.018205         0.4954
  49   0.0000       0.023607         0.6424
  50   0.0000       0.033974         0.9245
  51   0.0000       0.042694         1.1618
  52   0.0000       0.055415         1.5079

MULLIKEN ATOMIC CHARGES
-----------------------
   0 C :   -0.013334
   1 C :    0.058498
   2 H :    0.070141
   3 C :    0.076952
   4 H :    0.070298
   5 C :    0.065406
   6 H :    0.045037
   7 C :   -0.023891
   8 H :    0.069207
   9 C :    0.212146
  10 H :    0.056844
  11 O :   -0.305998
  12 O :   -0.401077
  13 O :   -0.419321
  14 O :   -0.408500
  15 O :   -0.411363
  16 O :   -0.433500
  17 H :    0.088991
  18 H :    0.083413
  19 H :    0.304859
  20 H :    0.312885
  21 H :    0.303630
  22 H :    0.298930
  23 H :    0.299747
Sum of atomic charges:    0.0000000

LOEWDIN ATOMIC CHARGES
----------------------
   0 C :   -0.145232
   1 C :   -0.063964
   2 H :    0.121401
   3 C :   -0.063265
   4 H :    0.119981
   5 C :   -0.070690
   6 H :    0.100304
   7 C :   -0.090892
   8 H :    0.108086
   9 C :   -0.011606
  10 H :    0.097201
  11 O :   -0.142797
  12 O :   -0.314918
  13 O :   -0.317201
  14 O :   -0.315331
  15 O :   -0.307002
  16 O :   -0.343644
  17 H :    0.100071
  18 H :    0.102783
  19 H :    0.287550
  20 H :    0.294919
  21 H :    0.283404
  22 H :    0.284234
  23 H :    0.286610

  Mayer bond orders larger than 0.100000
B(  0-C ,  1-C ) :   1.0485 B(  0-C , 16-O ) :   1.0906 B(  0-C , 17-H ) :   0.8937
B(  0-C , 18-H ) :   0.9117 B(  1-C ,  2-H ) :   0.8894 B(  1-C ,  3-C ) :   0.9451
B(  1-C , 11-O ) :   1.0247 B(  3-C ,  4-H ) :   0.8780 B(  3-C ,  5-C ) :   1.0179
B(  3-C , 15-O ) :   1.0490 B(  5-C ,  6-H ) :   0.8606 B(  5-C ,  7-C ) :   1.0110
B(  5-C , 14-O ) :   1.1107 B(  7-C ,  8-H ) :   0.8809 B(  7-C ,  9-C ) :   0.9814
B(  7-C , 13-O ) :   1.0677 B(  9-C , 10-H ) :   0.8854 B(  9-C , 11-O ) :   1.0718
B(  9-C , 12-O ) :   1.1133 B( 12-O , 19-H ) :   0.8362 B( 13-O , 20-H ) :   0.8435
B( 14-O , 21-H ) :   0.8331 B( 15-O , 22-H ) :   0.8494 B( 16-O , 23-H ) :   0.8519

Dispersion correction           -0.024532992
FINAL SINGLE POINT ENERGY      -685.689447414258

DIPOLE MOMENT
-------------

Method             : SCF
Type of density    : Electron Density
Multiplicity       :   1
Irrep              :   0
Energy             :  -685.8183724952083367 Eh
Relativity type    :
Basis              : AO
                                X                 Y                 Z
Electronic contribution:      1.416906259       0.251347244       1.828811726
Nuclear contribution   :     -0.926590292      -1.321044691      -2.119316328
                        -----------------------------------------
Total Dipole Moment    :      0.490315966      -1.069697446      -0.290504603
                        -----------------------------------------
Magnitude (a.u.)       :      1.212045914
Magnitude (Debye)      :      3.080775880

Rotational constants in cm-1:             0.039161             0.028416             0.018707
Rotational constants in MHz :          1174.026444           851.901099           560.820715

                             ****ORCA TERMINATED NORMALLY****
TOTAL RUN TIME: 0 days 0 hours 0 minutes 11 seconds 909 msec
