                         Program Version 6.0.0  -   RELEASE  -
|  1> ! pbe def2-sv(p) def2/J RI DEFGRID1 loosescf d4 GCP(DFT/SV(P)) printgap
|  2> %output
|  3>     printlevel normal
|  4> end
|  5> * xyz 0 1
|  6> C -3.297822579 0.3959942125 -0.5638115545
|  7> C -1.875397082 0.5001244983 -0.1169340046
|  8> C -1.108729803 1.5734442192 -0.2692403642
|  9> C 0.3147723095 1.5175704829 0.1856982038
| 10> C 0.9490981763 0.2484433085 -0.4057298229
| 11> H 0.8783395495 0.3477203057 -1.4949266601
| 12> C 0.144720516 -1.0020503443 0.0130052136
| 13> C -1.2467622731 -0.674312623 0.6004629788
| 14> H -1.1183867042 -0.3907305779 1.654552447
| 15> O -2.0593075889 -1.8273545301 0.6573332867
| 16> C 2.4083534691 0.0598087753 -0.0627270149
| 17> C 3.0016220753 0.5968853918 0.9910340605
| 18> C 3.1538434056 -0.8249788841 -1.0181720272
| 19> H -3.6918695856 1.3797766045 -0.8026288339
| 20> H -3.9025416148 -0.0570892794 0.2197612705
| 21> H -3.3756345177 -0.2296041357 -1.4529782638
| 22> H -1.4733018656 2.469454801 -0.7472790099
| 23> H 0.8714138572 2.3961689468 -0.1384142442
| 24> H 0.3489715259 1.4685929742 1.2770791597
| 25> H -0.00161431 -1.6500089238 -0.853479598
| 26> H 0.6989557853 -1.5726849617 0.7605192302
| 27> H -2.2079936744 -2.1507184937 -0.2420209623
| 28> H 4.0430635082 0.4157868488 1.1984368784
| 29> H 2.4906774888 1.2348938719 1.6894623433
| 30> H 3.1646984574 -0.3774040725 -2.0110947666
| 31> H 4.1791720987 -0.9750205702 -0.6922527511
| 32> H 2.6642875061 -1.7940748961 -1.0960147892
| 33> *
| 34>
| 35>                          ****END OF INPUT****

CARTESIAN COORDINATES (ANGSTROEM)
---------------------------------
  C     -3.297823    0.395994   -0.563812
  C     -1.875397    0.500124   -0.116934
  C     -1.108730    1.573444   -0.269240
  C      0.314772    1.517570    0.185698
  C      0.949098    0.248443   -0.405730
  H      0.878340    0.347720   -1.494927
  C      0.144721   -1.002050    0.013005
  C     -1.246762   -0.674313    0.600463
  H     -1.118387   -0.390731    1.654552
  O     -2.059308   -1.827355    0.657333
  C      2.408353    0.059809   -0.062727
  C      3.001622    0.596885    0.991034
  C      3.153843   -0.824979   -1.018172
  H     -3.691870    1.379777   -0.802629
  H     -3.902542   -0.057089    0.219761
  H     -3.375635   -0.229604   -1.452978
  H     -1.473302    2.469455   -0.747279
  H      0.871414    2.396169   -0.138414
  H      0.348972    1.468593    1.277079
  H     -0.001614   -1.650009   -0.853480
  H      0.698956   -1.572685    0.760519
  H     -2.207994   -2.150718   -0.242021
  H      4.043064    0.415787    1.198437
  H      2.490677    1.234894    1.689462
  H      3.164698   -0.377404   -2.011095
  H      4.179172   -0.975021   -0.692253
  H      2.664288   -1.794075   -1.096015

 Total Charge           Charge          ....    0
 Multiplicity           Mult            ....    1
 Number of Electrons    NEL             ....   84
 Basis Dimension        Dim             ....  186

ORBITAL ENERGIES
----------------

  NO   OCC          E(Eh)            E(eV)
   0   2.0000     -18.745470      -510.0902
   1   2.0000      -9.939837      -270.4767
   2   2.0000      -9.901110      -269.4229
   3   2.0000      -9.897780      -269.3323
   4   2.0000      -9.889415      -269.1047
   5   2.0000      -9.887739      -269.0590
   6   2.0000      -9.887027      -269.0397
   7   2.0000      -9.880424      -268.8600
   8   2.0000      -9.880219      -268.8544
   9   2.0000      -9.877334      -268.7759
  10   2.0000      -9.866861      -268.4909
  11   2.0000      -0.924818       -25.1656
  12   2.0000      -0.767075       -20.8732
  13   2.0000      -0.723067       -19.6756
  14   2.0000      -0.675600       -18.3840
  15   2.0000      -0.655903       -17.8480
  16   2.0000      -0.614566       -16.7232
  17   2.0000      -0.609916       -16.5966
  18   2.0000      -0.556836       -15.1523
  19   2.0000      -0.536028       -14.5861
  20   2.0000      -0.490472       -13.3464
  21   2.0000      -0.459646       -12.5076
  22   2.0000      -0.438118       -11.9218
  23   2.0000      -0.429426       -11.6853
  24   2.0000      -0.404719       -11.0130
  25   2.0000      -0.399881       -10.8813
  26   2.0000      -0.385086       -10.4787
  27   2.0000      -0.382425       -10.4063
  28   2.0000      -0.369667       -10.0592
  29   2.0000      -0.363101        -9.8805
  30   2.0000      -0.356661        -9.7052
  31   2.0000      -0.346855        -9.4384
  32   2.0000      -0.328762        -8.9461
  33   2.0000      -0.324453        -8.8288
  34   2.0000      -0.311446        -8.4749
  35   2.0000      -0.309125        -8.4117
  36   2.0000      -0.287734        -7.8296
  37   2.0000      -0.278537        -7.5794
  38   2.0000      -0.266497        -7.2518
  39   2.0000      -0.222775        -6.0620
  40   2.0000      -0.215589        -5.8665
  41   2.0000      -0.200870        -5.4659
  42   0.0000      -0.013524        -0.3680
  43   0.0000      -0.007408        -0.2016
  44   0.0000       0.022305         0.6069
  45   0.0000       0.038876         1.0579
  46   0.0000       0.052052         1.4164

MULLIKEN ATOMIC CHARGES
-----------------------
   0 C :   -0.221026
   1 C :   -0.081886
   2 C :   -0.211929
   3 C :   -0.011206
   4 C :   -0.168564
   5 H :    0.061086
   6 C :   -0.094264
   7 C :    0.095527
   8 H :    0.077527
   9 O :   -0.413755
  10 C :   -0.043398
  11 C :   -0.238367
  12 C :   -0.210821
  13 H :    0.100881
  14 H :    0.118306
  15 H :    0.099520
  16 H :    0.038943
  17 H :    0.084091
  18 H :    0.092260
  19 H :    0.061540
  20 H :    0.091648
  21 H :    0.294035
  22 H :    0.079142
  23 H :    0.088646
  24 H :    0.106686
  25 H :    0.096383
  26 H :    0.108994
Sum of atomic charges:    0.0000000

LOEWDIN ATOMIC CHARGES
----------------------
   0 C :   -0.328028
   1 C :   -0.084604
   2 C :   -0.155339
   3 C :   -0.212505
   4 C :   -0.127441
   5 H :    0.122343
   6 C :   -0.217788
   7 C :   -0.042397
   8 H :    0.125235
   9 O :   -0.313451
  10 C :   -0.050420
  11 C :   -0.273458
  12 C :   -0.321471
  13 H :    0.126352
  14 H :    0.131388
  15 H :    0.122961
  16 H :    0.115745
  17 H :    0.124160
  18 H :    0.126560
  19 H :    0.113522
  20 H :    0.126665
  21 H :    0.279786
  22 H :    0.117601
  23 H :    0.116663
  24 H :    0.128057
  25 H :    0.123303
  26 H :    0.126561

  Mayer bond orders larger than 0.100000
B(  0-C ,  1-C ) :   1.1398 B(  0-C , 13-H ) :   0.9388 B(  0-C , 14-H ) :   0.9283
B(  0-C , 15-H ) :   0.9282 B(  1-C ,  2-C ) :   1.8585 B(  1-C ,  7-C ) :   1.0155
B(  2-C ,  3-C ) :   1.0755 B(  2-C , 16-H ) :   0.9480 B(  3-C ,  4-C ) :   1.1470
B(  3-C , 17-H ) :   0.9117 B(  3-C , 18-H ) :   0.8506 B(  4-C ,  5-H ) :   0.8732
B(  4-C ,  6-C ) :   1.0456 B(  4-C , 10-C ) :   0.9881 B(  6-C ,  7-C ) :   1.1030
B(  6-C , 19-H ) :   0.9018 B(  6-C , 20-H ) :   0.8979 B(  7-C ,  8-H ) :   0.8509
B(  7-C ,  9-O ) :   1.0680 B(  9-O , 21-H ) :   0.8466 B( 10-C , 11-C ) :   2.0469
B( 10-C , 12-C ) :   1.1197 B( 11-C , 22-H ) :   0.8994 B( 11-C , 23-H ) :   0.9023
B( 12-C , 24-H ) :   0.9298 B( 12-C , 25-H ) :   0.9398 B( 12-C , 26-H ) :   0.9322

Dispersion correction           -0.028212802
FINAL SINGLE POINT ENERGY      -464.784192227737

DIPOLE MOMENT
-------------

Method             : SCF
Type of density    : Electron Density
Multiplicity       :   1
Irrep              :   0
Energy             :  -464.8745820005124187 Eh
Relativity type    :
Basis              : AO
                                X                 Y                 Z
Electronic contribution:     -3.274182971      -0.443556279       1.909492440
Nuclear contribution   :      3.317064043       0.456113166      -2.552646716
                        -----------------------------------------
Total Dipole Moment    :      0.042881072       0.012556887      -0.643154276
                        -----------------------------------------
Magnitude (a.u.)       :      0.644704494
Magnitude (Debye)      :      1.638708593

Rotational constants in cm-1:             0.069496             0.022282             0.019332
Rotational constants in MHz :          2083.448489           667.992476           579.573240

                             ****ORCA TERMINATED NORMALLY****
TOTAL RUN TIME: 0 days 0 hours 0 minutes 12 seconds 247 msec
