                         Program Version 6.0.0  -   RELEASE  -
|  1> ! pbe def2-sv(p) def2/J RI DEFGRID1 loosescf d4 GCP(DFT/SV(P)) printgap
|  2> %output
|  3>     printlevel normal
|  4> end
|  5> * xyz 0 1
|  6> C -2.5612751432 -0.6484531627 -0.3560721194
|  7> C -1.1841888781 -0.2943628226 0.2150783921
|  8> H -1.2548286173 -0.2368666668 1.3127247593
|  9> C -0.7038400651 1.0619790146 -0.3158041614
| 10> H -0.6848212343 1.0286808606 -1.4160999457
| 11> C 0.7233563659 1.3276124582 0.1789765609
| 12> H 0.6951451166 1.4415265201 1.2769206483
| 13> C 1.6395762332 0.1486244835 -0.1803962979
| 14> H 1.724294869 0.0704729002 -1.2696335562
| 15> C 1.0217013987 -1.1582475053 0.342499371
| 16> H 0.9783969939 -1.1136033323 1.4549560533
| 17> O -0.2877158279 -1.3292200544 -0.1515567026
| 18> O 1.7940884363 -2.21517979 -0.0857372772
| 19> O 2.9424932681 0.3691222701 0.2891242934
| 20> O 1.1759473732 2.5235352418 -0.4075198926
| 21> O -1.5931588584 2.0495732513 0.131865631
| 22> O -3.1333660159 -1.7675110749 0.2655675294
| 23> H -2.4598544831 -0.8072888872 -1.436064078
| 24> H -3.2330609997 0.1908166581 -0.1713337858
| 25> H 1.333905735 -3.053806956 0.075113004
| 26> H 2.9938234818 0.1985843539 1.2411764698
| 27> H 2.1417747893 2.5609285504 -0.329100988
| 28> H -1.237922351 2.9154502336 -0.1228001058
| 29> H -2.5687578521 -2.5360764723 0.1005019776
| 30> *
| 31>
| 32>                          ****END OF INPUT****

CARTESIAN COORDINATES (ANGSTROEM)
---------------------------------
  C     -2.561275   -0.648453   -0.356072
  C     -1.184189   -0.294363    0.215078
  H     -1.254829   -0.236867    1.312725
  C     -0.703840    1.061979   -0.315804
  H     -0.684821    1.028681   -1.416100
  C      0.723356    1.327612    0.178977
  H      0.695145    1.441527    1.276921
  C      1.639576    0.148624   -0.180396
  H      1.724295    0.070473   -1.269634
  C      1.021701   -1.158248    0.342499
  H      0.978397   -1.113603    1.454956
  O     -0.287716   -1.329220   -0.151557
  O      1.794088   -2.215180   -0.085737
  O      2.942493    0.369122    0.289124
  O      1.175947    2.523535   -0.407520
  O     -1.593159    2.049573    0.131866
  O     -3.133366   -1.767511    0.265568
  H     -2.459854   -0.807289   -1.436064
  H     -3.233061    0.190817   -0.171334
  H      1.333906   -3.053807    0.075113
  H      2.993823    0.198584    1.241176
  H      2.141775    2.560929   -0.329101
  H     -1.237922    2.915450   -0.122800
  H     -2.568758   -2.536076    0.100502

 Total Charge           Charge          ....    0
 Multiplicity           Mult            ....    1
 Number of Electrons    NEL             ....   96
 Basis Dimension        Dim             ....  192

ORBITAL ENERGIES
----------------

  NO   OCC          E(Eh)            E(eV)
   0   2.0000     -18.783638      -511.1288
   1   2.0000     -18.769429      -510.7421
   2   2.0000     -18.768092      -510.7057
   3   2.0000     -18.757968      -510.4303
   4   2.0000     -18.754831      -510.3449
   5   2.0000     -18.744123      -510.0535
   6   2.0000      -9.999068      -272.0885
   7   2.0000      -9.948379      -270.7092
   8   2.0000      -9.945756      -270.6378
   9   2.0000      -9.945335      -270.6263
  10   2.0000      -9.945265      -270.6244
  11   2.0000      -9.928353      -270.1642
  12   2.0000      -0.993827       -27.0434
  13   2.0000      -0.953084       -25.9347
  14   2.0000      -0.942167       -25.6377
  15   2.0000      -0.928162       -25.2566
  16   2.0000      -0.920319       -25.0431
  17   2.0000      -0.915614       -24.9151
  18   2.0000      -0.709025       -19.2936
  19   2.0000      -0.696777       -18.9603
  20   2.0000      -0.621120       -16.9015
  21   2.0000      -0.585530       -15.9331
  22   2.0000      -0.566098       -15.4043
  23   2.0000      -0.540472       -14.7070
  24   2.0000      -0.515980       -14.0405
  25   2.0000      -0.493646       -13.4328
  26   2.0000      -0.469358       -12.7719
  27   2.0000      -0.466960       -12.7066
  28   2.0000      -0.454373       -12.3641
  29   2.0000      -0.440385       -11.9835
  30   2.0000      -0.425883       -11.5889
  31   2.0000      -0.402316       -10.9476
  32   2.0000      -0.394143       -10.7252
  33   2.0000      -0.367682       -10.0051
  34   2.0000      -0.361417        -9.8347
  35   2.0000      -0.358600        -9.7580
  36   2.0000      -0.331013        -9.0073
  37   2.0000      -0.317646        -8.6436
  38   2.0000      -0.309929        -8.4336
  39   2.0000      -0.297822        -8.1042
  40   2.0000      -0.291288        -7.9264
  41   2.0000      -0.273631        -7.4459
  42   2.0000      -0.258913        -7.0454
  43   2.0000      -0.253134        -6.8881
  44   2.0000      -0.239051        -6.5049
  45   2.0000      -0.222054        -6.0424
  46   2.0000      -0.214968        -5.8496
  47   2.0000      -0.211362        -5.7514
  48   0.0000       0.008477         0.2307
  49   0.0000       0.017673         0.4809
  50   0.0000       0.033756         0.9185
  51   0.0000       0.044625         1.2143
  52   0.0000       0.050118         1.3638

MULLIKEN ATOMIC CHARGES
-----------------------
   0 C :    0.092609
   1 C :   -0.014024
   2 H :    0.058904
   3 C :    0.064908
   4 H :    0.055627
   5 C :    0.070027
   6 H :    0.036305
   7 C :    0.033351
   8 H :    0.077271
   9 C :    0.178595
  10 H :    0.021066
  11 O :   -0.323294
  12 O :   -0.364881
  13 O :   -0.410358
  14 O :   -0.424327
  15 O :   -0.416606
  16 O :   -0.431361
  17 H :    0.067856
  18 H :    0.103313
  19 H :    0.306879
  20 H :    0.302480
  21 H :    0.307592
  22 H :    0.313972
  23 H :    0.294099
Sum of atomic charges:    0.0000000

LOEWDIN ATOMIC CHARGES
----------------------
   0 C :   -0.125127
   1 C :   -0.069838
   2 H :    0.107129
   3 C :   -0.067167
   4 H :    0.105611
   5 C :   -0.085522
   6 H :    0.095163
   7 C :   -0.091911
   8 H :    0.125967
   9 C :   -0.002279
  10 H :    0.071886
  11 O :   -0.158145
  12 O :   -0.289779
  13 O :   -0.304189
  14 O :   -0.327905
  15 O :   -0.315348
  16 O :   -0.333745
  17 H :    0.101258
  18 H :    0.126067
  19 H :    0.290663
  20 H :    0.287660
  21 H :    0.286728
  22 H :    0.292696
  23 H :    0.280123

  Mayer bond orders larger than 0.100000
B(  0-C ,  1-C ) :   1.0573 B(  0-C , 16-O ) :   1.0815 B(  0-C , 17-H ) :   0.9070
B(  0-C , 18-H ) :   0.9111 B(  1-C ,  2-H ) :   0.8672 B(  1-C ,  3-C ) :   1.0037
B(  1-C , 11-O ) :   0.9760 B(  3-C ,  4-H ) :   0.8689 B(  3-C ,  5-C ) :   1.0128
B(  3-C , 15-O ) :   1.0634 B(  5-C ,  6-H ) :   0.8673 B(  5-C ,  7-C ) :   0.9938
B(  5-C , 14-O ) :   1.0911 B(  7-C ,  8-H ) :   0.8586 B(  7-C ,  9-C ) :   0.9883
B(  7-C , 13-O ) :   1.0306 B(  9-C , 10-H ) :   0.8775 B(  9-C , 11-O ) :   1.0098
B(  9-C , 12-O ) :   1.2001 B( 12-O , 19-H ) :   0.8386 B( 13-O , 20-H ) :   0.8443
B( 14-O , 21-H ) :   0.8285 B( 15-O , 22-H ) :   0.8360 B( 16-O , 23-H ) :   0.8507

Dispersion correction           -0.023600337
FINAL SINGLE POINT ENERGY      -685.700198239711

DIPOLE MOMENT
-------------

Method             : SCF
Type of density    : Electron Density
Multiplicity       :   1
Irrep              :   0
Energy             :  -685.8298360255694206 Eh
Relativity type    :
Basis              : AO
                                X                 Y                 Z
Electronic contribution:      2.149431957      -0.832100856      -0.247413768
Nuclear contribution   :     -1.461406194       0.612606514       0.672686380
                        -----------------------------------------
Total Dipole Moment    :      0.688025763      -0.219494342       0.425272613
                        -----------------------------------------
Magnitude (a.u.)       :      0.838101433
Magnitude (Debye)      :      2.130284547

Rotational constants in cm-1:             0.039614             0.025767             0.016318
Rotational constants in MHz :          1187.608791           772.474069           489.187776

                             ****ORCA TERMINATED NORMALLY****
TOTAL RUN TIME: 0 days 0 hours 0 minutes 11 seconds 976 msec
