                         Program Version 6.0.0  -   RELEASE  -
|  1> ! r2scan-3c def2/J RI DEFGRID2 scfconv6 printgap
|  2> %output
|  3>     printlevel normal
|  4> end
|  5> * xyz 0 1
|  6> C 1.8114235458 -0.0407103261 1.0030517178
|  7> C 0.9750292212 -0.343569065 -0.2370073092
|  8> H 1.0460245621 -1.4083094773 -0.5098732306
|  9> C -0.5024347133 -0.091776973 0.0627204268
| 10> F -1.2938539525 -0.3403577413 -0.9939096968
| 11> F -0.9556847989 -0.8811730326 1.0557801142
| 12> F -0.7584017578 1.1679684983 0.4410641258
| 13> O 1.271335149 0.4783493074 -1.3354614996
| 14> H 2.8508808929 -0.2884364718 0.8134541872
| 15> H 1.4561091986 -0.631614843 1.8422165676
| 16> H 1.7322239197 1.0154297709 1.2495118739
| 17> H 2.2136443245 0.4022432703 -1.5523831048
| 18> *
| 19>
| 20>                          ****END OF INPUT****

CARTESIAN COORDINATES (ANGSTROEM)
---------------------------------
  C      1.811424   -0.040710    1.003052
  C      0.975029   -0.343569   -0.237007
  H      1.046025   -1.408309   -0.509873
  C     -0.502435   -0.091777    0.062720
  F     -1.293854   -0.340358   -0.993910
  F     -0.955685   -0.881173    1.055780
  F     -0.758402    1.167968    0.441064
  O      1.271335    0.478349   -1.335461
  H      2.850881   -0.288436    0.813454
  H      1.456109   -0.631615    1.842217
  H      1.732224    1.015430    1.249512
  H      2.213644    0.402243   -1.552383

 Total Charge           Charge          ....    0
 Multiplicity           Mult            ....    1
 Number of Electrons    NEL             ....   58
 Basis Dimension        Dim             ....  178

ORBITAL ENERGIES
----------------

  NO   OCC          E(Eh)            E(eV)
   0   2.0000     -24.515773      -667.1081
   1   2.0000     -24.513307      -667.0410
   2   2.0000     -24.509725      -666.9435
   3   2.0000     -18.976839      -516.3860
   4   2.0000     -10.275612      -279.6136
   5   2.0000     -10.122037      -275.4346
   6   2.0000     -10.045713      -273.3577
   7   2.0000      -1.272012       -34.6132
   8   2.0000      -1.182551       -32.1789
   9   2.0000      -1.179248       -32.0890
  10   2.0000      -1.018817       -27.7234
  11   2.0000      -0.765983       -20.8435
  12   2.0000      -0.678893       -18.4736
  13   2.0000      -0.613856       -16.7039
  14   2.0000      -0.558212       -15.1897
  15   2.0000      -0.550394       -14.9770
  16   2.0000      -0.513461       -13.9720
  17   2.0000      -0.497263       -13.5312
  18   2.0000      -0.438224       -11.9247
  19   2.0000      -0.423687       -11.5291
  20   2.0000      -0.419094       -11.4041
  21   2.0000      -0.406054       -11.0493
  22   2.0000      -0.381833       -10.3902
  23   2.0000      -0.378038       -10.2869
  24   2.0000      -0.372638       -10.1400
  25   2.0000      -0.361715        -9.8428
  26   2.0000      -0.354698        -9.6518
  27   2.0000      -0.319603        -8.6968
  28   2.0000      -0.266844        -7.2612
  29   0.0000       0.033728         0.9178
  30   0.0000       0.079980         2.1764
  31   0.0000       0.103218         2.8087
  32   0.0000       0.117370         3.1938
  33   0.0000       0.129537         3.5249

MULLIKEN ATOMIC CHARGES
-----------------------
   0 C :   -0.497285
   1 C :    0.034855
   2 H :    0.149214
   3 C :    0.543350
   4 F :   -0.201635
   5 F :   -0.218684
   6 F :   -0.207893
   7 O :   -0.401972
   8 H :    0.148496
   9 H :    0.170123
  10 H :    0.179357
  11 H :    0.302074
Sum of atomic charges:   -0.0000000

LOEWDIN ATOMIC CHARGES
----------------------
   0 C :   -0.383213
   1 C :    0.075103
   2 H :    0.182699
   3 C :    0.522988
   4 F :   -0.195850
   5 F :   -0.217439
   6 F :   -0.197404
   7 O :   -0.570093
   8 H :    0.157465
   9 H :    0.172731
  10 H :    0.173260
  11 H :    0.279753

  Mayer bond orders larger than 0.100000
B(  0-C ,  1-C ) :   0.9172 B(  0-C ,  8-H ) :   0.9650 B(  0-C ,  9-H ) :   0.9590
B(  0-C , 10-H ) :   0.9722 B(  1-C ,  2-H ) :   0.9257 B(  1-C ,  3-C ) :   1.0031
B(  1-C ,  7-O ) :   0.9231 B(  3-C ,  4-F ) :   1.0353 B(  3-C ,  5-F ) :   1.0008
B(  3-C ,  6-F ) :   1.0348 B(  7-O , 11-H ) :   0.8935

Dispersion correction           -0.002547964
FINAL SINGLE POINT ENERGY      -492.054033806031

DIPOLE MOMENT
-------------

Method             : SCF
Type of density    : Electron Density
Multiplicity       :   1
Irrep              :   0
Energy             :  -492.0633867304107980 Eh
Relativity type    :
Basis              : AO
                                X                 Y                 Z
Electronic contribution:    -10.189943108       0.405282792      -1.093088546
Nuclear contribution   :     11.529721997      -0.797678123       1.243242358
                        -----------------------------------------
Total Dipole Moment    :      1.339778888      -0.392395331       0.150153812
                        -----------------------------------------
Magnitude (a.u.)       :      1.404111011
Magnitude (Debye)      :      3.568966561

Rotational constants in cm-1:             0.118027             0.080521             0.065750
Rotational constants in MHz :          3538.352944          2413.964576          1971.131987

                             ****ORCA TERMINATED NORMALLY****
TOTAL RUN TIME: 0 days 0 hours 0 minutes 18 seconds 388 msec
