                         Program Version 6.0.0  -   RELEASE  -
|  1> ! r2scan-3c def2/J RI DEFGRID2 scfconv6 printgap
|  2> %output
|  3>     printlevel normal
|  4> end
|  5> %cpcm
|  6>     smd true
|  7>     smdsolvent "water"
|  8> end
|  9> * xyz 0 1
| 10> C 1.8114235458 -0.0407103261 1.0030517178
| 11> C 0.9750292212 -0.343569065 -0.2370073092
| 12> H 1.0460245621 -1.4083094773 -0.5098732306
| 13> C -0.5024347133 -0.091776973 0.0627204268
| 14> F -1.2938539525 -0.3403577413 -0.9939096968
| 15> F -0.9556847989 -0.8811730326 1.0557801142
| 16> F -0.7584017578 1.1679684983 0.4410641258
| 17> O 1.271335149 0.4783493074 -1.3354614996
| 18> H 2.8508808929 -0.2884364718 0.8134541872
| 19> H 1.4561091986 -0.631614843 1.8422165676
| 20> H 1.7322239197 1.0154297709 1.2495118739
| 21> H 2.2136443245 0.4022432703 -1.5523831048
| 22> *
| 23>
| 24>                          ****END OF INPUT****

CARTESIAN COORDINATES (ANGSTROEM)
---------------------------------
  C      1.811424   -0.040710    1.003052
  C      0.975029   -0.343569   -0.237007
  H      1.046025   -1.408309   -0.509873
  C     -0.502435   -0.091777    0.062720
  F     -1.293854   -0.340358   -0.993910
  F     -0.955685   -0.881173    1.055780
  F     -0.758402    1.167968    0.441064
  O      1.271335    0.478349   -1.335461
  H      2.850881   -0.288436    0.813454
  H      1.456109   -0.631615    1.842217
  H      1.732224    1.015430    1.249512
  H      2.213644    0.402243   -1.552383

 Total Charge           Charge          ....    0
 Multiplicity           Mult            ....    1
 Number of Electrons    NEL             ....   58
 Basis Dimension        Dim             ....  178

ORBITAL ENERGIES
----------------

  NO   OCC          E(Eh)            E(eV)
   0   2.0000     -24.520652      -667.2409
   1   2.0000     -24.519589      -667.2119
   2   2.0000     -24.518579      -667.1844
   3   2.0000     -18.966358      -516.1008
   4   2.0000     -10.278446      -279.6907
   5   2.0000     -10.109374      -275.0901
   6   2.0000     -10.024884      -272.7910
   7   2.0000      -1.279161       -34.8078
   8   2.0000      -1.189504       -32.3681
   9   2.0000      -1.187419       -32.3113
  10   2.0000      -1.008316       -27.4377
  11   2.0000      -0.754844       -20.5404
  12   2.0000      -0.672219       -18.2920
  13   2.0000      -0.610466       -16.6116
  14   2.0000      -0.562582       -15.3086
  15   2.0000      -0.557290       -15.1646
  16   2.0000      -0.508808       -13.8454
  17   2.0000      -0.485045       -13.1988
  18   2.0000      -0.436669       -11.8824
  19   2.0000      -0.431847       -11.7511
  20   2.0000      -0.416466       -11.3326
  21   2.0000      -0.397852       -10.8261
  22   2.0000      -0.386716       -10.5231
  23   2.0000      -0.381885       -10.3916
  24   2.0000      -0.370930       -10.0935
  25   2.0000      -0.356017        -9.6877
  26   2.0000      -0.344922        -9.3858
  27   2.0000      -0.312599        -8.5062
  28   2.0000      -0.258674        -7.0389
  29   0.0000       0.056134         1.5275
  30   0.0000       0.092022         2.5041
  31   0.0000       0.111106         3.0234
  32   0.0000       0.136748         3.7211
  33   0.0000       0.141019         3.8373

MULLIKEN ATOMIC CHARGES
-----------------------
   0 C :   -0.527920
   1 C :    0.044214
   2 H :    0.183354
   3 C :    0.530486
   4 F :   -0.213741
   5 F :   -0.222508
   6 F :   -0.216757
   7 O :   -0.475647
   8 H :    0.181375
   9 H :    0.180329
  10 H :    0.178796
  11 H :    0.358018
Sum of atomic charges:   -0.0000000

LOEWDIN ATOMIC CHARGES
----------------------
   0 C :   -0.382584
   1 C :    0.081209
   2 H :    0.196989
   3 C :    0.517476
   4 F :   -0.207857
   5 F :   -0.219907
   6 F :   -0.207234
   7 O :   -0.597975
   8 H :    0.170867
   9 H :    0.175870
  10 H :    0.172038
  11 H :    0.301109

  Mayer bond orders larger than 0.100000
B(  0-C ,  1-C ) :   0.9194 B(  0-C ,  8-H ) :   0.9571 B(  0-C ,  9-H ) :   0.9568
B(  0-C , 10-H ) :   0.9673 B(  1-C ,  2-H ) :   0.9134 B(  1-C ,  3-C ) :   1.0022
B(  1-C ,  7-O ) :   0.9178 B(  3-C ,  4-F ) :   1.0235 B(  3-C ,  5-F ) :   1.0072
B(  3-C ,  6-F ) :   1.0278 B(  7-O , 11-H ) :   0.8653

Dispersion correction           -0.002547964
FINAL SINGLE POINT ENERGY      -492.062052329959

DIPOLE MOMENT
-------------

Method             : SCF
Type of density    : Electron Density
Multiplicity       :   1
Irrep              :   0
Energy             :  -492.0714052543393677 Eh
Relativity type    :
Basis              : AO
                                X                 Y                 Z
Electronic contribution:     -9.796864629       0.200246408      -1.020355301
Nuclear contribution   :     11.529721997      -0.797678123       1.243242358
                        -----------------------------------------
Total Dipole Moment    :      1.732857368      -0.597431715       0.222887058
                        -----------------------------------------
Magnitude (a.u.)       :      1.846455510
Magnitude (Debye)      :      4.693316923

Rotational constants in cm-1:             0.118027             0.080521             0.065750
Rotational constants in MHz :          3538.352944          2413.964576          1971.131987

                             ****ORCA TERMINATED NORMALLY****
TOTAL RUN TIME: 0 days 0 hours 0 minutes 23 seconds 694 msec
