                         Program Version 6.0.0  -   RELEASE  -
|  1> ! pbe def2-sv(p) def2/J RI DEFGRID1 loosescf d4 GCP(DFT/SV(P)) printgap
|  2> %output
|  3>     printlevel normal
|  4> end
|  5> * xyz 0 1
|  6> C -2.5495990806 -0.9001539235 0.3282754909
|  7> C -1.1204889327 -0.4320431694 0.6455512509
|  8> H -0.986145873 -0.3648780201 1.7377564056
|  9> C -0.8308160509 0.938274537 0.0134970281
| 10> H -1.0647662252 0.8896365719 -1.0555638069
| 11> C 0.6506736837 1.2926486681 0.1961849502
| 12> H 0.851229588 1.4456750416 1.2722602228
| 13> C 1.5627178858 0.1595872344 -0.2899281228
| 14> H 1.4858404805 0.0747271415 -1.3829230003
| 15> C 1.1230172148 -1.1778820459 0.3215217719
| 16> H 1.3379838742 -1.1427460661 1.4099854236
| 17> O -0.2518202386 -1.4205304372 0.1225329736
| 18> O 1.8165207377 -2.191030283 -0.3000267119
| 19> O 2.8903024013 0.3829648986 0.1039370197
| 20> O 0.9954209827 2.4565563566 -0.5166023713
| 21> O -1.6495709158 1.9539790839 0.534249382
| 22> O -2.7358626685 -1.1227695907 -1.0434751836
| 23> H -3.2553539707 -0.1177212828 0.6117470184
| 24> H -2.7587902082 -1.8119816236 0.9006818974
| 25> H 1.511627985 -3.051829456 0.0293980622
| 26> H 3.1854820085 1.2204651191 -0.2856670637
| 27> H 0.2770260408 3.1014963296 -0.4245140633
| 28> H -1.5366876134 2.0111553734 1.4951955696
| 29> H -2.0759736973 -1.7683808139 -1.3369268832
| 30> *
| 31>
| 32>                          ****END OF INPUT****

CARTESIAN COORDINATES (ANGSTROEM)
---------------------------------
  C     -2.549599   -0.900154    0.328275
  C     -1.120489   -0.432043    0.645551
  H     -0.986146   -0.364878    1.737756
  C     -0.830816    0.938275    0.013497
  H     -1.064766    0.889637   -1.055564
  C      0.650674    1.292649    0.196185
  H      0.851230    1.445675    1.272260
  C      1.562718    0.159587   -0.289928
  H      1.485840    0.074727   -1.382923
  C      1.123017   -1.177882    0.321522
  H      1.337984   -1.142746    1.409985
  O     -0.251820   -1.420530    0.122533
  O      1.816521   -2.191030   -0.300027
  O      2.890302    0.382965    0.103937
  O      0.995421    2.456556   -0.516602
  O     -1.649571    1.953979    0.534249
  O     -2.735863   -1.122770   -1.043475
  H     -3.255354   -0.117721    0.611747
  H     -2.758790   -1.811982    0.900682
  H      1.511628   -3.051829    0.029398
  H      3.185482    1.220465   -0.285667
  H      0.277026    3.101496   -0.424514
  H     -1.536688    2.011155    1.495196
  H     -2.075974   -1.768381   -1.336927

 Total Charge           Charge          ....    0
 Multiplicity           Mult            ....    1
 Number of Electrons    NEL             ....   96
 Basis Dimension        Dim             ....  192

ORBITAL ENERGIES
----------------

  NO   OCC          E(Eh)            E(eV)
   0   2.0000     -18.782856      -511.1075
   1   2.0000     -18.772301      -510.8203
   2   2.0000     -18.762104      -510.5428
   3   2.0000     -18.755820      -510.3718
   4   2.0000     -18.749484      -510.1994
   5   2.0000     -18.746985      -510.1314
   6   2.0000      -9.992074      -271.8981
   7   2.0000      -9.953289      -270.8428
   8   2.0000      -9.947023      -270.6722
   9   2.0000      -9.944339      -270.5992
  10   2.0000      -9.940828      -270.5037
  11   2.0000      -9.936165      -270.3768
  12   2.0000      -0.990875       -26.9631
  13   2.0000      -0.955713       -26.0063
  14   2.0000      -0.938106       -25.5271
  15   2.0000      -0.929545       -25.2942
  16   2.0000      -0.917835       -24.9756
  17   2.0000      -0.913382       -24.8544
  18   2.0000      -0.706557       -19.2264
  19   2.0000      -0.695574       -18.9275
  20   2.0000      -0.624241       -16.9865
  21   2.0000      -0.588990       -16.0272
  22   2.0000      -0.565593       -15.3906
  23   2.0000      -0.535837       -14.5809
  24   2.0000      -0.500383       -13.6161
  25   2.0000      -0.494923       -13.4675
  26   2.0000      -0.484284       -13.1780
  27   2.0000      -0.463346       -12.6083
  28   2.0000      -0.453422       -12.3382
  29   2.0000      -0.436377       -11.8744
  30   2.0000      -0.427094       -11.6218
  31   2.0000      -0.399745       -10.8776
  32   2.0000      -0.384330       -10.4581
  33   2.0000      -0.382356       -10.4044
  34   2.0000      -0.370688       -10.0869
  35   2.0000      -0.353637        -9.6229
  36   2.0000      -0.324204        -8.8220
  37   2.0000      -0.316679        -8.6173
  38   2.0000      -0.303168        -8.2496
  39   2.0000      -0.302786        -8.2392
  40   2.0000      -0.286514        -7.7964
  41   2.0000      -0.277089        -7.5400
  42   2.0000      -0.259486        -7.0610
  43   2.0000      -0.248184        -6.7534
  44   2.0000      -0.235969        -6.4210
  45   2.0000      -0.224058        -6.0969
  46   2.0000      -0.214606        -5.8397
  47   2.0000      -0.211425        -5.7532
  48   0.0000       0.006413         0.1745
  49   0.0000       0.023469         0.6386
  50   0.0000       0.029594         0.8053
  51   0.0000       0.043802         1.1919
  52   0.0000       0.057383         1.5615

MULLIKEN ATOMIC CHARGES
-----------------------
   0 C :    0.115546
   1 C :   -0.036259
   2 H :    0.036188
   3 C :    0.044899
   4 H :    0.072095
   5 C :    0.071743
   6 H :    0.031876
   7 C :    0.057395
   8 H :    0.065263
   9 C :    0.196270
  10 H :    0.040018
  11 O :   -0.325692
  12 O :   -0.365520
  13 O :   -0.412680
  14 O :   -0.422818
  15 O :   -0.415270
  16 O :   -0.437522
  17 H :    0.083070
  18 H :    0.078649
  19 H :    0.305225
  20 H :    0.310402
  21 H :    0.306127
  22 H :    0.299517
  23 H :    0.301477
Sum of atomic charges:   -0.0000000

LOEWDIN ATOMIC CHARGES
----------------------
   0 C :   -0.121628
   1 C :   -0.082401
   2 H :    0.095869
   3 C :   -0.085841
   4 H :    0.123421
   5 C :   -0.085222
   6 H :    0.092686
   7 C :   -0.075793
   8 H :    0.113047
   9 C :    0.009296
  10 H :    0.082435
  11 O :   -0.158822
  12 O :   -0.283597
  13 O :   -0.313862
  14 O :   -0.327749
  15 O :   -0.304129
  16 O :   -0.329066
  17 H :    0.118733
  18 H :    0.099862
  19 H :    0.289688
  20 H :    0.291475
  21 H :    0.285671
  22 H :    0.284327
  23 H :    0.281600

  Mayer bond orders larger than 0.100000
B(  0-C ,  1-C ) :   1.0343 B(  0-C , 16-O ) :   1.0731 B(  0-C , 17-H ) :   0.9123
B(  0-C , 18-H ) :   0.9169 B(  1-C ,  2-H ) :   0.8685 B(  1-C ,  3-C ) :   0.9907
B(  1-C , 11-O ) :   0.9866 B(  3-C ,  4-H ) :   0.8547 B(  3-C ,  5-C ) :   1.0098
B(  3-C , 15-O ) :   1.0021 B(  5-C ,  6-H ) :   0.8640 B(  5-C ,  7-C ) :   1.0090
B(  5-C , 14-O ) :   1.0926 B(  7-C ,  8-H ) :   0.8672 B(  7-C ,  9-C ) :   0.9937
B(  7-C , 13-O ) :   1.0797 B(  9-C , 10-H ) :   0.8870 B(  9-C , 11-O ) :   0.9930
B(  9-C , 12-O ) :   1.2046 B( 12-O , 19-H ) :   0.8411 B( 13-O , 20-H ) :   0.8406
B( 14-O , 21-H ) :   0.8309 B( 15-O , 22-H ) :   0.8444 B( 16-O , 23-H ) :   0.8384

Dispersion correction           -0.023920921
FINAL SINGLE POINT ENERGY      -685.700592832422

DIPOLE MOMENT
-------------

Method             : SCF
Type of density    : Electron Density
Multiplicity       :   1
Irrep              :   0
Energy             :  -685.8303096755365686 Eh
Relativity type    :
Basis              : AO
                                X                 Y                 Z
Electronic contribution:      2.592038424      -0.472426971      -1.755486213
Nuclear contribution   :     -2.825496817       0.456469165       2.771419801
                        -----------------------------------------
Total Dipole Moment    :     -0.233458393      -0.015957806       1.015933588
                        -----------------------------------------
Magnitude (a.u.)       :      1.042534665
Magnitude (Debye)      :      2.649912527

Rotational constants in cm-1:             0.038865             0.027333             0.017796
Rotational constants in MHz :          1165.144476           819.417413           533.520575

                             ****ORCA TERMINATED NORMALLY****
TOTAL RUN TIME: 0 days 0 hours 0 minutes 12 seconds 65 msec
