                         Program Version 6.0.0  -   RELEASE  -
|  1> ! pbe def2-sv(p) def2/J RI DEFGRID1 loosescf d4 GCP(DFT/SV(P)) printgap
|  2> %output
|  3>     printlevel normal
|  4> end
|  5> * xyz 0 1
|  6> C -2.5598549622 -0.6718782037 -0.3374931704
|  7> C -1.1713034527 -0.3138480506 0.2075471258
|  8> H -1.2093830051 -0.2404164651 1.3065761487
|  9> C -0.6928363874 1.0357620769 -0.3450323964
| 10> H -0.6890119202 0.977867654 -1.4464769233
| 11> C 0.7395851977 1.3251334944 0.143473924
| 12> H 0.7285875792 1.4554759325 1.2322124911
| 13> C 1.6553216496 0.1476655151 -0.198831579
| 14> H 1.73658913 0.0499419613 -1.2938048086
| 15> C 1.0283274274 -1.15757364 0.3291465253
| 16> H 1.0000641515 -1.1090447126 1.4394516781
| 17> O -0.2741455684 -1.3413529428 -0.1653441159
| 18> O 1.8127314976 -2.2090469055 -0.1038923985
| 19> O 2.9152166322 0.366437266 0.3759193356
| 20> O 1.1900640894 2.553276707 -0.3674619315
| 21> O -1.5764959202 2.0384046894 0.0828707373
| 22> O -3.1725817127 -1.7317478234 0.3466433731
| 23> H -2.4488337401 -1.0077333653 -1.370034688
| 24> H -3.1758149116 0.2336227355 -0.3082182838
| 25> H 1.3218528975 -3.0402387402 -0.0094908432
| 26> H 3.4716425466 -0.4111793287 0.2168562173
| 27> H 1.4991873273 2.4443231498 -1.2784714881
| 28> H -1.1341441796 2.8969102878 -0.0216428717
| 29> H -3.3786927347 -1.4586594277 1.2520920585
| 30> *
| 31>
| 32>                          ****END OF INPUT****

CARTESIAN COORDINATES (ANGSTROEM)
---------------------------------
  C     -2.559855   -0.671878   -0.337493
  C     -1.171303   -0.313848    0.207547
  H     -1.209383   -0.240416    1.306576
  C     -0.692836    1.035762   -0.345032
  H     -0.689012    0.977868   -1.446477
  C      0.739585    1.325133    0.143474
  H      0.728588    1.455476    1.232212
  C      1.655322    0.147666   -0.198832
  H      1.736589    0.049942   -1.293805
  C      1.028327   -1.157574    0.329147
  H      1.000064   -1.109045    1.439452
  O     -0.274146   -1.341353   -0.165344
  O      1.812731   -2.209047   -0.103892
  O      2.915217    0.366437    0.375919
  O      1.190064    2.553277   -0.367462
  O     -1.576496    2.038405    0.082871
  O     -3.172582   -1.731748    0.346643
  H     -2.448834   -1.007733   -1.370035
  H     -3.175815    0.233623   -0.308218
  H      1.321853   -3.040239   -0.009491
  H      3.471643   -0.411179    0.216856
  H      1.499187    2.444323   -1.278471
  H     -1.134144    2.896910   -0.021643
  H     -3.378693   -1.458659    1.252092

 Total Charge           Charge          ....    0
 Multiplicity           Mult            ....    1
 Number of Electrons    NEL             ....   96
 Basis Dimension        Dim             ....  192

ORBITAL ENERGIES
----------------

  NO   OCC          E(Eh)            E(eV)
   0   2.0000     -18.775291      -510.9016
   1   2.0000     -18.770912      -510.7825
   2   2.0000     -18.762498      -510.5535
   3   2.0000     -18.754994      -510.3493
   4   2.0000     -18.754448      -510.3345
   5   2.0000     -18.744621      -510.0671
   6   2.0000      -9.991031      -271.8698
   7   2.0000      -9.947784      -270.6930
   8   2.0000      -9.946950      -270.6703
   9   2.0000      -9.946843      -270.6674
  10   2.0000      -9.944969      -270.6164
  11   2.0000      -9.928905      -270.1792
  12   2.0000      -0.991013       -26.9668
  13   2.0000      -0.951525       -25.8923
  14   2.0000      -0.937464       -25.5097
  15   2.0000      -0.924609       -25.1599
  16   2.0000      -0.920767       -25.0553
  17   2.0000      -0.915748       -24.9188
  18   2.0000      -0.707667       -19.2566
  19   2.0000      -0.695026       -18.9126
  20   2.0000      -0.616812       -16.7843
  21   2.0000      -0.587712       -15.9924
  22   2.0000      -0.562928       -15.3180
  23   2.0000      -0.541237       -14.7278
  24   2.0000      -0.512223       -13.9383
  25   2.0000      -0.494210       -13.4481
  26   2.0000      -0.475543       -12.9402
  27   2.0000      -0.457331       -12.4446
  28   2.0000      -0.443404       -12.0656
  29   2.0000      -0.439420       -11.9572
  30   2.0000      -0.420578       -11.4445
  31   2.0000      -0.406849       -11.0709
  32   2.0000      -0.390424       -10.6240
  33   2.0000      -0.384734       -10.4692
  34   2.0000      -0.358308        -9.7500
  35   2.0000      -0.350342        -9.5333
  36   2.0000      -0.327733        -8.9181
  37   2.0000      -0.320592        -8.7237
  38   2.0000      -0.306029        -8.3275
  39   2.0000      -0.298417        -8.1203
  40   2.0000      -0.283568        -7.7163
  41   2.0000      -0.275492        -7.4965
  42   2.0000      -0.257695        -7.0122
  43   2.0000      -0.243754        -6.6329
  44   2.0000      -0.239186        -6.5086
  45   2.0000      -0.222129        -6.0444
  46   2.0000      -0.212902        -5.7934
  47   2.0000      -0.208026        -5.6607
  48   0.0000       0.011326         0.3082
  49   0.0000       0.024059         0.6547
  50   0.0000       0.032019         0.8713
  51   0.0000       0.045995         1.2516
  52   0.0000       0.055939         1.5222

MULLIKEN ATOMIC CHARGES
-----------------------
   0 C :    0.090098
   1 C :    0.007307
   2 H :    0.038757
   3 C :    0.043394
   4 H :    0.040522
   5 C :    0.072702
   6 H :    0.068557
   7 C :    0.034842
   8 H :    0.043568
   9 C :    0.170953
  10 H :    0.040058
  11 O :   -0.300836
  12 O :   -0.391647
  13 O :   -0.406278
  14 O :   -0.410649
  15 O :   -0.416623
  16 O :   -0.431593
  17 H :    0.083496
  18 H :    0.094840
  19 H :    0.315133
  20 H :    0.308876
  21 H :    0.303499
  22 H :    0.306293
  23 H :    0.294733
Sum of atomic charges:    0.0000000

LOEWDIN ATOMIC CHARGES
----------------------
   0 C :   -0.127768
   1 C :   -0.067874
   2 H :    0.099122
   3 C :   -0.077463
   4 H :    0.096549
   5 C :   -0.076718
   6 H :    0.120837
   7 C :   -0.089944
   8 H :    0.099506
   9 C :   -0.003964
  10 H :    0.081383
  11 O :   -0.145919
  12 O :   -0.303659
  13 O :   -0.314410
  14 O :   -0.306013
  15 O :   -0.320503
  16 O :   -0.332866
  17 H :    0.119093
  18 H :    0.108484
  19 H :    0.295875
  20 H :    0.289593
  21 H :    0.288494
  22 H :    0.285492
  23 H :    0.282671

  Mayer bond orders larger than 0.100000
B(  0-C ,  1-C ) :   1.0315 B(  0-C , 16-O ) :   1.0868 B(  0-C , 17-H ) :   0.9040
B(  0-C , 18-H ) :   0.9179 B(  1-C ,  2-H ) :   0.8684 B(  1-C ,  3-C ) :   0.9887
B(  1-C , 11-O ) :   0.9939 B(  3-C ,  4-H ) :   0.8671 B(  3-C ,  5-C ) :   0.9969
B(  3-C , 15-O ) :   1.0684 B(  5-C ,  6-H ) :   0.8671 B(  5-C ,  7-C ) :   1.0094
B(  5-C , 14-O ) :   1.0505 B(  7-C ,  8-H ) :   0.8590 B(  7-C ,  9-C ) :   0.9898
B(  7-C , 13-O ) :   1.0949 B(  9-C , 10-H ) :   0.8847 B(  9-C , 11-O ) :   1.0217
B(  9-C , 12-O ) :   1.1602 B( 12-O , 19-H ) :   0.8350 B( 13-O , 20-H ) :   0.8388
B( 14-O , 21-H ) :   0.8459 B( 15-O , 22-H ) :   0.8269 B( 16-O , 23-H ) :   0.8543

Dispersion correction           -0.023538215
FINAL SINGLE POINT ENERGY      -685.697418430375

DIPOLE MOMENT
-------------

Method             : SCF
Type of density    : Electron Density
Multiplicity       :   1
Irrep              :   0
Energy             :  -685.8268310007116497 Eh
Relativity type    :
Basis              : AO
                                X                 Y                 Z
Electronic contribution:      2.341894394      -0.830626975       0.166842214
Nuclear contribution   :     -2.123855211       0.737169977      -0.261080403
                        -----------------------------------------
Total Dipole Moment    :      0.218039183      -0.093456998      -0.094238189
                        -----------------------------------------
Magnitude (a.u.)       :      0.255256992
Magnitude (Debye)      :      0.648811712

Rotational constants in cm-1:             0.039627             0.025496             0.016277
Rotational constants in MHz :          1187.975574           764.342313           487.957659

                             ****ORCA TERMINATED NORMALLY****
TOTAL RUN TIME: 0 days 0 hours 0 minutes 11 seconds 960 msec
