                         Program Version 6.0.0  -   RELEASE  -
|  1> ! pbe def2-sv(p) def2/J RI DEFGRID1 loosescf d4 GCP(DFT/SV(P)) printgap
|  2> %output
|  3>     printlevel normal
|  4> end
|  5> * xyz 0 1
|  6> C -0.5290824286 1.4138132095 -0.0001071224
|  7> N -0.4148624084 -0.0279704446 0.0004435871
|  8> C -1.6566837817 -0.7617329559 -9.68577e-05
|  9> C 0.7718821661 -0.6183868886 -0.0001450643
| 10> O 1.857747873 -0.0490873298 1.02239e-05
| 11> H -1.0611987719 1.7460724288 -0.8916894046
| 12> H 0.4743120867 1.8347199011 0.0043037439
| 13> H -1.0693389835 1.7460760865 0.8865019996
| 14> H -2.2389316602 -0.5025869603 -0.8854654507
| 15> H -2.2369519986 -0.5076864953 0.8880434667
| 16> H -1.4566351295 -1.8300400941 -0.0034292181
| 17> H 0.7131240559 -1.7201807784 -0.0004324174
| 18> *
| 19>
| 20>                          ****END OF INPUT****

CARTESIAN COORDINATES (ANGSTROEM)
---------------------------------
  C     -0.529082    1.413813   -0.000107
  N     -0.414862   -0.027970    0.000444
  C     -1.656684   -0.761733   -0.000097
  C      0.771882   -0.618387   -0.000145
  O      1.857748   -0.049087    0.000010
  H     -1.061199    1.746072   -0.891689
  H      0.474312    1.834720    0.004304
  H     -1.069339    1.746076    0.886502
  H     -2.238932   -0.502587   -0.885465
  H     -2.236952   -0.507686    0.888043
  H     -1.456635   -1.830040   -0.003429
  H      0.713124   -1.720181   -0.000432

 Total Charge           Charge          ....    0
 Multiplicity           Mult            ....    1
 Number of Electrons    NEL             ....   40
 Basis Dimension        Dim             ....   84

ORBITAL ENERGIES
----------------

  NO   OCC          E(Eh)            E(eV)
   0   2.0000     -18.707068      -509.0452
   1   2.0000     -14.037481      -381.9793
   2   2.0000      -9.965730      -271.1813
   3   2.0000      -9.932215      -270.2693
   4   2.0000      -9.919611      -269.9263
   5   2.0000      -0.927126       -25.2284
   6   2.0000      -0.855897       -23.2901
   7   2.0000      -0.667000       -18.1500
   8   2.0000      -0.643651       -17.5146
   9   2.0000      -0.510050       -13.8792
  10   2.0000      -0.469495       -12.7756
  11   2.0000      -0.439879       -11.9697
  12   2.0000      -0.415583       -11.3086
  13   2.0000      -0.372558       -10.1378
  14   2.0000      -0.370913       -10.0930
  15   2.0000      -0.351643        -9.5687
  16   2.0000      -0.334592        -9.1047
  17   2.0000      -0.329548        -8.9675
  18   2.0000      -0.209132        -5.6908
  19   2.0000      -0.195984        -5.3330
  20   0.0000       0.001100         0.0299
  21   0.0000       0.028493         0.7753
  22   0.0000       0.063067         1.7161
  23   0.0000       0.081198         2.2095
  24   0.0000       0.092746         2.5237

MULLIKEN ATOMIC CHARGES
-----------------------
   0 C :   -0.188216
   1 N :   -0.201977
   2 C :   -0.172708
   3 C :    0.058506
   4 O :   -0.252811
   5 H :    0.111808
   6 H :    0.141742
   7 H :    0.111668
   8 H :    0.113860
   9 H :    0.113953
  10 H :    0.123527
  11 H :    0.040649
Sum of atomic charges:    0.0000000

LOEWDIN ATOMIC CHARGES
----------------------
   0 C :   -0.254022
   1 N :   -0.055769
   2 C :   -0.245717
   3 C :   -0.041464
   4 O :   -0.214021
   5 H :    0.118287
   6 H :    0.136938
   7 H :    0.118271
   8 H :    0.117745
   9 H :    0.117733
  10 H :    0.125528
  11 H :    0.076492

  Mayer bond orders larger than 0.100000
B(  0-C ,  1-N ) :   1.0022 B(  0-C ,  5-H ) :   0.9522 B(  0-C ,  6-H ) :   0.9308
B(  0-C ,  7-H ) :   0.9521 B(  1-N ,  2-C ) :   1.0165 B(  1-N ,  3-C ) :   1.2185
B(  1-N ,  4-O ) :   0.1063 B(  2-C ,  8-H ) :   0.9485 B(  2-C ,  9-H ) :   0.9486
B(  2-C , 10-H ) :   0.9432 B(  3-C ,  4-O ) :   1.9923 B(  3-C , 11-H ) :   0.9085

Dispersion correction           -0.007671486
FINAL SINGLE POINT ENERGY      -247.960217242568

DIPOLE MOMENT
-------------

Method             : SCF
Type of density    : Electron Density
Multiplicity       :   1
Irrep              :   0
Energy             :  -248.0063876766449198 Eh
Relativity type    :
Basis              : AO
                                X                 Y                 Z
Electronic contribution:      4.876068510      -0.820021221       0.001611443
Nuclear contribution   :     -6.425205368       0.718108168      -0.002030689
                        -----------------------------------------
Total Dipole Moment    :     -1.549136857      -0.101913053      -0.000419246
                        -----------------------------------------
Magnitude (a.u.)       :      1.552485571
Magnitude (Debye)      :      3.946104720

Rotational constants in cm-1:             0.305328             0.141006             0.100101
Rotational constants in MHz :          9153.515962          4227.259637          3000.956002

                             ****ORCA TERMINATED NORMALLY****
TOTAL RUN TIME: 0 days 0 hours 0 minutes 4 seconds 727 msec
