                         Program Version 6.0.0  -   RELEASE  -
|  1> ! pbe def2-sv(p) def2/J RI DEFGRID1 loosescf d4 GCP(DFT/SV(P)) printgap
|  2> %output
|  3>     printlevel normal
|  4> end
|  5> * xyz 0 1
|  6> C -2.0807805952 -1.3543549401 -0.1396551158
|  7> C -1.0172147999 -0.5017786565 0.5716309338
|  8> H -1.4524963316 -0.1306762296 1.5083453745
|  9> C -0.6184034101 0.7057776974 -0.2820046957
| 10> H -0.4752587034 0.3965156385 -1.3302516066
| 11> C 0.7214143886 1.245970384 0.2308988622
| 12> H 0.6652035525 1.3764005401 1.3196839154
| 13> C 1.7996942279 0.1935309727 -0.0875502694
| 14> H 2.0689598175 0.286391297 -1.1468310777
| 15> C 1.2253828466 -1.2292561411 0.1028025658
| 16> H 1.9839232211 -1.8208789792 0.6345639491
| 17> O 0.1134950639 -1.276688274 0.9581686119
| 18> O 0.9478674419 -1.7537639242 -1.1582316215
| 19> O 2.9272698963 0.3185353936 0.7455893888
| 20> O 0.9562528745 2.4744147649 -0.4182065804
| 21> O -1.645587584 1.6597742114 -0.2014515607
| 22> O -3.3388875809 -0.7282589001 -0.13687035
| 23> H -2.2021317643 -2.2974541072 0.3984583398
| 24> H -1.7554335446 -1.565377416 -1.1681069886
| 25> H 0.790309718 -2.7082351737 -1.096161652
| 26> H 3.550279651 0.9591323141 0.3743898885
| 27> H 1.6197140599 2.9867405731 0.0627109177
| 28> H -1.3003642634 2.5002802576 -0.5441492004
| 29> H -3.2228656037 0.2035622021 -0.3837378076
| 30> *
| 31>
| 32>                          ****END OF INPUT****

CARTESIAN COORDINATES (ANGSTROEM)
---------------------------------
  C     -2.080781   -1.354355   -0.139655
  C     -1.017215   -0.501779    0.571631
  H     -1.452496   -0.130676    1.508345
  C     -0.618403    0.705778   -0.282005
  H     -0.475259    0.396516   -1.330252
  C      0.721414    1.245970    0.230899
  H      0.665204    1.376401    1.319684
  C      1.799694    0.193531   -0.087550
  H      2.068960    0.286391   -1.146831
  C      1.225383   -1.229256    0.102803
  H      1.983923   -1.820879    0.634564
  O      0.113495   -1.276688    0.958169
  O      0.947867   -1.753764   -1.158232
  O      2.927270    0.318535    0.745589
  O      0.956253    2.474415   -0.418207
  O     -1.645588    1.659774   -0.201452
  O     -3.338888   -0.728259   -0.136870
  H     -2.202132   -2.297454    0.398458
  H     -1.755434   -1.565377   -1.168107
  H      0.790310   -2.708235   -1.096162
  H      3.550280    0.959132    0.374390
  H      1.619714    2.986741    0.062711
  H     -1.300364    2.500280   -0.544149
  H     -3.222866    0.203562   -0.383738

 Total Charge           Charge          ....    0
 Multiplicity           Mult            ....    1
 Number of Electrons    NEL             ....   96
 Basis Dimension        Dim             ....  192

ORBITAL ENERGIES
----------------

  NO   OCC          E(Eh)            E(eV)
   0   2.0000     -18.774353      -510.8761
   1   2.0000     -18.768052      -510.7047
   2   2.0000     -18.766198      -510.6542
   3   2.0000     -18.764083      -510.5967
   4   2.0000     -18.760753      -510.5060
   5   2.0000     -18.726591      -509.5764
   6   2.0000      -9.986992      -271.7599
   7   2.0000      -9.946635      -270.6617
   8   2.0000      -9.945895      -270.6416
   9   2.0000      -9.944296      -270.5980
  10   2.0000      -9.937629      -270.4166
  11   2.0000      -9.916525      -269.8424
  12   2.0000      -0.982366       -26.7315
  13   2.0000      -0.957639       -26.0587
  14   2.0000      -0.939566       -25.5669
  15   2.0000      -0.928793       -25.2737
  16   2.0000      -0.914391       -24.8819
  17   2.0000      -0.902150       -24.5488
  18   2.0000      -0.710352       -19.3296
  19   2.0000      -0.691853       -18.8263
  20   2.0000      -0.614543       -16.7226
  21   2.0000      -0.583943       -15.8899
  22   2.0000      -0.565343       -15.3838
  23   2.0000      -0.528525       -14.3819
  24   2.0000      -0.507182       -13.8011
  25   2.0000      -0.493800       -13.4370
  26   2.0000      -0.471719       -12.8361
  27   2.0000      -0.462761       -12.5924
  28   2.0000      -0.455652       -12.3989
  29   2.0000      -0.420947       -11.4546
  30   2.0000      -0.411566       -11.1993
  31   2.0000      -0.395490       -10.7618
  32   2.0000      -0.387170       -10.5354
  33   2.0000      -0.375612       -10.2209
  34   2.0000      -0.361581        -9.8391
  35   2.0000      -0.346830        -9.4377
  36   2.0000      -0.329779        -8.9737
  37   2.0000      -0.320139        -8.7114
  38   2.0000      -0.314142        -8.5482
  39   2.0000      -0.296857        -8.0779
  40   2.0000      -0.277359        -7.5473
  41   2.0000      -0.270084        -7.3494
  42   2.0000      -0.258018        -7.0210
  43   2.0000      -0.245147        -6.6708
  44   2.0000      -0.234636        -6.3848
  45   2.0000      -0.225662        -6.1406
  46   2.0000      -0.214912        -5.8481
  47   2.0000      -0.195155        -5.3104
  48   0.0000      -0.008133        -0.2213
  49   0.0000       0.023049         0.6272
  50   0.0000       0.028113         0.7650
  51   0.0000       0.041838         1.1385
  52   0.0000       0.071115         1.9351

MULLIKEN ATOMIC CHARGES
-----------------------
   0 C :    0.085907
   1 C :    0.035914
   2 H :    0.079106
   3 C :    0.001914
   4 H :    0.075639
   5 C :    0.043062
   6 H :    0.064021
   7 C :    0.057575
   8 H :    0.073671
   9 C :    0.160209
  10 H :    0.072843
  11 O :   -0.310733
  12 O :   -0.395920
  13 O :   -0.410107
  14 O :   -0.423035
  15 O :   -0.426111
  16 O :   -0.449946
  17 H :    0.079920
  18 H :    0.059210
  19 H :    0.308722
  20 H :    0.301243
  21 H :    0.304824
  22 H :    0.309919
  23 H :    0.302154
Sum of atomic charges:   -0.0000000

LOEWDIN ATOMIC CHARGES
----------------------
   0 C :   -0.129847
   1 C :   -0.066336
   2 H :    0.119852
   3 C :   -0.077112
   4 H :    0.108045
   5 C :   -0.081826
   6 H :    0.111864
   7 C :   -0.084947
   8 H :    0.114866
   9 C :   -0.002008
  10 H :    0.105493
  11 O :   -0.141418
  12 O :   -0.308026
  13 O :   -0.317922
  14 O :   -0.321679
  15 O :   -0.313752
  16 O :   -0.343650
  17 H :    0.109354
  18 H :    0.091581
  19 H :    0.289231
  20 H :    0.287882
  21 H :    0.290295
  22 H :    0.285995
  23 H :    0.274064

  Mayer bond orders larger than 0.100000
B(  0-C ,  1-C ) :   1.0644 B(  0-C , 16-O ) :   1.0818 B(  0-C , 17-H ) :   0.9203
B(  0-C , 18-H ) :   0.9027 B(  1-C ,  2-H ) :   0.8818 B(  1-C ,  3-C ) :   0.9893
B(  1-C , 11-O ) :   0.9637 B(  3-C ,  4-H ) :   0.8792 B(  3-C ,  5-C ) :   1.0258
B(  3-C , 15-O ) :   1.0457 B(  5-C ,  6-H ) :   0.8648 B(  5-C ,  7-C ) :   1.0246
B(  5-C , 14-O ) :   1.0773 B(  7-C ,  8-H ) :   0.8818 B(  7-C ,  9-C ) :   0.9820
B(  7-C , 13-O ) :   1.0936 B(  9-C , 10-H ) :   0.8936 B(  9-C , 11-O ) :   1.0888
B(  9-C , 12-O ) :   1.1056 B( 12-O , 19-H ) :   0.8356 B( 13-O , 20-H ) :   0.8493
B( 14-O , 21-H ) :   0.8454 B( 15-O , 22-H ) :   0.8222 B( 16-O , 23-H ) :   0.8240

Dispersion correction           -0.024552569
FINAL SINGLE POINT ENERGY      -685.692762634546

DIPOLE MOMENT
-------------

Method             : SCF
Type of density    : Electron Density
Multiplicity       :   1
Irrep              :   0
Energy             :  -685.8236734680810969 Eh
Relativity type    :
Basis              : AO
                                X                 Y                 Z
Electronic contribution:      1.306850687       0.621038500       0.938388071
Nuclear contribution   :      0.252569141       0.185157224      -1.289437754
                        -----------------------------------------
Total Dipole Moment    :      1.559419828       0.806195723      -0.351049684
                        -----------------------------------------
Magnitude (a.u.)       :      1.790245130
Magnitude (Debye)      :      4.550441491

Rotational constants in cm-1:             0.043994             0.026070             0.018695
Rotational constants in MHz :          1318.896723           781.569867           560.454249

                             ****ORCA TERMINATED NORMALLY****
TOTAL RUN TIME: 0 days 0 hours 0 minutes 12 seconds 303 msec
