                         Program Version 6.0.0  -   RELEASE  -
|  1> ! wb97x-v def2-tzvp def2/J RIJCOSX DEFGRID2 scfconv7 GCP(DFT/TZ) printgap
|  2> %output
|  3>     printlevel normal
|  4> end
|  5> * xyz 0 1
|  6> N 0.7290052597848224 -0.011310873934053042 -0.03201340452202478
|  7> N -0.7151535111852425 0.010815042455249207 0.1446043949043759
|  8> H 0.9629563795767608 -0.2642447745970074 -0.9907526965561614
|  9> H 1.0486825516191154 0.9447335911441688 0.08821935241740952
| 10> H -0.9979207904777968 -0.9467356783915329 0.3285111003489187
| 11> H -1.1728722873029107 0.273136835822535 -0.7269152620726655
| 12> *
| 13>
| 14>                          ****END OF INPUT****

CARTESIAN COORDINATES (ANGSTROEM)
---------------------------------
  N      0.729005   -0.011311   -0.032013
  N     -0.715154    0.010815    0.144604
  H      0.962956   -0.264245   -0.990753
  H      1.048683    0.944734    0.088219
  H     -0.997921   -0.946736    0.328511
  H     -1.172872    0.273137   -0.726915

 Total Charge           Charge          ....    0
 Multiplicity           Mult            ....    1
 Number of Electrons    NEL             ....   18
 Basis Dimension        Dim             ....   86

ORBITAL ENERGIES
----------------

  NO   OCC          E(Eh)            E(eV)
   0   2.0000     -16.534040      -449.9141
   1   2.0000     -16.533620      -449.9027
   2   2.0000      -1.522283       -41.4234
   3   2.0000      -1.311788       -35.6956
   4   2.0000      -0.991193       -26.9717
   5   2.0000      -0.974578       -26.5196
   6   2.0000      -0.943635       -25.6776
   7   2.0000      -0.754577       -20.5331
   8   2.0000      -0.749390       -20.3920
   9   0.0000      -0.165726        -4.5096
  10   0.0000      -0.040826        -1.1109
  11   0.0000       0.016920         0.4604
  12   0.0000       0.019216         0.5229
  13   0.0000       0.039485         1.0744

MULLIKEN ATOMIC CHARGES
-----------------------
   0 N :   -0.427969
   1 N :   -0.427738
   2 H :    0.205301
   3 H :    0.222598
   4 H :    0.222615
   5 H :    0.205193
Sum of atomic charges:    0.0000000

LOEWDIN ATOMIC CHARGES
----------------------
   0 N :   -0.258104
   1 N :   -0.258101
   2 H :    0.123254
   3 H :    0.134862
   4 H :    0.134859
   5 H :    0.123230

  Mayer bond orders larger than 0.100000
B(  0-N ,  1-N ) :   0.9788 B(  0-N ,  2-H ) :   0.9532 B(  0-N ,  3-H ) :   0.9499
B(  1-N ,  4-H ) :   0.9498 B(  1-N ,  5-H ) :   0.9533

FINAL SINGLE POINT ENERGY      -111.871658337186

DIPOLE MOMENT
-------------

Method             : SCF
Type of density    : Electron Density
Multiplicity       :   1
Irrep              :   0
Energy             :  -111.8755175827855481 Eh
Relativity type    :
Basis              : AO
                                X                 Y                 Z
Electronic contribution:      0.043393057      -0.001773320       0.353353759
Nuclear contribution   :     -0.153183925       0.006461283      -1.251096655
                        -----------------------------------------
Total Dipole Moment    :     -0.109790868       0.004687963      -0.897742896
                        -----------------------------------------
Magnitude (a.u.)       :      0.904443651
Magnitude (Debye)      :      2.298913064

Rotational constants in cm-1:             4.733417             0.800386             0.793249
Rotational constants in MHz :        141904.268603         23994.957288         23780.996794

                             ****ORCA TERMINATED NORMALLY****
TOTAL RUN TIME: 0 days 0 hours 0 minutes 12 seconds 412 msec
