                         Program Version 6.0.0  -   RELEASE  -
|  1> ! wb97x-v def2-tzvp def2/J RIJCOSX DEFGRID2 scfconv7 GCP(DFT/TZ) printgap
|  2> %output
|  3>     printlevel normal
|  4> end
|  5> %cpcm
|  6>     smd true
|  7>     smdsolvent "water"
|  8> end
|  9> * xyz 0 1
| 10> N 0.7290052597848224 -0.011310873934053042 -0.03201340452202478
| 11> N -0.7151535111852425 0.010815042455249207 0.1446043949043759
| 12> H 0.9629563795767608 -0.2642447745970074 -0.9907526965561614
| 13> H 1.0486825516191154 0.9447335911441688 0.08821935241740952
| 14> H -0.9979207904777968 -0.9467356783915329 0.3285111003489187
| 15> H -1.1728722873029107 0.273136835822535 -0.7269152620726655
| 16> *
| 17>
| 18>                          ****END OF INPUT****

CARTESIAN COORDINATES (ANGSTROEM)
---------------------------------
  N      0.729005   -0.011311   -0.032013
  N     -0.715154    0.010815    0.144604
  H      0.962956   -0.264245   -0.990753
  H      1.048683    0.944734    0.088219
  H     -0.997921   -0.946736    0.328511
  H     -1.172872    0.273137   -0.726915

 Total Charge           Charge          ....    0
 Multiplicity           Mult            ....    1
 Number of Electrons    NEL             ....   18
 Basis Dimension        Dim             ....   86

ORBITAL ENERGIES
----------------

  NO   OCC          E(Eh)            E(eV)
   0   2.0000     -16.527655      -449.7404
   1   2.0000     -16.527236      -449.7290
   2   2.0000      -1.515674       -41.2436
   3   2.0000      -1.304176       -35.4884
   4   2.0000      -0.984857       -26.7993
   5   2.0000      -0.967806       -26.3354
   6   2.0000      -0.937001       -25.4971
   7   2.0000      -0.751657       -20.4536
   8   2.0000      -0.746980       -20.3264
   9   0.0000      -0.160264        -4.3610
  10   0.0000      -0.019712        -0.5364
  11   0.0000       0.034327         0.9341
  12   0.0000       0.036645         0.9972
  13   0.0000       0.061875         1.6837

MULLIKEN ATOMIC CHARGES
-----------------------
   0 N :   -0.506182
   1 N :   -0.505822
   2 H :    0.252939
   3 H :    0.253118
   4 H :    0.253018
   5 H :    0.252928
Sum of atomic charges:   -0.0000000

LOEWDIN ATOMIC CHARGES
----------------------
   0 N :   -0.283273
   1 N :   -0.283241
   2 H :    0.140018
   3 H :    0.143246
   4 H :    0.143209
   5 H :    0.140040

  Mayer bond orders larger than 0.100000
B(  0-N ,  1-N ) :   0.9369 B(  0-N ,  2-H ) :   0.9358 B(  0-N ,  3-H ) :   0.9355
B(  1-N ,  4-H ) :   0.9355 B(  1-N ,  5-H ) :   0.9358

FINAL SINGLE POINT ENERGY      -111.881449646284

DIPOLE MOMENT
-------------

Method             : SCF
Type of density    : Electron Density
Multiplicity       :   1
Irrep              :   0
Energy             :  -111.8853088918844207 Eh
Relativity type    :
Basis              : AO
                                X                 Y                 Z
Electronic contribution:      0.013542454      -0.000324652       0.110377975
Nuclear contribution   :     -0.153183925       0.006461283      -1.251096655
                        -----------------------------------------
Total Dipole Moment    :     -0.139641471       0.006136631      -1.140718680
                        -----------------------------------------
Magnitude (a.u.)       :      1.149250410
Magnitude (Debye)      :      2.921162394

Rotational constants in cm-1:             4.733417             0.800386             0.793249
Rotational constants in MHz :        141904.268603         23994.957288         23780.996794

                             ****ORCA TERMINATED NORMALLY****
TOTAL RUN TIME: 0 days 0 hours 0 minutes 12 seconds 708 msec
