                         Program Version 6.0.0  -   RELEASE  -
|  1> ! r2scan-3c def2/J RI DEFGRID2 scfconv6 printgap
|  2> %output
|  3>     printlevel normal
|  4> end
|  5> * xyz 0 1
|  6> C 0.0004767171 1.192844964 3.42509e-05
|  7> I -1.7026212895 -0.0710344522 -1.6846e-06
|  8> I 1.7025631399 -0.0710825689 3.887e-07
|  9> H 0.0005687198 1.8395352817 0.8829842068
| 10> H 0.0010719713 1.8395893874 -0.8832291846
| 11> *
| 12>
| 13>                          ****END OF INPUT****

CARTESIAN COORDINATES (ANGSTROEM)
---------------------------------
  C      0.000477    1.192845    0.000034
  I     -1.702621   -0.071034   -0.000002
  I      1.702563   -0.071083    0.000000
  H      0.000569    1.839535    0.882984
  H      0.001072    1.839589   -0.883229

 Total Charge           Charge          ....    0
 Multiplicity           Mult            ....    1
 Number of Electrons    NEL             ....   58
 Basis Dimension        Dim             ....  101

ORBITAL ENERGIES
----------------

  NO   OCC          E(Eh)            E(eV)
   0   2.0000     -10.136787      -275.8360
   1   2.0000      -6.825534      -185.7322
   2   2.0000      -6.825525      -185.7320
   3   2.0000      -4.845586      -131.8551
   4   2.0000      -4.845580      -131.8549
   5   2.0000      -4.827179      -131.3542
   6   2.0000      -4.827165      -131.3539
   7   2.0000      -4.827057      -131.3509
   8   2.0000      -4.827048      -131.3506
   9   2.0000      -1.880917       -51.1823
  10   2.0000      -1.880730       -51.1773
  11   2.0000      -1.876064       -51.0503
  12   2.0000      -1.875880       -51.0453
  13   2.0000      -1.875769       -51.0423
  14   2.0000      -1.875698       -51.0403
  15   2.0000      -1.860915       -50.6381
  16   2.0000      -1.860907       -50.6378
  17   2.0000      -1.860890       -50.6374
  18   2.0000      -1.860879       -50.6371
  19   2.0000      -0.762079       -20.7372
  20   2.0000      -0.663669       -18.0593
  21   2.0000      -0.604282       -16.4434
  22   2.0000      -0.437445       -11.9035
  23   2.0000      -0.395998       -10.7757
  24   2.0000      -0.361109        -9.8263
  25   2.0000      -0.265651        -7.2287
  26   2.0000      -0.249326        -6.7845
  27   2.0000      -0.248629        -6.7655
  28   2.0000      -0.229661        -6.2494
  29   0.0000      -0.093315        -2.5392
  30   0.0000      -0.050142        -1.3644
  31   0.0000       0.094445         2.5700
  32   0.0000       0.100466         2.7338
  33   0.0000       0.138518         3.7693

MULLIKEN ATOMIC CHARGES
-----------------------
   0 C :   -0.352178
   1 I :   -0.025962
   2 I :   -0.025714
   3 H :    0.201941
   4 H :    0.201914
Sum of atomic charges:   -0.0000000

LOEWDIN ATOMIC CHARGES
----------------------
   0 C :   -0.592011
   1 I :    0.123871
   2 I :    0.124159
   3 H :    0.171964
   4 H :    0.172017

  Mayer bond orders larger than 0.100000
B(  0-C ,  1-I ) :   0.9734 B(  0-C ,  2-I ) :   0.9736 B(  0-C ,  3-H ) :   0.9254
B(  0-C ,  4-H ) :   0.9254

Dispersion correction           -0.001322979
FINAL SINGLE POINT ENERGY      -634.755508623076

DIPOLE MOMENT
-------------

Method             : SCF
Type of density    : Electron Density
Multiplicity       :   1
Irrep              :   0
Energy             :  -634.7564298747988687 Eh
Relativity type    :
Basis              : AO
                                X                 Y                 Z
Electronic contribution:     -0.005296525     -13.295369423       0.000096238
Nuclear contribution   :      0.005758278      13.762905417      -0.000135815
                        -----------------------------------------
Total Dipole Moment    :      0.000461753       0.467535994      -0.000039576
                        -----------------------------------------
Magnitude (a.u.)       :      0.467536224
Magnitude (Debye)      :      1.188382639

Rotational constants in cm-1:             0.629814             0.022864             0.022154
Rotational constants in MHz :         18881.346189           685.452873           664.173873

                             ****ORCA TERMINATED NORMALLY****
TOTAL RUN TIME: 0 days 0 hours 0 minutes 7 seconds 385 msec
