                         Program Version 6.0.0  -   RELEASE  -
|  1> ! r2scan-3c def2/J RI DEFGRID2 scfconv6 printgap
|  2> %output
|  3>     printlevel normal
|  4> end
|  5> %cpcm
|  6>     smd true
|  7>     smdsolvent "water"
|  8> end
|  9> * xyz 0 1
| 10> C 0.0004767171 1.192844964 3.42509e-05
| 11> I -1.7026212895 -0.0710344522 -1.6846e-06
| 12> I 1.7025631399 -0.0710825689 3.887e-07
| 13> H 0.0005687198 1.8395352817 0.8829842068
| 14> H 0.0010719713 1.8395893874 -0.8832291846
| 15> *
| 16>
| 17>                          ****END OF INPUT****

CARTESIAN COORDINATES (ANGSTROEM)
---------------------------------
  C      0.000477    1.192845    0.000034
  I     -1.702621   -0.071034   -0.000002
  I      1.702563   -0.071083    0.000000
  H      0.000569    1.839535    0.882984
  H      0.001072    1.839589   -0.883229

 Total Charge           Charge          ....    0
 Multiplicity           Mult            ....    1
 Number of Electrons    NEL             ....   58
 Basis Dimension        Dim             ....  101

ORBITAL ENERGIES
----------------

  NO   OCC          E(Eh)            E(eV)
   0   2.0000     -10.112260      -275.1686
   1   2.0000      -6.812710      -185.3833
   2   2.0000      -6.812709      -185.3832
   3   2.0000      -4.832031      -131.4862
   4   2.0000      -4.832028      -131.4862
   5   2.0000      -4.814734      -131.0156
   6   2.0000      -4.814728      -131.0154
   7   2.0000      -4.814589      -131.0116
   8   2.0000      -4.814588      -131.0116
   9   2.0000      -1.867440       -50.8156
  10   2.0000      -1.867254       -50.8106
  11   2.0000      -1.862905       -50.6922
  12   2.0000      -1.862724       -50.6873
  13   2.0000      -1.862584       -50.6835
  14   2.0000      -1.862515       -50.6816
  15   2.0000      -1.848738       -50.3067
  16   2.0000      -1.848725       -50.3064
  17   2.0000      -1.848715       -50.3061
  18   2.0000      -1.848705       -50.3058
  19   2.0000      -0.742386       -20.2014
  20   2.0000      -0.650144       -17.6913
  21   2.0000      -0.584310       -15.8999
  22   2.0000      -0.410465       -11.1693
  23   2.0000      -0.375585       -10.2202
  24   2.0000      -0.342011        -9.3066
  25   2.0000      -0.254550        -6.9267
  26   2.0000      -0.239144        -6.5075
  27   2.0000      -0.236834        -6.4446
  28   2.0000      -0.219572        -5.9749
  29   0.0000      -0.073439        -1.9984
  30   0.0000      -0.029047        -0.7904
  31   0.0000       0.117933         3.2091
  32   0.0000       0.122587         3.3358
  33   0.0000       0.150540         4.0964

MULLIKEN ATOMIC CHARGES
-----------------------
   0 C :   -0.312601
   1 I :   -0.074860
   2 I :   -0.074587
   3 H :    0.231034
   4 H :    0.231014
Sum of atomic charges:   -0.0000000

LOEWDIN ATOMIC CHARGES
----------------------
   0 C :   -0.572548
   1 I :    0.100968
   2 I :    0.101275
   3 H :    0.185122
   4 H :    0.185183

  Mayer bond orders larger than 0.100000
B(  0-C ,  1-I ) :   0.9422 B(  0-C ,  2-I ) :   0.9424 B(  0-C ,  3-H ) :   0.9183
B(  0-C ,  4-H ) :   0.9183

Dispersion correction           -0.001322979
FINAL SINGLE POINT ENERGY      -634.762290085775

DIPOLE MOMENT
-------------

Method             : SCF
Type of density    : Electron Density
Multiplicity       :   1
Irrep              :   0
Energy             :  -634.7632113374975233 Eh
Relativity type    :
Basis              : AO
                                X                 Y                 Z
Electronic contribution:     -0.005119503     -13.070344495       0.000068943
Nuclear contribution   :      0.005758278      13.762905417      -0.000135815
                        -----------------------------------------
Total Dipole Moment    :      0.000638775       0.692560922      -0.000066872
                        -----------------------------------------
Magnitude (a.u.)       :      0.692561220
Magnitude (Debye)      :      1.760350723

Rotational constants in cm-1:             0.629814             0.022864             0.022154
Rotational constants in MHz :         18881.346189           685.452873           664.173873

                             ****ORCA TERMINATED NORMALLY****
TOTAL RUN TIME: 0 days 0 hours 0 minutes 7 seconds 853 msec
