                         Program Version 6.0.0  -   RELEASE  -
|  1> ! pbe def2-sv(p) def2/J RI DEFGRID1 loosescf d4 GCP(DFT/SV(P)) printgap
|  2> %output
|  3>     printlevel normal
|  4> end
|  5> * xyz 0 1
|  6> C -2.5514748939 -0.6857261525 -0.3642067199
|  7> C -1.1728768016 -0.321159688 0.1816523963
|  8> H -1.2365780128 -0.2731219778 1.278615712
|  9> C -0.6943536243 1.0362544169 -0.3532001098
| 10> H -0.6698381681 0.9838490171 -1.4555598231
| 11> C 0.7286215553 1.3259415033 0.1623647262
| 12> H 0.6997862981 1.4292676548 1.2534416138
| 13> C 1.6510941708 0.1596024815 -0.1972663747
| 14> H 1.7339196553 0.0883466615 -1.2955872572
| 15> C 1.0237098936 -1.1556333673 0.3235737384
| 16> H 0.9958007443 -1.1133694422 1.4274586656
| 17> O -0.2626572934 -1.3351328362 -0.2020604095
| 18> O 1.8018422133 -2.2454737736 -0.032262174
| 19> O 2.9161410087 0.3657598635 0.3731890362
| 20> O 1.1748836746 2.5702639464 -0.313574402
| 21> O -1.588227816 2.0363989467 0.0560937014
| 22> O -3.1027534205 -1.7010375808 0.4403597397
| 23> H -2.4318400225 -1.0260659392 -1.3993801612
| 24> H -3.1685114174 0.2196801851 -0.3343989158
| 25> H 1.4328821523 -2.642581696 -0.836904731
| 26> H 3.4191155318 -0.4624304146 0.3243869135
| 27> H 1.5122934574 2.4827812858 -1.2169699037
| 28> H -1.1287239026 2.8912713933 0.004551767
| 29> H -3.9686702921 -1.9505258109 0.0874045628
| 30> *
| 31>
| 32>                          ****END OF INPUT****

CARTESIAN COORDINATES (ANGSTROEM)
---------------------------------
  C     -2.551475   -0.685726   -0.364207
  C     -1.172877   -0.321160    0.181652
  H     -1.236578   -0.273122    1.278616
  C     -0.694354    1.036254   -0.353200
  H     -0.669838    0.983849   -1.455560
  C      0.728622    1.325942    0.162365
  H      0.699786    1.429268    1.253442
  C      1.651094    0.159602   -0.197266
  H      1.733920    0.088347   -1.295587
  C      1.023710   -1.155633    0.323574
  H      0.995801   -1.113369    1.427459
  O     -0.262657   -1.335133   -0.202060
  O      1.801842   -2.245474   -0.032262
  O      2.916141    0.365760    0.373189
  O      1.174884    2.570264   -0.313574
  O     -1.588228    2.036399    0.056094
  O     -3.102753   -1.701038    0.440360
  H     -2.431840   -1.026066   -1.399380
  H     -3.168511    0.219680   -0.334399
  H      1.432882   -2.642582   -0.836905
  H      3.419116   -0.462430    0.324387
  H      1.512293    2.482781   -1.216970
  H     -1.128724    2.891271    0.004552
  H     -3.968670   -1.950526    0.087405

 Total Charge           Charge          ....    0
 Multiplicity           Mult            ....    1
 Number of Electrons    NEL             ....   96
 Basis Dimension        Dim             ....  192

ORBITAL ENERGIES
----------------

  NO   OCC          E(Eh)            E(eV)
   0   2.0000     -18.777726      -510.9679
   1   2.0000     -18.767968      -510.7024
   2   2.0000     -18.761579      -510.5285
   3   2.0000     -18.752719      -510.2874
   4   2.0000     -18.751764      -510.2614
   5   2.0000     -18.746168      -510.1092
   6   2.0000      -9.990741      -271.8619
   7   2.0000      -9.947328      -270.6806
   8   2.0000      -9.946496      -270.6579
   9   2.0000      -9.944022      -270.5906
  10   2.0000      -9.943709      -270.5821
  11   2.0000      -9.931090      -270.2387
  12   2.0000      -0.992212       -26.9995
  13   2.0000      -0.950065       -25.8526
  14   2.0000      -0.935726       -25.4624
  15   2.0000      -0.923099       -25.1188
  16   2.0000      -0.918900       -25.0045
  17   2.0000      -0.915005       -24.8986
  18   2.0000      -0.707318       -19.2471
  19   2.0000      -0.695014       -18.9123
  20   2.0000      -0.615589       -16.7510
  21   2.0000      -0.587421       -15.9845
  22   2.0000      -0.561964       -15.2918
  23   2.0000      -0.542498       -14.7621
  24   2.0000      -0.503128       -13.6908
  25   2.0000      -0.492261       -13.3951
  26   2.0000      -0.470163       -12.7938
  27   2.0000      -0.467120       -12.7110
  28   2.0000      -0.446164       -12.1407
  29   2.0000      -0.432120       -11.7586
  30   2.0000      -0.420690       -11.4476
  31   2.0000      -0.410350       -11.1662
  32   2.0000      -0.387740       -10.5510
  33   2.0000      -0.382106       -10.3976
  34   2.0000      -0.358252        -9.7485
  35   2.0000      -0.348182        -9.4745
  36   2.0000      -0.324600        -8.8328
  37   2.0000      -0.323341        -8.7986
  38   2.0000      -0.307948        -8.3797
  39   2.0000      -0.299853        -8.1594
  40   2.0000      -0.285360        -7.7650
  41   2.0000      -0.275243        -7.4897
  42   2.0000      -0.257332        -7.0024
  43   2.0000      -0.239768        -6.5244
  44   2.0000      -0.237186        -6.4542
  45   2.0000      -0.218661        -5.9501
  46   2.0000      -0.211701        -5.7607
  47   2.0000      -0.207552        -5.6478
  48   0.0000       0.012155         0.3308
  49   0.0000       0.026774         0.7285
  50   0.0000       0.031098         0.8462
  51   0.0000       0.045616         1.2413
  52   0.0000       0.058771         1.5992

MULLIKEN ATOMIC CHARGES
-----------------------
   0 C :    0.073599
   1 C :    0.023896
   2 H :    0.068206
   3 C :    0.048377
   4 H :    0.033761
   5 C :    0.067886
   6 H :    0.069562
   7 C :    0.045977
   8 H :    0.021905
   9 C :    0.170522
  10 H :    0.058749
  11 O :   -0.305767
  12 O :   -0.394758
  13 O :   -0.405312
  14 O :   -0.410413
  15 O :   -0.414241
  16 O :   -0.431095
  17 H :    0.062618
  18 H :    0.092027
  19 H :    0.309584
  20 H :    0.304681
  21 H :    0.304188
  22 H :    0.306010
  23 H :    0.300038
Sum of atomic charges:    0.0000000

LOEWDIN ATOMIC CHARGES
----------------------
   0 C :   -0.125606
   1 C :   -0.053129
   2 H :    0.115275
   3 C :   -0.076728
   4 H :    0.092733
   5 C :   -0.078350
   6 H :    0.121613
   7 C :   -0.099015
   8 H :    0.089898
   9 C :    0.000120
  10 H :    0.098265
  11 O :   -0.143431
  12 O :   -0.302558
  13 O :   -0.317743
  14 O :   -0.306882
  15 O :   -0.319448
  16 O :   -0.342453
  17 H :    0.099352
  18 H :    0.109500
  19 H :    0.292627
  20 H :    0.285821
  21 H :    0.288509
  22 H :    0.285009
  23 H :    0.286620

  Mayer bond orders larger than 0.100000
B(  0-C ,  1-C ) :   1.0714 B(  0-C , 16-O ) :   1.1106 B(  0-C , 17-H ) :   0.8980
B(  0-C , 18-H ) :   0.9121 B(  1-C ,  2-H ) :   0.8717 B(  1-C ,  3-C ) :   0.9954
B(  1-C , 11-O ) :   0.9842 B(  3-C ,  4-H ) :   0.8633 B(  3-C ,  5-C ) :   1.0005
B(  3-C , 15-O ) :   1.0763 B(  5-C ,  6-H ) :   0.8682 B(  5-C ,  7-C ) :   1.0071
B(  5-C , 14-O ) :   1.0484 B(  7-C ,  8-H ) :   0.8509 B(  7-C ,  9-C ) :   0.9736
B(  7-C , 13-O ) :   1.1013 B(  9-C , 10-H ) :   0.8815 B(  9-C , 11-O ) :   1.0303
B(  9-C , 12-O ) :   1.1161 B( 12-O , 19-H ) :   0.8373 B( 13-O , 20-H ) :   0.8338
B( 14-O , 21-H ) :   0.8461 B( 15-O , 22-H ) :   0.8257 B( 16-O , 23-H ) :   0.8515

Dispersion correction           -0.023534804
FINAL SINGLE POINT ENERGY      -685.695174013628

DIPOLE MOMENT
-------------

Method             : SCF
Type of density    : Electron Density
Multiplicity       :   1
Irrep              :   0
Energy             :  -685.8248296363614145 Eh
Relativity type    :
Basis              : AO
                                X                 Y                 Z
Electronic contribution:      2.372926331      -0.770664466       0.777990559
Nuclear contribution   :     -2.622685313       0.583746383      -2.024440640
                        -----------------------------------------
Total Dipole Moment    :     -0.249758982      -0.186918083      -1.246450081
                        -----------------------------------------
Magnitude (a.u.)       :      1.284895219
Magnitude (Debye)      :      3.265944097

Rotational constants in cm-1:             0.039443             0.025676             0.016319
Rotational constants in MHz :          1182.477017           769.760287           489.222670

                             ****ORCA TERMINATED NORMALLY****
TOTAL RUN TIME: 0 days 0 hours 0 minutes 11 seconds 603 msec
