                         Program Version 6.0.0  -   RELEASE  -
|  1> ! r2scan-3c def2/J RI DEFGRID2 scfconv6 printgap
|  2> %output
|  3>     printlevel normal
|  4> end
|  5> * xyz 0 1
|  6> C -1.5898866235 -0.1730011986 0.4879227758
|  7> C -0.6772101211 0.4999238913 -0.5307821526
|  8> C 0.677820761 -0.2036108753 -0.6274358334
|  9> O 1.4266168282 -0.1390511338 0.5685782712
| 10> H -2.5117605397 0.3899332916 0.6074359761
| 11> H -1.8372349743 -1.1817298047 0.1656589657
| 12> H -1.0905189484 -0.2372885626 1.4518526769
| 13> H -0.518651549 1.5434898265 -0.2490240478
| 14> H -1.1423641718 0.4841596644 -1.5171811423
| 15> H 0.5333739918 -1.2699431666 -0.8175661135
| 16> H 1.2598755916 0.2200713234 -1.4578022802
| 17> H 1.6000724248 0.7891183761 0.7786926881
| 18> *
| 19>
| 20>                          ****END OF INPUT****

CARTESIAN COORDINATES (ANGSTROEM)
---------------------------------
  C     -1.589887   -0.173001    0.487923
  C     -0.677210    0.499924   -0.530782
  C      0.677821   -0.203611   -0.627436
  O      1.426617   -0.139051    0.568578
  H     -2.511761    0.389933    0.607436
  H     -1.837235   -1.181730    0.165659
  H     -1.090519   -0.237289    1.451853
  H     -0.518652    1.543490   -0.249024
  H     -1.142364    0.484160   -1.517181
  H      0.533374   -1.269943   -0.817566
  H      1.259876    0.220071   -1.457802
  H      1.600072    0.789118    0.778693

 Total Charge           Charge          ....    0
 Multiplicity           Mult            ....    1
 Number of Electrons    NEL             ....   34
 Basis Dimension        Dim             ....  121

ORBITAL ENERGIES
----------------

  NO   OCC          E(Eh)            E(eV)
   0   2.0000     -18.946420      -515.5583
   1   2.0000     -10.072983      -274.0998
   2   2.0000     -10.028951      -272.9016
   3   2.0000     -10.014718      -272.5143
   4   2.0000      -0.983489       -26.7621
   5   2.0000      -0.743233       -20.2244
   6   2.0000      -0.641536       -17.4571
   7   2.0000      -0.564218       -15.3532
   8   2.0000      -0.460303       -12.5255
   9   2.0000      -0.432558       -11.7705
  10   2.0000      -0.420894       -11.4531
  11   2.0000      -0.373547       -10.1647
  12   2.0000      -0.340003        -9.2520
  13   2.0000      -0.329503        -8.9662
  14   2.0000      -0.310763        -8.4563
  15   2.0000      -0.286548        -7.7974
  16   2.0000      -0.235001        -6.3947
  17   0.0000       0.065035         1.7697
  18   0.0000       0.110115         2.9964
  19   0.0000       0.123636         3.3643
  20   0.0000       0.132894         3.6162
  21   0.0000       0.139022         3.7830

MULLIKEN ATOMIC CHARGES
-----------------------
   0 C :   -0.472349
   1 C :   -0.216200
   2 C :   -0.146691
   3 O :   -0.426142
   4 H :    0.144047
   5 H :    0.140449
   6 H :    0.163043
   7 H :    0.125656
   8 H :    0.134023
   9 H :    0.131966
  10 H :    0.129758
  11 H :    0.292439
Sum of atomic charges:   -0.0000000

LOEWDIN ATOMIC CHARGES
----------------------
   0 C :   -0.424982
   1 C :   -0.310162
   2 C :   -0.002306
   3 O :   -0.623474
   4 H :    0.149387
   5 H :    0.151010
   6 H :    0.159481
   7 H :    0.150612
   8 H :    0.156415
   9 H :    0.175113
  10 H :    0.154758
  11 H :    0.264146

  Mayer bond orders larger than 0.100000
B(  0-C ,  1-C ) :   0.9102 B(  0-C ,  4-H ) :   0.9734 B(  0-C ,  5-H ) :   0.9776
B(  0-C ,  6-H ) :   0.9771 B(  1-C ,  2-C ) :   0.9379 B(  1-C ,  7-H ) :   0.9717
B(  1-C ,  8-H ) :   0.9582 B(  2-C ,  3-O ) :   0.9378 B(  2-C ,  9-H ) :   0.9740
B(  2-C , 10-H ) :   0.9738 B(  3-O , 11-H ) :   0.8975

Dispersion correction           -0.002119084
FINAL SINGLE POINT ENERGY      -194.298863617675

DIPOLE MOMENT
-------------

Method             : SCF
Type of density    : Electron Density
Multiplicity       :   1
Irrep              :   0
Energy             :  -194.3037421097100150 Eh
Relativity type    :
Basis              : AO
                                X                 Y                 Z
Electronic contribution:      3.237675075      -0.185696918       0.656837727
Nuclear contribution   :     -3.456764322       0.690123771      -0.965296991
                        -----------------------------------------
Total Dipole Moment    :     -0.219089247       0.504426854      -0.308459264
                        -----------------------------------------
Magnitude (a.u.)       :      0.630550289
Magnitude (Debye)      :      1.602731463

Rotational constants in cm-1:             0.482549             0.167517             0.144367
Rotational constants in MHz :         14466.442711          5022.042779          4328.012427

                             ****ORCA TERMINATED NORMALLY****
TOTAL RUN TIME: 0 days 0 hours 0 minutes 12 seconds 366 msec
