                         Program Version 6.0.0  -   RELEASE  -
|  1> ! r2scan-3c def2/J RI DEFGRID2 scfconv6 printgap
|  2> %output
|  3>     printlevel normal
|  4> end
|  5> %cpcm
|  6>     smd true
|  7>     smdsolvent "water"
|  8> end
|  9> * xyz 0 1
| 10> C -1.5898866235 -0.1730011986 0.4879227758
| 11> C -0.6772101211 0.4999238913 -0.5307821526
| 12> C 0.677820761 -0.2036108753 -0.6274358334
| 13> O 1.4266168282 -0.1390511338 0.5685782712
| 14> H -2.5117605397 0.3899332916 0.6074359761
| 15> H -1.8372349743 -1.1817298047 0.1656589657
| 16> H -1.0905189484 -0.2372885626 1.4518526769
| 17> H -0.518651549 1.5434898265 -0.2490240478
| 18> H -1.1423641718 0.4841596644 -1.5171811423
| 19> H 0.5333739918 -1.2699431666 -0.8175661135
| 20> H 1.2598755916 0.2200713234 -1.4578022802
| 21> H 1.6000724248 0.7891183761 0.7786926881
| 22> *
| 23>
| 24>                          ****END OF INPUT****

CARTESIAN COORDINATES (ANGSTROEM)
---------------------------------
  C     -1.589887   -0.173001    0.487923
  C     -0.677210    0.499924   -0.530782
  C      0.677821   -0.203611   -0.627436
  O      1.426617   -0.139051    0.568578
  H     -2.511761    0.389933    0.607436
  H     -1.837235   -1.181730    0.165659
  H     -1.090519   -0.237289    1.451853
  H     -0.518652    1.543490   -0.249024
  H     -1.142364    0.484160   -1.517181
  H      0.533374   -1.269943   -0.817566
  H      1.259876    0.220071   -1.457802
  H      1.600072    0.789118    0.778693

 Total Charge           Charge          ....    0
 Multiplicity           Mult            ....    1
 Number of Electrons    NEL             ....   34
 Basis Dimension        Dim             ....  121

ORBITAL ENERGIES
----------------

  NO   OCC          E(Eh)            E(eV)
   0   2.0000     -18.949072      -515.6305
   1   2.0000     -10.066300      -273.9180
   2   2.0000     -10.018361      -272.6135
   3   2.0000     -10.008243      -272.3381
   4   2.0000      -0.984922       -26.8011
   5   2.0000      -0.735265       -20.0076
   6   2.0000      -0.635858       -17.3026
   7   2.0000      -0.557409       -15.1679
   8   2.0000      -0.455841       -12.4041
   9   2.0000      -0.425920       -11.5899
  10   2.0000      -0.415556       -11.3078
  11   2.0000      -0.369752       -10.0615
  12   2.0000      -0.336636        -9.1603
  13   2.0000      -0.324725        -8.8362
  14   2.0000      -0.301487        -8.2039
  15   2.0000      -0.284605        -7.7445
  16   2.0000      -0.237991        -6.4761
  17   0.0000       0.080234         2.1833
  18   0.0000       0.121463         3.3052
  19   0.0000       0.131295         3.5727
  20   0.0000       0.142834         3.8867
  21   0.0000       0.146288         3.9807

MULLIKEN ATOMIC CHARGES
-----------------------
   0 C :   -0.514211
   1 C :   -0.225548
   2 C :   -0.144206
   3 O :   -0.514901
   4 H :    0.157072
   5 H :    0.155100
   6 H :    0.155986
   7 H :    0.147869
   8 H :    0.147738
   9 H :    0.144650
  10 H :    0.141436
  11 H :    0.349015
Sum of atomic charges:    0.0000000

LOEWDIN ATOMIC CHARGES
----------------------
   0 C :   -0.433811
   1 C :   -0.308049
   2 C :   -0.002520
   3 O :   -0.661267
   4 H :    0.153540
   5 H :    0.153908
   6 H :    0.154775
   7 H :    0.158432
   8 H :    0.161860
   9 H :    0.177699
  10 H :    0.162119
  11 H :    0.283314

  Mayer bond orders larger than 0.100000
B(  0-C ,  1-C ) :   0.8962 B(  0-C ,  4-H ) :   0.9697 B(  0-C ,  5-H ) :   0.9760
B(  0-C ,  6-H ) :   0.9794 B(  1-C ,  2-C ) :   0.9399 B(  1-C ,  7-H ) :   0.9696
B(  1-C ,  8-H ) :   0.9561 B(  2-C ,  3-O ) :   0.9254 B(  2-C ,  9-H ) :   0.9735
B(  2-C , 10-H ) :   0.9661 B(  3-O , 11-H ) :   0.8694

Dispersion correction           -0.002119084
FINAL SINGLE POINT ENERGY      -194.305554044333

DIPOLE MOMENT
-------------

Method             : SCF
Type of density    : Electron Density
Multiplicity       :   1
Irrep              :   0
Energy             :  -194.3104325363678413 Eh
Relativity type    :
Basis              : AO
                                X                 Y                 Z
Electronic contribution:      3.162569867       0.033158614       0.504542271
Nuclear contribution   :     -3.456764322       0.690123771      -0.965296991
                        -----------------------------------------
Total Dipole Moment    :     -0.294194455       0.723282386      -0.460754720
                        -----------------------------------------
Magnitude (a.u.)       :      0.906632615
Magnitude (Debye)      :      2.304476968

Rotational constants in cm-1:             0.482549             0.167517             0.144367
Rotational constants in MHz :         14466.442711          5022.042779          4328.012427

                             ****ORCA TERMINATED NORMALLY****
TOTAL RUN TIME: 0 days 0 hours 0 minutes 13 seconds 653 msec
