                         Program Version 6.0.0  -   RELEASE  -
|  1> ! r2scan-3c def2/J RI DEFGRID2 scfconv6 printgap
|  2> %output
|  3>     printlevel normal
|  4> end
|  5> * xyz 0 1
|  6> C 3.7245038228 0.1671689665 0.0815650389
|  7> C 2.2551744968 0.3167136214 -0.3021689718
|  8> H 2.1925813197 0.5215715847 -1.3773190737
|  9> C 1.601264948 1.4727609966 0.4519019059
| 10> C 0.1257127048 1.593553685 0.0869885821
| 11> C -0.6456828012 0.3055814382 0.3969985324
| 12> H -0.5181471992 0.0781292026 1.4614795802
| 13> C 0.0062919881 -0.8474003476 -0.3897734427
| 14> H -0.056455059 -0.6307350098 -1.4657340705
| 15> C 1.484343054 -0.9672487423 -0.0092666555
| 16> O -0.5783710425 -2.1146086267 -0.1258610368
| 17> C -2.1589632475 0.5064259067 0.1498317665
| 18> C -2.5706422472 0.3593338742 -1.315137386
| 19> C -3.0013586206 -0.4039406639 1.0462076332
| 20> H 4.2700337036 1.081474074 -0.1391200087
| 21> H 3.8182326965 -0.0418503207 1.1447829087
| 22> H 4.1820176283 -0.6501764572 -0.4703426161
| 23> H 1.6964928405 1.2988250212 1.5259950192
| 24> H 2.1150928559 2.4068626962 0.2164974571
| 25> H -0.3176910201 2.4208321336 0.6447014116
| 26> H 0.035671025 1.8225605397 -0.9773375065
| 27> H 1.5458117162 -1.2087780346 1.0538046865
| 28> H 1.9118705933 -1.8061106816 -0.5621132765
| 29> H -1.3972226718 -2.1993964623 -0.6296028627
| 30> H -2.3842724248 1.5395433434 0.4425471796
| 31> H -2.5043789114 -0.6720991364 -1.652196055
| 32> H -1.9459669739 0.9755830526 -1.9569092856
| 33> H -3.6021211817 0.6823412531 -1.4378548599
| 34> H -2.8415006343 -0.1518541429 2.0923255539
| 35> H -2.7399397867 -1.449277794 0.911767493
| 36> H -4.058547452 -0.2774388997 0.8231732383
| 37> *
| 38>
| 39>                          ****END OF INPUT****

CARTESIAN COORDINATES (ANGSTROEM)
---------------------------------
  C      3.724504    0.167169    0.081565
  C      2.255174    0.316714   -0.302169
  H      2.192581    0.521572   -1.377319
  C      1.601265    1.472761    0.451902
  C      0.125713    1.593554    0.086989
  C     -0.645683    0.305581    0.396999
  H     -0.518147    0.078129    1.461480
  C      0.006292   -0.847400   -0.389773
  H     -0.056455   -0.630735   -1.465734
  C      1.484343   -0.967249   -0.009267
  O     -0.578371   -2.114609   -0.125861
  C     -2.158963    0.506426    0.149832
  C     -2.570642    0.359334   -1.315137
  C     -3.001359   -0.403941    1.046208
  H      4.270034    1.081474   -0.139120
  H      3.818233   -0.041850    1.144783
  H      4.182018   -0.650176   -0.470343
  H      1.696493    1.298825    1.525995
  H      2.115093    2.406863    0.216497
  H     -0.317691    2.420832    0.644701
  H      0.035671    1.822561   -0.977338
  H      1.545812   -1.208778    1.053805
  H      1.911871   -1.806111   -0.562113
  H     -1.397223   -2.199396   -0.629603
  H     -2.384272    1.539543    0.442547
  H     -2.504379   -0.672099   -1.652196
  H     -1.945967    0.975583   -1.956909
  H     -3.602121    0.682341   -1.437855
  H     -2.841501   -0.151854    2.092326
  H     -2.739940   -1.449278    0.911767
  H     -4.058547   -0.277439    0.823173

 Total Charge           Charge          ....    0
 Multiplicity           Mult            ....    1
 Number of Electrons    NEL             ....   88
 Basis Dimension        Dim             ....  314

ORBITAL ENERGIES
----------------

  NO   OCC          E(Eh)            E(eV)
   0   2.0000     -18.943566      -515.4806
   1   2.0000     -10.075523      -274.1689
   2   2.0000     -10.034537      -273.0536
   3   2.0000     -10.031221      -272.9634
   4   2.0000     -10.026434      -272.8331
   5   2.0000     -10.023799      -272.7614
   6   2.0000     -10.022319      -272.7212
   7   2.0000     -10.021302      -272.6935
   8   2.0000     -10.017114      -272.5795
   9   2.0000     -10.014130      -272.4983
  10   2.0000     -10.012229      -272.4466
  11   2.0000      -0.981325       -26.7032
  12   2.0000      -0.805865       -21.9287
  13   2.0000      -0.768687       -20.9170
  14   2.0000      -0.714324       -19.4377
  15   2.0000      -0.698315       -19.0021
  16   2.0000      -0.653502       -17.7827
  17   2.0000      -0.640198       -17.4207
  18   2.0000      -0.572666       -15.5830
  19   2.0000      -0.566435       -15.4135
  20   2.0000      -0.533177       -14.5085
  21   2.0000      -0.518068       -14.0973
  22   2.0000      -0.474455       -12.9106
  23   2.0000      -0.439187       -11.9509
  24   2.0000      -0.427596       -11.6355
  25   2.0000      -0.420386       -11.4393
  26   2.0000      -0.411699       -11.2029
  27   2.0000      -0.385363       -10.4863
  28   2.0000      -0.383117       -10.4251
  29   2.0000      -0.380511       -10.3542
  30   2.0000      -0.363370        -9.8878
  31   2.0000      -0.357836        -9.7372
  32   2.0000      -0.345093        -9.3905
  33   2.0000      -0.340167        -9.2564
  34   2.0000      -0.328177        -8.9302
  35   2.0000      -0.320866        -8.7312
  36   2.0000      -0.314077        -8.5465
  37   2.0000      -0.300786        -8.1848
  38   2.0000      -0.294320        -8.0089
  39   2.0000      -0.293012        -7.9733
  40   2.0000      -0.279928        -7.6172
  41   2.0000      -0.274853        -7.4791
  42   2.0000      -0.263066        -7.1584
  43   2.0000      -0.224895        -6.1197
  44   0.0000       0.047687         1.2976
  45   0.0000       0.082346         2.2407
  46   0.0000       0.090933         2.4744
  47   0.0000       0.102056         2.7771
  48   0.0000       0.112763         3.0684

MULLIKEN ATOMIC CHARGES
-----------------------
   0 C :   -0.500660
   1 C :   -0.039103
   2 H :    0.159758
   3 C :   -0.332121
   4 C :   -0.354155
   5 C :   -0.037116
   6 H :    0.172593
   7 C :   -0.090213
   8 H :    0.155640
   9 C :   -0.384231
  10 O :   -0.412823
  11 C :    0.006116
  12 C :   -0.522477
  13 C :   -0.531682
  14 H :    0.146845
  15 H :    0.151099
  16 H :    0.148271
  17 H :    0.157495
  18 H :    0.146344
  19 H :    0.146688
  20 H :    0.154962
  21 H :    0.164899
  22 H :    0.155950
  23 H :    0.284816
  24 H :    0.149754
  25 H :    0.126370
  26 H :    0.163008
  27 H :    0.154905
  28 H :    0.149404
  29 H :    0.166009
  30 H :    0.143656
Sum of atomic charges:    0.0000000

LOEWDIN ATOMIC CHARGES
----------------------
   0 C :   -0.411848
   1 C :   -0.233174
   2 H :    0.157826
   3 C :   -0.293186
   4 C :   -0.288488
   5 C :   -0.198134
   6 H :    0.172618
   7 C :    0.069713
   8 H :    0.169540
   9 C :   -0.253511
  10 O :   -0.609202
  11 C :   -0.234780
  12 C :   -0.410662
  13 C :   -0.412994
  14 H :    0.152865
  15 H :    0.154480
  16 H :    0.153915
  17 H :    0.159162
  18 H :    0.157785
  19 H :    0.158510
  20 H :    0.158903
  21 H :    0.168754
  22 H :    0.168663
  23 H :    0.262323
  24 H :    0.159883
  25 H :    0.144747
  26 H :    0.155117
  27 H :    0.155644
  28 H :    0.154941
  29 H :    0.160414
  30 H :    0.150178

  Mayer bond orders larger than 0.100000
B(  0-C ,  1-C ) :   0.8864 B(  0-C , 14-H ) :   0.9772 B(  0-C , 15-H ) :   0.9963
B(  0-C , 16-H ) :   0.9770 B(  1-C ,  2-H ) :   0.9556 B(  1-C ,  3-C ) :   0.9105
B(  1-C ,  9-C ) :   0.9019 B(  3-C ,  4-C ) :   0.8821 B(  3-C , 17-H ) :   1.0170
B(  3-C , 18-H ) :   0.9461 B(  4-C ,  5-C ) :   0.9155 B(  4-C , 19-H ) :   0.9462
B(  4-C , 20-H ) :   0.9925 B(  5-C ,  6-H ) :   1.0114 B(  5-C ,  7-C ) :   0.8550
B(  5-C , 11-C ) :   0.8324 B(  7-C ,  8-H ) :   0.9857 B(  7-C ,  9-C ) :   0.9215
B(  7-C , 10-O ) :   0.8929 B(  9-C , 21-H ) :   1.0220 B(  9-C , 22-H ) :   0.9427
B( 10-O , 23-H ) :   0.8881 B( 11-C , 12-C ) :   0.8682 B( 11-C , 13-C ) :   0.9147
B( 11-C , 24-H ) :   0.9941 B( 12-C , 25-H ) :   0.9660 B( 12-C , 26-H ) :   0.9909
B( 12-C , 27-H ) :   0.9685 B( 13-C , 28-H ) :   0.9804 B( 13-C , 29-H ) :   0.9777
B( 13-C , 30-H ) :   0.9795

Dispersion correction           -0.010883960
FINAL SINGLE POINT ENERGY      -468.206419958528

DIPOLE MOMENT
-------------

Method             : SCF
Type of density    : Electron Density
Multiplicity       :   1
Irrep              :   0
Energy             :  -468.2108910759177434 Eh
Relativity type    :
Basis              : AO
                                X                 Y                 Z
Electronic contribution:      0.377280555      -2.977690257       0.021971390
Nuclear contribution   :     -0.570015607       3.477365229      -0.331590097
                        -----------------------------------------
Total Dipole Moment    :     -0.192735052       0.499674972      -0.309618706
                        -----------------------------------------
Magnitude (a.u.)       :      0.618615891
Magnitude (Debye)      :      1.572396635

Rotational constants in cm-1:             0.065190             0.022626             0.019491
Rotational constants in MHz :          1954.348416           678.315645           584.338222

                             ****ORCA TERMINATED NORMALLY****
TOTAL RUN TIME: 0 days 0 hours 0 minutes 48 seconds 293 msec
