                         Program Version 6.0.0  -   RELEASE  -
|  1> ! r2scan-3c def2/J RI DEFGRID2 scfconv6 printgap
|  2> %output
|  3>     printlevel normal
|  4> end
|  5> %cpcm
|  6>     smd true
|  7>     smdsolvent "water"
|  8> end
|  9> * xyz 0 1
| 10> C 3.7245038228 0.1671689665 0.0815650389
| 11> C 2.2551744968 0.3167136214 -0.3021689718
| 12> H 2.1925813197 0.5215715847 -1.3773190737
| 13> C 1.601264948 1.4727609966 0.4519019059
| 14> C 0.1257127048 1.593553685 0.0869885821
| 15> C -0.6456828012 0.3055814382 0.3969985324
| 16> H -0.5181471992 0.0781292026 1.4614795802
| 17> C 0.0062919881 -0.8474003476 -0.3897734427
| 18> H -0.056455059 -0.6307350098 -1.4657340705
| 19> C 1.484343054 -0.9672487423 -0.0092666555
| 20> O -0.5783710425 -2.1146086267 -0.1258610368
| 21> C -2.1589632475 0.5064259067 0.1498317665
| 22> C -2.5706422472 0.3593338742 -1.315137386
| 23> C -3.0013586206 -0.4039406639 1.0462076332
| 24> H 4.2700337036 1.081474074 -0.1391200087
| 25> H 3.8182326965 -0.0418503207 1.1447829087
| 26> H 4.1820176283 -0.6501764572 -0.4703426161
| 27> H 1.6964928405 1.2988250212 1.5259950192
| 28> H 2.1150928559 2.4068626962 0.2164974571
| 29> H -0.3176910201 2.4208321336 0.6447014116
| 30> H 0.035671025 1.8225605397 -0.9773375065
| 31> H 1.5458117162 -1.2087780346 1.0538046865
| 32> H 1.9118705933 -1.8061106816 -0.5621132765
| 33> H -1.3972226718 -2.1993964623 -0.6296028627
| 34> H -2.3842724248 1.5395433434 0.4425471796
| 35> H -2.5043789114 -0.6720991364 -1.652196055
| 36> H -1.9459669739 0.9755830526 -1.9569092856
| 37> H -3.6021211817 0.6823412531 -1.4378548599
| 38> H -2.8415006343 -0.1518541429 2.0923255539
| 39> H -2.7399397867 -1.449277794 0.911767493
| 40> H -4.058547452 -0.2774388997 0.8231732383
| 41> *
| 42>
| 43>                          ****END OF INPUT****

CARTESIAN COORDINATES (ANGSTROEM)
---------------------------------
  C      3.724504    0.167169    0.081565
  C      2.255174    0.316714   -0.302169
  H      2.192581    0.521572   -1.377319
  C      1.601265    1.472761    0.451902
  C      0.125713    1.593554    0.086989
  C     -0.645683    0.305581    0.396999
  H     -0.518147    0.078129    1.461480
  C      0.006292   -0.847400   -0.389773
  H     -0.056455   -0.630735   -1.465734
  C      1.484343   -0.967249   -0.009267
  O     -0.578371   -2.114609   -0.125861
  C     -2.158963    0.506426    0.149832
  C     -2.570642    0.359334   -1.315137
  C     -3.001359   -0.403941    1.046208
  H      4.270034    1.081474   -0.139120
  H      3.818233   -0.041850    1.144783
  H      4.182018   -0.650176   -0.470343
  H      1.696493    1.298825    1.525995
  H      2.115093    2.406863    0.216497
  H     -0.317691    2.420832    0.644701
  H      0.035671    1.822561   -0.977338
  H      1.545812   -1.208778    1.053805
  H      1.911871   -1.806111   -0.562113
  H     -1.397223   -2.199396   -0.629603
  H     -2.384272    1.539543    0.442547
  H     -2.504379   -0.672099   -1.652196
  H     -1.945967    0.975583   -1.956909
  H     -3.602121    0.682341   -1.437855
  H     -2.841501   -0.151854    2.092326
  H     -2.739940   -1.449278    0.911767
  H     -4.058547   -0.277439    0.823173

 Total Charge           Charge          ....    0
 Multiplicity           Mult            ....    1
 Number of Electrons    NEL             ....   88
 Basis Dimension        Dim             ....  314

ORBITAL ENERGIES
----------------

  NO   OCC          E(Eh)            E(eV)
   0   2.0000     -18.947637      -515.5914
   1   2.0000     -10.070304      -274.0269
   2   2.0000     -10.024182      -272.7719
   3   2.0000     -10.023320      -272.7484
   4   2.0000     -10.018543      -272.6184
   5   2.0000     -10.013296      -272.4756
   6   2.0000     -10.012710      -272.4597
   7   2.0000     -10.011632      -272.4304
   8   2.0000     -10.007415      -272.3156
   9   2.0000     -10.006432      -272.2889
  10   2.0000     -10.004189      -272.2278
  11   2.0000      -0.984207       -26.7816
  12   2.0000      -0.797821       -21.7098
  13   2.0000      -0.759300       -20.6616
  14   2.0000      -0.705295       -19.1921
  15   2.0000      -0.692541       -18.8450
  16   2.0000      -0.642571       -17.4852
  17   2.0000      -0.632659       -17.2155
  18   2.0000      -0.566663       -15.4197
  19   2.0000      -0.558188       -15.1891
  20   2.0000      -0.525788       -14.3074
  21   2.0000      -0.509919       -13.8756
  22   2.0000      -0.470162       -12.7938
  23   2.0000      -0.430707       -11.7201
  24   2.0000      -0.419441       -11.4136
  25   2.0000      -0.412549       -11.2260
  26   2.0000      -0.402792       -10.9605
  27   2.0000      -0.376932       -10.2568
  28   2.0000      -0.375118       -10.2075
  29   2.0000      -0.373704       -10.1690
  30   2.0000      -0.355852        -9.6832
  31   2.0000      -0.348873        -9.4933
  32   2.0000      -0.340697        -9.2708
  33   2.0000      -0.332531        -9.0486
  34   2.0000      -0.322005        -8.7622
  35   2.0000      -0.312883        -8.5140
  36   2.0000      -0.305247        -8.3062
  37   2.0000      -0.293143        -7.9768
  38   2.0000      -0.287971        -7.8361
  39   2.0000      -0.284562        -7.7433
  40   2.0000      -0.271872        -7.3980
  41   2.0000      -0.269169        -7.3245
  42   2.0000      -0.255702        -6.9580
  43   2.0000      -0.226152        -6.1539
  44   0.0000       0.064552         1.7566
  45   0.0000       0.092387         2.5140
  46   0.0000       0.100847         2.7442
  47   0.0000       0.111669         3.0387
  48   0.0000       0.122449         3.3320

MULLIKEN ATOMIC CHARGES
-----------------------
   0 C :   -0.550375
   1 C :   -0.019290
   2 H :    0.169990
   3 C :   -0.354227
   4 C :   -0.378683
   5 C :   -0.061127
   6 H :    0.178531
   7 C :   -0.075605
   8 H :    0.172270
   9 C :   -0.399454
  10 O :   -0.500448
  11 C :    0.041823
  12 C :   -0.574976
  13 C :   -0.586257
  14 H :    0.158883
  15 H :    0.163009
  16 H :    0.158551
  17 H :    0.165223
  18 H :    0.154861
  19 H :    0.156530
  20 H :    0.169546
  21 H :    0.171062
  22 H :    0.157497
  23 H :    0.342979
  24 H :    0.157762
  25 H :    0.155622
  26 H :    0.173929
  27 H :    0.163563
  28 H :    0.161364
  29 H :    0.171904
  30 H :    0.155542
Sum of atomic charges:    0.0000000

LOEWDIN ATOMIC CHARGES
----------------------
   0 C :   -0.420923
   1 C :   -0.229670
   2 H :    0.162054
   3 C :   -0.295983
   4 C :   -0.289405
   5 C :   -0.197679
   6 H :    0.172701
   7 C :    0.069038
   8 H :    0.178369
   9 C :   -0.260958
  10 O :   -0.645631
  11 C :   -0.231836
  12 C :   -0.418800
  13 C :   -0.422831
  14 H :    0.155771
  15 H :    0.156557
  16 H :    0.155739
  17 H :    0.160934
  18 H :    0.160003
  19 H :    0.161243
  20 H :    0.163734
  21 H :    0.168874
  22 H :    0.167296
  23 H :    0.280618
  24 H :    0.162193
  25 H :    0.154348
  26 H :    0.157939
  27 H :    0.156886
  28 H :    0.155647
  29 H :    0.159979
  30 H :    0.153796

  Mayer bond orders larger than 0.100000
B(  0-C ,  1-C ) :   0.8689 B(  0-C , 14-H ) :   0.9748 B(  0-C , 15-H ) :   0.9950
B(  0-C , 16-H ) :   0.9752 B(  1-C ,  2-H ) :   0.9527 B(  1-C ,  3-C ) :   0.9119
B(  1-C ,  9-C ) :   0.9084 B(  3-C ,  4-C ) :   0.8817 B(  3-C , 17-H ) :   1.0151
B(  3-C , 18-H ) :   0.9459 B(  4-C ,  5-C ) :   0.9171 B(  4-C , 19-H ) :   0.9465
B(  4-C , 20-H ) :   0.9894 B(  5-C ,  6-H ) :   1.0132 B(  5-C ,  7-C ) :   0.8743
B(  5-C , 11-C ) :   0.8318 B(  7-C ,  8-H ) :   0.9809 B(  7-C ,  9-C ) :   0.9129
B(  7-C , 10-O ) :   0.8731 B(  9-C , 21-H ) :   1.0138 B(  9-C , 22-H ) :   0.9425
B( 10-O , 23-H ) :   0.8642 B( 11-C , 12-C ) :   0.8568 B( 11-C , 13-C ) :   0.8854
B( 11-C , 24-H ) :   0.9958 B( 12-C , 25-H ) :   0.9643 B( 12-C , 26-H ) :   0.9862
B( 12-C , 27-H ) :   0.9668 B( 13-C , 28-H ) :   0.9801 B( 13-C , 29-H ) :   0.9805
B( 13-C , 30-H ) :   0.9767

Dispersion correction           -0.010883960
FINAL SINGLE POINT ENERGY      -468.212124005522

DIPOLE MOMENT
-------------

Method             : SCF
Type of density    : Electron Density
Multiplicity       :   1
Irrep              :   0
Energy             :  -468.2165951229113148 Eh
Relativity type    :
Basis              : AO
                                X                 Y                 Z
Electronic contribution:      0.266430964      -2.742844158      -0.201959830
Nuclear contribution   :     -0.570015607       3.477365229      -0.331590097
                        -----------------------------------------
Total Dipole Moment    :     -0.303584643       0.734521071      -0.533549927
                        -----------------------------------------
Magnitude (a.u.)       :      0.957267133
Magnitude (Debye)      :      2.433179684

Rotational constants in cm-1:             0.065190             0.022626             0.019491
Rotational constants in MHz :          1954.348416           678.315645           584.338222

                             ****ORCA TERMINATED NORMALLY****
TOTAL RUN TIME: 0 days 0 hours 0 minutes 59 seconds 776 msec
