                         Program Version 6.0.0  -   RELEASE  -
|  1> ! pbe def2-sv(p) def2/J RI DEFGRID1 loosescf d4 GCP(DFT/SV(P)) printgap
|  2> %output
|  3>     printlevel normal
|  4> end
|  5> * xyz 0 1
|  6> C -2.9959622931 1.2216328426 0.0093725707
|  7> C -1.7523980229 0.3839632422 -0.0069485407
|  8> C -1.8319968492 -0.9998464654 -0.005794415
|  9> C -0.6858972315 -1.7761552964 -0.0016714481
| 10> C 0.5624040083 -1.1788780279 0.0013366178
| 11> C 0.6552970227 0.2215911029 0.0003793867
| 12> C -0.4978558403 0.9859722453 -0.0032710011
| 13> O 1.9420893311 0.7155335559 0.0014473001
| 14> C 2.1232896988 2.1163407596 -0.0032272646
| 15> O 1.6854675854 -1.9543059607 0.0034465925
| 16> H -3.7545659556 0.7909704939 -0.6395264443
| 17> H -3.4033591548 1.26323534 1.0190804656
| 18> H -2.7863952735 2.2366856823 -0.3163942349
| 19> H -2.797773626 -1.4811039908 -0.0086964417
| 20> H -0.7383878472 -2.8531152884 -0.0020108926
| 21> H -0.4351919785 2.0626935924 -0.0039560698
| 22> H 1.6890398176 2.5664445515 -0.8995760275
| 23> H 3.2007274489 2.2655190471 -0.0032830616
| 24> H 1.6881948036 2.572669607 0.8895533673
| 25> H 2.4635717415 -1.3741433415 0.0041960368
| 26> *
| 27>
| 28>                          ****END OF INPUT****

CARTESIAN COORDINATES (ANGSTROEM)
---------------------------------
  C     -2.995962    1.221633    0.009373
  C     -1.752398    0.383963   -0.006949
  C     -1.831997   -0.999846   -0.005794
  C     -0.685897   -1.776155   -0.001671
  C      0.562404   -1.178878    0.001337
  C      0.655297    0.221591    0.000379
  C     -0.497856    0.985972   -0.003271
  O      1.942089    0.715534    0.001447
  C      2.123290    2.116341   -0.003227
  O      1.685468   -1.954306    0.003447
  H     -3.754566    0.790970   -0.639526
  H     -3.403359    1.263235    1.019080
  H     -2.786395    2.236686   -0.316394
  H     -2.797774   -1.481104   -0.008696
  H     -0.738388   -2.853115   -0.002011
  H     -0.435192    2.062694   -0.003956
  H      1.689040    2.566445   -0.899576
  H      3.200727    2.265519   -0.003283
  H      1.688195    2.572670    0.889553
  H      2.463572   -1.374143    0.004196

 Total Charge           Charge          ....    0
 Multiplicity           Mult            ....    1
 Number of Electrons    NEL             ....   74
 Basis Dimension        Dim             ....  160

ORBITAL ENERGIES
----------------

  NO   OCC          E(Eh)            E(eV)
   0   2.0000     -18.795940      -511.4635
   1   2.0000     -18.769958      -510.7565
   2   2.0000      -9.947709      -270.6909
   3   2.0000      -9.945752      -270.6377
   4   2.0000      -9.941476      -270.5213
   5   2.0000      -9.890974      -269.1471
   6   2.0000      -9.885983      -269.0113
   7   2.0000      -9.879764      -268.8420
   8   2.0000      -9.878416      -268.8054
   9   2.0000      -9.878053      -268.7955
  10   2.0000      -0.977444       -26.5976
  11   2.0000      -0.944538       -25.7022
  12   2.0000      -0.768872       -20.9221
  13   2.0000      -0.692025       -18.8310
  14   2.0000      -0.674951       -18.3664
  15   2.0000      -0.636661       -17.3244
  16   2.0000      -0.603304       -16.4167
  17   2.0000      -0.543329       -14.7847
  18   2.0000      -0.524948       -14.2846
  19   2.0000      -0.498505       -13.5650
  20   2.0000      -0.464995       -12.6531
  21   2.0000      -0.434242       -11.8163
  22   2.0000      -0.426789       -11.6135
  23   2.0000      -0.397693       -10.8218
  24   2.0000      -0.394078       -10.7234
  25   2.0000      -0.376019       -10.2320
  26   2.0000      -0.374084       -10.1793
  27   2.0000      -0.354303        -9.6411
  28   2.0000      -0.349251        -9.5036
  29   2.0000      -0.326670        -8.8891
  30   2.0000      -0.320356        -8.7173
  31   2.0000      -0.295079        -8.0295
  32   2.0000      -0.293691        -7.9917
  33   2.0000      -0.288319        -7.8456
  34   2.0000      -0.270879        -7.3710
  35   2.0000      -0.207916        -5.6577
  36   2.0000      -0.172173        -4.6851
  37   0.0000      -0.019498        -0.5306
  38   0.0000      -0.010869        -0.2958
  39   0.0000       0.034249         0.9319
  40   0.0000       0.041305         1.1240
  41   0.0000       0.063508         1.7281

MULLIKEN ATOMIC CHARGES
-----------------------
   0 C :   -0.224913
   1 C :    0.075550
   2 C :   -0.109813
   3 C :   -0.160575
   4 C :    0.168448
   5 C :    0.225660
   6 C :   -0.294989
   7 O :   -0.313536
   8 C :   -0.108102
   9 O :   -0.337243
  10 H :    0.107380
  11 H :    0.115532
  12 H :    0.097283
  13 H :    0.029916
  14 H :    0.040271
  15 H :    0.018770
  16 H :    0.114194
  17 H :    0.124482
  18 H :    0.114229
  19 H :    0.317456
Sum of atomic charges:   -0.0000000

LOEWDIN ATOMIC CHARGES
----------------------
   0 C :   -0.321402
   1 C :   -0.063816
   2 C :   -0.135502
   3 C :   -0.146099
   4 C :    0.005317
   5 C :   -0.002616
   6 C :   -0.172454
   7 O :   -0.113564
   8 C :   -0.199907
   9 O :   -0.241258
  10 H :    0.127183
  11 H :    0.130683
  12 H :    0.121242
  13 H :    0.120204
  14 H :    0.130965
  15 H :    0.123020
  16 H :    0.111389
  17 H :    0.122028
  18 H :    0.111327
  19 H :    0.293262

  Mayer bond orders larger than 0.100000
B(  0-C ,  1-C ) :   1.0949 B(  0-C , 10-H ) :   0.9418 B(  0-C , 11-H ) :   0.9346
B(  0-C , 12-H ) :   0.9449 B(  1-C ,  2-C ) :   1.3915 B(  1-C ,  6-C ) :   1.3187
B(  2-C ,  3-C ) :   1.3194 B(  2-C , 13-H ) :   0.9712 B(  3-C ,  4-C ) :   1.3919
B(  3-C , 14-H ) :   0.9697 B(  4-C ,  5-C ) :   1.2879 B(  4-C ,  9-O ) :   1.2440
B(  5-C ,  6-C ) :   1.2886 B(  5-C ,  7-O ) :   1.0844 B(  6-C , 15-H ) :   0.9623
B(  7-O ,  8-C ) :   0.9829 B(  8-C , 16-H ) :   0.9423 B(  8-C , 17-H ) :   0.9585
B(  8-C , 18-H ) :   0.9424 B(  9-O , 19-H ) :   0.8231

Dispersion correction           -0.020086638
FINAL SINGLE POINT ENERGY      -460.310877606997

DIPOLE MOMENT
-------------

Method             : SCF
Type of density    : Electron Density
Multiplicity       :   1
Irrep              :   0
Energy             :  -460.3792572525514970 Eh
Relativity type    :
Basis              : AO
                                X                 Y                 Z
Electronic contribution:      4.830795780      -6.524376691      -0.020064632
Nuclear contribution   :     -4.519022162       7.533775608       0.037023913
                        -----------------------------------------
Total Dipole Moment    :      0.311773618       1.009398917       0.016959281
                        -----------------------------------------
Magnitude (a.u.)       :      1.056587232
Magnitude (Debye)      :      2.685631314

Rotational constants in cm-1:             0.063091             0.039182             0.024393
Rotational constants in MHz :          1891.420395          1174.634845           731.281308

                             ****ORCA TERMINATED NORMALLY****
TOTAL RUN TIME: 0 days 0 hours 0 minutes 9 seconds 969 msec
