                         Program Version 6.0.0  -   RELEASE  -
|  1> ! pbe def2-sv(p) def2/J RI DEFGRID1 loosescf d4 GCP(DFT/SV(P)) printgap
|  2> %output
|  3>     printlevel normal
|  4> end
|  5> * xyz 0 1
|  6> C -2.5078462865 -1.0206929327 0.3712091452
|  7> C -1.0587036767 -0.5384537451 0.5906597829
|  8> H -0.8618032708 -0.5013591935 1.6759481066
|  9> C -0.7997713952 0.8450451848 -0.0246394987
| 10> H -0.9627324835 0.7769333864 -1.1061921991
| 11> C 0.6599061456 1.2673144142 0.2072577243
| 12> H 0.8357268515 1.4338308814 1.2841319126
| 13> C 1.6208826771 0.1685009704 -0.2548372694
| 14> H 1.6132279493 0.1386196923 -1.3529948551
| 15> C 1.173033577 -1.2105504157 0.2700357835
| 16> H 1.3378010765 -1.2259051418 1.3711334454
| 17> O -0.1804993639 -1.4818702413 0.00649932
| 18> O 1.9420727313 -2.1695647301 -0.3590118285
| 19> O 2.9011024652 0.4703545027 0.2343147801
| 20> O 0.9547105104 2.4395337311 -0.5098965073
| 21> O -1.6929610782 1.8230028977 0.4445752552
| 22> O -3.0379256933 -0.710708869 -0.8886788186
| 23> H -3.1377035633 -0.6092873257 1.1668319901
| 24> H -2.5064519704 -2.1101388734 0.439513524
| 25> H 1.5318749376 -3.0411257946 -0.2447421209
| 26> H 3.5340688388 -0.1676341917 -0.1271725493
| 27> H 0.2313752315 3.0733644906 -0.3771559545
| 28> H -1.5893419307 1.9341781584 1.4014523566
| 29> H -3.2242123693 0.2386779767 -0.9304987588
| 30> *
| 31>
| 32>                          ****END OF INPUT****

CARTESIAN COORDINATES (ANGSTROEM)
---------------------------------
  C     -2.507846   -1.020693    0.371209
  C     -1.058704   -0.538454    0.590660
  H     -0.861803   -0.501359    1.675948
  C     -0.799771    0.845045   -0.024639
  H     -0.962732    0.776933   -1.106192
  C      0.659906    1.267314    0.207258
  H      0.835727    1.433831    1.284132
  C      1.620883    0.168501   -0.254837
  H      1.613228    0.138620   -1.352995
  C      1.173034   -1.210550    0.270036
  H      1.337801   -1.225905    1.371133
  O     -0.180499   -1.481870    0.006499
  O      1.942073   -2.169565   -0.359012
  O      2.901102    0.470355    0.234315
  O      0.954711    2.439534   -0.509897
  O     -1.692961    1.823003    0.444575
  O     -3.037926   -0.710709   -0.888679
  H     -3.137704   -0.609287    1.166832
  H     -2.506452   -2.110139    0.439514
  H      1.531875   -3.041126   -0.244742
  H      3.534069   -0.167634   -0.127173
  H      0.231375    3.073364   -0.377156
  H     -1.589342    1.934178    1.401452
  H     -3.224212    0.238678   -0.930499

 Total Charge           Charge          ....    0
 Multiplicity           Mult            ....    1
 Number of Electrons    NEL             ....   96
 Basis Dimension        Dim             ....  192

ORBITAL ENERGIES
----------------

  NO   OCC          E(Eh)            E(eV)
   0   2.0000     -18.780604      -511.0462
   1   2.0000     -18.775271      -510.9011
   2   2.0000     -18.766377      -510.6591
   3   2.0000     -18.751387      -510.2512
   4   2.0000     -18.747104      -510.1346
   5   2.0000     -18.746014      -510.1050
   6   2.0000      -9.986832      -271.7555
   7   2.0000      -9.951765      -270.8013
   8   2.0000      -9.950526      -270.7676
   9   2.0000      -9.945226      -270.6234
  10   2.0000      -9.939268      -270.4612
  11   2.0000      -9.938570      -270.4422
  12   2.0000      -0.989246       -26.9188
  13   2.0000      -0.960453       -26.1353
  14   2.0000      -0.934616       -25.4322
  15   2.0000      -0.927207       -25.2306
  16   2.0000      -0.920384       -25.0449
  17   2.0000      -0.912699       -24.8358
  18   2.0000      -0.706542       -19.2260
  19   2.0000      -0.692419       -18.8417
  20   2.0000      -0.623833       -16.9754
  21   2.0000      -0.592716       -16.1286
  22   2.0000      -0.559440       -15.2231
  23   2.0000      -0.536667       -14.6035
  24   2.0000      -0.503175       -13.6921
  25   2.0000      -0.494742       -13.4626
  26   2.0000      -0.486914       -13.2496
  27   2.0000      -0.457347       -12.4450
  28   2.0000      -0.456242       -12.4150
  29   2.0000      -0.437705       -11.9106
  30   2.0000      -0.423856       -11.5337
  31   2.0000      -0.398487       -10.8434
  32   2.0000      -0.385477       -10.4894
  33   2.0000      -0.376804       -10.2533
  34   2.0000      -0.370486       -10.0814
  35   2.0000      -0.354599        -9.6491
  36   2.0000      -0.325864        -8.8672
  37   2.0000      -0.321848        -8.7579
  38   2.0000      -0.304240        -8.2788
  39   2.0000      -0.297417        -8.0931
  40   2.0000      -0.286751        -7.8029
  41   2.0000      -0.277662        -7.5556
  42   2.0000      -0.259040        -7.0488
  43   2.0000      -0.246261        -6.7011
  44   2.0000      -0.234986        -6.3943
  45   2.0000      -0.224219        -6.1013
  46   2.0000      -0.222078        -6.0430
  47   2.0000      -0.199979        -5.4417
  48   0.0000      -0.001932        -0.0526
  49   0.0000       0.027073         0.7367
  50   0.0000       0.029497         0.8027
  51   0.0000       0.042467         1.1556
  52   0.0000       0.059828         1.6280

MULLIKEN ATOMIC CHARGES
-----------------------
   0 C :    0.095067
   1 C :    0.010225
   2 H :    0.036316
   3 C :   -0.004788
   4 H :    0.078468
   5 C :    0.081687
   6 H :    0.040974
   7 C :    0.053229
   8 H :    0.067412
   9 C :    0.180375
  10 H :    0.032125
  11 O :   -0.306536
  12 O :   -0.390201
  13 O :   -0.408958
  14 O :   -0.402491
  15 O :   -0.422588
  16 O :   -0.430495
  17 H :    0.067756
  18 H :    0.093076
  19 H :    0.311007
  20 H :    0.306805
  21 H :    0.297832
  22 H :    0.303972
  23 H :    0.309731
Sum of atomic charges:   -0.0000000

LOEWDIN ATOMIC CHARGES
----------------------
   0 C :   -0.122394
   1 C :   -0.079193
   2 H :    0.095285
   3 C :   -0.094705
   4 H :    0.121598
   5 C :   -0.069839
   6 H :    0.097235
   7 C :   -0.075365
   8 H :    0.114492
   9 C :   -0.005769
  10 H :    0.076407
  11 O :   -0.149167
  12 O :   -0.301805
  13 O :   -0.311930
  14 O :   -0.314378
  15 O :   -0.310938
  16 O :   -0.327586
  17 H :    0.098584
  18 H :    0.121694
  19 H :    0.293016
  20 H :    0.290124
  21 H :    0.280304
  22 H :    0.288072
  23 H :    0.286256

  Mayer bond orders larger than 0.100000
B(  0-C ,  1-C ) :   0.9916 B(  0-C , 16-O ) :   1.1132 B(  0-C , 17-H ) :   0.9181
B(  0-C , 18-H ) :   0.9196 B(  1-C ,  2-H ) :   0.8679 B(  1-C ,  3-C ) :   0.9979
B(  1-C , 11-O ) :   0.9831 B(  3-C ,  4-H ) :   0.8466 B(  3-C ,  5-C ) :   1.0276
B(  3-C , 15-O ) :   1.0004 B(  5-C ,  6-H ) :   0.8693 B(  5-C ,  7-C ) :   1.0074
B(  5-C , 14-O ) :   1.1089 B(  7-C ,  8-H ) :   0.8673 B(  7-C ,  9-C ) :   0.9903
B(  7-C , 13-O ) :   1.0841 B(  9-C , 10-H ) :   0.8791 B(  9-C , 11-O ) :   1.0115
B(  9-C , 12-O ) :   1.1624 B( 12-O , 19-H ) :   0.8368 B( 13-O , 20-H ) :   0.8423
B( 14-O , 21-H ) :   0.8355 B( 15-O , 22-H ) :   0.8440 B( 16-O , 23-H ) :   0.8375

Dispersion correction           -0.023910833
FINAL SINGLE POINT ENERGY      -685.696260681413

DIPOLE MOMENT
-------------

Method             : SCF
Type of density    : Electron Density
Multiplicity       :   1
Irrep              :   0
Energy             :  -685.8259606668134438 Eh
Relativity type    :
Basis              : AO
                                X                 Y                 Z
Electronic contribution:      2.486857656      -0.079816517      -1.940816230
Nuclear contribution   :     -2.987295145      -0.050653235       2.986499450
                        -----------------------------------------
Total Dipole Moment    :     -0.500437490      -0.130469752       1.045683220
                        -----------------------------------------
Magnitude (a.u.)       :      1.166581944
Magnitude (Debye)      :      2.965215653

Rotational constants in cm-1:             0.041196             0.025945             0.017395
Rotational constants in MHz :          1235.035780           777.818450           521.486835

                             ****ORCA TERMINATED NORMALLY****
TOTAL RUN TIME: 0 days 0 hours 0 minutes 11 seconds 802 msec
