                         Program Version 6.0.0  -   RELEASE  -
|  1> ! wb97x-v def2-tzvp def2/J RIJCOSX DEFGRID2 scfconv7 GCP(DFT/TZ) printgap
|  2> %output
|  3>     printlevel normal
|  4> end
|  5> * xyz 0 1
|  6> C -0.9927965519492936 -1.5957684284605855 1.7235817625217494e-05
|  7> S -0.48429801576367304 0.12174918048534139 4.517510380469422e-05
|  8> O -0.828479302044543 0.7673509967202867 1.268046477122124
|  9> O -0.8293059017149591 0.7677010207846362 -1.2675319673800816
| 10> Cl 1.6425684965592864 -0.09809800378251 -0.0005812340341666678
| 11> H -0.6053985124867719 -2.065189346142848 0.9062826728056259
| 12> H -2.08793374807555 -1.5723471489847374 0.00101706109894859
| 13> H -0.606999162989287 -2.064619700308794 -0.90721937726783
| 14> *
| 15>
| 16>                          ****END OF INPUT****

CARTESIAN COORDINATES (ANGSTROEM)
---------------------------------
  C     -0.992797   -1.595768    0.000017
  S     -0.484298    0.121749    0.000045
  O     -0.828479    0.767351    1.268046
  O     -0.829306    0.767701   -1.267532
  Cl     1.642568   -0.098098   -0.000581
  H     -0.605399   -2.065189    0.906283
  H     -2.087934   -1.572347    0.001017
  H     -0.606999   -2.064620   -0.907219

 Total Charge           Charge          ....    0
 Multiplicity           Mult            ....    1
 Number of Electrons    NEL             ....   58
 Basis Dimension        Dim             ....  185

ORBITAL ENERGIES
----------------

  NO   OCC          E(Eh)            E(eV)
   0   2.0000    -107.165040     -2916.1090
   1   2.0000     -94.374206     -2568.0527
   2   2.0000     -21.706815      -590.6725
   3   2.0000     -21.706775      -590.6714
   4   2.0000     -12.129234      -330.0532
   5   2.0000     -11.318374      -307.9886
   6   2.0000      -9.853977      -268.1403
   7   2.0000      -9.109443      -247.8805
   8   2.0000      -9.106755      -247.8074
   9   2.0000      -9.106704      -247.8060
  10   2.0000      -7.836438      -213.2403
  11   2.0000      -7.832973      -213.1460
  12   2.0000      -7.832544      -213.1344
  13   2.0000      -1.779864       -48.4326
  14   2.0000      -1.712152       -46.5900
  15   2.0000      -1.414210       -38.4826
  16   2.0000      -1.327815       -36.1317
  17   2.0000      -1.195973       -32.5441
  18   2.0000      -1.085190       -29.5295
  19   2.0000      -1.043131       -28.3850
  20   2.0000      -1.027165       -27.9506
  21   2.0000      -0.939848       -25.5746
  22   2.0000      -0.930269       -25.3139
  23   2.0000      -0.923596       -25.1323
  24   2.0000      -0.905896       -24.6507
  25   2.0000      -0.901803       -24.5393
  26   2.0000      -0.857550       -23.3351
  27   2.0000      -0.814094       -22.1526
  28   2.0000      -0.812939       -22.1212
  29   0.0000      -0.455998       -12.4083
  30   0.0000      -0.321406        -8.7459
  31   0.0000      -0.247501        -6.7348
  32   0.0000      -0.242344        -6.5945
  33   0.0000      -0.035392        -0.9631

MULLIKEN ATOMIC CHARGES
-----------------------
   0 C :   -0.338617
   1 S :    0.778330
   2 O :   -0.389602
   3 O :   -0.389572
   4 Cl:   -0.168348
   5 H :    0.170710
   6 H :    0.166391
   7 H :    0.170707
Sum of atomic charges:   -0.0000000

LOEWDIN ATOMIC CHARGES
----------------------
   0 C :   -0.410856
   1 S :    0.569379
   2 O :   -0.278311
   3 O :   -0.278279
   4 Cl:    0.004802
   5 H :    0.129800
   6 H :    0.133663
   7 H :    0.129801

  Mayer bond orders larger than 0.100000
B(  0-C ,  1-S ) :   0.8762 B(  0-C ,  5-H ) :   0.9428 B(  0-C ,  6-H ) :   0.9377
B(  0-C ,  7-H ) :   0.9428 B(  1-S ,  2-O ) :   1.9052 B(  1-S ,  3-O ) :   1.9053
B(  1-S ,  4-Cl) :   0.9395

FINAL SINGLE POINT ENERGY     -1048.644039898704

DIPOLE MOMENT
-------------

Method             : SCF
Type of density    : Electron Density
Multiplicity       :   1
Irrep              :   0
Energy             : -1048.6499317889038139 Eh
Relativity type    :
Basis              : AO
                                X                 Y                 Z
Electronic contribution:      5.029820457       3.566146880      -0.001189179
Nuclear contribution   :     -5.323459106      -5.199684983       0.000998628
                        -----------------------------------------
Total Dipole Moment    :     -0.293638649      -1.633538103      -0.000190551
                        -----------------------------------------
Magnitude (a.u.)       :      1.659719984
Magnitude (Debye)      :      4.218672937

Rotational constants in cm-1:             0.147475             0.086303             0.082853
Rotational constants in MHz :          4421.177020          2587.311949          2483.882383

                             ****ORCA TERMINATED NORMALLY****
TOTAL RUN TIME: 0 days 0 hours 0 minutes 48 seconds 515 msec
