                         Program Version 6.0.0  -   RELEASE  -
|  1> ! wb97x-v def2-tzvp def2/J RIJCOSX DEFGRID2 scfconv7 GCP(DFT/TZ) printgap
|  2> %output
|  3>     printlevel normal
|  4> end
|  5> %cpcm
|  6>     smd true
|  7>     smdsolvent "water"
|  8> end
|  9> * xyz 0 1
| 10> C -0.9927965519492936 -1.5957684284605855 1.7235817625217494e-05
| 11> S -0.48429801576367304 0.12174918048534139 4.517510380469422e-05
| 12> O -0.828479302044543 0.7673509967202867 1.268046477122124
| 13> O -0.8293059017149591 0.7677010207846362 -1.2675319673800816
| 14> Cl 1.6425684965592864 -0.09809800378251 -0.0005812340341666678
| 15> H -0.6053985124867719 -2.065189346142848 0.9062826728056259
| 16> H -2.08793374807555 -1.5723471489847374 0.00101706109894859
| 17> H -0.606999162989287 -2.064619700308794 -0.90721937726783
| 18> *
| 19>
| 20>                          ****END OF INPUT****

CARTESIAN COORDINATES (ANGSTROEM)
---------------------------------
  C     -0.992797   -1.595768    0.000017
  S     -0.484298    0.121749    0.000045
  O     -0.828479    0.767351    1.268046
  O     -0.829306    0.767701   -1.267532
  Cl     1.642568   -0.098098   -0.000581
  H     -0.605399   -2.065189    0.906283
  H     -2.087934   -1.572347    0.001017
  H     -0.606999   -2.064620   -0.907219

 Total Charge           Charge          ....    0
 Multiplicity           Mult            ....    1
 Number of Electrons    NEL             ....   58
 Basis Dimension        Dim             ....  185

ORBITAL ENERGIES
----------------

  NO   OCC          E(Eh)            E(eV)
   0   2.0000    -107.166348     -2916.1446
   1   2.0000     -94.376117     -2568.1047
   2   2.0000     -21.712671      -590.8318
   3   2.0000     -21.712629      -590.8307
   4   2.0000     -12.101163      -329.2894
   5   2.0000     -11.319690      -308.0244
   6   2.0000      -9.856066      -268.1972
   7   2.0000      -9.110763      -247.9165
   8   2.0000      -9.108059      -247.8429
   9   2.0000      -9.108040      -247.8424
  10   2.0000      -7.838442      -213.2948
  11   2.0000      -7.834939      -213.1995
  12   2.0000      -7.834656      -213.1918
  13   2.0000      -1.787007       -48.6269
  14   2.0000      -1.720225       -46.8097
  15   2.0000      -1.415002       -38.5042
  16   2.0000      -1.315232       -35.7893
  17   2.0000      -1.190266       -32.3888
  18   2.0000      -1.095895       -29.8208
  19   2.0000      -1.046121       -28.4664
  20   2.0000      -1.023994       -27.8643
  21   2.0000      -0.946228       -25.7482
  22   2.0000      -0.939109       -25.5545
  23   2.0000      -0.928287       -25.2600
  24   2.0000      -0.878189       -23.8967
  25   2.0000      -0.875693       -23.8288
  26   2.0000      -0.855947       -23.2915
  27   2.0000      -0.815917       -22.2022
  28   2.0000      -0.813048       -22.1242
  29   0.0000      -0.456368       -12.4184
  30   0.0000      -0.320735        -8.7277
  31   0.0000      -0.245204        -6.6723
  32   0.0000      -0.232703        -6.3322
  33   0.0000      -0.003658        -0.0995

MULLIKEN ATOMIC CHARGES
-----------------------
   0 C :   -0.352639
   1 S :    0.815500
   2 O :   -0.452881
   3 O :   -0.452845
   4 Cl:   -0.173090
   5 H :    0.204902
   6 H :    0.206156
   7 H :    0.204898
Sum of atomic charges:   -0.0000000

LOEWDIN ATOMIC CHARGES
----------------------
   0 C :   -0.386359
   1 S :    0.586074
   2 O :   -0.319364
   3 O :   -0.319329
   4 Cl:    0.002456
   5 H :    0.143664
   6 H :    0.149194
   7 H :    0.143664

  Mayer bond orders larger than 0.100000
B(  0-C ,  1-S ) :   0.8952 B(  0-C ,  5-H ) :   0.9253 B(  0-C ,  6-H ) :   0.9178
B(  0-C ,  7-H ) :   0.9253 B(  1-S ,  2-O ) :   1.8541 B(  1-S ,  3-O ) :   1.8541
B(  1-S ,  4-Cl) :   0.9509

FINAL SINGLE POINT ENERGY     -1048.657383637677

DIPOLE MOMENT
-------------

Method             : SCF
Type of density    : Electron Density
Multiplicity       :   1
Irrep              :   0
Energy             : -1048.6632755278774312 Eh
Relativity type    :
Basis              : AO
                                X                 Y                 Z
Electronic contribution:      4.956296911       2.998964464      -0.001251213
Nuclear contribution   :     -5.323459106      -5.199684983       0.000998628
                        -----------------------------------------
Total Dipole Moment    :     -0.367162195      -2.200720520      -0.000252585
                        -----------------------------------------
Magnitude (a.u.)       :      2.231138487
Magnitude (Debye)      :      5.671103343

Rotational constants in cm-1:             0.147475             0.086303             0.082853
Rotational constants in MHz :          4421.177020          2587.311949          2483.882383

                             ****ORCA TERMINATED NORMALLY****
TOTAL RUN TIME: 0 days 0 hours 0 minutes 50 seconds 95 msec
