                         Program Version 6.0.0  -   RELEASE  -
|  1> ! pbe def2-sv(p) def2/J RI DEFGRID1 loosescf d4 GCP(DFT/SV(P)) printgap
|  2> %output
|  3>     printlevel normal
|  4> end
|  5> * xyz 0 1
|  6> C -3.5333964255 -0.2976530383 -0.0003155805
|  7> C -2.8609321623 -1.5204911404 0.0002985659
|  8> C -1.4881690168 -1.5603834453 0.0005410079
|  9> C -0.7217469774 -0.3835002143 0.0001885618
| 10> C -1.4099148815 0.8532873758 -0.0001537763
| 11> C -2.8142044864 0.8695558995 -0.0005217037
| 12> C -0.6757345637 2.0738794386 2.27648e-05
| 13> C 0.6757127033 2.073884081 0.0003591437
| 14> C 1.4099088997 0.8533006008 0.000241985
| 15> C 0.721756479 -0.3834884334 5.45224e-05
| 16> C 1.488178511 -1.5603881409 -0.0002503427
| 17> C 2.8609418033 -1.5204804133 -0.0003564504
| 18> C 3.5334027041 -0.2976466683 -0.0001310449
| 19> C 2.8142026359 0.8695565979 0.000102992
| 20> H -4.6127739731 -0.2764387718 -0.0006081506
| 21> H -3.425625461 -2.4409004244 0.0005583112
| 22> H -1.0001818335 -2.5218294012 0.0010445641
| 23> H -3.3200243613 1.8244206544 -0.0008961167
| 24> H -1.2306094535 3.0010142502 -0.000180452
| 25> H 1.2305572089 3.0010312137 0.0003531071
| 26> H 1.00014773 -2.5218328223 -0.0002572067
| 27> H 3.4256311176 -2.440878602 -0.000751558
| 28> H 4.6127829468 -0.2764152552 -0.0003600664
| 29> H 3.3200338406 1.824412003 0.0001365319
| 30> *
| 31>
| 32>                          ****END OF INPUT****

CARTESIAN COORDINATES (ANGSTROEM)
---------------------------------
  C     -3.533396   -0.297653   -0.000316
  C     -2.860932   -1.520491    0.000299
  C     -1.488169   -1.560383    0.000541
  C     -0.721747   -0.383500    0.000189
  C     -1.409915    0.853287   -0.000154
  C     -2.814204    0.869556   -0.000522
  C     -0.675735    2.073879    0.000023
  C      0.675713    2.073884    0.000359
  C      1.409909    0.853301    0.000242
  C      0.721756   -0.383488    0.000055
  C      1.488179   -1.560388   -0.000250
  C      2.860942   -1.520480   -0.000356
  C      3.533403   -0.297647   -0.000131
  C      2.814203    0.869557    0.000103
  H     -4.612774   -0.276439   -0.000608
  H     -3.425625   -2.440900    0.000558
  H     -1.000182   -2.521829    0.001045
  H     -3.320024    1.824421   -0.000896
  H     -1.230609    3.001014   -0.000180
  H      1.230557    3.001031    0.000353
  H      1.000148   -2.521833   -0.000257
  H      3.425631   -2.440879   -0.000752
  H      4.612783   -0.276415   -0.000360
  H      3.320034    1.824412    0.000137

 Total Charge           Charge          ....    0
 Multiplicity           Mult            ....    1
 Number of Electrons    NEL             ....   94
 Basis Dimension        Dim             ....  216

ORBITAL ENERGIES
----------------

  NO   OCC          E(Eh)            E(eV)
   0   2.0000      -9.908869      -269.6340
   1   2.0000      -9.908854      -269.6336
   2   2.0000      -9.905418      -269.5401
   3   2.0000      -9.905313      -269.5373
   4   2.0000      -9.895369      -269.2667
   5   2.0000      -9.895222      -269.2627
   6   2.0000      -9.894953      -269.2554
   7   2.0000      -9.894537      -269.2440
   8   2.0000      -9.894150      -269.2335
   9   2.0000      -9.894126      -269.2329
  10   2.0000      -9.893774      -269.2233
  11   2.0000      -9.893758      -269.2228
  12   2.0000      -9.893271      -269.2096
  13   2.0000      -9.893270      -269.2096
  14   2.0000      -0.804732       -21.8979
  15   2.0000      -0.771887       -21.0041
  16   2.0000      -0.732994       -19.9458
  17   2.0000      -0.701835       -19.0979
  18   2.0000      -0.681858       -18.5543
  19   2.0000      -0.651472       -17.7275
  20   2.0000      -0.645349       -17.5608
  21   2.0000      -0.570896       -15.5349
  22   2.0000      -0.562879       -15.3167
  23   2.0000      -0.550276       -14.9738
  24   2.0000      -0.523989       -14.2585
  25   2.0000      -0.481938       -13.1142
  26   2.0000      -0.475797       -12.9471
  27   2.0000      -0.448276       -12.1982
  28   2.0000      -0.430556       -11.7160
  29   2.0000      -0.424975       -11.5642
  30   2.0000      -0.391178       -10.6445
  31   2.0000      -0.386675       -10.5220
  32   2.0000      -0.381967       -10.3938
  33   2.0000      -0.377069       -10.2606
  34   2.0000      -0.368045       -10.0150
  35   2.0000      -0.365690        -9.9509
  36   2.0000      -0.347614        -9.4590
  37   2.0000      -0.328655        -8.9431
  38   2.0000      -0.321537        -8.7495
  39   2.0000      -0.318228        -8.6594
  40   2.0000      -0.293489        -7.9863
  41   2.0000      -0.287918        -7.8346
  42   2.0000      -0.284571        -7.7436
  43   2.0000      -0.261889        -7.1264
  44   2.0000      -0.242104        -6.5880
  45   2.0000      -0.208135        -5.6636
  46   2.0000      -0.197407        -5.3717
  47   0.0000      -0.069428        -1.8892
  48   0.0000      -0.064378        -1.7518
  49   0.0000      -0.028662        -0.7799
  50   0.0000      -0.002689        -0.0732
  51   0.0000       0.039225         1.0674

MULLIKEN ATOMIC CHARGES
-----------------------
   0 C :   -0.032303
   1 C :   -0.032969
   2 C :   -0.159730
   3 C :    0.123095
   4 C :    0.127772
   5 C :   -0.134040
   6 C :   -0.112487
   7 C :   -0.112488
   8 C :    0.127795
   9 C :    0.123061
  10 C :   -0.159711
  11 C :   -0.032971
  12 C :   -0.032295
  13 C :   -0.134049
  14 H :    0.052145
  15 H :    0.050078
  16 H :    0.042005
  17 H :    0.038479
  18 H :    0.037951
  19 H :    0.037949
  20 H :    0.042016
  21 H :    0.050073
  22 H :    0.052147
  23 H :    0.038477
Sum of atomic charges:    0.0000000

LOEWDIN ATOMIC CHARGES
----------------------
   0 C :   -0.123209
   1 C :   -0.121714
   2 C :   -0.111195
   3 C :   -0.015383
   4 C :   -0.026012
   5 C :   -0.110929
   6 C :   -0.112412
   7 C :   -0.112413
   8 C :   -0.026014
   9 C :   -0.015382
  10 C :   -0.111192
  11 C :   -0.121715
  12 C :   -0.123210
  13 C :   -0.110928
  14 H :    0.124581
  15 H :    0.124244
  16 H :    0.123686
  17 H :    0.123618
  18 H :    0.124724
  19 H :    0.124724
  20 H :    0.123686
  21 H :    0.124244
  22 H :    0.124582
  23 H :    0.123618

  Mayer bond orders larger than 0.100000
B(  0-C ,  1-C ) :   1.2920 B(  0-C ,  5-C ) :   1.4214 B(  0-C , 14-H ) :   0.9636
B(  1-C ,  2-C ) :   1.4302 B(  1-C , 15-H ) :   0.9593 B(  2-C ,  3-C ) :   1.3123
B(  2-C , 16-H ) :   0.9455 B(  3-C ,  4-C ) :   1.2782 B(  3-C ,  9-C ) :   1.1255
B(  4-C ,  5-C ) :   1.2706 B(  4-C ,  6-C ) :   1.1577 B(  5-C , 17-H ) :   0.9647
B(  6-C ,  7-C ) :   1.4998 B(  6-C , 18-H ) :   0.9657 B(  7-C ,  8-C ) :   1.1577
B(  7-C , 19-H ) :   0.9657 B(  8-C ,  9-C ) :   1.2782 B(  8-C , 13-C ) :   1.2706
B(  9-C , 10-C ) :   1.3123 B( 10-C , 11-C ) :   1.4302 B( 10-C , 20-H ) :   0.9455
B( 11-C , 12-C ) :   1.2920 B( 11-C , 21-H ) :   0.9593 B( 12-C , 13-C ) :   1.4214
B( 12-C , 22-H ) :   0.9636 B( 13-C , 23-H ) :   0.9647

Dispersion correction           -0.033798695
FINAL SINGLE POINT ENERGY      -538.381509179380

DIPOLE MOMENT
-------------

Method             : SCF
Type of density    : Electron Density
Multiplicity       :   1
Irrep              :   0
Energy             :  -538.4341247664170851 Eh
Relativity type    :
Basis              : AO
                                X                 Y                 Z
Electronic contribution:      0.000053015       0.750720761       0.000741842
Nuclear contribution   :     -0.000058390      -0.776258907      -0.000901616
                        -----------------------------------------
Total Dipole Moment    :     -0.000005376      -0.025538145      -0.000159775
                        -----------------------------------------
Magnitude (a.u.)       :      0.025538646
Magnitude (Debye)      :      0.064914079

Rotational constants in cm-1:             0.054642             0.018626             0.013891
Rotational constants in MHz :          1638.122330           558.393775           416.440079

                             ****ORCA TERMINATED NORMALLY****
TOTAL RUN TIME: 0 days 0 hours 0 minutes 33 seconds 354 msec
