                         Program Version 6.0.0  -   RELEASE  -
|  1> ! r2scan-3c def2/J RI DEFGRID2 scfconv6 printgap
|  2> %output
|  3>     printlevel normal
|  4> end
|  5> * xyz 0 1
|  6> C -3.9757846769 -0.4947494405 -0.0014952485
|  7> C -2.5313265379 -0.0925697715 0.000504398
|  8> C -2.1687131625 1.267578099 0.0004901843
|  9> C -0.8564741835 1.6496735194 0.0003819885
| 10> C 0.175981674 0.6901029847 0.0002109182
| 11> C 1.5398156302 1.0488022986 -0.0005255278
| 12> C 2.5288673402 0.1012267303 -0.0009442569
| 13> C 2.1659752271 -1.2623866948 -0.0002277835
| 14> C 0.8562674999 -1.6449214726 0.00045723
| 15> C -0.1777568199 -0.6837626749 0.000523367
| 16> C -1.5391904592 -1.0412254102 0.0006429788
| 17> C 3.9802315026 0.4719452165 0.0002094288
| 18> H -4.6226397719 0.3780453546 0.0221799087
| 19> H -4.2050697058 -1.0740087521 -0.8945580383
| 20> H -4.1968023271 -1.1169015387 0.8641548925
| 21> H -2.9482245538 2.0162305347 0.000630718
| 22> H -0.5917620258 2.6976084151 0.0004706391
| 23> H 1.7938421523 2.1000395358 -0.0010105028
| 24> H 2.94926191 -2.0069325789 -0.0003696168
| 25> H 0.5906078347 -2.6925855585 0.0006952932
| 26> H -1.7970867138 -2.0915090515 0.000828493
| 27> H 4.1060883453 1.5507788237 -0.0317821764
| 28> H 4.4649802786 0.0894905977 0.8973666184
| 29> H 4.4819129887 0.0339912109 -0.8613194232
| 30> *
| 31>
| 32>                          ****END OF INPUT****

CARTESIAN COORDINATES (ANGSTROEM)
---------------------------------
  C     -3.975785   -0.494749   -0.001495
  C     -2.531327   -0.092570    0.000504
  C     -2.168713    1.267578    0.000490
  C     -0.856474    1.649674    0.000382
  C      0.175982    0.690103    0.000211
  C      1.539816    1.048802   -0.000526
  C      2.528867    0.101227   -0.000944
  C      2.165975   -1.262387   -0.000228
  C      0.856267   -1.644921    0.000457
  C     -0.177757   -0.683763    0.000523
  C     -1.539190   -1.041225    0.000643
  C      3.980232    0.471945    0.000209
  H     -4.622640    0.378045    0.022180
  H     -4.205070   -1.074009   -0.894558
  H     -4.196802   -1.116902    0.864155
  H     -2.948225    2.016231    0.000631
  H     -0.591762    2.697608    0.000471
  H      1.793842    2.100040   -0.001011
  H      2.949262   -2.006933   -0.000370
  H      0.590608   -2.692586    0.000695
  H     -1.797087   -2.091509    0.000828
  H      4.106088    1.550779   -0.031782
  H      4.464980    0.089491    0.897367
  H      4.481913    0.033991   -0.861319

 Total Charge           Charge          ....    0
 Multiplicity           Mult            ....    1
 Number of Electrons    NEL             ....   84
 Basis Dimension        Dim             ....  288

ORBITAL ENERGIES
----------------

  NO   OCC          E(Eh)            E(eV)
   0   2.0000     -10.041255      -273.2364
   1   2.0000     -10.041236      -273.2359
   2   2.0000     -10.040238      -273.2088
   3   2.0000     -10.039685      -273.1937
   4   2.0000     -10.032918      -273.0096
   5   2.0000     -10.032142      -272.9885
   6   2.0000     -10.030612      -272.9468
   7   2.0000     -10.030400      -272.9411
   8   2.0000     -10.028731      -272.8957
   9   2.0000     -10.028495      -272.8892
  10   2.0000     -10.026984      -272.8481
  11   2.0000     -10.026726      -272.8411
  12   2.0000      -0.844686       -22.9851
  13   2.0000      -0.800625       -21.7861
  14   2.0000      -0.743798       -20.2398
  15   2.0000      -0.742693       -20.2097
  16   2.0000      -0.692420       -18.8417
  17   2.0000      -0.681147       -18.5350
  18   2.0000      -0.630584       -17.1591
  19   2.0000      -0.590784       -16.0760
  20   2.0000      -0.565676       -15.3928
  21   2.0000      -0.549801       -14.9609
  22   2.0000      -0.475392       -12.9361
  23   2.0000      -0.475252       -12.9323
  24   2.0000      -0.449258       -12.2249
  25   2.0000      -0.413620       -11.2552
  26   2.0000      -0.402506       -10.9527
  27   2.0000      -0.400891       -10.9088
  28   2.0000      -0.396392       -10.7864
  29   2.0000      -0.391315       -10.6482
  30   2.0000      -0.382517       -10.4088
  31   2.0000      -0.360275        -9.8036
  32   2.0000      -0.353594        -9.6218
  33   2.0000      -0.353045        -9.6068
  34   2.0000      -0.347181        -9.4473
  35   2.0000      -0.324993        -8.8435
  36   2.0000      -0.302410        -8.2290
  37   2.0000      -0.294479        -8.0132
  38   2.0000      -0.291055        -7.9200
  39   2.0000      -0.261609        -7.1188
  40   2.0000      -0.220744        -6.0067
  41   2.0000      -0.194937        -5.3045
  42   0.0000      -0.061748        -1.6802
  43   0.0000      -0.029887        -0.8133
  44   0.0000      -0.000555        -0.0151
  45   0.0000       0.065852         1.7919
  46   0.0000       0.080640         2.1943

MULLIKEN ATOMIC CHARGES
-----------------------
   0 C :   -0.556849
   1 C :    0.223390
   2 C :   -0.224425
   3 C :   -0.284038
   4 C :    0.218975
   5 C :   -0.322877
   6 C :    0.237476
   7 C :   -0.204869
   8 C :   -0.279165
   9 C :    0.228895
  10 C :   -0.286067
  11 C :   -0.553519
  12 H :    0.149902
  13 H :    0.164437
  14 H :    0.162931
  15 H :    0.144899
  16 H :    0.141227
  17 H :    0.141427
  18 H :    0.144963
  19 H :    0.141174
  20 H :    0.140209
  21 H :    0.151394
  22 H :    0.161317
  23 H :    0.159191
Sum of atomic charges:    0.0000000

LOEWDIN ATOMIC CHARGES
----------------------
   0 C :   -0.390414
   1 C :   -0.101003
   2 C :   -0.162588
   3 C :   -0.142386
   4 C :   -0.057284
   5 C :   -0.148906
   6 C :   -0.100959
   7 C :   -0.159390
   8 C :   -0.141228
   9 C :   -0.056644
  10 C :   -0.144783
  11 C :   -0.388980
  12 H :    0.158168
  13 H :    0.165357
  14 H :    0.165092
  15 H :    0.167862
  16 H :    0.169894
  17 H :    0.170487
  18 H :    0.169389
  19 H :    0.169819
  20 H :    0.171532
  21 H :    0.159007
  22 H :    0.164197
  23 H :    0.163758

  Mayer bond orders larger than 0.100000
B(  0-C ,  1-C ) :   0.7723 B(  0-C , 12-H ) :   0.9947 B(  0-C , 13-H ) :   0.9775
B(  0-C , 14-H ) :   0.9790 B(  1-C ,  2-C ) :   1.2686 B(  1-C , 10-C ) :   1.4822
B(  2-C ,  3-C ) :   1.5174 B(  2-C , 15-H ) :   0.9314 B(  3-C ,  4-C ) :   1.2202
B(  3-C , 16-H ) :   0.9512 B(  4-C ,  5-C ) :   1.2342 B(  4-C ,  9-C ) :   1.4982
B(  5-C ,  6-C ) :   1.5203 B(  5-C , 17-H ) :   0.9367 B(  6-C ,  7-C ) :   1.2306
B(  6-C , 11-C ) :   0.7648 B(  7-C ,  8-C ) :   1.5319 B(  7-C , 18-H ) :   0.9450
B(  8-C ,  9-C ) :   1.1950 B(  8-C , 19-H ) :   0.9525 B(  9-C , 10-C ) :   1.2241
B( 10-C , 20-H ) :   0.9565 B( 11-C , 21-H ) :   0.9960 B( 11-C , 22-H ) :   0.9754
B( 11-C , 23-H ) :   0.9770

Dispersion correction           -0.009315836
FINAL SINGLE POINT ENERGY      -464.389262750666

DIPOLE MOMENT
-------------

Method             : SCF
Type of density    : Electron Density
Multiplicity       :   1
Irrep              :   0
Energy             :  -464.3869326513276974 Eh
Relativity type    :
Basis              : AO
                                X                 Y                 Z
Electronic contribution:     -0.017385880       0.063323043       0.002738855
Nuclear contribution   :      0.023555938      -0.108595907      -0.002545436
                        -----------------------------------------
Total Dipole Moment    :      0.006170058      -0.045272864       0.000193420
                        -----------------------------------------
Magnitude (a.u.)       :      0.045691786
Magnitude (Debye)      :      0.116139289

Rotational constants in cm-1:             0.090240             0.019503             0.016133
Rotational constants in MHz :          2705.323214           584.682748           483.647434

                             ****ORCA TERMINATED NORMALLY****
TOTAL RUN TIME: 0 days 0 hours 0 minutes 43 seconds 870 msec
