                         Program Version 6.0.0  -   RELEASE  -
|  1> ! r2scan-3c def2/J RI DEFGRID2 scfconv6 printgap
|  2> %output
|  3>     printlevel normal
|  4> end
|  5> %cpcm
|  6>     smd true
|  7>     smdsolvent "water"
|  8> end
|  9> * xyz 0 1
| 10> C -3.9757846769 -0.4947494405 -0.0014952485
| 11> C -2.5313265379 -0.0925697715 0.000504398
| 12> C -2.1687131625 1.267578099 0.0004901843
| 13> C -0.8564741835 1.6496735194 0.0003819885
| 14> C 0.175981674 0.6901029847 0.0002109182
| 15> C 1.5398156302 1.0488022986 -0.0005255278
| 16> C 2.5288673402 0.1012267303 -0.0009442569
| 17> C 2.1659752271 -1.2623866948 -0.0002277835
| 18> C 0.8562674999 -1.6449214726 0.00045723
| 19> C -0.1777568199 -0.6837626749 0.000523367
| 20> C -1.5391904592 -1.0412254102 0.0006429788
| 21> C 3.9802315026 0.4719452165 0.0002094288
| 22> H -4.6226397719 0.3780453546 0.0221799087
| 23> H -4.2050697058 -1.0740087521 -0.8945580383
| 24> H -4.1968023271 -1.1169015387 0.8641548925
| 25> H -2.9482245538 2.0162305347 0.000630718
| 26> H -0.5917620258 2.6976084151 0.0004706391
| 27> H 1.7938421523 2.1000395358 -0.0010105028
| 28> H 2.94926191 -2.0069325789 -0.0003696168
| 29> H 0.5906078347 -2.6925855585 0.0006952932
| 30> H -1.7970867138 -2.0915090515 0.000828493
| 31> H 4.1060883453 1.5507788237 -0.0317821764
| 32> H 4.4649802786 0.0894905977 0.8973666184
| 33> H 4.4819129887 0.0339912109 -0.8613194232
| 34> *
| 35>
| 36>                          ****END OF INPUT****

CARTESIAN COORDINATES (ANGSTROEM)
---------------------------------
  C     -3.975785   -0.494749   -0.001495
  C     -2.531327   -0.092570    0.000504
  C     -2.168713    1.267578    0.000490
  C     -0.856474    1.649674    0.000382
  C      0.175982    0.690103    0.000211
  C      1.539816    1.048802   -0.000526
  C      2.528867    0.101227   -0.000944
  C      2.165975   -1.262387   -0.000228
  C      0.856267   -1.644921    0.000457
  C     -0.177757   -0.683763    0.000523
  C     -1.539190   -1.041225    0.000643
  C      3.980232    0.471945    0.000209
  H     -4.622640    0.378045    0.022180
  H     -4.205070   -1.074009   -0.894558
  H     -4.196802   -1.116902    0.864155
  H     -2.948225    2.016231    0.000631
  H     -0.591762    2.697608    0.000471
  H      1.793842    2.100040   -0.001011
  H      2.949262   -2.006933   -0.000370
  H      0.590608   -2.692586    0.000695
  H     -1.797087   -2.091509    0.000828
  H      4.106088    1.550779   -0.031782
  H      4.464980    0.089491    0.897367
  H      4.481913    0.033991   -0.861319

 Total Charge           Charge          ....    0
 Multiplicity           Mult            ....    1
 Number of Electrons    NEL             ....   84
 Basis Dimension        Dim             ....  288

ORBITAL ENERGIES
----------------

  NO   OCC          E(Eh)            E(eV)
   0   2.0000     -10.041873      -273.2533
   1   2.0000     -10.041395      -273.2403
   2   2.0000     -10.041097      -273.2322
   3   2.0000     -10.041075      -273.2316
   4   2.0000     -10.032767      -273.0055
   5   2.0000     -10.032232      -272.9909
   6   2.0000     -10.029973      -272.9294
   7   2.0000     -10.029921      -272.9280
   8   2.0000     -10.028109      -272.8787
   9   2.0000     -10.027847      -272.8716
  10   2.0000     -10.017993      -272.6034
  11   2.0000     -10.017653      -272.5942
  12   2.0000      -0.846982       -23.0476
  13   2.0000      -0.800997       -21.7962
  14   2.0000      -0.744615       -20.2620
  15   2.0000      -0.740720       -20.1560
  16   2.0000      -0.692688       -18.8490
  17   2.0000      -0.676543       -18.4097
  18   2.0000      -0.626604       -17.0507
  19   2.0000      -0.590077       -16.0568
  20   2.0000      -0.564720       -15.3668
  21   2.0000      -0.548098       -14.9145
  22   2.0000      -0.473261       -12.8781
  23   2.0000      -0.473202       -12.8765
  24   2.0000      -0.447249       -12.1703
  25   2.0000      -0.410026       -11.1574
  26   2.0000      -0.399687       -10.8760
  27   2.0000      -0.397214       -10.8087
  28   2.0000      -0.393446       -10.7062
  29   2.0000      -0.384990       -10.4761
  30   2.0000      -0.379883       -10.3371
  31   2.0000      -0.356180        -9.6921
  32   2.0000      -0.353866        -9.6292
  33   2.0000      -0.345801        -9.4097
  34   2.0000      -0.341944        -9.3048
  35   2.0000      -0.320790        -8.7291
  36   2.0000      -0.300432        -8.1752
  37   2.0000      -0.293423        -7.9844
  38   2.0000      -0.291825        -7.9410
  39   2.0000      -0.265368        -7.2210
  40   2.0000      -0.224284        -6.1031
  41   2.0000      -0.197865        -5.3842
  42   0.0000      -0.064478        -1.7545
  43   0.0000      -0.032663        -0.8888
  44   0.0000      -0.003722        -0.1013
  45   0.0000       0.065395         1.7795
  46   0.0000       0.089329         2.4308

MULLIKEN ATOMIC CHARGES
-----------------------
   0 C :   -0.577767
   1 C :    0.187783
   2 C :   -0.246510
   3 C :   -0.308147
   4 C :    0.178821
   5 C :   -0.332799
   6 C :    0.204357
   7 C :   -0.219569
   8 C :   -0.310948
   9 C :    0.177559
  10 C :   -0.281289
  11 C :   -0.573733
  12 H :    0.170621
  13 H :    0.179541
  14 H :    0.178219
  15 H :    0.177116
  16 H :    0.174683
  17 H :    0.175377
  18 H :    0.175681
  19 H :    0.174480
  20 H :    0.173378
  21 H :    0.170863
  22 H :    0.177070
  23 H :    0.175214
Sum of atomic charges:    0.0000000

LOEWDIN ATOMIC CHARGES
----------------------
   0 C :   -0.394687
   1 C :   -0.106527
   2 C :   -0.170662
   3 C :   -0.153280
   4 C :   -0.075102
   5 C :   -0.159202
   6 C :   -0.106287
   7 C :   -0.165452
   8 C :   -0.151693
   9 C :   -0.074339
  10 C :   -0.152400
  11 C :   -0.393297
  12 H :    0.164713
  13 H :    0.171291
  14 H :    0.171019
  15 H :    0.179611
  16 H :    0.181756
  17 H :    0.182803
  18 H :    0.180722
  19 H :    0.181816
  20 H :    0.183591
  21 H :    0.164905
  22 H :    0.170561
  23 H :    0.170140

  Mayer bond orders larger than 0.100000
B(  0-C ,  1-C ) :   0.7964 B(  0-C , 12-H ) :   0.9888 B(  0-C , 13-H ) :   0.9699
B(  0-C , 14-H ) :   0.9713 B(  1-C ,  2-C ) :   1.2382 B(  1-C , 10-C ) :   1.4501
B(  2-C ,  3-C ) :   1.4787 B(  2-C , 15-H ) :   0.9509 B(  3-C ,  4-C ) :   1.2108
B(  3-C , 16-H ) :   0.9666 B(  4-C ,  5-C ) :   1.2278 B(  4-C ,  9-C ) :   1.3926
B(  5-C ,  6-C ) :   1.4901 B(  5-C , 17-H ) :   0.9526 B(  6-C ,  7-C ) :   1.1990
B(  6-C , 11-C ) :   0.7878 B(  7-C ,  8-C ) :   1.4980 B(  7-C , 18-H ) :   0.9596
B(  8-C ,  9-C ) :   1.1874 B(  8-C , 19-H ) :   0.9684 B(  9-C , 10-C ) :   1.2315
B( 10-C , 20-H ) :   0.9648 B( 11-C , 21-H ) :   0.9909 B( 11-C , 22-H ) :   0.9675
B( 11-C , 23-H ) :   0.9690

Dispersion correction           -0.009315836
FINAL SINGLE POINT ENERGY      -464.392270448538

DIPOLE MOMENT
-------------

Method             : SCF
Type of density    : Electron Density
Multiplicity       :   1
Irrep              :   0
Energy             :  -464.3899403491997759 Eh
Relativity type    :
Basis              : AO
                                X                 Y                 Z
Electronic contribution:     -0.011998162       0.039158100       0.002782491
Nuclear contribution   :      0.023555938      -0.108595907      -0.002545436
                        -----------------------------------------
Total Dipole Moment    :      0.011557777      -0.069437807       0.000237056
                        -----------------------------------------
Magnitude (a.u.)       :      0.070393519
Magnitude (Debye)      :      0.178926106

Rotational constants in cm-1:             0.090240             0.019503             0.016133
Rotational constants in MHz :          2705.323214           584.682748           483.647434

                             ****ORCA TERMINATED NORMALLY****
TOTAL RUN TIME: 0 days 0 hours 0 minutes 48 seconds 583 msec
