                         Program Version 6.0.0  -   RELEASE  -
|  1> ! wb97x-v def2-tzvp def2/J RIJCOSX DEFGRID2 scfconv7 GCP(DFT/TZ) printgap
|  2> %output
|  3>     printlevel normal
|  4> end
|  5> * xyz 0 1
|  6> C -3.2003649081313004 0.5775619427451774 -0.0015767358783528094
|  7> O -2.307396827239703 -0.542079845742589 0.0074543608049484865
|  8> C -0.954569876487272 -0.25834587337925596 0.001165532305802454
|  9> C -0.09803910841582132 -1.3618344728032818 -0.0014409037228875234
| 10> C 1.2772337298493963 -1.1840867265195543 -0.009489512666236455
| 11> C 1.8377412498888697 0.10248876821175225 -0.015246654262346959
| 12> C 0.9694953908286618 1.1979149753310685 -0.0066116089410908786
| 13> C -0.415060510456029 1.0270241770552913 0.0005879211973379651
| 14> N 3.224963502477223 0.2786843519874344 -0.09587248352681099
| 15> H -3.0669573446399228 1.1983994159100324 0.8924423607778268
| 16> H -4.206726653983969 0.15649669448917705 -0.003948709524636629
| 17> H -3.058808873030562 1.1895767634015053 -0.900416369346031
| 18> H -0.5210501779517699 -2.361629342908142 0.005517059480708685
| 19> H 1.9299320674066103 -2.0528402230240808 -0.011373326981989503
| 20> H 1.378151844396533 2.2047769556919743 -0.006176640512472229
| 21> H -1.0496162299627234 1.9050500849959855 0.00904362104935686
| 22> H 3.7486999432437966 -0.492979325570466 0.2949778348838199
| 23> H 3.5395174999462156 1.1576318480004788 0.29264186141553733
| 24> *
| 25>
| 26>                          ****END OF INPUT****

CARTESIAN COORDINATES (ANGSTROEM)
---------------------------------
  C     -3.200365    0.577562   -0.001577
  O     -2.307397   -0.542080    0.007454
  C     -0.954570   -0.258346    0.001166
  C     -0.098039   -1.361834   -0.001441
  C      1.277234   -1.184087   -0.009490
  C      1.837741    0.102489   -0.015247
  C      0.969495    1.197915   -0.006612
  C     -0.415061    1.027024    0.000588
  N      3.224964    0.278684   -0.095872
  H     -3.066957    1.198399    0.892442
  H     -4.206727    0.156497   -0.003949
  H     -3.058809    1.189577   -0.900416
  H     -0.521050   -2.361629    0.005517
  H      1.929932   -2.052840   -0.011373
  H      1.378152    2.204777   -0.006177
  H     -1.049616    1.905050    0.009044
  H      3.748700   -0.492979    0.294978
  H      3.539517    1.157632    0.292642

 Total Charge           Charge          ....    0
 Multiplicity           Mult            ....    1
 Number of Electrons    NEL             ....   66
 Basis Dimension        Dim             ....  333

ORBITAL ENERGIES
----------------

  NO   OCC          E(Eh)            E(eV)
   0   2.0000     -21.692675      -590.2877
   1   2.0000     -16.525602      -449.6845
   2   2.0000     -12.097562      -329.1914
   3   2.0000     -12.095695      -329.1406
   4   2.0000     -12.082183      -328.7729
   5   2.0000     -12.047346      -327.8249
   6   2.0000     -12.045518      -327.7752
   7   2.0000     -12.044019      -327.7344
   8   2.0000     -12.043073      -327.7087
   9   2.0000      -1.703078       -46.3431
  10   2.0000      -1.482735       -40.3473
  11   2.0000      -1.371175       -37.3116
  12   2.0000      -1.280872       -34.8543
  13   2.0000      -1.270876       -34.5823
  14   2.0000      -1.214054       -33.0361
  15   2.0000      -1.118707       -30.4416
  16   2.0000      -1.104650       -30.0591
  17   2.0000      -1.037455       -28.2306
  18   2.0000      -1.008064       -27.4308
  19   2.0000      -1.002550       -27.2808
  20   2.0000      -0.967354       -26.3231
  21   2.0000      -0.965855       -26.2822
  22   2.0000      -0.916748       -24.9460
  23   2.0000      -0.899184       -24.4680
  24   2.0000      -0.880193       -23.9513
  25   2.0000      -0.871167       -23.7056
  26   2.0000      -0.829247       -22.5650
  27   2.0000      -0.820104       -22.3162
  28   2.0000      -0.812749       -22.1160
  29   2.0000      -0.802142       -21.8274
  30   2.0000      -0.740397       -20.1472
  31   2.0000      -0.638287       -17.3687
  32   2.0000      -0.614655       -16.7256
  33   0.0000      -0.237436        -6.4610
  34   0.0000      -0.235316        -6.4033
  35   0.0000      -0.173358        -4.7173
  36   0.0000      -0.107368        -2.9216
  37   0.0000      -0.069959        -1.9037

MULLIKEN ATOMIC CHARGES
-----------------------
   0 C :   -0.207788
   1 O :   -0.258329
   2 C :    0.268814
   3 C :   -0.182575
   4 C :   -0.212565
   5 C :    0.267269
   6 C :   -0.257456
   7 C :   -0.231465
   8 N :   -0.449402
   9 H :    0.116588
  10 H :    0.133307
  11 H :    0.118338
  12 H :    0.115348
  13 H :    0.107429
  14 H :    0.106031
  15 H :    0.122545
  16 H :    0.222004
  17 H :    0.221908
Sum of atomic charges:   -0.0000000

LOEWDIN ATOMIC CHARGES
----------------------
   0 C :   -0.319616
   1 O :    0.201074
   2 C :   -0.250535
   3 C :   -0.114905
   4 C :   -0.129700
   5 C :   -0.250409
   6 C :   -0.135316
   7 C :   -0.143754
   8 N :   -0.068097
   9 H :    0.103796
  10 H :    0.111268
  11 H :    0.104362
  12 H :    0.147810
  13 H :    0.141007
  14 H :    0.140133
  15 H :    0.145257
  16 H :    0.158874
  17 H :    0.158752

  Mayer bond orders larger than 0.100000
B(  0-C ,  1-O ) :   0.9599 B(  0-C ,  9-H ) :   0.9720 B(  0-C , 10-H ) :   0.9792
B(  0-C , 11-H ) :   0.9724 B(  1-O ,  2-C ) :   1.1287 B(  2-C ,  3-C ) :   1.4005
B(  2-C ,  7-C ) :   1.3511 B(  3-C ,  4-C ) :   1.5033 B(  3-C , 12-H ) :   0.9738
B(  4-C ,  5-C ) :   1.3755 B(  4-C , 13-H ) :   0.9671 B(  5-C ,  6-C ) :   1.4311
B(  5-C ,  8-N ) :   1.0385 B(  6-C ,  7-C ) :   1.4426 B(  6-C , 14-H ) :   0.9530
B(  7-C , 15-H ) :   0.9623 B(  8-N , 16-H ) :   0.9318 B(  8-N , 17-H ) :   0.9315

FINAL SINGLE POINT ENERGY      -402.145634500344

DIPOLE MOMENT
-------------

Method             : SCF
Type of density    : Electron Density
Multiplicity       :   1
Irrep              :   0
Energy             :  -402.1561686481445008 Eh
Relativity type    :
Basis              : AO
                                X                 Y                 Z
Electronic contribution:      1.458028272      -2.273041340      -0.182966664
Nuclear contribution   :     -1.237585643       2.761849085       0.608222689
                        -----------------------------------------
Total Dipole Moment    :      0.220442629       0.488807745       0.425256026
                        -----------------------------------------
Magnitude (a.u.)       :      0.684376104
Magnitude (Debye)      :      1.739545813

Rotational constants in cm-1:             0.161217             0.032991             0.027557
Rotational constants in MHz :          4833.152088           989.052941           826.142013

                             ****ORCA TERMINATED NORMALLY****
TOTAL RUN TIME: 0 days 0 hours 3 minutes 36 seconds 972 msec
