                         Program Version 6.0.0  -   RELEASE  -
|  1> ! wb97x-v def2-tzvp def2/J RIJCOSX DEFGRID2 scfconv7 GCP(DFT/TZ) printgap
|  2> %output
|  3>     printlevel normal
|  4> end
|  5> %cpcm
|  6>     smd true
|  7>     smdsolvent "water"
|  8> end
|  9> * xyz 0 1
| 10> C -3.2003649081313004 0.5775619427451774 -0.0015767358783528094
| 11> O -2.307396827239703 -0.542079845742589 0.0074543608049484865
| 12> C -0.954569876487272 -0.25834587337925596 0.001165532305802454
| 13> C -0.09803910841582132 -1.3618344728032818 -0.0014409037228875234
| 14> C 1.2772337298493963 -1.1840867265195543 -0.009489512666236455
| 15> C 1.8377412498888697 0.10248876821175225 -0.015246654262346959
| 16> C 0.9694953908286618 1.1979149753310685 -0.0066116089410908786
| 17> C -0.415060510456029 1.0270241770552913 0.0005879211973379651
| 18> N 3.224963502477223 0.2786843519874344 -0.09587248352681099
| 19> H -3.0669573446399228 1.1983994159100324 0.8924423607778268
| 20> H -4.206726653983969 0.15649669448917705 -0.003948709524636629
| 21> H -3.058808873030562 1.1895767634015053 -0.900416369346031
| 22> H -0.5210501779517699 -2.361629342908142 0.005517059480708685
| 23> H 1.9299320674066103 -2.0528402230240808 -0.011373326981989503
| 24> H 1.378151844396533 2.2047769556919743 -0.006176640512472229
| 25> H -1.0496162299627234 1.9050500849959855 0.00904362104935686
| 26> H 3.7486999432437966 -0.492979325570466 0.2949778348838199
| 27> H 3.5395174999462156 1.1576318480004788 0.29264186141553733
| 28> *
| 29>
| 30>                          ****END OF INPUT****

CARTESIAN COORDINATES (ANGSTROEM)
---------------------------------
  C     -3.200365    0.577562   -0.001577
  O     -2.307397   -0.542080    0.007454
  C     -0.954570   -0.258346    0.001166
  C     -0.098039   -1.361834   -0.001441
  C      1.277234   -1.184087   -0.009490
  C      1.837741    0.102489   -0.015247
  C      0.969495    1.197915   -0.006612
  C     -0.415061    1.027024    0.000588
  N      3.224964    0.278684   -0.095872
  H     -3.066957    1.198399    0.892442
  H     -4.206727    0.156497   -0.003949
  H     -3.058809    1.189577   -0.900416
  H     -0.521050   -2.361629    0.005517
  H      1.929932   -2.052840   -0.011373
  H      1.378152    2.204777   -0.006177
  H     -1.049616    1.905050    0.009044
  H      3.748700   -0.492979    0.294978
  H      3.539517    1.157632    0.292642

 Total Charge           Charge          ....    0
 Multiplicity           Mult            ....    1
 Number of Electrons    NEL             ....   66
 Basis Dimension        Dim             ....  333

ORBITAL ENERGIES
----------------

  NO   OCC          E(Eh)            E(eV)
   0   2.0000     -21.698719      -590.4522
   1   2.0000     -16.517425      -449.4620
   2   2.0000     -12.101298      -329.2931
   3   2.0000     -12.085631      -328.8667
   4   2.0000     -12.083200      -328.8006
   5   2.0000     -12.047910      -327.8403
   6   2.0000     -12.047064      -327.8173
   7   2.0000     -12.044581      -327.7497
   8   2.0000     -12.043556      -327.7218
   9   2.0000      -1.709489       -46.5176
  10   2.0000      -1.476713       -40.1834
  11   2.0000      -1.373990       -37.3882
  12   2.0000      -1.282308       -34.8934
  13   2.0000      -1.272677       -34.6313
  14   2.0000      -1.212709       -32.9995
  15   2.0000      -1.119825       -30.4720
  16   2.0000      -1.103075       -30.0162
  17   2.0000      -1.037877       -28.2421
  18   2.0000      -1.005780       -27.3687
  19   2.0000      -0.999640       -27.2016
  20   2.0000      -0.972955       -26.4755
  21   2.0000      -0.963531       -26.2190
  22   2.0000      -0.916754       -24.9461
  23   2.0000      -0.896945       -24.4071
  24   2.0000      -0.880122       -23.9493
  25   2.0000      -0.870498       -23.6875
  26   2.0000      -0.821216       -22.3464
  27   2.0000      -0.817348       -22.2412
  28   2.0000      -0.807199       -21.9650
  29   2.0000      -0.800971       -21.7955
  30   2.0000      -0.742896       -20.2152
  31   2.0000      -0.642051       -17.4711
  32   2.0000      -0.618024       -16.8173
  33   0.0000      -0.240881        -6.5547
  34   0.0000      -0.239064        -6.5053
  35   0.0000      -0.172075        -4.6824
  36   0.0000      -0.106872        -2.9081
  37   0.0000      -0.069053        -1.8790

MULLIKEN ATOMIC CHARGES
-----------------------
   0 C :   -0.222926
   1 O :   -0.320183
   2 C :    0.279450
   3 C :   -0.226530
   4 C :   -0.275465
   5 C :    0.227507
   6 C :   -0.313062
   7 C :   -0.259832
   8 N :   -0.504172
   9 H :    0.139968
  10 H :    0.155075
  11 H :    0.140106
  12 H :    0.150129
  13 H :    0.157321
  14 H :    0.158754
  15 H :    0.172096
  16 H :    0.270944
  17 H :    0.270821
Sum of atomic charges:   -0.0000000

LOEWDIN ATOMIC CHARGES
----------------------
   0 C :   -0.315263
   1 O :    0.173176
   2 C :   -0.267950
   3 C :   -0.132973
   4 C :   -0.137027
   5 C :   -0.262339
   6 C :   -0.140930
   7 C :   -0.146671
   8 N :   -0.077695
   9 H :    0.112231
  10 H :    0.116604
  11 H :    0.112359
  12 H :    0.154371
  13 H :    0.153649
  14 H :    0.153110
  15 H :    0.158035
  16 H :    0.173702
  17 H :    0.173610

  Mayer bond orders larger than 0.100000
B(  0-C ,  1-O ) :   0.9205 B(  0-C ,  9-H ) :   0.9697 B(  0-C , 10-H ) :   0.9709
B(  0-C , 11-H ) :   0.9699 B(  1-O ,  2-C ) :   1.0934 B(  2-C ,  3-C ) :   1.3599
B(  2-C ,  7-C ) :   1.3398 B(  3-C ,  4-C ) :   1.4790 B(  3-C , 12-H ) :   0.9835
B(  4-C ,  5-C ) :   1.3591 B(  4-C , 13-H ) :   0.9782 B(  5-C ,  6-C ) :   1.4057
B(  5-C ,  8-N ) :   1.0913 B(  6-C ,  7-C ) :   1.3983 B(  6-C , 14-H ) :   0.9659
B(  7-C , 15-H ) :   0.9648 B(  8-N , 16-H ) :   0.9121 B(  8-N , 17-H ) :   0.9120

FINAL SINGLE POINT ENERGY      -402.156264768946

DIPOLE MOMENT
-------------

Method             : SCF
Type of density    : Electron Density
Multiplicity       :   1
Irrep              :   0
Energy             :  -402.1667989167459041 Eh
Relativity type    :
Basis              : AO
                                X                 Y                 Z
Electronic contribution:      1.621053913      -1.991904288      -0.031765345
Nuclear contribution   :     -1.237585643       2.761849085       0.608222689
                        -----------------------------------------
Total Dipole Moment    :      0.383468269       0.769944798       0.576457344
                        -----------------------------------------
Magnitude (a.u.)       :      1.035454477
Magnitude (Debye)      :      2.631916120

Rotational constants in cm-1:             0.161217             0.032991             0.027557
Rotational constants in MHz :          4833.152088           989.052941           826.142013

                             ****ORCA TERMINATED NORMALLY****
TOTAL RUN TIME: 0 days 0 hours 3 minutes 41 seconds 264 msec
