                         Program Version 6.0.0  -   RELEASE  -
|  1> ! r2scan-3c def2/J RI DEFGRID2 scfconv6 printgap
|  2> %output
|  3>     printlevel normal
|  4> end
|  5> * xyz 0 1
|  6> C -1.314337381 -0.9285059382 -0.1379497838
|  7> C -0.4188270113 0.2973831991 -0.3127344003
|  8> C -1.1131169751 1.5436908474 0.2304836248
|  9> C 0.9287842222 0.108737878 0.3985164109
| 10> O 1.7617808092 -0.8598181954 -0.2026004371
| 11> H -1.489208785 -1.1212601838 0.9187303553
| 12> H -0.866812906 -1.8117863307 -0.5872534576
| 13> H -2.2743244102 -0.7599769544 -0.6192740082
| 14> H -0.2128433354 0.4376681911 -1.379495807
| 15> H -0.495471359 2.4255225583 0.0798943803
| 16> H -1.3033551723 1.4341439571 1.2958458881
| 17> H -2.0625116175 1.6969944186 -0.2756786529
| 18> H 1.5016490594 1.0385884046 0.3538774962
| 19> H 0.7585915771 -0.1394282607 1.455438543
| 20> H 1.3280211899 -1.7222608635 -0.1509671975
| 21> *
| 22>
| 23>                          ****END OF INPUT****

CARTESIAN COORDINATES (ANGSTROEM)
---------------------------------
  C     -1.314337   -0.928506   -0.137950
  C     -0.418827    0.297383   -0.312734
  C     -1.113117    1.543691    0.230484
  C      0.928784    0.108738    0.398516
  O      1.761781   -0.859818   -0.202600
  H     -1.489209   -1.121260    0.918730
  H     -0.866813   -1.811786   -0.587253
  H     -2.274324   -0.759977   -0.619274
  H     -0.212843    0.437668   -1.379496
  H     -0.495471    2.425523    0.079894
  H     -1.303355    1.434144    1.295846
  H     -2.062512    1.696994   -0.275679
  H      1.501649    1.038588    0.353877
  H      0.758592   -0.139428    1.455439
  H      1.328021   -1.722261   -0.150967

 Total Charge           Charge          ....    0
 Multiplicity           Mult            ....    1
 Number of Electrons    NEL             ....   42
 Basis Dimension        Dim             ....  150

ORBITAL ENERGIES
----------------

  NO   OCC          E(Eh)            E(eV)
   0   2.0000     -18.945958      -515.5457
   1   2.0000     -10.071275      -274.0533
   2   2.0000     -10.035656      -273.0841
   3   2.0000     -10.023935      -272.7651
   4   2.0000     -10.021037      -272.6863
   5   2.0000      -0.982838       -26.7444
   6   2.0000      -0.769699       -20.9446
   7   2.0000      -0.658582       -17.9209
   8   2.0000      -0.639496       -17.4016
   9   2.0000      -0.538927       -14.6649
  10   2.0000      -0.481185       -13.0937
  11   2.0000      -0.423959       -11.5365
  12   2.0000      -0.413169       -11.2429
  13   2.0000      -0.403127       -10.9696
  14   2.0000      -0.363453        -9.8901
  15   2.0000      -0.350877        -9.5478
  16   2.0000      -0.345227        -9.3941
  17   2.0000      -0.310520        -8.4497
  18   2.0000      -0.305588        -8.3155
  19   2.0000      -0.285929        -7.7805
  20   2.0000      -0.233190        -6.3454
  21   0.0000       0.057033         1.5519
  22   0.0000       0.090477         2.4620
  23   0.0000       0.125996         3.4285
  24   0.0000       0.131172         3.5694
  25   0.0000       0.135144         3.6775

MULLIKEN ATOMIC CHARGES
-----------------------
   0 C :   -0.500275
   1 C :   -0.004703
   2 C :   -0.486465
   3 C :   -0.186372
   4 O :   -0.417421
   5 H :    0.152797
   6 H :    0.135595
   7 H :    0.150554
   8 H :    0.152060
   9 H :    0.147938
  10 H :    0.145244
  11 H :    0.147966
  12 H :    0.138132
  13 H :    0.132092
  14 H :    0.292857
Sum of atomic charges:   -0.0000000

LOEWDIN ATOMIC CHARGES
----------------------
   0 C :   -0.419328
   1 C :   -0.240889
   2 C :   -0.414881
   3 C :    0.004295
   4 O :   -0.616872
   5 H :    0.154910
   6 H :    0.148586
   7 H :    0.157296
   8 H :    0.162748
   9 H :    0.154868
  10 H :    0.154345
  11 H :    0.154754
  12 H :    0.178302
  13 H :    0.157586
  14 H :    0.264283

  Mayer bond orders larger than 0.100000
B(  0-C ,  1-C ) :   0.9000 B(  0-C ,  5-H ) :   0.9850 B(  0-C ,  6-H ) :   0.9724
B(  0-C ,  7-H ) :   0.9711 B(  1-C ,  2-C ) :   0.9068 B(  1-C ,  3-C ) :   0.8971
B(  1-C ,  8-H ) :   0.9451 B(  2-C ,  9-H ) :   0.9735 B(  2-C , 10-H ) :   0.9808
B(  2-C , 11-H ) :   0.9708 B(  3-C ,  4-O ) :   0.9449 B(  3-C , 12-H ) :   0.9767
B(  3-C , 13-H ) :   0.9876 B(  4-O , 14-H ) :   0.8947

Dispersion correction           -0.003237303
FINAL SINGLE POINT ENERGY      -233.600165717887

DIPOLE MOMENT
-------------

Method             : SCF
Type of density    : Electron Density
Multiplicity       :   1
Irrep              :   0
Energy             :  -233.6054621560161308 Eh
Relativity type    :
Basis              : AO
                                X                 Y                 Z
Electronic contribution:      4.159392743      -1.449911979      -0.843667220
Nuclear contribution   :     -4.773711312       1.374011470       1.020639859
                        -----------------------------------------
Total Dipole Moment    :     -0.614318570      -0.075900509       0.176972640
                        -----------------------------------------
Magnitude (a.u.)       :      0.643791509
Magnitude (Debye)      :      1.636387971

Rotational constants in cm-1:             0.252349             0.116402             0.088160
Rotational constants in MHz :          7565.235168          3489.634056          2642.970255

                             ****ORCA TERMINATED NORMALLY****
TOTAL RUN TIME: 0 days 0 hours 0 minutes 15 seconds 239 msec
