                         Program Version 6.0.0  -   RELEASE  -
|  1> ! r2scan-3c def2/J RI DEFGRID2 scfconv6 printgap
|  2> %output
|  3>     printlevel normal
|  4> end
|  5> %cpcm
|  6>     smd true
|  7>     smdsolvent "water"
|  8> end
|  9> * xyz 0 1
| 10> C -1.314337381 -0.9285059382 -0.1379497838
| 11> C -0.4188270113 0.2973831991 -0.3127344003
| 12> C -1.1131169751 1.5436908474 0.2304836248
| 13> C 0.9287842222 0.108737878 0.3985164109
| 14> O 1.7617808092 -0.8598181954 -0.2026004371
| 15> H -1.489208785 -1.1212601838 0.9187303553
| 16> H -0.866812906 -1.8117863307 -0.5872534576
| 17> H -2.2743244102 -0.7599769544 -0.6192740082
| 18> H -0.2128433354 0.4376681911 -1.379495807
| 19> H -0.495471359 2.4255225583 0.0798943803
| 20> H -1.3033551723 1.4341439571 1.2958458881
| 21> H -2.0625116175 1.6969944186 -0.2756786529
| 22> H 1.5016490594 1.0385884046 0.3538774962
| 23> H 0.7585915771 -0.1394282607 1.455438543
| 24> H 1.3280211899 -1.7222608635 -0.1509671975
| 25> *
| 26>
| 27>                          ****END OF INPUT****

CARTESIAN COORDINATES (ANGSTROEM)
---------------------------------
  C     -1.314337   -0.928506   -0.137950
  C     -0.418827    0.297383   -0.312734
  C     -1.113117    1.543691    0.230484
  C      0.928784    0.108738    0.398516
  O      1.761781   -0.859818   -0.202600
  H     -1.489209   -1.121260    0.918730
  H     -0.866813   -1.811786   -0.587253
  H     -2.274324   -0.759977   -0.619274
  H     -0.212843    0.437668   -1.379496
  H     -0.495471    2.425523    0.079894
  H     -1.303355    1.434144    1.295846
  H     -2.062512    1.696994   -0.275679
  H      1.501649    1.038588    0.353877
  H      0.758592   -0.139428    1.455439
  H      1.328021   -1.722261   -0.150967

 Total Charge           Charge          ....    0
 Multiplicity           Mult            ....    1
 Number of Electrons    NEL             ....   42
 Basis Dimension        Dim             ....  150

ORBITAL ENERGIES
----------------

  NO   OCC          E(Eh)            E(eV)
   0   2.0000     -18.950281      -515.6634
   1   2.0000     -10.065089      -273.8850
   2   2.0000     -10.026441      -272.8333
   3   2.0000     -10.009193      -272.3640
   4   2.0000     -10.008892      -272.3558
   5   2.0000      -0.985983       -26.8300
   6   2.0000      -0.759270       -20.6608
   7   2.0000      -0.645956       -17.5774
   8   2.0000      -0.632960       -17.2237
   9   2.0000      -0.530531       -14.4365
  10   2.0000      -0.476507       -12.9664
  11   2.0000      -0.413736       -11.2583
  12   2.0000      -0.407095       -11.0776
  13   2.0000      -0.395430       -10.7602
  14   2.0000      -0.351651        -9.5689
  15   2.0000      -0.340787        -9.2733
  16   2.0000      -0.340300        -9.2600
  17   2.0000      -0.301011        -8.1909
  18   2.0000      -0.295705        -8.0465
  19   2.0000      -0.282368        -7.6836
  20   2.0000      -0.236898        -6.4463
  21   0.0000       0.073111         1.9895
  22   0.0000       0.102124         2.7789
  23   0.0000       0.137035         3.7289
  24   0.0000       0.141508         3.8506
  25   0.0000       0.145126         3.9491

MULLIKEN ATOMIC CHARGES
-----------------------
   0 C :   -0.530002
   1 C :    0.000169
   2 C :   -0.531648
   3 C :   -0.188075
   4 O :   -0.509638
   5 H :    0.163101
   6 H :    0.155926
   7 H :    0.161055
   8 H :    0.151876
   9 H :    0.158751
  10 H :    0.159050
  11 H :    0.161387
  12 H :    0.150990
  13 H :    0.146576
  14 H :    0.350483
Sum of atomic charges:   -0.0000000

LOEWDIN ATOMIC CHARGES
----------------------
   0 C :   -0.424760
   1 C :   -0.237532
   2 C :   -0.421683
   3 C :    0.001931
   4 O :   -0.656168
   5 H :    0.158733
   6 H :    0.155714
   7 H :    0.158748
   8 H :    0.161876
   9 H :    0.157220
  10 H :    0.158113
  11 H :    0.158199
  12 H :    0.181037
  13 H :    0.165739
  14 H :    0.282833

  Mayer bond orders larger than 0.100000
B(  0-C ,  1-C ) :   0.9022 B(  0-C ,  5-H ) :   0.9809 B(  0-C ,  6-H ) :   0.9658
B(  0-C ,  7-H ) :   0.9708 B(  1-C ,  2-C ) :   0.9012 B(  1-C ,  3-C ) :   0.9069
B(  1-C ,  8-H ) :   0.9489 B(  2-C ,  9-H ) :   0.9706 B(  2-C , 10-H ) :   0.9795
B(  2-C , 11-H ) :   0.9683 B(  3-C ,  4-O ) :   0.9291 B(  3-C , 12-H ) :   0.9734
B(  3-C , 13-H ) :   0.9778 B(  4-O , 14-H ) :   0.8672

Dispersion correction           -0.003237303
FINAL SINGLE POINT ENERGY      -233.606800763564

DIPOLE MOMENT
-------------

Method             : SCF
Type of density    : Electron Density
Multiplicity       :   1
Irrep              :   0
Energy             :  -233.6120972016937571 Eh
Relativity type    :
Basis              : AO
                                X                 Y                 Z
Electronic contribution:      3.954270845      -1.519898623      -0.735269358
Nuclear contribution   :     -4.773711312       1.374011470       1.020639859
                        -----------------------------------------
Total Dipole Moment    :     -0.819440467      -0.145887152       0.285370502
                        -----------------------------------------
Magnitude (a.u.)       :      0.879887529
Magnitude (Debye)      :      2.236496361

Rotational constants in cm-1:             0.252349             0.116402             0.088160
Rotational constants in MHz :          7565.235168          3489.634056          2642.970255

                             ****ORCA TERMINATED NORMALLY****
TOTAL RUN TIME: 0 days 0 hours 0 minutes 18 seconds 162 msec
