                         Program Version 6.0.0  -   RELEASE  -
|  1> ! r2scan-3c def2/J RI DEFGRID2 scfconv6 printgap
|  2> %output
|  3>     printlevel normal
|  4> end
|  5> * xyz 0 1
|  6> C -2.228635971 -0.7511537182 -1.0996617666
|  7> C -1.7793595408 0.0033049864 0.114484151
|  8> O -2.5666014298 0.5953061204 0.8314298844
|  9> C -0.2954046684 0.0371944999 0.4050842346
| 10> C 0.3318556897 1.1768764577 -0.4173856281
| 11> C 1.8096807908 1.322647996 -0.0667079815
| 12> C 2.5526190453 0.0135616424 -0.3175466472
| 13> C 1.9191393056 -1.1208008501 0.4828335018
| 14> C 0.443594888 -1.2706387705 0.1194988448
| 15> H -3.2738102865 -0.534319071 -1.3029701439
| 16> H -1.6171552 -0.4907894152 -1.9582204354
| 17> H -2.1160608962 -1.8166972877 -0.9118135299
| 18> H -0.1856821504 0.292465274 1.4655268834
| 19> H 0.2318819572 0.9560147603 -1.481624947
| 20> H -0.198606564 2.1092018307 -0.2118784781
| 21> H 2.2477226775 2.1219773814 -0.6669791221
| 22> H 1.9070086683 1.6009671047 0.9847145994
| 23> H 2.5122672064 -0.2274967167 -1.3818630685
| 24> H 3.6016335922 0.1247450042 -0.0385083704
| 25> H 2.4431651294 -2.056328326 0.2803628926
| 26> H 2.0125733042 -0.908636169 1.5501227165
| 27> H 0.364877723 -1.5213578482 -0.9383546018
| 28> H -0.000536404 -2.0805120555 0.7013850154
| 29> *
| 30>
| 31>                          ****END OF INPUT****

CARTESIAN COORDINATES (ANGSTROEM)
---------------------------------
  C     -2.228636   -0.751154   -1.099662
  C     -1.779360    0.003305    0.114484
  O     -2.566601    0.595306    0.831430
  C     -0.295405    0.037194    0.405084
  C      0.331856    1.176876   -0.417386
  C      1.809681    1.322648   -0.066708
  C      2.552619    0.013562   -0.317547
  C      1.919139   -1.120801    0.482834
  C      0.443595   -1.270639    0.119499
  H     -3.273810   -0.534319   -1.302970
  H     -1.617155   -0.490789   -1.958220
  H     -2.116061   -1.816697   -0.911814
  H     -0.185682    0.292465    1.465527
  H      0.231882    0.956015   -1.481625
  H     -0.198607    2.109202   -0.211878
  H      2.247723    2.121977   -0.666979
  H      1.907009    1.600967    0.984715
  H      2.512267   -0.227497   -1.381863
  H      3.601634    0.124745   -0.038508
  H      2.443165   -2.056328    0.280363
  H      2.012573   -0.908636    1.550123
  H      0.364878   -1.521358   -0.938355
  H     -0.000536   -2.080512    0.701385

 Total Charge           Charge          ....    0
 Multiplicity           Mult            ....    1
 Number of Electrons    NEL             ....   70
 Basis Dimension        Dim             ....  246

ORBITAL ENERGIES
----------------

  NO   OCC          E(Eh)            E(eV)
   0   2.0000     -18.930395      -515.1222
   1   2.0000     -10.113423      -275.2002
   2   2.0000     -10.040365      -273.2122
   3   2.0000     -10.037426      -273.1322
   4   2.0000     -10.036031      -273.0943
   5   2.0000     -10.032528      -272.9990
   6   2.0000     -10.031744      -272.9776
   7   2.0000     -10.031413      -272.9686
   8   2.0000     -10.030000      -272.9302
   9   2.0000      -0.996729       -27.1224
  10   2.0000      -0.814524       -22.1643
  11   2.0000      -0.740555       -20.1515
  12   2.0000      -0.719017       -19.5654
  13   2.0000      -0.697903       -18.9909
  14   2.0000      -0.599587       -16.3156
  15   2.0000      -0.584715       -15.9109
  16   2.0000      -0.535142       -14.5620
  17   2.0000      -0.501295       -13.6409
  18   2.0000      -0.455201       -12.3866
  19   2.0000      -0.431972       -11.7546
  20   2.0000      -0.422956       -11.5092
  21   2.0000      -0.421290       -11.4639
  22   2.0000      -0.411880       -11.2078
  23   2.0000      -0.390709       -10.6317
  24   2.0000      -0.377682       -10.2772
  25   2.0000      -0.358125        -9.7451
  26   2.0000      -0.356679        -9.7057
  27   2.0000      -0.349161        -9.5012
  28   2.0000      -0.327740        -8.9183
  29   2.0000      -0.320652        -8.7254
  30   2.0000      -0.312085        -8.4923
  31   2.0000      -0.300352        -8.1730
  32   2.0000      -0.288957        -7.8629
  33   2.0000      -0.275198        -7.4885
  34   2.0000      -0.205296        -5.5864
  35   0.0000      -0.042155        -1.1471
  36   0.0000       0.071620         1.9489
  37   0.0000       0.091805         2.4981
  38   0.0000       0.105372         2.8673
  39   0.0000       0.109814         2.9882

MULLIKEN ATOMIC CHARGES
-----------------------
   0 C :   -0.524440
   1 C :    0.259984
   2 O :   -0.339405
   3 C :   -0.094681
   4 C :   -0.332119
   5 C :   -0.290236
   6 C :   -0.283414
   7 C :   -0.286989
   8 C :   -0.326787
   9 H :    0.178519
  10 H :    0.166927
  11 H :    0.171083
  12 H :    0.190311
  13 H :    0.152618
  14 H :    0.161257
  15 H :    0.149081
  16 H :    0.151780
  17 H :    0.140627
  18 H :    0.149324
  19 H :    0.147886
  20 H :    0.150344
  21 H :    0.152836
  22 H :    0.155496
Sum of atomic charges:    0.0000000

LOEWDIN ATOMIC CHARGES
----------------------
   0 C :   -0.384909
   1 C :    0.222577
   2 O :   -0.465534
   3 C :   -0.202618
   4 C :   -0.272538
   5 C :   -0.298130
   6 C :   -0.303791
   7 C :   -0.299103
   8 C :   -0.288393
   9 H :    0.175591
  10 H :    0.168399
  11 H :    0.178128
  12 H :    0.184353
  13 H :    0.157522
  14 H :    0.167593
  15 H :    0.157118
  16 H :    0.157690
  17 H :    0.154307
  18 H :    0.156500
  19 H :    0.156167
  20 H :    0.157605
  21 H :    0.160348
  22 H :    0.161120

  Mayer bond orders larger than 0.100000
B(  0-C ,  1-C ) :   0.8938 B(  0-C ,  9-H ) :   0.9737 B(  0-C , 10-H ) :   0.9648
B(  0-C , 11-H ) :   0.9364 B(  1-C ,  2-O ) :   1.9867 B(  1-C ,  3-C ) :   0.8764
B(  3-C ,  4-C ) :   0.9308 B(  3-C ,  8-C ) :   0.8802 B(  3-C , 12-H ) :   0.9764
B(  4-C ,  5-C ) :   0.8870 B(  4-C , 13-H ) :   0.9981 B(  4-C , 14-H ) :   0.9319
B(  5-C ,  6-C ) :   0.9187 B(  5-C , 15-H ) :   0.9415 B(  5-C , 16-H ) :   0.9968
B(  6-C ,  7-C ) :   0.9212 B(  6-C , 17-H ) :   0.9901 B(  6-C , 18-H ) :   0.9464
B(  7-C ,  8-C ) :   0.9019 B(  7-C , 19-H ) :   0.9425 B(  7-C , 20-H ) :   0.9925
B(  8-C , 21-H ) :   0.9802 B(  8-C , 22-H ) :   0.9445

Dispersion correction           -0.007404655
FINAL SINGLE POINT ENERGY      -388.407302878526

DIPOLE MOMENT
-------------

Method             : SCF
Type of density    : Electron Density
Multiplicity       :   1
Irrep              :   0
Energy             :  -388.4097145751011908 Eh
Relativity type    :
Basis              : AO
                                X                 Y                 Z
Electronic contribution:     -6.447397447       1.750536771       2.976194277
Nuclear contribution   :      7.400914506      -2.271632600      -3.655992501
                        -----------------------------------------
Total Dipole Moment    :      0.953517059      -0.521095828      -0.679798224
                        -----------------------------------------
Magnitude (a.u.)       :      1.281741499
Magnitude (Debye)      :      3.257927978

Rotational constants in cm-1:             0.102164             0.035256             0.031262
Rotational constants in MHz :          3062.789454          1056.934988           937.217319

                             ****ORCA TERMINATED NORMALLY****
TOTAL RUN TIME: 0 days 0 hours 0 minutes 37 seconds 210 msec
