                         Program Version 6.0.0  -   RELEASE  -
|  1> ! r2scan-3c def2/J RI DEFGRID2 scfconv6 printgap
|  2> %output
|  3>     printlevel normal
|  4> end
|  5> %cpcm
|  6>     smd true
|  7>     smdsolvent "water"
|  8> end
|  9> * xyz 0 1
| 10> C -2.228635971 -0.7511537182 -1.0996617666
| 11> C -1.7793595408 0.0033049864 0.114484151
| 12> O -2.5666014298 0.5953061204 0.8314298844
| 13> C -0.2954046684 0.0371944999 0.4050842346
| 14> C 0.3318556897 1.1768764577 -0.4173856281
| 15> C 1.8096807908 1.322647996 -0.0667079815
| 16> C 2.5526190453 0.0135616424 -0.3175466472
| 17> C 1.9191393056 -1.1208008501 0.4828335018
| 18> C 0.443594888 -1.2706387705 0.1194988448
| 19> H -3.2738102865 -0.534319071 -1.3029701439
| 20> H -1.6171552 -0.4907894152 -1.9582204354
| 21> H -2.1160608962 -1.8166972877 -0.9118135299
| 22> H -0.1856821504 0.292465274 1.4655268834
| 23> H 0.2318819572 0.9560147603 -1.481624947
| 24> H -0.198606564 2.1092018307 -0.2118784781
| 25> H 2.2477226775 2.1219773814 -0.6669791221
| 26> H 1.9070086683 1.6009671047 0.9847145994
| 27> H 2.5122672064 -0.2274967167 -1.3818630685
| 28> H 3.6016335922 0.1247450042 -0.0385083704
| 29> H 2.4431651294 -2.056328326 0.2803628926
| 30> H 2.0125733042 -0.908636169 1.5501227165
| 31> H 0.364877723 -1.5213578482 -0.9383546018
| 32> H -0.000536404 -2.0805120555 0.7013850154
| 33> *
| 34>
| 35>                          ****END OF INPUT****

CARTESIAN COORDINATES (ANGSTROEM)
---------------------------------
  C     -2.228636   -0.751154   -1.099662
  C     -1.779360    0.003305    0.114484
  O     -2.566601    0.595306    0.831430
  C     -0.295405    0.037194    0.405084
  C      0.331856    1.176876   -0.417386
  C      1.809681    1.322648   -0.066708
  C      2.552619    0.013562   -0.317547
  C      1.919139   -1.120801    0.482834
  C      0.443595   -1.270639    0.119499
  H     -3.273810   -0.534319   -1.302970
  H     -1.617155   -0.490789   -1.958220
  H     -2.116061   -1.816697   -0.911814
  H     -0.185682    0.292465    1.465527
  H      0.231882    0.956015   -1.481625
  H     -0.198607    2.109202   -0.211878
  H      2.247723    2.121977   -0.666979
  H      1.907009    1.600967    0.984715
  H      2.512267   -0.227497   -1.381863
  H      3.601634    0.124745   -0.038508
  H      2.443165   -2.056328    0.280363
  H      2.012573   -0.908636    1.550123
  H      0.364878   -1.521358   -0.938355
  H     -0.000536   -2.080512    0.701385

 Total Charge           Charge          ....    0
 Multiplicity           Mult            ....    1
 Number of Electrons    NEL             ....   70
 Basis Dimension        Dim             ....  246

ORBITAL ENERGIES
----------------

  NO   OCC          E(Eh)            E(eV)
   0   2.0000     -18.943920      -515.4903
   1   2.0000     -10.121372      -275.4165
   2   2.0000     -10.032779      -273.0058
   3   2.0000     -10.024995      -272.7940
   4   2.0000     -10.021981      -272.7120
   5   2.0000     -10.020411      -272.6692
   6   2.0000     -10.017225      -272.5826
   7   2.0000     -10.016141      -272.5531
   8   2.0000     -10.014434      -272.5066
   9   2.0000      -1.011936       -27.5362
  10   2.0000      -0.802004       -21.8236
  11   2.0000      -0.731061       -19.8932
  12   2.0000      -0.704729       -19.1766
  13   2.0000      -0.688005       -18.7216
  14   2.0000      -0.589888       -16.0517
  15   2.0000      -0.570711       -15.5298
  16   2.0000      -0.521299       -14.1853
  17   2.0000      -0.495944       -13.4953
  18   2.0000      -0.447981       -12.1902
  19   2.0000      -0.428208       -11.6521
  20   2.0000      -0.414659       -11.2834
  21   2.0000      -0.412085       -11.2134
  22   2.0000      -0.400309       -10.8930
  23   2.0000      -0.390888       -10.6366
  24   2.0000      -0.366105        -9.9622
  25   2.0000      -0.349773        -9.5178
  26   2.0000      -0.343474        -9.3464
  27   2.0000      -0.340854        -9.2751
  28   2.0000      -0.325272        -8.8511
  29   2.0000      -0.306466        -8.3394
  30   2.0000      -0.303958        -8.2711
  31   2.0000      -0.285925        -7.7804
  32   2.0000      -0.278503        -7.5784
  33   2.0000      -0.262647        -7.1470
  34   2.0000      -0.216975        -5.9042
  35   0.0000      -0.046926        -1.2769
  36   0.0000       0.084147         2.2898
  37   0.0000       0.105570         2.8727
  38   0.0000       0.117729         3.2036
  39   0.0000       0.124129         3.3777

MULLIKEN ATOMIC CHARGES
-----------------------
   0 C :   -0.554419
   1 C :    0.298329
   2 O :   -0.451392
   3 C :   -0.089636
   4 C :   -0.337272
   5 C :   -0.310108
   6 C :   -0.296131
   7 C :   -0.304701
   8 C :   -0.339142
   9 H :    0.178763
  10 H :    0.201784
  11 H :    0.202262
  12 H :    0.189651
  13 H :    0.178133
  14 H :    0.159633
  15 H :    0.157093
  16 H :    0.159759
  17 H :    0.151115
  18 H :    0.155319
  19 H :    0.155492
  20 H :    0.158376
  21 H :    0.170942
  22 H :    0.166150
Sum of atomic charges:    0.0000000

LOEWDIN ATOMIC CHARGES
----------------------
   0 C :   -0.382740
   1 C :    0.239074
   2 O :   -0.546524
   3 C :   -0.199633
   4 C :   -0.271087
   5 C :   -0.299776
   6 C :   -0.306387
   7 C :   -0.301374
   8 C :   -0.285082
   9 H :    0.175050
  10 H :    0.184396
  11 H :    0.191952
  12 H :    0.185371
  13 H :    0.166746
  14 H :    0.165815
  15 H :    0.159537
  16 H :    0.159461
  17 H :    0.157720
  18 H :    0.157421
  19 H :    0.158404
  20 H :    0.159407
  21 H :    0.167313
  22 H :    0.164934

  Mayer bond orders larger than 0.100000
B(  0-C ,  1-C ) :   0.9209 B(  0-C ,  9-H ) :   0.9682 B(  0-C , 10-H ) :   0.9478
B(  0-C , 11-H ) :   0.9234 B(  1-C ,  2-O ) :   1.9046 B(  1-C ,  3-C ) :   0.8853
B(  3-C ,  4-C ) :   0.9190 B(  3-C ,  8-C ) :   0.8893 B(  3-C , 12-H ) :   0.9755
B(  4-C ,  5-C ) :   0.8860 B(  4-C , 13-H ) :   0.9916 B(  4-C , 14-H ) :   0.9318
B(  5-C ,  6-C ) :   0.9188 B(  5-C , 15-H ) :   0.9401 B(  5-C , 16-H ) :   0.9970
B(  6-C ,  7-C ) :   0.9185 B(  6-C , 17-H ) :   0.9864 B(  6-C , 18-H ) :   0.9464
B(  7-C ,  8-C ) :   0.8944 B(  7-C , 19-H ) :   0.9414 B(  7-C , 20-H ) :   0.9928
B(  8-C , 21-H ) :   0.9793 B(  8-C , 22-H ) :   0.9437

Dispersion correction           -0.007404655
FINAL SINGLE POINT ENERGY      -388.414920882526

DIPOLE MOMENT
-------------

Method             : SCF
Type of density    : Electron Density
Multiplicity       :   1
Irrep              :   0
Energy             :  -388.4173325791009574 Eh
Relativity type    :
Basis              : AO
                                X                 Y                 Z
Electronic contribution:     -6.088846071       1.462864483       2.604230719
Nuclear contribution   :      7.400914506      -2.271632600      -3.655992501
                        -----------------------------------------
Total Dipole Moment    :      1.312068436      -0.808768117      -1.051761783
                        -----------------------------------------
Magnitude (a.u.)       :      1.865966852
Magnitude (Debye)      :      4.742910813

Rotational constants in cm-1:             0.102164             0.035256             0.031262
Rotational constants in MHz :          3062.789454          1056.934988           937.217319

                             ****ORCA TERMINATED NORMALLY****
TOTAL RUN TIME: 0 days 0 hours 0 minutes 38 seconds 466 msec
