                         Program Version 6.0.0  -   RELEASE  -
|  1> ! pbe def2-sv(p) def2/J RI DEFGRID1 loosescf d4 GCP(DFT/SV(P)) printgap
|  2> %output
|  3>     printlevel normal
|  4> end
|  5> * xyz 0 1
|  6> C -2.0132348383 -0.573460732 -0.7370459271
|  7> C -1.1887459756 -0.0889110672 0.471146962
|  8> H -1.8538157905 -0.0395016458 1.3417424992
|  9> C -0.6069092779 1.3166032515 0.2538369867
| 10> H -1.332638077 1.8826182084 -0.3445783648
| 11> C 0.7293694958 1.2886711604 -0.5184809856
| 12> H 1.1839448505 2.284340173 -0.4330505578
| 13> C 1.6908075677 0.2723788404 0.1328419459
| 14> H 2.595770071 0.1679819756 -0.4763549247
| 15> C 1.0078504625 -1.1077004972 0.1905422821
| 16> H 1.6097370148 -1.7894535725 0.8047730973
| 17> O -0.222170756 -1.0553286869 0.8760117751
| 18> O 0.9113106835 -1.6911521222 -1.0695379669
| 19> O 2.1216688907 0.7013918776 1.3953610597
| 20> O 0.4683014599 0.9622404597 -1.8671322093
| 21> O -0.4341511832 1.9001142849 1.5262345512
| 22> O -2.4896278193 -1.8808887575 -0.5400621234
| 23> H -1.4239635084 -0.5128397994 -1.6593296737
| 24> H -2.8961315346 0.0601448983 -0.8426475764
| 25> H 0.6272580124 -1.0156791338 -1.7142354907
| 26> H 1.3423040315 0.8538359978 1.9582710374
| 27> H 1.1321170542 1.3668461186 -2.4434276927
| 28> H -0.344239136 2.8607500402 1.4486042009
| 29> H -1.742185366 -2.4339811738 -0.2646552117
| 30> *
| 31>
| 32>                          ****END OF INPUT****

CARTESIAN COORDINATES (ANGSTROEM)
---------------------------------
  C     -2.013235   -0.573461   -0.737046
  C     -1.188746   -0.088911    0.471147
  H     -1.853816   -0.039502    1.341742
  C     -0.606909    1.316603    0.253837
  H     -1.332638    1.882618   -0.344578
  C      0.729369    1.288671   -0.518481
  H      1.183945    2.284340   -0.433051
  C      1.690808    0.272379    0.132842
  H      2.595770    0.167982   -0.476355
  C      1.007850   -1.107700    0.190542
  H      1.609737   -1.789454    0.804773
  O     -0.222171   -1.055329    0.876012
  O      0.911311   -1.691152   -1.069538
  O      2.121669    0.701392    1.395361
  O      0.468301    0.962240   -1.867132
  O     -0.434151    1.900114    1.526235
  O     -2.489628   -1.880889   -0.540062
  H     -1.423964   -0.512840   -1.659330
  H     -2.896132    0.060145   -0.842648
  H      0.627258   -1.015679   -1.714235
  H      1.342304    0.853836    1.958271
  H      1.132117    1.366846   -2.443428
  H     -0.344239    2.860750    1.448604
  H     -1.742185   -2.433981   -0.264655

 Total Charge           Charge          ....    0
 Multiplicity           Mult            ....    1
 Number of Electrons    NEL             ....   96
 Basis Dimension        Dim             ....  192

ORBITAL ENERGIES
----------------

  NO   OCC          E(Eh)            E(eV)
   0   2.0000     -18.797581      -511.5082
   1   2.0000     -18.782283      -511.0919
   2   2.0000     -18.766174      -510.6536
   3   2.0000     -18.751287      -510.2485
   4   2.0000     -18.747407      -510.1429
   5   2.0000     -18.731056      -509.6980
   6   2.0000      -9.978864      -271.5387
   7   2.0000      -9.965630      -271.1786
   8   2.0000      -9.964320      -271.1429
   9   2.0000      -9.946099      -270.6471
  10   2.0000      -9.945987      -270.6441
  11   2.0000      -9.926828      -270.1227
  12   2.0000      -0.984261       -26.7831
  13   2.0000      -0.963526       -26.2189
  14   2.0000      -0.955698       -26.0059
  15   2.0000      -0.924440       -25.1553
  16   2.0000      -0.913880       -24.8679
  17   2.0000      -0.900066       -24.4920
  18   2.0000      -0.718596       -19.5540
  19   2.0000      -0.689333       -18.7577
  20   2.0000      -0.617991       -16.8164
  21   2.0000      -0.597237       -16.2517
  22   2.0000      -0.581143       -15.8137
  23   2.0000      -0.525404       -14.2970
  24   2.0000      -0.516239       -14.0476
  25   2.0000      -0.503526       -13.7016
  26   2.0000      -0.481674       -13.1070
  27   2.0000      -0.454171       -12.3586
  28   2.0000      -0.453192       -12.3320
  29   2.0000      -0.431528       -11.7425
  30   2.0000      -0.425658       -11.5828
  31   2.0000      -0.400024       -10.8852
  32   2.0000      -0.395021       -10.7491
  33   2.0000      -0.378353       -10.2955
  34   2.0000      -0.369477       -10.0540
  35   2.0000      -0.353429        -9.6173
  36   2.0000      -0.339050        -9.2260
  37   2.0000      -0.322588        -8.7781
  38   2.0000      -0.314947        -8.5702
  39   2.0000      -0.292073        -7.9477
  40   2.0000      -0.280563        -7.6345
  41   2.0000      -0.273357        -7.4384
  42   2.0000      -0.268068        -7.2945
  43   2.0000      -0.264474        -7.1967
  44   2.0000      -0.236719        -6.4414
  45   2.0000      -0.231607        -6.3024
  46   2.0000      -0.204703        -5.5702
  47   2.0000      -0.200607        -5.4588
  48   0.0000      -0.011513        -0.3133
  49   0.0000      -0.001113        -0.0303
  50   0.0000       0.056520         1.5380
  51   0.0000       0.058164         1.5827
  52   0.0000       0.064209         1.7472

MULLIKEN ATOMIC CHARGES
-----------------------
   0 C :    0.044661
   1 C :    0.027606
   2 H :    0.085195
   3 C :    0.029989
   4 H :    0.077671
   5 C :    0.000105
   6 H :    0.065513
   7 C :    0.044278
   8 H :    0.072408
   9 C :    0.200599
  10 H :    0.076749
  11 O :   -0.319319
  12 O :   -0.414648
  13 O :   -0.426487
  14 O :   -0.410950
  15 O :   -0.410169
  16 O :   -0.438542
  17 H :    0.072666
  18 H :    0.079950
  19 H :    0.306369
  20 H :    0.304403
  21 H :    0.321484
  22 H :    0.309943
  23 H :    0.300525
Sum of atomic charges:    0.0000000

LOEWDIN ATOMIC CHARGES
----------------------
   0 C :   -0.140424
   1 C :   -0.068938
   2 H :    0.126053
   3 C :   -0.069946
   4 H :    0.112176
   5 C :   -0.083496
   6 H :    0.103619
   7 C :   -0.092123
   8 H :    0.115279
   9 C :   -0.009798
  10 H :    0.112708
  11 O :   -0.145453
  12 O :   -0.315672
  13 O :   -0.316435
  14 O :   -0.305627
  15 O :   -0.303409
  16 O :   -0.338745
  17 H :    0.093202
  18 H :    0.114352
  19 H :    0.267538
  20 H :    0.273762
  21 H :    0.301287
  22 H :    0.292274
  23 H :    0.277816

  Mayer bond orders larger than 0.100000
B(  0-C ,  1-C ) :   1.0512 B(  0-C , 16-O ) :   1.0842 B(  0-C , 17-H ) :   0.8948
B(  0-C , 18-H ) :   0.9119 B(  1-C ,  2-H ) :   0.8884 B(  1-C ,  3-C ) :   0.9932
B(  1-C , 11-O ) :   1.0150 B(  3-C ,  4-H ) :   0.8947 B(  3-C ,  5-C ) :   0.9775
B(  3-C , 15-O ) :   1.0426 B(  5-C ,  6-H ) :   0.9017 B(  5-C ,  7-C ) :   0.9603
B(  5-C , 14-O ) :   1.0317 B(  7-C ,  8-H ) :   0.8946 B(  7-C ,  9-C ) :   0.9913
B(  7-C , 13-O ) :   1.0675 B(  9-C , 10-H ) :   0.9062 B(  9-C , 11-O ) :   1.0250
B(  9-C , 12-O ) :   1.1204 B( 12-O , 19-H ) :   0.7953 B( 13-O , 20-H ) :   0.8125
B( 14-O , 19-H ) :   0.1009 B( 14-O , 21-H ) :   0.8363 B( 15-O , 22-H ) :   0.8401
B( 16-O , 23-H ) :   0.8318

Dispersion correction           -0.026156386
FINAL SINGLE POINT ENERGY      -685.698084545143

DIPOLE MOMENT
-------------

Method             : SCF
Type of density    : Electron Density
Multiplicity       :   1
Irrep              :   0
Energy             :  -685.8313337243212118 Eh
Relativity type    :
Basis              : AO
                                X                 Y                 Z
Electronic contribution:      1.445011321      -1.473738154       1.763168361
Nuclear contribution   :     -1.028451542       3.441458100      -2.457838501
                        -----------------------------------------
Total Dipole Moment    :      0.416559779       1.967719946      -0.694670139
                        -----------------------------------------
Magnitude (a.u.)       :      2.127912225
Magnitude (Debye)      :      5.408723037

Rotational constants in cm-1:             0.041565             0.028535             0.025087
Rotational constants in MHz :          1246.095397           855.469898           752.076018

                             ****ORCA TERMINATED NORMALLY****
TOTAL RUN TIME: 0 days 0 hours 0 minutes 12 seconds 373 msec
