                         Program Version 6.0.0  -   RELEASE  -
|  1> ! wb97x-v def2-tzvp def2/J RIJCOSX DEFGRID2 scfconv7 GCP(DFT/TZ) printgap
|  2> %output
|  3>     printlevel normal
|  4> end
|  5> * xyz 0 1
|  6> C -2.557689902821557 -0.9126131504173812 0.37302821729715313
|  7> C -1.1396826947382077 -0.43063396717466323 0.6131888151046357
|  8> H -0.9814384439238516 -0.35840893051020306 1.7021497730367028
|  9> C -0.829781488993196 0.9218984893978216 -0.027499000903228866
| 10> H -1.013100552202105 0.8585189532217775 -1.1114359263899964
| 11> C 0.6355506821341251 1.2649737104479462 0.2126390714801902
| 12> H 0.8000087241138202 1.397363929237824 1.289783344736286
| 13> C 1.5362802867667387 0.14228266289223207 -0.2937046217948983
| 14> H 1.4165759819276782 0.04306342409384553 -1.386739959086416
| 15> C 1.1216656914902416 -1.177356556984898 0.35012336712596576
| 16> H 1.2693455980775032 -1.1410223602419096 1.439629487136575
| 17> O -0.2581383406092282 -1.4243256212758204 0.057572843079169225
| 18> O 1.8626378057745177 -2.271329768926448 -0.11974200318804332
| 19> O 2.9031252843079245 0.38352301300363956 0.04254215247025968
| 20> O 0.9913558993266971 2.520425445387118 -0.38336701745234847
| 21> O -1.692194597161065 1.8941664292232754 0.5693635164410236
| 22> O -2.900303184885185 -0.985507167461966 -1.0155313107672632
| 23> H -3.257077669442194 -0.21104742415099254 0.8343087691417876
| 24> H -2.6822716411518366 -1.8914511972250583 0.8556313502943226
| 25> H 1.8806147414812673 -2.2309110016430376 -1.0880948647285118
| 26> H 3.1107933910690266 1.2800728222546676 -0.2568679622235252
| 27> H 0.8612987901751493 2.4384388768913294 -1.3400976645843035
| 28> H -1.4149138456466714 2.7591326617017224 0.23651755329831492
| 29> H -2.321160490576383 -1.6435557265342056 -1.4222047649827747
| 30> *
| 31>
| 32>                          ****END OF INPUT****

CARTESIAN COORDINATES (ANGSTROEM)
---------------------------------
  C     -2.557690   -0.912613    0.373028
  C     -1.139683   -0.430634    0.613189
  H     -0.981438   -0.358409    1.702150
  C     -0.829781    0.921898   -0.027499
  H     -1.013101    0.858519   -1.111436
  C      0.635551    1.264974    0.212639
  H      0.800009    1.397364    1.289783
  C      1.536280    0.142283   -0.293705
  H      1.416576    0.043063   -1.386740
  C      1.121666   -1.177357    0.350123
  H      1.269346   -1.141022    1.439629
  O     -0.258138   -1.424326    0.057573
  O      1.862638   -2.271330   -0.119742
  O      2.903125    0.383523    0.042542
  O      0.991356    2.520425   -0.383367
  O     -1.692195    1.894166    0.569364
  O     -2.900303   -0.985507   -1.015531
  H     -3.257078   -0.211047    0.834309
  H     -2.682272   -1.891451    0.855631
  H      1.880615   -2.230911   -1.088095
  H      3.110793    1.280073   -0.256868
  H      0.861299    2.438439   -1.340098
  H     -1.414914    2.759133    0.236518
  H     -2.321160   -1.643556   -1.422205

 Total Charge           Charge          ....    0
 Multiplicity           Mult            ....    1
 Number of Electrons    NEL             ....   96
 Basis Dimension        Dim             ....  444

ORBITAL ENERGIES
----------------

  NO   OCC          E(Eh)            E(eV)
   0   2.0000     -21.708219      -590.7107
   1   2.0000     -21.696281      -590.3858
   2   2.0000     -21.691793      -590.2637
   3   2.0000     -21.688630      -590.1776
   4   2.0000     -21.686986      -590.1329
   5   2.0000     -21.675529      -589.8211
   6   2.0000     -12.163430      -330.9838
   7   2.0000     -12.121152      -329.8333
   8   2.0000     -12.119831      -329.7974
   9   2.0000     -12.116078      -329.6952
  10   2.0000     -12.114387      -329.6492
  11   2.0000     -12.097777      -329.1972
  12   2.0000      -1.726260       -46.9739
  13   2.0000      -1.710570       -46.5470
  14   2.0000      -1.691809       -46.0365
  15   2.0000      -1.688484       -45.9460
  16   2.0000      -1.683022       -45.7973
  17   2.0000      -1.674508       -45.5657
  18   2.0000      -1.346259       -36.6336
  19   2.0000      -1.328696       -36.1557
  20   2.0000      -1.241191       -33.7745
  21   2.0000      -1.206803       -32.8388
  22   2.0000      -1.180380       -32.1198
  23   2.0000      -1.136232       -30.9184
  24   2.0000      -1.095508       -29.8103
  25   2.0000      -1.079413       -29.3723
  26   2.0000      -1.057597       -28.7787
  27   2.0000      -1.042651       -28.3720
  28   2.0000      -1.035372       -28.1739
  29   2.0000      -1.017095       -27.6766
  30   2.0000      -1.000755       -27.2319
  31   2.0000      -0.998065       -27.1587
  32   2.0000      -0.988481       -26.8979
  33   2.0000      -0.973919       -26.5017
  34   2.0000      -0.963191       -26.2098
  35   2.0000      -0.949588       -25.8396
  36   2.0000      -0.946201       -25.7474
  37   2.0000      -0.945210       -25.7205
  38   2.0000      -0.927301       -25.2332
  39   2.0000      -0.912647       -24.8344
  40   2.0000      -0.908301       -24.7161
  41   2.0000      -0.897021       -24.4092
  42   2.0000      -0.848450       -23.0875
  43   2.0000      -0.840713       -22.8770
  44   2.0000      -0.830376       -22.5957
  45   2.0000      -0.809901       -22.0385
  46   2.0000      -0.804239       -21.8845
  47   2.0000      -0.785487       -21.3742
  48   0.0000      -0.248392        -6.7591
  49   0.0000      -0.204641        -5.5686
  50   0.0000      -0.181313        -4.9338
  51   0.0000      -0.158494        -4.3128
  52   0.0000      -0.139588        -3.7984

MULLIKEN ATOMIC CHARGES
-----------------------
   0 C :    0.003348
   1 C :   -0.011879
   2 H :    0.079424
   3 C :    0.092177
   4 H :    0.065255
   5 C :   -0.010435
   6 H :    0.108518
   7 C :    0.037021
   8 H :    0.062849
   9 C :    0.116482
  10 H :    0.085968
  11 O :   -0.259200
  12 O :   -0.386538
  13 O :   -0.406828
  14 O :   -0.446101
  15 O :   -0.436737
  16 O :   -0.460333
  17 H :    0.116560
  18 H :    0.109157
  19 H :    0.304122
  20 H :    0.310393
  21 H :    0.306671
  22 H :    0.311384
  23 H :    0.308719
Sum of atomic charges:    0.0000000

LOEWDIN ATOMIC CHARGES
----------------------
   0 C :   -0.306419
   1 C :   -0.299058
   2 H :    0.148432
   3 C :   -0.313538
   4 H :    0.138835
   5 C :   -0.319240
   6 H :    0.155872
   7 C :   -0.330075
   8 H :    0.133576
   9 C :   -0.397133
  10 H :    0.137395
  11 O :    0.179262
  12 O :    0.021268
  13 O :   -0.004882
  14 O :   -0.021831
  15 O :   -0.006568
  16 O :   -0.045274
  17 H :    0.137126
  18 H :    0.123105
  19 H :    0.177378
  20 H :    0.174248
  21 H :    0.172808
  22 H :    0.174969
  23 H :    0.169745

  Mayer bond orders larger than 0.100000
B(  0-C ,  1-C ) :   0.9793 B(  0-C , 16-O ) :   0.9849 B(  0-C , 17-H ) :   0.9629
B(  0-C , 18-H ) :   0.9795 B(  1-C ,  2-H ) :   0.9529 B(  1-C ,  3-C ) :   0.9462
B(  1-C , 11-O ) :   0.9925 B(  1-C , 16-O ) :   0.1234 B(  3-C ,  4-H ) :   0.9399
B(  3-C ,  5-C ) :   0.9812 B(  3-C , 15-O ) :   1.0674 B(  5-C ,  6-H ) :   0.9518
B(  5-C ,  7-C ) :   1.0042 B(  5-C , 14-O ) :   0.9786 B(  7-C ,  8-H ) :   0.9329
B(  7-C ,  9-C ) :   0.9518 B(  7-C , 13-O ) :   1.1104 B(  9-C , 10-H ) :   0.9764
B(  9-C , 11-O ) :   1.0303 B(  9-C , 12-O ) :   1.1645 B( 12-O , 19-H ) :   0.8894
B( 13-O , 20-H ) :   0.8835 B( 14-O , 21-H ) :   0.8904 B( 15-O , 22-H ) :   0.8856
B( 16-O , 23-H ) :   0.8931

FINAL SINGLE POINT ENERGY      -687.245600421252

DIPOLE MOMENT
-------------

Method             : SCF
Type of density    : Electron Density
Multiplicity       :   1
Irrep              :   0
Energy             :  -687.2645098265520573 Eh
Relativity type    :
Basis              : AO
                                X                 Y                 Z
Electronic contribution:      2.237356760      -0.572865022      -0.472472280
Nuclear contribution   :     -2.005961478       1.165975459      -0.302103430
                        -----------------------------------------
Total Dipole Moment    :      0.231395282       0.593110437      -0.774575710
                        -----------------------------------------
Magnitude (a.u.)       :      1.002642158
Magnitude (Debye)      :      2.548513832

Rotational constants in cm-1:             0.039228             0.026529             0.017458
Rotational constants in MHz :          1176.014067           795.320301           523.363518

                             ****ORCA TERMINATED NORMALLY****
TOTAL RUN TIME: 0 days 0 hours 4 minutes 50 seconds 94 msec
