                         Program Version 6.0.0  -   RELEASE  -
|  1> ! wb97x-v def2-tzvp def2/J RIJCOSX DEFGRID2 scfconv7 GCP(DFT/TZ) printgap
|  2> %output
|  3>     printlevel normal
|  4> end
|  5> %cpcm
|  6>     smd true
|  7>     smdsolvent "water"
|  8> end
|  9> * xyz 0 1
| 10> C -2.557689902821557 -0.9126131504173812 0.37302821729715313
| 11> C -1.1396826947382077 -0.43063396717466323 0.6131888151046357
| 12> H -0.9814384439238516 -0.35840893051020306 1.7021497730367028
| 13> C -0.829781488993196 0.9218984893978216 -0.027499000903228866
| 14> H -1.013100552202105 0.8585189532217775 -1.1114359263899964
| 15> C 0.6355506821341251 1.2649737104479462 0.2126390714801902
| 16> H 0.8000087241138202 1.397363929237824 1.289783344736286
| 17> C 1.5362802867667387 0.14228266289223207 -0.2937046217948983
| 18> H 1.4165759819276782 0.04306342409384553 -1.386739959086416
| 19> C 1.1216656914902416 -1.177356556984898 0.35012336712596576
| 20> H 1.2693455980775032 -1.1410223602419096 1.439629487136575
| 21> O -0.2581383406092282 -1.4243256212758204 0.057572843079169225
| 22> O 1.8626378057745177 -2.271329768926448 -0.11974200318804332
| 23> O 2.9031252843079245 0.38352301300363956 0.04254215247025968
| 24> O 0.9913558993266971 2.520425445387118 -0.38336701745234847
| 25> O -1.692194597161065 1.8941664292232754 0.5693635164410236
| 26> O -2.900303184885185 -0.985507167461966 -1.0155313107672632
| 27> H -3.257077669442194 -0.21104742415099254 0.8343087691417876
| 28> H -2.6822716411518366 -1.8914511972250583 0.8556313502943226
| 29> H 1.8806147414812673 -2.2309110016430376 -1.0880948647285118
| 30> H 3.1107933910690266 1.2800728222546676 -0.2568679622235252
| 31> H 0.8612987901751493 2.4384388768913294 -1.3400976645843035
| 32> H -1.4149138456466714 2.7591326617017224 0.23651755329831492
| 33> H -2.321160490576383 -1.6435557265342056 -1.4222047649827747
| 34> *
| 35>
| 36>                          ****END OF INPUT****

CARTESIAN COORDINATES (ANGSTROEM)
---------------------------------
  C     -2.557690   -0.912613    0.373028
  C     -1.139683   -0.430634    0.613189
  H     -0.981438   -0.358409    1.702150
  C     -0.829781    0.921898   -0.027499
  H     -1.013101    0.858519   -1.111436
  C      0.635551    1.264974    0.212639
  H      0.800009    1.397364    1.289783
  C      1.536280    0.142283   -0.293705
  H      1.416576    0.043063   -1.386740
  C      1.121666   -1.177357    0.350123
  H      1.269346   -1.141022    1.439629
  O     -0.258138   -1.424326    0.057573
  O      1.862638   -2.271330   -0.119742
  O      2.903125    0.383523    0.042542
  O      0.991356    2.520425   -0.383367
  O     -1.692195    1.894166    0.569364
  O     -2.900303   -0.985507   -1.015531
  H     -3.257078   -0.211047    0.834309
  H     -2.682272   -1.891451    0.855631
  H      1.880615   -2.230911   -1.088095
  H      3.110793    1.280073   -0.256868
  H      0.861299    2.438439   -1.340098
  H     -1.414914    2.759133    0.236518
  H     -2.321160   -1.643556   -1.422205

 Total Charge           Charge          ....    0
 Multiplicity           Mult            ....    1
 Number of Electrons    NEL             ....   96
 Basis Dimension        Dim             ....  444

ORBITAL ENERGIES
----------------

  NO   OCC          E(Eh)            E(eV)
   0   2.0000     -21.691746      -590.2624
   1   2.0000     -21.691532      -590.2566
   2   2.0000     -21.685744      -590.0991
   3   2.0000     -21.682565      -590.0126
   4   2.0000     -21.681392      -589.9807
   5   2.0000     -21.677537      -589.8758
   6   2.0000     -12.153976      -330.7265
   7   2.0000     -12.104360      -329.3764
   8   2.0000     -12.103780      -329.3606
   9   2.0000     -12.102369      -329.3222
  10   2.0000     -12.100317      -329.2664
  11   2.0000     -12.091417      -329.0242
  12   2.0000      -1.723304       -46.8935
  13   2.0000      -1.691851       -46.0376
  14   2.0000      -1.686346       -45.8878
  15   2.0000      -1.681288       -45.7502
  16   2.0000      -1.679138       -45.6917
  17   2.0000      -1.675969       -45.6054
  18   2.0000      -1.331932       -36.2437
  19   2.0000      -1.319142       -35.8957
  20   2.0000      -1.232507       -33.5382
  21   2.0000      -1.197390       -32.5826
  22   2.0000      -1.170643       -31.8548
  23   2.0000      -1.129824       -30.7441
  24   2.0000      -1.086420       -29.5630
  25   2.0000      -1.070255       -29.1231
  26   2.0000      -1.049733       -28.5647
  27   2.0000      -1.039891       -28.2969
  28   2.0000      -1.026804       -27.9408
  29   2.0000      -1.010360       -27.4933
  30   2.0000      -0.995052       -27.0767
  31   2.0000      -0.987875       -26.8814
  32   2.0000      -0.980414       -26.6784
  33   2.0000      -0.967092       -26.3159
  34   2.0000      -0.963943       -26.2302
  35   2.0000      -0.945210       -25.7205
  36   2.0000      -0.940345       -25.5881
  37   2.0000      -0.939462       -25.5641
  38   2.0000      -0.923009       -25.1164
  39   2.0000      -0.906074       -24.6555
  40   2.0000      -0.901591       -24.5335
  41   2.0000      -0.892966       -24.2989
  42   2.0000      -0.837575       -22.7916
  43   2.0000      -0.835263       -22.7287
  44   2.0000      -0.818542       -22.2737
  45   2.0000      -0.798640       -21.7321
  46   2.0000      -0.794536       -21.6204
  47   2.0000      -0.770940       -20.9784
  48   0.0000      -0.236119        -6.4251
  49   0.0000      -0.193496        -5.2653
  50   0.0000      -0.169956        -4.6247
  51   0.0000      -0.149688        -4.0732
  52   0.0000      -0.127369        -3.4659

MULLIKEN ATOMIC CHARGES
-----------------------
   0 C :   -0.014313
   1 C :    0.044991
   2 H :    0.112349
   3 C :    0.043979
   4 H :    0.099042
   5 C :    0.068776
   6 H :    0.117908
   7 C :    0.028553
   8 H :    0.117251
   9 C :    0.140924
  10 H :    0.118515
  11 O :   -0.326991
  12 O :   -0.495778
  13 O :   -0.518545
  14 O :   -0.528180
  15 O :   -0.529564
  16 O :   -0.555107
  17 H :    0.129947
  18 H :    0.132022
  19 H :    0.369911
  20 H :    0.360185
  21 H :    0.365231
  22 H :    0.359139
  23 H :    0.359755
Sum of atomic charges:    0.0000000

LOEWDIN ATOMIC CHARGES
----------------------
   0 C :   -0.307893
   1 C :   -0.293850
   2 H :    0.159523
   3 C :   -0.305592
   4 H :    0.147742
   5 C :   -0.311246
   6 H :    0.159299
   7 C :   -0.315233
   8 H :    0.153329
   9 C :   -0.400136
  10 H :    0.144489
  11 O :    0.161770
  12 O :   -0.019045
  13 O :   -0.044187
  14 O :   -0.045015
  15 O :   -0.039774
  16 O :   -0.081954
  17 H :    0.137674
  18 H :    0.130009
  19 H :    0.200933
  20 H :    0.191598
  21 H :    0.198401
  22 H :    0.191041
  23 H :    0.188117

  Mayer bond orders larger than 0.100000
B(  0-C ,  1-C ) :   0.9655 B(  0-C , 16-O ) :   0.9619 B(  0-C , 17-H ) :   0.9663
B(  0-C , 18-H ) :   0.9808 B(  1-C ,  2-H ) :   0.9456 B(  1-C ,  3-C ) :   0.9683
B(  1-C , 11-O ) :   0.9620 B(  3-C ,  4-H ) :   0.9502 B(  3-C ,  5-C ) :   1.0019
B(  3-C , 15-O ) :   1.0209 B(  5-C ,  6-H ) :   0.9390 B(  5-C ,  7-C ) :   1.0047
B(  5-C , 14-O ) :   0.9875 B(  7-C ,  8-H ) :   0.9515 B(  7-C ,  9-C ) :   0.9633
B(  7-C , 13-O ) :   1.0411 B(  9-C , 10-H ) :   0.9717 B(  9-C , 11-O ) :   1.0137
B(  9-C , 12-O ) :   1.1188 B( 12-O , 19-H ) :   0.8496 B( 13-O , 20-H ) :   0.8553
B( 14-O , 21-H ) :   0.8581 B( 15-O , 22-H ) :   0.8571 B( 16-O , 23-H ) :   0.8622

FINAL SINGLE POINT ENERGY      -687.287501012651

DIPOLE MOMENT
-------------

Method             : SCF
Type of density    : Electron Density
Multiplicity       :   1
Irrep              :   0
Energy             :  -687.3064104179511560 Eh
Relativity type    :
Basis              : AO
                                X                 Y                 Z
Electronic contribution:      2.330435435      -0.352061639      -0.835593828
Nuclear contribution   :     -2.005961478       1.165975459      -0.302103430
                        -----------------------------------------
Total Dipole Moment    :      0.324473958       0.813913820      -1.137697257
                        -----------------------------------------
Magnitude (a.u.)       :      1.435999340
Magnitude (Debye)      :      3.650020250

Rotational constants in cm-1:             0.039228             0.026529             0.017458
Rotational constants in MHz :          1176.014067           795.320301           523.363518

                             ****ORCA TERMINATED NORMALLY****
TOTAL RUN TIME: 0 days 0 hours 5 minutes 27 seconds 512 msec
