                         Program Version 6.0.0  -   RELEASE  -
|  1> ! wb97x-v def2-tzvp def2/J RIJCOSX DEFGRID2 scfconv7 GCP(DFT/TZ) printgap
|  2> %output
|  3>     printlevel normal
|  4> end
|  5> * xyz 0 1
|  6> C 0.8662667294118658 -1.8290946047035883 0.00020589634512553233
|  7> C 1.889134019043543 -0.8922327937871372 -0.011176968319900255
|  8> C 1.593462074628226 0.48137044844091104 -0.020209169863123773
|  9> C 0.24792638292259536 0.8859041763712602 -0.011413993280769377
| 10> C -0.7437620308605591 -0.0815485649888154 -0.001143224387881392
| 11> C -0.47477867423846565 -1.4444540718565864 0.003909823859587046
| 12> Cl -2.429413235052178 0.45071958141848617 0.011348208312754566
| 13> N 2.6041881778912006 1.4235969601745688 -0.09547426373444945
| 14> H 1.111893440211075 -2.8864401041060206 0.009057073039561972
| 15> H 2.9262800003192773 -1.2137526373288192 -0.012981801702448583
| 16> H -0.004133063255871412 1.9411233659799136 -0.012912604561419315
| 17> H -1.2731965564607648 -2.176059119228348 0.013315967399129635
| 18> H 2.3593258142893085 2.344090387121737 0.24100642191739316
| 19> H 3.5031309063040963 1.109671519311107 0.24176252646988425
| 20> *
| 21>
| 22>                          ****END OF INPUT****

CARTESIAN COORDINATES (ANGSTROEM)
---------------------------------
  C      0.866267   -1.829095    0.000206
  C      1.889134   -0.892233   -0.011177
  C      1.593462    0.481370   -0.020209
  C      0.247926    0.885904   -0.011414
  C     -0.743762   -0.081549   -0.001143
  C     -0.474779   -1.444454    0.003910
  Cl    -2.429413    0.450720    0.011348
  N      2.604188    1.423597   -0.095474
  H      1.111893   -2.886440    0.009057
  H      2.926280   -1.213753   -0.012982
  H     -0.004133    1.941123   -0.012913
  H     -1.273197   -2.176059    0.013316
  H      2.359326    2.344090    0.241006
  H      3.503131    1.109672    0.241763

 Total Charge           Charge          ....    0
 Multiplicity           Mult            ....    1
 Number of Electrons    NEL             ....   66
 Basis Dimension        Dim             ....  290

ORBITAL ENERGIES
----------------

  NO   OCC          E(Eh)            E(eV)
   0   2.0000    -107.137354     -2915.3556
   1   2.0000     -16.542190      -450.1359
   2   2.0000     -12.115703      -329.6850
   3   2.0000     -12.105308      -329.4022
   4   2.0000     -12.062529      -328.2381
   5   2.0000     -12.056300      -328.0686
   6   2.0000     -12.052021      -327.9522
   7   2.0000     -12.050948      -327.9230
   8   2.0000     -11.290437      -307.2284
   9   2.0000      -9.081915      -247.1315
  10   2.0000      -9.079367      -247.0621
  11   2.0000      -9.079321      -247.0609
  12   2.0000      -1.504394       -40.9367
  13   2.0000      -1.422712       -38.7140
  14   2.0000      -1.365255       -37.1505
  15   2.0000      -1.279222       -34.8094
  16   2.0000      -1.266235       -34.4560
  17   2.0000      -1.129243       -30.7283
  18   2.0000      -1.116530       -30.3823
  19   2.0000      -1.021061       -27.7845
  20   2.0000      -1.014773       -27.6134
  21   2.0000      -0.957393       -26.0520
  22   2.0000      -0.947793       -25.7908
  23   2.0000      -0.918296       -24.9881
  24   2.0000      -0.890045       -24.2194
  25   2.0000      -0.848025       -23.0759
  26   2.0000      -0.837212       -22.7817
  27   2.0000      -0.825910       -22.4742
  28   2.0000      -0.810036       -22.0422
  29   2.0000      -0.783688       -21.3252
  30   2.0000      -0.749263       -20.3885
  31   2.0000      -0.651498       -17.7282
  32   2.0000      -0.627195       -17.0668
  33   0.0000      -0.261755        -7.1227
  34   0.0000      -0.254580        -6.9275
  35   0.0000      -0.246710        -6.7133
  36   0.0000      -0.082284        -2.2391
  37   0.0000      -0.071190        -1.9372

MULLIKEN ATOMIC CHARGES
-----------------------
   0 C :   -0.070905
   1 C :   -0.265834
   2 C :    0.318852
   3 C :   -0.319998
   4 C :    0.187399
   5 C :   -0.238601
   6 Cl:   -0.111375
   7 N :   -0.441499
   8 H :    0.120594
   9 H :    0.110900
  10 H :    0.121817
  11 H :    0.129053
  12 H :    0.230192
  13 H :    0.229405
Sum of atomic charges:   -0.0000000

LOEWDIN ATOMIC CHARGES
----------------------
   0 C :   -0.131150
   1 C :   -0.138643
   2 C :   -0.235333
   3 C :   -0.140726
   4 C :   -0.399525
   5 C :   -0.169252
   6 Cl:    0.353779
   7 N :   -0.041177
   8 H :    0.145241
   9 H :    0.140868
  10 H :    0.144751
  11 H :    0.144191
  12 H :    0.163514
  13 H :    0.163461

  Mayer bond orders larger than 0.100000
B(  0-C ,  1-C ) :   1.4924 B(  0-C ,  5-C ) :   1.4017 B(  0-C ,  8-H ) :   0.9679
B(  1-C ,  2-C ) :   1.3632 B(  1-C ,  9-H ) :   0.9623 B(  2-C ,  3-C ) :   1.3489
B(  2-C ,  7-N ) :   1.0815 B(  3-C ,  4-C ) :   1.4717 B(  3-C , 10-H ) :   0.9525
B(  4-C ,  5-C ) :   1.4043 B(  4-C ,  6-Cl) :   0.9600 B(  5-C , 11-H ) :   0.9690
B(  7-N , 12-H ) :   0.9274 B(  7-N , 13-H ) :   0.9271

FINAL SINGLE POINT ENERGY      -747.165607784132

DIPOLE MOMENT
-------------

Method             : SCF
Type of density    : Electron Density
Multiplicity       :   1
Irrep              :   0
Energy             :  -747.1728641869320882 Eh
Relativity type    :
Basis              : AO
                                X                 Y                 Z
Electronic contribution:    -10.246876904       1.588090368      -0.093478275
Nuclear contribution   :     11.378237518      -1.438765213       0.465161210
                        -----------------------------------------
Total Dipole Moment    :      1.131360614       0.149325155       0.371682935
                        -----------------------------------------
Magnitude (a.u.)       :      1.200176256
Magnitude (Debye)      :      3.050605606

Rotational constants in cm-1:             0.113799             0.039531             0.029361
Rotational constants in MHz :          3411.595197          1185.116678           880.214406

                             ****ORCA TERMINATED NORMALLY****
TOTAL RUN TIME: 0 days 0 hours 2 minutes 23 seconds 416 msec
