                         Program Version 6.0.0  -   RELEASE  -
|  1> ! wb97x-v def2-tzvp def2/J RIJCOSX DEFGRID2 scfconv7 GCP(DFT/TZ) printgap
|  2> %output
|  3>     printlevel normal
|  4> end
|  5> %cpcm
|  6>     smd true
|  7>     smdsolvent "water"
|  8> end
|  9> * xyz 0 1
| 10> C 0.8662667294118658 -1.8290946047035883 0.00020589634512553233
| 11> C 1.889134019043543 -0.8922327937871372 -0.011176968319900255
| 12> C 1.593462074628226 0.48137044844091104 -0.020209169863123773
| 13> C 0.24792638292259536 0.8859041763712602 -0.011413993280769377
| 14> C -0.7437620308605591 -0.0815485649888154 -0.001143224387881392
| 15> C -0.47477867423846565 -1.4444540718565864 0.003909823859587046
| 16> Cl -2.429413235052178 0.45071958141848617 0.011348208312754566
| 17> N 2.6041881778912006 1.4235969601745688 -0.09547426373444945
| 18> H 1.111893440211075 -2.8864401041060206 0.009057073039561972
| 19> H 2.9262800003192773 -1.2137526373288192 -0.012981801702448583
| 20> H -0.004133063255871412 1.9411233659799136 -0.012912604561419315
| 21> H -1.2731965564607648 -2.176059119228348 0.013315967399129635
| 22> H 2.3593258142893085 2.344090387121737 0.24100642191739316
| 23> H 3.5031309063040963 1.109671519311107 0.24176252646988425
| 24> *
| 25>
| 26>                          ****END OF INPUT****

CARTESIAN COORDINATES (ANGSTROEM)
---------------------------------
  C      0.866267   -1.829095    0.000206
  C      1.889134   -0.892233   -0.011177
  C      1.593462    0.481370   -0.020209
  C      0.247926    0.885904   -0.011414
  C     -0.743762   -0.081549   -0.001143
  C     -0.474779   -1.444454    0.003910
  Cl    -2.429413    0.450720    0.011348
  N      2.604188    1.423597   -0.095474
  H      1.111893   -2.886440    0.009057
  H      2.926280   -1.213753   -0.012982
  H     -0.004133    1.941123   -0.012913
  H     -1.273197   -2.176059    0.013316
  H      2.359326    2.344090    0.241006
  H      3.503131    1.109672    0.241763

 Total Charge           Charge          ....    0
 Multiplicity           Mult            ....    1
 Number of Electrons    NEL             ....   66
 Basis Dimension        Dim             ....  290

ORBITAL ENERGIES
----------------

  NO   OCC          E(Eh)            E(eV)
   0   2.0000    -107.144447     -2915.5486
   1   2.0000     -16.525460      -449.6806
   2   2.0000     -12.115854      -329.6891
   3   2.0000     -12.099827      -329.2530
   4   2.0000     -12.057485      -328.1008
   5   2.0000     -12.051786      -327.9458
   6   2.0000     -12.048329      -327.8517
   7   2.0000     -12.045330      -327.7701
   8   2.0000     -11.297655      -307.4248
   9   2.0000      -9.089110      -247.3273
  10   2.0000      -9.086626      -247.2597
  11   2.0000      -9.086583      -247.2585
  12   2.0000      -1.490237       -40.5514
  13   2.0000      -1.426864       -38.8269
  14   2.0000      -1.364362       -37.1262
  15   2.0000      -1.275758       -34.7151
  16   2.0000      -1.262940       -34.3664
  17   2.0000      -1.122990       -30.5581
  18   2.0000      -1.111188       -30.2370
  19   2.0000      -1.011436       -27.5226
  20   2.0000      -1.003886       -27.3171
  21   2.0000      -0.951393       -25.8887
  22   2.0000      -0.938785       -25.5456
  23   2.0000      -0.918142       -24.9839
  24   2.0000      -0.884198       -24.0603
  25   2.0000      -0.842665       -22.9301
  26   2.0000      -0.832855       -22.6631
  27   2.0000      -0.819898       -22.3106
  28   2.0000      -0.811308       -22.0768
  29   2.0000      -0.790530       -21.5114
  30   2.0000      -0.747741       -20.3471
  31   2.0000      -0.650702       -17.7065
  32   2.0000      -0.622959       -16.9516
  33   0.0000      -0.265437        -7.2229
  34   0.0000      -0.253292        -6.8924
  35   0.0000      -0.244170        -6.6442
  36   0.0000      -0.078752        -2.1430
  37   0.0000      -0.056302        -1.5320

MULLIKEN ATOMIC CHARGES
-----------------------
   0 C :   -0.101126
   1 C :   -0.321281
   2 C :    0.271877
   3 C :   -0.367608
   4 C :    0.211747
   5 C :   -0.293088
   6 Cl:   -0.130517
   7 N :   -0.486894
   8 H :    0.165376
   9 H :    0.161475
  10 H :    0.166885
  11 H :    0.165528
  12 H :    0.278695
  13 H :    0.278931
Sum of atomic charges:   -0.0000000

LOEWDIN ATOMIC CHARGES
----------------------
   0 C :   -0.139325
   1 C :   -0.140035
   2 C :   -0.242488
   3 C :   -0.144935
   4 C :   -0.415959
   5 C :   -0.184622
   6 Cl:    0.335852
   7 N :   -0.043569
   8 H :    0.155562
   9 H :    0.154226
  10 H :    0.156369
  11 H :    0.151367
  12 H :    0.178635
  13 H :    0.178921

  Mayer bond orders larger than 0.100000
B(  0-C ,  1-C ) :   1.4582 B(  0-C ,  5-C ) :   1.3852 B(  0-C ,  8-H ) :   0.9681
B(  1-C ,  2-C ) :   1.3408 B(  1-C ,  9-H ) :   0.9723 B(  2-C ,  3-C ) :   1.3530
B(  2-C ,  7-N ) :   1.1367 B(  3-C ,  4-C ) :   1.4179 B(  3-C , 10-H ) :   0.9628
B(  4-C ,  5-C ) :   1.3653 B(  4-C ,  6-Cl) :   0.9570 B(  5-C , 11-H ) :   0.9763
B(  7-N , 12-H ) :   0.9060 B(  7-N , 13-H ) :   0.9054

FINAL SINGLE POINT ENERGY      -747.174596687343

DIPOLE MOMENT
-------------

Method             : SCF
Type of density    : Electron Density
Multiplicity       :   1
Irrep              :   0
Energy             :  -747.1818530901432496 Eh
Relativity type    :
Basis              : AO
                                X                 Y                 Z
Electronic contribution:     -9.831519033       1.663381578       0.035190224
Nuclear contribution   :     11.378237518      -1.438765213       0.465161210
                        -----------------------------------------
Total Dipole Moment    :      1.546718485       0.224616365       0.500351434
                        -----------------------------------------
Magnitude (a.u.)       :      1.641079566
Magnitude (Debye)      :      4.171292758

Rotational constants in cm-1:             0.113799             0.039531             0.029361
Rotational constants in MHz :          3411.595197          1185.116678           880.214406

                             ****ORCA TERMINATED NORMALLY****
TOTAL RUN TIME: 0 days 0 hours 2 minutes 29 seconds 303 msec
