                         Program Version 6.0.0  -   RELEASE  -
|  1> ! pbe def2-sv(p) def2/J RI DEFGRID1 loosescf d4 GCP(DFT/SV(P)) printgap
|  2> %output
|  3>     printlevel normal
|  4> end
|  5> * xyz 0 1
|  6> C -1.8688651184 -1.0833342778 -0.5299729187
|  7> C -1.0684145328 -0.5144978436 0.6764828884
|  8> H -1.6622986922 -0.6135325157 1.5912098611
|  9> C -0.7419953829 0.9781017023 0.5259018681
| 10> H -1.6434168817 1.4707296 0.143757201
| 11> C 0.4203689749 1.19395433 -0.4704663204
| 12> H 0.6982186533 2.2567022165 -0.4654508921
| 13> C 1.6323724253 0.3731927348 -0.0052197978
| 14> H 2.4153269977 0.4086072029 -0.7716424375
| 15> C 1.2328466212 -1.1082368219 0.1693166614
| 16> H 2.027260687 -1.6040053877 0.7453898851
| 17> O 0.0856454985 -1.305752577 0.9553118586
| 18> O 1.1175437291 -1.6680238899 -1.1110932128
| 19> O 2.2059942861 0.8861412442 1.1643221504
| 20> O 0.0262362031 0.8766483301 -1.785675343
| 21> O -0.4100236468 1.4801789782 1.8059154458
| 22> O -2.6341462944 -0.1283509074 -1.2214843785
| 23> H -2.5758350022 -1.8277751959 -0.1580379331
| 24> H -1.1738758644 -1.5797775447 -1.2116852821
| 25> H 1.1080948566 -2.6355483397 -1.0578517811
| 26> H 1.5051001804 0.9702914336 1.838021299
| 27> H 0.360979739 -0.0070472294 -2.0105064803
| 28> H -0.5430792597 2.4380967135 1.8282881762
| 29> H -2.0356608004 0.4040178422 -1.7745921085
| 30> *
| 31>
| 32>                          ****END OF INPUT****

CARTESIAN COORDINATES (ANGSTROEM)
---------------------------------
  C     -1.868865   -1.083334   -0.529973
  C     -1.068415   -0.514498    0.676483
  H     -1.662299   -0.613533    1.591210
  C     -0.741995    0.978102    0.525902
  H     -1.643417    1.470730    0.143757
  C      0.420369    1.193954   -0.470466
  H      0.698219    2.256702   -0.465451
  C      1.632372    0.373193   -0.005220
  H      2.415327    0.408607   -0.771642
  C      1.232847   -1.108237    0.169317
  H      2.027261   -1.604005    0.745390
  O      0.085645   -1.305753    0.955312
  O      1.117544   -1.668024   -1.111093
  O      2.205994    0.886141    1.164322
  O      0.026236    0.876648   -1.785675
  O     -0.410024    1.480179    1.805915
  O     -2.634146   -0.128351   -1.221484
  H     -2.575835   -1.827775   -0.158038
  H     -1.173876   -1.579778   -1.211685
  H      1.108095   -2.635548   -1.057852
  H      1.505100    0.970291    1.838021
  H      0.360980   -0.007047   -2.010506
  H     -0.543079    2.438097    1.828288
  H     -2.035661    0.404018   -1.774592

 Total Charge           Charge          ....    0
 Multiplicity           Mult            ....    1
 Number of Electrons    NEL             ....   96
 Basis Dimension        Dim             ....  192

ORBITAL ENERGIES
----------------

  NO   OCC          E(Eh)            E(eV)
   0   2.0000     -18.787010      -511.2205
   1   2.0000     -18.777518      -510.9622
   2   2.0000     -18.770700      -510.7767
   3   2.0000     -18.768596      -510.7195
   4   2.0000     -18.744214      -510.0560
   5   2.0000     -18.738641      -509.9044
   6   2.0000      -9.992546      -271.9110
   7   2.0000      -9.949767      -270.7469
   8   2.0000      -9.949520      -270.7402
   9   2.0000      -9.946882      -270.6684
  10   2.0000      -9.944209      -270.5957
  11   2.0000      -9.927430      -270.1391
  12   2.0000      -0.991040       -26.9676
  13   2.0000      -0.955494       -26.0003
  14   2.0000      -0.941874       -25.6297
  15   2.0000      -0.925272       -25.1779
  16   2.0000      -0.921848       -25.0848
  17   2.0000      -0.912184       -24.8218
  18   2.0000      -0.705099       -19.1867
  19   2.0000      -0.690906       -18.8005
  20   2.0000      -0.624898       -17.0043
  21   2.0000      -0.593017       -16.1368
  22   2.0000      -0.577990       -15.7279
  23   2.0000      -0.528895       -14.3920
  24   2.0000      -0.515742       -14.0341
  25   2.0000      -0.492556       -13.4031
  26   2.0000      -0.479183       -13.0392
  27   2.0000      -0.454316       -12.3626
  28   2.0000      -0.447739       -12.1836
  29   2.0000      -0.443325       -12.0635
  30   2.0000      -0.419973       -11.4280
  31   2.0000      -0.399716       -10.8768
  32   2.0000      -0.384804       -10.4710
  33   2.0000      -0.374556       -10.1922
  34   2.0000      -0.365809        -9.9542
  35   2.0000      -0.356948        -9.7131
  36   2.0000      -0.343878        -9.3574
  37   2.0000      -0.332853        -9.0574
  38   2.0000      -0.316161        -8.6032
  39   2.0000      -0.295214        -8.0332
  40   2.0000      -0.281983        -7.6731
  41   2.0000      -0.272043        -7.4027
  42   2.0000      -0.260473        -7.0878
  43   2.0000      -0.259832        -7.0704
  44   2.0000      -0.249469        -6.7884
  45   2.0000      -0.221279        -6.0213
  46   2.0000      -0.211781        -5.7628
  47   2.0000      -0.204109        -5.5541
  48   0.0000       0.001758         0.0478
  49   0.0000       0.008457         0.2301
  50   0.0000       0.042630         1.1600
  51   0.0000       0.055349         1.5061
  52   0.0000       0.063167         1.7189

MULLIKEN ATOMIC CHARGES
-----------------------
   0 C :    0.018177
   1 C :    0.060261
   2 H :    0.080238
   3 C :   -0.016878
   4 H :    0.085336
   5 C :    0.060260
   6 H :    0.068171
   7 C :    0.025058
   8 H :    0.087360
   9 C :    0.182141
  10 H :    0.078111
  11 O :   -0.315721
  12 O :   -0.408560
  13 O :   -0.429714
  14 O :   -0.432627
  15 O :   -0.418930
  16 O :   -0.437672
  17 H :    0.086527
  18 H :    0.066998
  19 H :    0.317240
  20 H :    0.302027
  21 H :    0.325712
  22 H :    0.314379
  23 H :    0.302107
Sum of atomic charges:    0.0000000

LOEWDIN ATOMIC CHARGES
----------------------
   0 C :   -0.146663
   1 C :   -0.061654
   2 H :    0.123420
   3 C :   -0.088155
   4 H :    0.114266
   5 C :   -0.074279
   6 H :    0.108285
   7 C :   -0.083057
   8 H :    0.121215
   9 C :   -0.011227
  10 H :    0.106466
  11 O :   -0.144141
  12 O :   -0.312262
  13 O :   -0.317251
  14 O :   -0.311365
  15 O :   -0.305674
  16 O :   -0.340321
  17 H :    0.115081
  18 H :    0.094133
  19 H :    0.294484
  20 H :    0.272121
  21 H :    0.281885
  22 H :    0.296056
  23 H :    0.268634

  Mayer bond orders larger than 0.100000
B(  0-C ,  1-C ) :   0.9921 B(  0-C , 16-O ) :   1.1129 B(  0-C , 17-H ) :   0.9229
B(  0-C , 18-H ) :   0.9110 B(  1-C ,  2-H ) :   0.8895 B(  1-C ,  3-C ) :   1.0390
B(  1-C , 11-O ) :   0.9739 B(  3-C ,  4-H ) :   0.8771 B(  3-C ,  5-C ) :   0.9547
B(  3-C , 15-O ) :   1.0237 B(  5-C ,  6-H ) :   0.9040 B(  5-C ,  7-C ) :   1.0035
B(  5-C , 14-O ) :   1.0513 B(  7-C ,  8-H ) :   0.8950 B(  7-C ,  9-C ) :   0.9755
B(  7-C , 13-O ) :   1.0728 B(  9-C , 10-H ) :   0.9047 B(  9-C , 11-O ) :   1.0817
B(  9-C , 12-O ) :   1.0574 B( 12-O , 19-H ) :   0.8277 B( 13-O , 20-H ) :   0.8040
B( 14-O , 21-H ) :   0.7958 B( 15-O , 20-H ) :   0.1091 B( 15-O , 22-H ) :   0.8413
B( 16-O , 23-H ) :   0.8050

Dispersion correction           -0.026571571
FINAL SINGLE POINT ENERGY      -685.699093705999

DIPOLE MOMENT
-------------

Method             : SCF
Type of density    : Electron Density
Multiplicity       :   1
Irrep              :   0
Energy             :  -685.8344540938642240 Eh
Relativity type    :
Basis              : AO
                                X                 Y                 Z
Electronic contribution:      1.607411020       0.113959576       1.195717192
Nuclear contribution   :     -1.419458167      -0.297416068      -1.225384747
                        -----------------------------------------
Total Dipole Moment    :      0.187952853      -0.183456492      -0.029667555
                        -----------------------------------------
Magnitude (a.u.)       :      0.264315575
Magnitude (Debye)      :      0.671836800

Rotational constants in cm-1:             0.040828             0.030609             0.026309
Rotational constants in MHz :          1223.999661           917.647339           788.734132

                             ****ORCA TERMINATED NORMALLY****
TOTAL RUN TIME: 0 days 0 hours 0 minutes 12 seconds 501 msec
