                         Program Version 6.0.0  -   RELEASE  -
|  1> ! r2scan-3c def2/J RI DEFGRID2 scfconv6 printgap
|  2> %output
|  3>     printlevel normal
|  4> end
|  5> * xyz 0 1
|  6> C 1.0850428524 -1.4960226041 0.0315359409
|  7> C 0.4576529143 -0.1324192429 0.0259070996
|  8> C 1.187226473 0.9739011683 -0.0945761361
|  9> C -0.9964709122 -0.1234650918 0.1865842211
| 10> C -1.8142080405 0.8701834542 -0.1372680037
| 11> H 2.158487058 -1.4324726986 -0.1228894622
| 12> H 0.6510384207 -2.1115403678 -0.7551986368
| 13> H 0.8960034975 -1.9896061909 0.984072141
| 14> H 0.7483343319 1.9557417884 -0.0713346992
| 15> H 2.2568312183 0.9334200925 -0.2096442118
| 16> H -1.4136830589 -1.039010218 0.5873712138
| 17> H -2.8776041588 0.7952383604 0.0106625157
| 18> H -1.4571011898 1.7898295348 -0.5682143161
| 19> *
| 20>
| 21>                          ****END OF INPUT****

CARTESIAN COORDINATES (ANGSTROEM)
---------------------------------
  C      1.085043   -1.496023    0.031536
  C      0.457653   -0.132419    0.025907
  C      1.187226    0.973901   -0.094576
  C     -0.996471   -0.123465    0.186584
  C     -1.814208    0.870183   -0.137268
  H      2.158487   -1.432473   -0.122889
  H      0.651038   -2.111540   -0.755199
  H      0.896003   -1.989606    0.984072
  H      0.748334    1.955742   -0.071335
  H      2.256831    0.933420   -0.209644
  H     -1.413683   -1.039010    0.587371
  H     -2.877604    0.795238    0.010663
  H     -1.457101    1.789830   -0.568214

 Total Charge           Charge          ....    0
 Multiplicity           Mult            ....    1
 Number of Electrons    NEL             ....   38
 Basis Dimension        Dim             ....  135

ORBITAL ENERGIES
----------------

  NO   OCC          E(Eh)            E(eV)
   0   2.0000     -10.044532      -273.3256
   1   2.0000     -10.037130      -273.1242
   2   2.0000     -10.027293      -272.8565
   3   2.0000     -10.026899      -272.8458
   4   2.0000     -10.017978      -272.6030
   5   2.0000      -0.790452       -21.5093
   6   2.0000      -0.712225       -19.3806
   7   2.0000      -0.655583       -17.8393
   8   2.0000      -0.577642       -15.7184
   9   2.0000      -0.487601       -13.2683
  10   2.0000      -0.447983       -12.1902
  11   2.0000      -0.423147       -11.5144
  12   2.0000      -0.393183       -10.6991
  13   2.0000      -0.381491       -10.3809
  14   2.0000      -0.352537        -9.5930
  15   2.0000      -0.328121        -8.9286
  16   2.0000      -0.312197        -8.4953
  17   2.0000      -0.283839        -7.7236
  18   2.0000      -0.211417        -5.7529
  19   0.0000      -0.058812        -1.6004
  20   0.0000       0.043573         1.1857
  21   0.0000       0.094661         2.5759
  22   0.0000       0.117159         3.1881
  23   0.0000       0.128770         3.5040

MULLIKEN ATOMIC CHARGES
-----------------------
   0 C :   -0.491037
   1 C :    0.122662
   2 C :   -0.345917
   3 C :   -0.134036
   4 C :   -0.316061
   5 H :    0.148542
   6 H :    0.160532
   7 H :    0.152974
   8 H :    0.135063
   9 H :    0.141559
  10 H :    0.146437
  11 H :    0.143047
  12 H :    0.136235
Sum of atomic charges:   -0.0000000

LOEWDIN ATOMIC CHARGES
----------------------
   0 C :   -0.393492
   1 C :   -0.129498
   2 C :   -0.300431
   3 C :   -0.181342
   4 C :   -0.279801
   5 H :    0.159104
   6 H :    0.163015
   7 H :    0.162615
   8 H :    0.158837
   9 H :    0.158586
  10 H :    0.166199
  11 H :    0.158369
  12 H :    0.157839

  Mayer bond orders larger than 0.100000
B(  0-C ,  1-C ) :   0.8600 B(  0-C ,  5-H ) :   0.9876 B(  0-C ,  6-H ) :   0.9735
B(  0-C ,  7-H ) :   0.9723 B(  1-C ,  2-C ) :   1.8311 B(  1-C ,  3-C ) :   1.0055
B(  2-C ,  4-C ) :   0.1035 B(  2-C ,  8-H ) :   0.9776 B(  2-C ,  9-H ) :   0.9686
B(  3-C ,  4-C ) :   1.8907 B(  3-C , 10-H ) :   0.9488 B(  4-C , 11-H ) :   0.9586
B(  4-C , 12-H ) :   0.9760

Dispersion correction           -0.002964900
FINAL SINGLE POINT ENERGY      -195.234531665192

DIPOLE MOMENT
-------------

Method             : SCF
Type of density    : Electron Density
Multiplicity       :   1
Irrep              :   0
Energy             :  -195.2359525859852738 Eh
Relativity type    :
Basis              : AO
                                X                 Y                 Z
Electronic contribution:     -0.910580436       0.865500865       0.148064461
Nuclear contribution   :      0.902808974      -1.030488205      -0.136199596
                        -----------------------------------------
Total Dipole Moment    :     -0.007771462      -0.164987340       0.011864866
                        -----------------------------------------
Magnitude (a.u.)       :      0.165595873
Magnitude (Debye)      :      0.420911258

Rotational constants in cm-1:             0.305130             0.132236             0.094836
Rotational constants in MHz :          9147.557674          3964.344811          2843.104601

                             ****ORCA TERMINATED NORMALLY****
TOTAL RUN TIME: 0 days 0 hours 0 minutes 11 seconds 322 msec
