                         Program Version 6.0.0  -   RELEASE  -
|  1> ! r2scan-3c def2/J RI DEFGRID2 scfconv6 printgap
|  2> %output
|  3>     printlevel normal
|  4> end
|  5> %cpcm
|  6>     smd true
|  7>     smdsolvent "water"
|  8> end
|  9> * xyz 0 1
| 10> C 1.0850428524 -1.4960226041 0.0315359409
| 11> C 0.4576529143 -0.1324192429 0.0259070996
| 12> C 1.187226473 0.9739011683 -0.0945761361
| 13> C -0.9964709122 -0.1234650918 0.1865842211
| 14> C -1.8142080405 0.8701834542 -0.1372680037
| 15> H 2.158487058 -1.4324726986 -0.1228894622
| 16> H 0.6510384207 -2.1115403678 -0.7551986368
| 17> H 0.8960034975 -1.9896061909 0.984072141
| 18> H 0.7483343319 1.9557417884 -0.0713346992
| 19> H 2.2568312183 0.9334200925 -0.2096442118
| 20> H -1.4136830589 -1.039010218 0.5873712138
| 21> H -2.8776041588 0.7952383604 0.0106625157
| 22> H -1.4571011898 1.7898295348 -0.5682143161
| 23> *
| 24>
| 25>                          ****END OF INPUT****

CARTESIAN COORDINATES (ANGSTROEM)
---------------------------------
  C      1.085043   -1.496023    0.031536
  C      0.457653   -0.132419    0.025907
  C      1.187226    0.973901   -0.094576
  C     -0.996471   -0.123465    0.186584
  C     -1.814208    0.870183   -0.137268
  H      2.158487   -1.432473   -0.122889
  H      0.651038   -2.111540   -0.755199
  H      0.896003   -1.989606    0.984072
  H      0.748334    1.955742   -0.071335
  H      2.256831    0.933420   -0.209644
  H     -1.413683   -1.039010    0.587371
  H     -2.877604    0.795238    0.010663
  H     -1.457101    1.789830   -0.568214

 Total Charge           Charge          ....    0
 Multiplicity           Mult            ....    1
 Number of Electrons    NEL             ....   38
 Basis Dimension        Dim             ....  135

ORBITAL ENERGIES
----------------

  NO   OCC          E(Eh)            E(eV)
   0   2.0000     -10.043182      -273.2889
   1   2.0000     -10.034156      -273.0433
   2   2.0000     -10.023485      -272.7529
   3   2.0000     -10.017330      -272.5854
   4   2.0000     -10.014270      -272.5021
   5   2.0000      -0.788145       -21.4465
   6   2.0000      -0.708920       -19.2907
   7   2.0000      -0.650254       -17.6943
   8   2.0000      -0.573073       -15.5941
   9   2.0000      -0.482870       -13.1396
  10   2.0000      -0.443049       -12.0560
  11   2.0000      -0.417888       -11.3713
  12   2.0000      -0.386682       -10.5222
  13   2.0000      -0.375901       -10.2288
  14   2.0000      -0.343976        -9.3601
  15   2.0000      -0.321934        -8.7603
  16   2.0000      -0.306818        -8.3489
  17   2.0000      -0.283835        -7.7235
  18   2.0000      -0.212658        -5.7867
  19   0.0000      -0.059095        -1.6081
  20   0.0000       0.044528         1.2117
  21   0.0000       0.103072         2.8047
  22   0.0000       0.123860         3.3704
  23   0.0000       0.136571         3.7163

MULLIKEN ATOMIC CHARGES
-----------------------
   0 C :   -0.509128
   1 C :    0.094890
   2 C :   -0.410895
   3 C :   -0.163171
   4 C :   -0.375362
   5 H :    0.166408
   6 H :    0.175091
   7 H :    0.171986
   8 H :    0.163429
   9 H :    0.170188
  10 H :    0.178573
  11 H :    0.172138
  12 H :    0.165854
Sum of atomic charges:    0.0000000

LOEWDIN ATOMIC CHARGES
----------------------
   0 C :   -0.399030
   1 C :   -0.137225
   2 C :   -0.322411
   3 C :   -0.192224
   4 C :   -0.293104
   5 H :    0.163848
   6 H :    0.168703
   7 H :    0.170036
   8 H :    0.166075
   9 H :    0.166428
  10 H :    0.176367
  11 H :    0.166536
  12 H :    0.166001

  Mayer bond orders larger than 0.100000
B(  0-C ,  1-C ) :   0.8611 B(  0-C ,  5-H ) :   0.9840 B(  0-C ,  6-H ) :   0.9667
B(  0-C ,  7-H ) :   0.9644 B(  1-C ,  2-C ) :   1.8036 B(  1-C ,  3-C ) :   0.9901
B(  2-C ,  8-H ) :   0.9753 B(  2-C ,  9-H ) :   0.9666 B(  3-C ,  4-C ) :   1.8598
B(  3-C , 10-H ) :   0.9463 B(  4-C , 11-H ) :   0.9578 B(  4-C , 12-H ) :   0.9725

Dispersion correction           -0.002964900
FINAL SINGLE POINT ENERGY      -195.233485799982

DIPOLE MOMENT
-------------

Method             : SCF
Type of density    : Electron Density
Multiplicity       :   1
Irrep              :   0
Energy             :  -195.2349067207752285 Eh
Relativity type    :
Basis              : AO
                                X                 Y                 Z
Electronic contribution:     -0.931520589       0.795398262       0.158449483
Nuclear contribution   :      0.902808974      -1.030488205      -0.136199596
                        -----------------------------------------
Total Dipole Moment    :     -0.028711615      -0.235089943       0.022249888
                        -----------------------------------------
Magnitude (a.u.)       :      0.237879582
Magnitude (Debye)      :      0.604641847

Rotational constants in cm-1:             0.305130             0.132236             0.094836
Rotational constants in MHz :          9147.557674          3964.344811          2843.104601

                             ****ORCA TERMINATED NORMALLY****
TOTAL RUN TIME: 0 days 0 hours 0 minutes 13 seconds 196 msec
