                         Program Version 6.0.0  -   RELEASE  -
|  1> ! pbe def2-sv(p) def2/J RI DEFGRID1 loosescf d4 GCP(DFT/SV(P)) printgap
|  2> %output
|  3>     printlevel normal
|  4> end
|  5> * xyz 0 1
|  6> C -1.371122951 0.6844822838 1.52875357
|  7> N -1.9904201325 0.4812321683 0.2387045226
|  8> C -3.1761441939 1.2726317872 -0.0083533297
|  9> C -1.6372848091 -0.473003009 -0.6436721284
| 10> O -2.3626417762 -0.8135552824 -1.5843308944
| 11> N -0.4403732862 -1.1324755497 -0.4273809155
| 12> C 0.8016308676 -0.551478682 -0.1312255852
| 13> C 1.0453777966 0.8075648799 -0.3098801994
| 14> C 2.2863942162 1.3355859613 -0.0028643974
| 15> C 3.2996691978 0.5197134566 0.4704783313
| 16> C 3.0684770238 -0.8378413182 0.623563836
| 17> C 1.8302935432 -1.3733899557 0.3249118617
| 18> H -0.7463366057 1.5803994004 1.5305839662
| 19> H -0.7598321907 -0.1723231263 1.796615917
| 20> H -2.1592009125 0.8034452541 2.2726576577
| 21> H -3.9595222848 1.0250960019 0.7103167227
| 22> H -3.5350721316 1.0553697802 -1.0119703017
| 23> H -2.9307286572 2.3316638419 0.0760147591
| 24> H -0.3876176953 -2.0060769814 -0.9353125676
| 25> H 0.2696479478 1.4396532989 -0.7142608642
| 26> H 2.464043683 2.3905165283 -0.1469110336
| 27> H 4.2662222391 0.9360766363 0.7072171347
| 28> H 3.856772588 -1.4840485088 0.9783884711
| 29> H 1.6503337337 -2.4312184119 0.4417548954
| 30> *
| 31>
| 32>                          ****END OF INPUT****

CARTESIAN COORDINATES (ANGSTROEM)
---------------------------------
  C     -1.371123    0.684482    1.528754
  N     -1.990420    0.481232    0.238705
  C     -3.176144    1.272632   -0.008353
  C     -1.637285   -0.473003   -0.643672
  O     -2.362642   -0.813555   -1.584331
  N     -0.440373   -1.132476   -0.427381
  C      0.801631   -0.551479   -0.131226
  C      1.045378    0.807565   -0.309880
  C      2.286394    1.335586   -0.002864
  C      3.299669    0.519713    0.470478
  C      3.068477   -0.837841    0.623564
  C      1.830294   -1.373390    0.324912
  H     -0.746337    1.580399    1.530584
  H     -0.759832   -0.172323    1.796616
  H     -2.159201    0.803445    2.272658
  H     -3.959522    1.025096    0.710317
  H     -3.535072    1.055370   -1.011970
  H     -2.930729    2.331664    0.076015
  H     -0.387618   -2.006077   -0.935313
  H      0.269648    1.439653   -0.714261
  H      2.464044    2.390517   -0.146911
  H      4.266222    0.936077    0.707217
  H      3.856773   -1.484049    0.978388
  H      1.650334   -2.431218    0.441755

 Total Charge           Charge          ....    0
 Multiplicity           Mult            ....    1
 Number of Electrons    NEL             ....   88
 Basis Dimension        Dim             ....  192

ORBITAL ENERGIES
----------------

  NO   OCC          E(Eh)            E(eV)
   0   2.0000     -18.700473      -508.8657
   1   2.0000     -14.025014      -381.6400
   2   2.0000     -14.017591      -381.4380
   3   2.0000      -9.999125      -272.0900
   4   2.0000      -9.941926      -270.5336
   5   2.0000      -9.921086      -269.9665
   6   2.0000      -9.914017      -269.7741
   7   2.0000      -9.897725      -269.3308
   8   2.0000      -9.897531      -269.3255
   9   2.0000      -9.896102      -269.2866
  10   2.0000      -9.895640      -269.2740
  11   2.0000      -9.890974      -269.1471
  12   2.0000      -0.942185       -25.6381
  13   2.0000      -0.849415       -23.1137
  14   2.0000      -0.843660       -22.9572
  15   2.0000      -0.770490       -20.9661
  16   2.0000      -0.678677       -18.4677
  17   2.0000      -0.671411       -18.2700
  18   2.0000      -0.653554       -17.7841
  19   2.0000      -0.633828       -17.2473
  20   2.0000      -0.561950       -15.2914
  21   2.0000      -0.554605       -15.0916
  22   2.0000      -0.508876       -13.8472
  23   2.0000      -0.495040       -13.4707
  24   2.0000      -0.467959       -12.7338
  25   2.0000      -0.440090       -11.9754
  26   2.0000      -0.433622       -11.7994
  27   2.0000      -0.421426       -11.4676
  28   2.0000      -0.402091       -10.9414
  29   2.0000      -0.393438       -10.7060
  30   2.0000      -0.381579       -10.3833
  31   2.0000      -0.375280       -10.2119
  32   2.0000      -0.363638        -9.8951
  33   2.0000      -0.356226        -9.6934
  34   2.0000      -0.348379        -9.4799
  35   2.0000      -0.330662        -8.9978
  36   2.0000      -0.329374        -8.9627
  37   2.0000      -0.320545        -8.7225
  38   2.0000      -0.308635        -8.3984
  39   2.0000      -0.267426        -7.2770
  40   2.0000      -0.235054        -6.3962
  41   2.0000      -0.211346        -5.7510
  42   2.0000      -0.198520        -5.4020
  43   2.0000      -0.187451        -5.1008
  44   0.0000      -0.041078        -1.1178
  45   0.0000      -0.036511        -0.9935
  46   0.0000       0.017246         0.4693
  47   0.0000       0.032537         0.8854
  48   0.0000       0.048471         1.3189

MULLIKEN ATOMIC CHARGES
-----------------------
   0 C :   -0.178904
   1 N :   -0.255734
   2 C :   -0.174172
   3 C :    0.106965
   4 O :   -0.240714
   5 N :   -0.233229
   6 C :    0.153045
   7 C :   -0.113201
   8 C :   -0.064775
   9 C :   -0.040890
  10 C :   -0.059123
  11 C :   -0.117795
  12 H :    0.115492
  13 H :    0.146907
  14 H :    0.110526
  15 H :    0.110385
  16 H :    0.143656
  17 H :    0.103304
  18 H :    0.242101
  19 H :    0.055993
  20 H :    0.053093
  21 H :    0.051001
  22 H :    0.054444
  23 H :    0.031625
Sum of atomic charges:   -0.0000000

LOEWDIN ATOMIC CHARGES
----------------------
   0 C :   -0.251729
   1 N :   -0.063870
   2 C :   -0.250071
   3 C :    0.016848
   4 O :   -0.237344
   5 N :   -0.147271
   6 C :   -0.004909
   7 C :   -0.145870
   8 C :   -0.116308
   9 C :   -0.141296
  10 C :   -0.115347
  11 C :   -0.145505
  12 H :    0.114285
  13 H :    0.133737
  14 H :    0.117793
  15 H :    0.115131
  16 H :    0.137763
  17 H :    0.113057
  18 H :    0.245676
  19 H :    0.128725
  20 H :    0.124777
  21 H :    0.123414
  22 H :    0.125014
  23 H :    0.123299

  Mayer bond orders larger than 0.100000
B(  0-C ,  1-N ) :   1.0128 B(  0-C , 12-H ) :   0.9367 B(  0-C , 13-H ) :   0.9409
B(  0-C , 14-H ) :   0.9415 B(  1-N ,  2-C ) :   1.0151 B(  1-N ,  3-C ) :   1.1631
B(  2-C , 15-H ) :   0.9520 B(  2-C , 16-H ) :   0.9316 B(  2-C , 17-H ) :   0.9504
B(  3-C ,  4-O ) :   2.0307 B(  3-C ,  5-N ) :   1.0983 B(  5-N ,  6-C ) :   1.0347
B(  5-N , 18-H ) :   0.8469 B(  6-C ,  7-C ) :   1.3670 B(  6-C , 11-C ) :   1.3555
B(  7-C ,  8-C ) :   1.3584 B(  7-C , 19-H ) :   0.9511 B(  8-C ,  9-C ) :   1.3748
B(  8-C , 20-H ) :   0.9619 B(  9-C , 10-C ) :   1.3668 B(  9-C , 21-H ) :   0.9674
B( 10-C , 11-C ) :   1.3767 B( 10-C , 22-H ) :   0.9604 B( 11-C , 23-H ) :   0.9671

Dispersion correction           -0.027316175
FINAL SINGLE POINT ENERGY      -533.767835940733

DIPOLE MOMENT
-------------

Method             : SCF
Type of density    : Electron Density
Multiplicity       :   1
Irrep              :   0
Energy             :  -533.8458693509943487 Eh
Relativity type    :
Basis              : AO
                                X                 Y                 Z
Electronic contribution:      2.379733274      -4.698685375      -4.332770306
Nuclear contribution   :     -1.897746691       5.114803528       5.327836374
                        -----------------------------------------
Total Dipole Moment    :      0.481986584       0.416118152       0.995066068
                        -----------------------------------------
Magnitude (a.u.)       :      1.181364407
Magnitude (Debye)      :      3.002789688

Rotational constants in cm-1:             0.068169             0.019590             0.017443
Rotational constants in MHz :          2043.655841           587.304999           522.915622

                             ****ORCA TERMINATED NORMALLY****
TOTAL RUN TIME: 0 days 0 hours 0 minutes 13 seconds 377 msec
