                         Program Version 6.0.0  -   RELEASE  -
|  1> ! pbe def2-sv(p) def2/J RI DEFGRID1 loosescf d4 GCP(DFT/SV(P)) printgap
|  2> %output
|  3>     printlevel normal
|  4> end
|  5> * xyz 0 1
|  6> C -1.7924895068 -1.0145301292 -0.7296533057
|  7> C -1.0469346046 -0.4739988645 0.5009960924
|  8> H -1.7352949138 -0.5859539751 1.3483765933
|  9> C -0.7020706539 1.0173345548 0.3484061874
| 10> H -1.5298685036 1.4955225295 -0.193718744
| 11> C 0.592444589 1.2409135897 -0.4564558339
| 12> H 0.8733144504 2.2910304316 -0.3068263113
| 13> C 1.7265445539 0.3578067713 0.1028364442
| 14> H 2.5960455737 0.4039535041 -0.563374543
| 15> C 1.2567962983 -1.1127649774 0.1393522534
| 16> H 1.9829330034 -1.7175995866 0.6962422299
| 17> O 0.0692268325 -1.2665944154 0.8815879447
| 18> O 1.1793778991 -1.6552578633 -1.1407159082
| 19> O 2.1739806783 0.8037990348 1.3531478926
| 20> O 0.3514649029 0.9573232091 -1.8181846934
| 21> O -0.4982760975 1.6378877576 1.5987471939
| 22> O -3.1295095398 -0.5719991829 -0.624399085
| 23> H -1.7306410742 -2.1093068496 -0.7085918656
| 24> H -1.340801981 -0.6396449806 -1.6530774132
| 25> H 0.7865274624 -0.9968343063 -1.7435580098
| 26> H 1.4021374676 0.9684735343 1.9223260571
| 27> H 0.9200748557 1.5061198776 -2.3764463351
| 28> H -1.3194315423 1.6228088012 2.1104339939
| 29> H -3.6354366642 -0.9089601374 -1.3768355139
| 30> *
| 31>
| 32>                          ****END OF INPUT****

CARTESIAN COORDINATES (ANGSTROEM)
---------------------------------
  C     -1.792490   -1.014530   -0.729653
  C     -1.046935   -0.473999    0.500996
  H     -1.735295   -0.585954    1.348377
  C     -0.702071    1.017335    0.348406
  H     -1.529869    1.495523   -0.193719
  C      0.592445    1.240914   -0.456456
  H      0.873314    2.291030   -0.306826
  C      1.726545    0.357807    0.102836
  H      2.596046    0.403954   -0.563375
  C      1.256796   -1.112765    0.139352
  H      1.982933   -1.717600    0.696242
  O      0.069227   -1.266594    0.881588
  O      1.179378   -1.655258   -1.140716
  O      2.173981    0.803799    1.353148
  O      0.351465    0.957323   -1.818185
  O     -0.498276    1.637888    1.598747
  O     -3.129510   -0.571999   -0.624399
  H     -1.730641   -2.109307   -0.708592
  H     -1.340802   -0.639645   -1.653077
  H      0.786527   -0.996834   -1.743558
  H      1.402137    0.968474    1.922326
  H      0.920075    1.506120   -2.376446
  H     -1.319432    1.622809    2.110434
  H     -3.635437   -0.908960   -1.376836

 Total Charge           Charge          ....    0
 Multiplicity           Mult            ....    1
 Number of Electrons    NEL             ....   96
 Basis Dimension        Dim             ....  192

ORBITAL ENERGIES
----------------

  NO   OCC          E(Eh)            E(eV)
   0   2.0000     -18.789652      -511.2924
   1   2.0000     -18.774629      -510.8836
   2   2.0000     -18.755511      -510.3634
   3   2.0000     -18.753154      -510.2993
   4   2.0000     -18.742190      -510.0009
   5   2.0000     -18.736196      -509.8378
   6   2.0000      -9.968759      -271.2637
   7   2.0000      -9.957102      -270.9465
   8   2.0000      -9.953186      -270.8400
   9   2.0000      -9.943520      -270.5769
  10   2.0000      -9.935870      -270.3688
  11   2.0000      -9.929407      -270.1929
  12   2.0000      -0.975527       -26.5454
  13   2.0000      -0.955221       -25.9929
  14   2.0000      -0.947261       -25.7763
  15   2.0000      -0.926954       -25.2237
  16   2.0000      -0.913649       -24.8617
  17   2.0000      -0.897506       -24.4224
  18   2.0000      -0.710968       -19.3464
  19   2.0000      -0.684841       -18.6355
  20   2.0000      -0.618456       -16.8290
  21   2.0000      -0.585352       -15.9282
  22   2.0000      -0.569702       -15.5024
  23   2.0000      -0.528489       -14.3809
  24   2.0000      -0.508705       -13.8426
  25   2.0000      -0.490338       -13.3428
  26   2.0000      -0.475752       -12.9459
  27   2.0000      -0.464242       -12.6327
  28   2.0000      -0.428638       -11.6638
  29   2.0000      -0.423435       -11.5223
  30   2.0000      -0.421171       -11.4606
  31   2.0000      -0.405610       -11.0372
  32   2.0000      -0.393198       -10.6995
  33   2.0000      -0.382615       -10.4115
  34   2.0000      -0.364325        -9.9138
  35   2.0000      -0.347174        -9.4471
  36   2.0000      -0.329115        -8.9557
  37   2.0000      -0.313298        -8.5253
  38   2.0000      -0.304117        -8.2754
  39   2.0000      -0.295141        -8.0312
  40   2.0000      -0.288807        -7.8588
  41   2.0000      -0.267952        -7.2913
  42   2.0000      -0.259134        -7.0514
  43   2.0000      -0.244783        -6.6609
  44   2.0000      -0.236418        -6.4333
  45   2.0000      -0.219478        -5.9723
  46   2.0000      -0.213225        -5.8021
  47   2.0000      -0.194340        -5.2883
  48   0.0000      -0.005573        -0.1516
  49   0.0000       0.015869         0.4318
  50   0.0000       0.022358         0.6084
  51   0.0000       0.064817         1.7638
  52   0.0000       0.072245         1.9659

MULLIKEN ATOMIC CHARGES
-----------------------
   0 C :   -0.000102
   1 C :    0.050098
   2 H :    0.065198
   3 C :    0.055067
   4 H :    0.083510
   5 C :   -0.014186
   6 H :    0.087389
   7 C :    0.041234
   8 H :    0.067160
   9 C :    0.200888
  10 H :    0.071796
  11 O :   -0.302966
  12 O :   -0.413304
  13 O :   -0.424802
  14 O :   -0.412325
  15 O :   -0.426679
  16 O :   -0.443615
  17 H :    0.090188
  18 H :    0.079907
  19 H :    0.302188
  20 H :    0.303195
  21 H :    0.321349
  22 H :    0.314750
  23 H :    0.304059
Sum of atomic charges:    0.0000000

LOEWDIN ATOMIC CHARGES
----------------------
   0 C :   -0.147133
   1 C :   -0.066910
   2 H :    0.116116
   3 C :   -0.068965
   4 H :    0.112976
   5 C :   -0.074148
   6 H :    0.114087
   7 C :   -0.093161
   8 H :    0.112241
   9 C :   -0.008002
  10 H :    0.111040
  11 O :   -0.141212
  12 O :   -0.315736
  13 O :   -0.317944
  14 O :   -0.305634
  15 O :   -0.308893
  16 O :   -0.346521
  17 H :    0.106373
  18 H :    0.098181
  19 H :    0.265050
  20 H :    0.273072
  21 H :    0.301268
  22 H :    0.294905
  23 H :    0.288952

  Mayer bond orders larger than 0.100000
B(  0-C ,  1-C ) :   1.0510 B(  0-C , 16-O ) :   1.0584 B(  0-C , 17-H ) :   0.9076
B(  0-C , 18-H ) :   0.8986 B(  1-C ,  2-H ) :   0.8907 B(  1-C ,  3-C ) :   0.9967
B(  1-C , 11-O ) :   1.0390 B(  3-C ,  4-H ) :   0.8870 B(  3-C ,  5-C ) :   1.0044
B(  3-C , 15-O ) :   1.0137 B(  5-C ,  6-H ) :   0.9007 B(  5-C ,  7-C ) :   0.9731
B(  5-C , 14-O ) :   1.0340 B(  7-C ,  8-H ) :   0.8961 B(  7-C ,  9-C ) :   0.9829
B(  7-C , 13-O ) :   1.0722 B(  9-C , 10-H ) :   0.9056 B(  9-C , 11-O ) :   1.0335
B(  9-C , 12-O ) :   1.1200 B( 12-O , 19-H ) :   0.7985 B( 13-O , 20-H ) :   0.8114
B( 14-O , 21-H ) :   0.8384 B( 15-O , 22-H ) :   0.8403 B( 16-O , 23-H ) :   0.8499

Dispersion correction           -0.025906596
FINAL SINGLE POINT ENERGY      -685.695326922157

DIPOLE MOMENT
-------------

Method             : SCF
Type of density    : Electron Density
Multiplicity       :   1
Irrep              :   0
Energy             :  -685.8280189760030225 Eh
Relativity type    :
Basis              : AO
                                X                 Y                 Z
Electronic contribution:      1.594382672      -0.306186634       1.749092369
Nuclear contribution   :     -2.559452131       1.245994257      -2.665434426
                        -----------------------------------------
Total Dipole Moment    :     -0.965069459       0.939807623      -0.916342056
                        -----------------------------------------
Magnitude (a.u.)       :      1.629196180
Magnitude (Debye)      :      4.141087592

Rotational constants in cm-1:             0.041305             0.028259             0.024422
Rotational constants in MHz :          1238.296705           847.190616           732.166738

                             ****ORCA TERMINATED NORMALLY****
TOTAL RUN TIME: 0 days 0 hours 0 minutes 12 seconds 502 msec
