                         Program Version 6.0.0  -   RELEASE  -
|  1> ! pbe def2-sv(p) def2/J RI DEFGRID1 loosescf d4 GCP(DFT/SV(P)) printgap
|  2> %output
|  3>     printlevel normal
|  4> end
|  5> * xyz 0 1
|  6> C 1.6546309181 -1.2405624253 0.011072126
|  7> C 0.9508996919 0.0223661752 -0.4734023884
|  8> H 0.9403254487 0.0765375579 -1.5677991405
|  9> C -0.5225398878 -0.0094620911 -0.0313493759
| 10> F -1.1790609332 -1.0853651883 -0.5010137934
| 11> F -0.6574360055 -0.0410297873 1.3075998767
| 12> F -1.2136883586 1.0644219734 -0.4502071386
| 13> O 1.5433135222 1.2093716782 -0.0349655801
| 14> H 1.60052044 -1.3115761987 1.0953417134
| 15> H 2.6953206608 -1.2039176194 -0.2951450983
| 16> H 1.1862858745 -2.1184861896 -0.4236433085
| 17> H 1.7509452532 1.1576801268 0.9117188495
| 18> *
| 19>
| 20>                          ****END OF INPUT****

CARTESIAN COORDINATES (ANGSTROEM)
---------------------------------
  C      1.654631   -1.240562    0.011072
  C      0.950900    0.022366   -0.473402
  H      0.940325    0.076538   -1.567799
  C     -0.522540   -0.009462   -0.031349
  F     -1.179061   -1.085365   -0.501014
  F     -0.657436   -0.041030    1.307600
  F     -1.213688    1.064422   -0.450207
  O      1.543314    1.209372   -0.034966
  H      1.600520   -1.311576    1.095342
  H      2.695321   -1.203918   -0.295145
  H      1.186286   -2.118486   -0.423643
  H      1.750945    1.157680    0.911719

 Total Charge           Charge          ....    0
 Multiplicity           Mult            ....    1
 Number of Electrons    NEL             ....   58
 Basis Dimension        Dim             ....  108

ORBITAL ENERGIES
----------------

  NO   OCC          E(Eh)            E(eV)
   0   2.0000     -24.287589      -660.8989
   1   2.0000     -24.285678      -660.8469
   2   2.0000     -24.278090      -660.6404
   3   2.0000     -18.771446      -510.7970
   4   2.0000     -10.115626      -275.2602
   5   2.0000      -9.969583      -271.2862
   6   2.0000      -9.899816      -269.3877
   7   2.0000      -1.187485       -32.3131
   8   2.0000      -1.096658       -29.8416
   9   2.0000      -1.091186       -29.6927
  10   2.0000      -0.951280       -25.8857
  11   2.0000      -0.714258       -19.4360
  12   2.0000      -0.631472       -17.1832
  13   2.0000      -0.580927       -15.8078
  14   2.0000      -0.525157       -14.2903
  15   2.0000      -0.523434       -14.2434
  16   2.0000      -0.512702       -13.9513
  17   2.0000      -0.442458       -12.0399
  18   2.0000      -0.423509       -11.5243
  19   2.0000      -0.395763       -10.7693
  20   2.0000      -0.393223       -10.7001
  21   2.0000      -0.380767       -10.3612
  22   2.0000      -0.359693        -9.7877
  23   2.0000      -0.355923        -9.6852
  24   2.0000      -0.349855        -9.5200
  25   2.0000      -0.333923        -9.0865
  26   2.0000      -0.332499        -9.0478
  27   2.0000      -0.297236        -8.0882
  28   2.0000      -0.243213        -6.6182
  29   0.0000       0.019771         0.5380
  30   0.0000       0.051211         1.3935
  31   0.0000       0.067535         1.8377
  32   0.0000       0.092585         2.5194
  33   0.0000       0.100337         2.7303

MULLIKEN ATOMIC CHARGES
-----------------------
   0 C :   -0.281109
   1 C :   -0.022812
   2 H :    0.101144
   3 C :    0.392652
   4 F :   -0.144643
   5 F :   -0.152744
   6 F :   -0.136376
   7 O :   -0.414657
   8 H :    0.106675
   9 H :    0.125800
  10 H :    0.121841
  11 H :    0.304229
Sum of atomic charges:   -0.0000000

LOEWDIN ATOMIC CHARGES
----------------------
   0 C :   -0.354550
   1 C :   -0.098356
   2 H :    0.132065
   3 C :    0.096418
   4 F :   -0.051447
   5 F :   -0.055057
   6 F :   -0.045193
   7 O :   -0.303457
   8 H :    0.123373
   9 H :    0.131981
  10 H :    0.135142
  11 H :    0.289083

  Mayer bond orders larger than 0.100000
B(  0-C ,  1-C ) :   1.0942 B(  0-C ,  8-H ) :   0.9390 B(  0-C ,  9-H ) :   0.9425
B(  0-C , 10-H ) :   0.9347 B(  1-C ,  2-H ) :   0.8837 B(  1-C ,  3-C ) :   0.9454
B(  1-C ,  7-O ) :   1.0520 B(  3-C ,  4-F ) :   1.1446 B(  3-C ,  5-F ) :   1.1378
B(  3-C ,  6-F ) :   1.1823 B(  7-O , 11-H ) :   0.8454

Dispersion correction           -0.008186458
FINAL SINGLE POINT ENERGY      -491.115802822121

DIPOLE MOMENT
-------------

Method             : SCF
Type of density    : Electron Density
Multiplicity       :   1
Irrep              :   0
Energy             :  -491.1869135112713707 Eh
Relativity type    :
Basis              : AO
                                X                 Y                 Z
Electronic contribution:     -9.786996793       2.666420022       0.804545546
Nuclear contribution   :     10.516985493      -3.114254272      -0.592955203
                        -----------------------------------------
Total Dipole Moment    :      0.729988700      -0.447834250       0.211590343
                        -----------------------------------------
Magnitude (a.u.)       :      0.882161828
Magnitude (Debye)      :      2.242277170

Rotational constants in cm-1:             0.117455             0.079644             0.065353
Rotational constants in MHz :          3521.197880          2387.657142          1959.240271

                             ****ORCA TERMINATED NORMALLY****
TOTAL RUN TIME: 0 days 0 hours 0 minutes 6 seconds 48 msec
