                         Program Version 6.0.0  -   RELEASE  -
|  1> ! pbe def2-sv(p) def2/J RI DEFGRID1 loosescf d4 GCP(DFT/SV(P)) printgap
|  2> %output
|  3>     printlevel normal
|  4> end
|  5> * xyz 0 1
|  6> C -2.5612898788 -0.8831011422 0.2915197814
|  7> C -1.1258709893 -0.4472290816 0.6200461214
|  8> H -1.0105462234 -0.3860521276 1.711937507
|  9> C -0.8245558576 0.9357549692 0.0262292062
| 10> H -1.080605863 0.9152605274 -1.0460667736
| 11> C 0.6666429284 1.2905285734 0.185955762
| 12> H 0.8844452021 1.4379484879 1.2504182383
| 13> C 1.5384183894 0.1464580809 -0.3371145089
| 14> H 1.3793393332 0.0371960992 -1.4240945787
| 15> C 1.102656413 -1.1649687901 0.3531846684
| 16> H 1.2767916749 -1.0653335254 1.4380112686
| 17> O -0.2518599954 -1.4302365897 0.0923320035
| 18> O 1.8628435874 -2.2382949105 -0.0714429212
| 19> O 2.8880845619 0.4224524205 -0.0691773249
| 20> O 0.9416694501 2.5296383552 -0.4170757183
| 21> O -1.6278081905 1.8737858187 0.6962415145
| 22> O -2.7736505826 -1.0334234982 -1.0868129819
| 23> H -3.2402168764 -0.0997920957 0.631185755
| 24> H -2.7776219317 -1.8159484823 0.824003949
| 25> H 1.5230529206 -2.5635022992 -0.9202014453
| 26> H 3.3993533487 -0.3981771877 -0.1537116922
| 27> H 1.0152428822 2.4252457972 -1.3769272546
| 28> H -1.3060869786 2.7620472424 0.473997917
| 29> H -2.2127712614 -1.7555244103 -1.4045218422
| 30> *
| 31>
| 32>                          ****END OF INPUT****

CARTESIAN COORDINATES (ANGSTROEM)
---------------------------------
  C     -2.561290   -0.883101    0.291520
  C     -1.125871   -0.447229    0.620046
  H     -1.010546   -0.386052    1.711938
  C     -0.824556    0.935755    0.026229
  H     -1.080606    0.915261   -1.046067
  C      0.666643    1.290529    0.185956
  H      0.884445    1.437948    1.250418
  C      1.538418    0.146458   -0.337115
  H      1.379339    0.037196   -1.424095
  C      1.102656   -1.164969    0.353185
  H      1.276792   -1.065334    1.438011
  O     -0.251860   -1.430237    0.092332
  O      1.862844   -2.238295   -0.071443
  O      2.888085    0.422452   -0.069177
  O      0.941669    2.529638   -0.417076
  O     -1.627808    1.873786    0.696242
  O     -2.773651   -1.033423   -1.086813
  H     -3.240217   -0.099792    0.631186
  H     -2.777622   -1.815948    0.824004
  H      1.523053   -2.563502   -0.920201
  H      3.399353   -0.398177   -0.153712
  H      1.015243    2.425246   -1.376927
  H     -1.306087    2.762047    0.473998
  H     -2.212771   -1.755524   -1.404522

 Total Charge           Charge          ....    0
 Multiplicity           Mult            ....    1
 Number of Electrons    NEL             ....   96
 Basis Dimension        Dim             ....  192

ORBITAL ENERGIES
----------------

  NO   OCC          E(Eh)            E(eV)
   0   2.0000     -18.786796      -511.2147
   1   2.0000     -18.779111      -511.0056
   2   2.0000     -18.759790      -510.4798
   3   2.0000     -18.754542      -510.3370
   4   2.0000     -18.751862      -510.2641
   5   2.0000     -18.751419      -510.2520
   6   2.0000      -9.998574      -272.0750
   7   2.0000      -9.948795      -270.7205
   8   2.0000      -9.947704      -270.6908
   9   2.0000      -9.945565      -270.6326
  10   2.0000      -9.940430      -270.4928
  11   2.0000      -9.932103      -270.2663
  12   2.0000      -0.999471       -27.1970
  13   2.0000      -0.948747       -25.8167
  14   2.0000      -0.943034       -25.6613
  15   2.0000      -0.927066       -25.2268
  16   2.0000      -0.921406       -25.0727
  17   2.0000      -0.918003       -24.9801
  18   2.0000      -0.705970       -19.2104
  19   2.0000      -0.696530       -18.9535
  20   2.0000      -0.619559       -16.8591
  21   2.0000      -0.592156       -16.1134
  22   2.0000      -0.567739       -15.4490
  23   2.0000      -0.549118       -14.9423
  24   2.0000      -0.502746       -13.6804
  25   2.0000      -0.496294       -13.5048
  26   2.0000      -0.475801       -12.9472
  27   2.0000      -0.460718       -12.5368
  28   2.0000      -0.446193       -12.1415
  29   2.0000      -0.436201       -11.8696
  30   2.0000      -0.429902       -11.6982
  31   2.0000      -0.418391       -11.3850
  32   2.0000      -0.381957       -10.3936
  33   2.0000      -0.376640       -10.2489
  34   2.0000      -0.365308        -9.9405
  35   2.0000      -0.352163        -9.5829
  36   2.0000      -0.329660        -8.9705
  37   2.0000      -0.327323        -8.9069
  38   2.0000      -0.311096        -8.4654
  39   2.0000      -0.294878        -8.0240
  40   2.0000      -0.289122        -7.8674
  41   2.0000      -0.281130        -7.6499
  42   2.0000      -0.266013        -7.2386
  43   2.0000      -0.242697        -6.6041
  44   2.0000      -0.241170        -6.5626
  45   2.0000      -0.223534        -6.0827
  46   2.0000      -0.216724        -5.8973
  47   2.0000      -0.209651        -5.7049
  48   0.0000       0.009616         0.2617
  49   0.0000       0.017628         0.4797
  50   0.0000       0.031972         0.8700
  51   0.0000       0.045577         1.2402
  52   0.0000       0.056810         1.5459

MULLIKEN ATOMIC CHARGES
-----------------------
   0 C :    0.090998
   1 C :   -0.005221
   2 H :    0.060856
   3 C :    0.057927
   4 H :    0.038310
   5 C :    0.077324
   6 H :    0.066508
   7 C :    0.044308
   8 H :    0.021588
   9 C :    0.163865
  10 H :    0.061458
  11 O :   -0.319469
  12 O :   -0.382881
  13 O :   -0.402430
  14 O :   -0.410631
  15 O :   -0.419974
  16 O :   -0.436565
  17 H :    0.101875
  18 H :    0.081315
  19 H :    0.305547
  20 H :    0.301409
  21 H :    0.302061
  22 H :    0.306311
  23 H :    0.295512
Sum of atomic charges:    0.0000000

LOEWDIN ATOMIC CHARGES
----------------------
   0 C :   -0.122919
   1 C :   -0.069442
   2 H :    0.110448
   3 C :   -0.078189
   4 H :    0.096810
   5 C :   -0.078820
   6 H :    0.120460
   7 C :   -0.099397
   8 H :    0.089107
   9 C :   -0.004248
  10 H :    0.101918
  11 O :   -0.155583
  12 O :   -0.291925
  13 O :   -0.316750
  14 O :   -0.307754
  15 O :   -0.319769
  16 O :   -0.329316
  17 H :    0.127174
  18 H :    0.101536
  19 H :    0.290343
  20 H :    0.282891
  21 H :    0.287122
  22 H :    0.286333
  23 H :    0.279969

  Mayer bond orders larger than 0.100000
B(  0-C ,  1-C ) :   1.0398 B(  0-C , 16-O ) :   1.0618 B(  0-C , 17-H ) :   0.9124
B(  0-C , 18-H ) :   0.9192 B(  1-C ,  2-H ) :   0.8701 B(  1-C ,  3-C ) :   1.0028
B(  1-C , 11-O ) :   0.9782 B(  3-C ,  4-H ) :   0.8579 B(  3-C ,  5-C ) :   1.0024
B(  3-C , 15-O ) :   1.0664 B(  5-C ,  6-H ) :   0.8675 B(  5-C ,  7-C ) :   1.0014
B(  5-C , 14-O ) :   1.0485 B(  7-C ,  8-H ) :   0.8515 B(  7-C ,  9-C ) :   0.9842
B(  7-C , 13-O ) :   1.1052 B(  9-C , 10-H ) :   0.8791 B(  9-C , 11-O ) :   1.0165
B(  9-C , 12-O ) :   1.1182 B( 12-O , 19-H ) :   0.8399 B( 13-O , 20-H ) :   0.8319
B( 14-O , 21-H ) :   0.8468 B( 15-O , 22-H ) :   0.8300 B( 16-O , 23-H ) :   0.8465

Dispersion correction           -0.023913902
FINAL SINGLE POINT ENERGY      -685.700639120990

DIPOLE MOMENT
-------------

Method             : SCF
Type of density    : Electron Density
Multiplicity       :   1
Irrep              :   0
Energy             :  -685.8308020006596735 Eh
Relativity type    :
Basis              : AO
                                X                 Y                 Z
Electronic contribution:      2.333994698      -0.175064553      -0.688632323
Nuclear contribution   :     -2.001316401      -0.473471144      -0.008898439
                        -----------------------------------------
Total Dipole Moment    :      0.332678297      -0.648535697      -0.697530762
                        -----------------------------------------
Magnitude (a.u.)       :      1.008871926
Magnitude (Debye)      :      2.564348644

Rotational constants in cm-1:             0.038830             0.027085             0.017770
Rotational constants in MHz :          1164.100125           811.992579           532.730587

                             ****ORCA TERMINATED NORMALLY****
TOTAL RUN TIME: 0 days 0 hours 0 minutes 12 seconds 2 msec
