                         Program Version 6.0.0  -   RELEASE  -
|  1> ! pbe def2-sv(p) def2/J RI DEFGRID1 loosescf d4 GCP(DFT/SV(P)) printgap
|  2> %output
|  3>     printlevel normal
|  4> end
|  5> * xyz 0 1
|  6> C -1.8403329158 -0.6205510374 -1.0900684583
|  7> C -1.2328352604 -0.544985351 0.325946912
|  8> H -2.0001777836 -0.8377297523 1.0565282975
|  9> C -0.8061766598 0.8860594328 0.666316471
| 10> H -1.6191950754 1.5440797111 0.3310081864
| 11> C 0.4690735178 1.316325835 -0.0911332678
| 12> H 1.0526022854 1.9710033035 0.5743669088
| 13> C 1.3721387334 0.1180478731 -0.4204693442
| 14> H 1.118580824 -0.2733159234 -1.4182962429
| 15> C 1.119122141 -1.0120961313 0.5841988119
| 16> H 1.292199239 -0.6347544989 1.611692835
| 17> O -0.1936283062 -1.5056414565 0.4739844245
| 18> O 1.9911215929 -2.0469926348 0.2861363698
| 19> O 2.7081832934 0.5492936867 -0.3834884226
| 20> O 0.0769497067 2.0148651581 -1.2459519786
| 21> O -0.6326035656 0.9632304978 2.0628552421
| 22> O -3.1506144989 -0.1192627911 -1.1303130763
| 23> H -1.7972721213 -1.6640188596 -1.423386797
| 24> H -1.2660390494 0.0004633999 -1.7796143625
| 25> H 1.7146428745 -2.8471504081 0.7578626911
| 26> H 3.2862284448 -0.2261607206 -0.4502429256
| 27> H 0.8627314773 2.3716395017 -1.6853012714
| 28> H -0.6446318967 1.8884095091 2.3473057636
| 29> H -3.7377558071 -0.7002877925 -0.6251071366
| 30> *
| 31>
| 32>                          ****END OF INPUT****

CARTESIAN COORDINATES (ANGSTROEM)
---------------------------------
  C     -1.840333   -0.620551   -1.090068
  C     -1.232835   -0.544985    0.325947
  H     -2.000178   -0.837730    1.056528
  C     -0.806177    0.886059    0.666316
  H     -1.619195    1.544080    0.331008
  C      0.469074    1.316326   -0.091133
  H      1.052602    1.971003    0.574367
  C      1.372139    0.118048   -0.420469
  H      1.118581   -0.273316   -1.418296
  C      1.119122   -1.012096    0.584199
  H      1.292199   -0.634754    1.611693
  O     -0.193628   -1.505641    0.473984
  O      1.991122   -2.046993    0.286136
  O      2.708183    0.549294   -0.383488
  O      0.076950    2.014865   -1.245952
  O     -0.632604    0.963230    2.062855
  O     -3.150614   -0.119263   -1.130313
  H     -1.797272   -1.664019   -1.423387
  H     -1.266039    0.000463   -1.779614
  H      1.714643   -2.847150    0.757863
  H      3.286228   -0.226161   -0.450243
  H      0.862731    2.371640   -1.685301
  H     -0.644632    1.888410    2.347306
  H     -3.737756   -0.700288   -0.625107

 Total Charge           Charge          ....    0
 Multiplicity           Mult            ....    1
 Number of Electrons    NEL             ....   96
 Basis Dimension        Dim             ....  192

ORBITAL ENERGIES
----------------

  NO   OCC          E(Eh)            E(eV)
   0   2.0000     -18.762012      -510.5403
   1   2.0000     -18.761765      -510.5336
   2   2.0000     -18.757025      -510.4046
   3   2.0000     -18.755205      -510.3551
   4   2.0000     -18.750102      -510.2162
   5   2.0000     -18.747688      -510.1505
   6   2.0000      -9.978255      -271.5221
   7   2.0000      -9.944590      -270.6061
   8   2.0000      -9.942502      -270.5492
   9   2.0000      -9.941282      -270.5160
  10   2.0000      -9.935218      -270.3510
  11   2.0000      -9.924138      -270.0495
  12   2.0000      -0.979020       -26.6405
  13   2.0000      -0.941262       -25.6131
  14   2.0000      -0.933754       -25.4087
  15   2.0000      -0.923694       -25.1350
  16   2.0000      -0.919882       -25.0312
  17   2.0000      -0.907220       -24.6867
  18   2.0000      -0.703289       -19.1375
  19   2.0000      -0.684962       -18.6388
  20   2.0000      -0.612378       -16.6637
  21   2.0000      -0.585801       -15.9405
  22   2.0000      -0.568088       -15.4585
  23   2.0000      -0.518674       -14.1138
  24   2.0000      -0.500171       -13.6103
  25   2.0000      -0.478283       -13.0147
  26   2.0000      -0.475096       -12.9280
  27   2.0000      -0.456463       -12.4210
  28   2.0000      -0.449458       -12.2304
  29   2.0000      -0.437907       -11.9161
  30   2.0000      -0.415419       -11.3041
  31   2.0000      -0.391960       -10.6658
  32   2.0000      -0.374506       -10.1908
  33   2.0000      -0.368990       -10.0407
  34   2.0000      -0.361882        -9.8473
  35   2.0000      -0.348187        -9.4746
  36   2.0000      -0.326387        -8.8814
  37   2.0000      -0.321634        -8.7521
  38   2.0000      -0.306999        -8.3539
  39   2.0000      -0.288903        -7.8614
  40   2.0000      -0.277486        -7.5508
  41   2.0000      -0.263989        -7.1835
  42   2.0000      -0.243832        -6.6350
  43   2.0000      -0.237102        -6.4519
  44   2.0000      -0.233717        -6.3598
  45   2.0000      -0.218940        -5.9577
  46   2.0000      -0.216859        -5.9010
  47   2.0000      -0.196204        -5.3390
  48   0.0000       0.020794         0.5658
  49   0.0000       0.027385         0.7452
  50   0.0000       0.028588         0.7779
  51   0.0000       0.037585         1.0227
  52   0.0000       0.057917         1.5760

MULLIKEN ATOMIC CHARGES
-----------------------
   0 C :    0.030843
   1 C :    0.040383
   2 H :    0.056954
   3 C :    0.004703
   4 H :    0.086136
   5 C :    0.107167
   6 H :    0.051632
   7 C :    0.005107
   8 H :    0.054077
   9 C :    0.202304
  10 H :    0.048804
  11 O :   -0.325912
  12 O :   -0.397697
  13 O :   -0.426277
  14 O :   -0.409309
  15 O :   -0.411299
  16 O :   -0.431259
  17 H :    0.080724
  18 H :    0.104803
  19 H :    0.310472
  20 H :    0.308740
  21 H :    0.309196
  22 H :    0.304325
  23 H :    0.295385
Sum of atomic charges:    0.0000000

LOEWDIN ATOMIC CHARGES
----------------------
   0 C :   -0.140920
   1 C :   -0.060546
   2 H :    0.108133
   3 C :   -0.070198
   4 H :    0.118881
   5 C :   -0.066411
   6 H :    0.106831
   7 C :   -0.093331
   8 H :    0.106015
   9 C :   -0.006774
  10 H :    0.086508
  11 O :   -0.157888
  12 O :   -0.308521
  13 O :   -0.323365
  14 O :   -0.314365
  15 O :   -0.316149
  16 O :   -0.329199
  17 H :    0.099727
  18 H :    0.118275
  19 H :    0.292691
  20 H :    0.287355
  21 H :    0.291871
  22 H :    0.288834
  23 H :    0.282543

  Mayer bond orders larger than 0.100000
B(  0-C ,  1-C ) :   1.0132 B(  0-C , 16-O ) :   1.0509 B(  0-C , 17-H ) :   0.9180
B(  0-C , 18-H ) :   0.9035 B(  1-C ,  2-H ) :   0.8862 B(  1-C ,  3-C ) :   1.0405
B(  1-C , 11-O ) :   0.9889 B(  3-C ,  4-H ) :   0.8809 B(  3-C ,  5-C ) :   0.9987
B(  3-C , 15-O ) :   1.0386 B(  5-C ,  6-H ) :   0.8628 B(  5-C ,  7-C ) :   1.0279
B(  5-C , 14-O ) :   1.0626 B(  7-C ,  8-H ) :   0.8430 B(  7-C ,  9-C ) :   1.0629
B(  7-C , 13-O ) :   1.0732 B(  9-C , 10-H ) :   0.8807 B(  9-C , 11-O ) :   1.0264
B(  9-C , 12-O ) :   1.1488 B( 12-O , 19-H ) :   0.8384 B( 13-O , 20-H ) :   0.8346
B( 14-O , 21-H ) :   0.8439 B( 15-O , 22-H ) :   0.8479 B( 16-O , 23-H ) :   0.8517

Dispersion correction           -0.024566889
FINAL SINGLE POINT ENERGY      -685.687290949549

DIPOLE MOMENT
-------------

Method             : SCF
Type of density    : Electron Density
Multiplicity       :   1
Irrep              :   0
Energy             :  -685.8167577378804936 Eh
Relativity type    :
Basis              : AO
                                X                 Y                 Z
Electronic contribution:      1.745456715      -0.703947158       1.088197347
Nuclear contribution   :     -1.618778074       0.553422401      -0.658769656
                        -----------------------------------------
Total Dipole Moment    :      0.126678641      -0.150524757       0.429427691
                        -----------------------------------------
Magnitude (a.u.)       :      0.472348729
Magnitude (Debye)      :      1.200615055

Rotational constants in cm-1:             0.039470             0.025277             0.021745
Rotational constants in MHz :          1183.288569           757.787366           651.888191

                             ****ORCA TERMINATED NORMALLY****
TOTAL RUN TIME: 0 days 0 hours 0 minutes 11 seconds 841 msec
