                         Program Version 6.0.0  -   RELEASE  -
|  1> ! pbe def2-sv(p) def2/J RI DEFGRID1 loosescf d4 GCP(DFT/SV(P)) printgap
|  2> %output
|  3>     printlevel normal
|  4> end
|  5> * xyz 0 1
|  6> C -2.53480724 -0.955903172 0.3234343505
|  7> C -1.1035421649 -0.4787152349 0.6140425482
|  8> H -0.9589841904 -0.4212171085 1.7030600698
|  9> C -0.8313388675 0.9171478174 0.0140414357
| 10> H -1.0635871006 0.8844692368 -1.0590648697
| 11> C 0.6530970713 1.2953208098 0.1878540707
| 12> H 0.8508529609 1.4621868467 1.251962449
| 13> C 1.5535439806 0.1573725064 -0.3157007084
| 14> H 1.4338992353 0.0645067105 -1.4092575834
| 15> C 1.1264656398 -1.1745660536 0.3359633246
| 16> H 1.2956442811 -1.1026941927 1.423719217
| 17> O -0.2237449216 -1.4438460616 0.0624231639
| 18> O 1.8944402902 -2.2320253323 -0.1158022889
| 19> O 2.8886462105 0.4534766857 0.000751582
| 20> O 0.9517970276 2.5197538993 -0.4236990815
| 21> O -1.6007498946 1.8970485616 0.6669242806
| 22> O -2.8491775148 -0.9247859265 -1.0443308194
| 23> H -3.2396534269 -0.2900168156 0.8226890275
| 24> H -2.6481664864 -1.966281332 0.7308282263
| 25> H 1.5580466252 -2.5335254003 -0.9749008301
| 26> H 3.4251570441 -0.3458091031 -0.1232803269
| 27> H 0.8357726106 2.449461499 -1.3832479073
| 28> H -2.4705122329 1.9652950061 0.249998348
| 29> H -2.3196510474 -1.5941308235 -1.4995540061
| 30> *
| 31>
| 32>                          ****END OF INPUT****

CARTESIAN COORDINATES (ANGSTROEM)
---------------------------------
  C     -2.534807   -0.955903    0.323434
  C     -1.103542   -0.478715    0.614043
  H     -0.958984   -0.421217    1.703060
  C     -0.831339    0.917148    0.014041
  H     -1.063587    0.884469   -1.059065
  C      0.653097    1.295321    0.187854
  H      0.850853    1.462187    1.251962
  C      1.553544    0.157373   -0.315701
  H      1.433899    0.064507   -1.409258
  C      1.126466   -1.174566    0.335963
  H      1.295644   -1.102694    1.423719
  O     -0.223745   -1.443846    0.062423
  O      1.894440   -2.232025   -0.115802
  O      2.888646    0.453477    0.000752
  O      0.951797    2.519754   -0.423699
  O     -1.600750    1.897049    0.666924
  O     -2.849178   -0.924786   -1.044331
  H     -3.239653   -0.290017    0.822689
  H     -2.648166   -1.966281    0.730828
  H      1.558047   -2.533525   -0.974901
  H      3.425157   -0.345809   -0.123280
  H      0.835773    2.449461   -1.383248
  H     -2.470512    1.965295    0.249998
  H     -2.319651   -1.594131   -1.499554

 Total Charge           Charge          ....    0
 Multiplicity           Mult            ....    1
 Number of Electrons    NEL             ....   96
 Basis Dimension        Dim             ....  192

ORBITAL ENERGIES
----------------

  NO   OCC          E(Eh)            E(eV)
   0   2.0000     -18.784905      -511.1632
   1   2.0000     -18.774979      -510.8932
   2   2.0000     -18.762847      -510.5630
   3   2.0000     -18.755813      -510.3716
   4   2.0000     -18.748580      -510.1748
   5   2.0000     -18.741106      -509.9714
   6   2.0000      -9.993867      -271.9470
   7   2.0000      -9.948392      -270.7095
   8   2.0000      -9.943321      -270.5715
   9   2.0000      -9.942903      -270.5602
  10   2.0000      -9.941134      -270.5120
  11   2.0000      -9.939476      -270.4669
  12   2.0000      -0.996729       -27.1224
  13   2.0000      -0.945459       -25.7272
  14   2.0000      -0.938675       -25.5427
  15   2.0000      -0.929978       -25.3060
  16   2.0000      -0.922721       -25.1085
  17   2.0000      -0.910806       -24.7843
  18   2.0000      -0.703336       -19.1387
  19   2.0000      -0.693737       -18.8776
  20   2.0000      -0.624861       -17.0033
  21   2.0000      -0.588509       -16.0142
  22   2.0000      -0.565327       -15.3833
  23   2.0000      -0.545385       -14.8407
  24   2.0000      -0.499561       -13.5937
  25   2.0000      -0.488898       -13.3036
  26   2.0000      -0.477551       -12.9948
  27   2.0000      -0.470631       -12.8065
  28   2.0000      -0.458060       -12.4644
  29   2.0000      -0.438318       -11.9272
  30   2.0000      -0.424568       -11.5531
  31   2.0000      -0.397607       -10.8194
  32   2.0000      -0.387968       -10.5571
  33   2.0000      -0.378969       -10.3123
  34   2.0000      -0.357253        -9.7214
  35   2.0000      -0.353597        -9.6219
  36   2.0000      -0.330678        -8.9982
  37   2.0000      -0.324799        -8.8382
  38   2.0000      -0.304566        -8.2877
  39   2.0000      -0.293598        -7.9892
  40   2.0000      -0.287060        -7.8113
  41   2.0000      -0.278451        -7.5770
  42   2.0000      -0.264672        -7.2021
  43   2.0000      -0.248055        -6.7499
  44   2.0000      -0.236024        -6.4226
  45   2.0000      -0.223106        -6.0710
  46   2.0000      -0.211589        -5.7576
  47   2.0000      -0.204822        -5.5735
  48   0.0000       0.011187         0.3044
  49   0.0000       0.017050         0.4640
  50   0.0000       0.024557         0.6682
  51   0.0000       0.038037         1.0351
  52   0.0000       0.056331         1.5328

MULLIKEN ATOMIC CHARGES
-----------------------
   0 C :    0.068226
   1 C :   -0.005157
   2 H :    0.061050
   3 C :    0.027688
   4 H :    0.035038
   5 C :    0.119599
   6 H :    0.068907
   7 C :    0.047844
   8 H :    0.014506
   9 C :    0.165470
  10 H :    0.060078
  11 O :   -0.318090
  12 O :   -0.384145
  13 O :   -0.401312
  14 O :   -0.399435
  15 O :   -0.402487
  16 O :   -0.437034
  17 H :    0.082053
  18 H :    0.090880
  19 H :    0.303582
  20 H :    0.299495
  21 H :    0.291082
  22 H :    0.310880
  23 H :    0.301280
Sum of atomic charges:    0.0000000

LOEWDIN ATOMIC CHARGES
----------------------
   0 C :   -0.127826
   1 C :   -0.080595
   2 H :    0.110284
   3 C :   -0.079845
   4 H :    0.096122
   5 C :   -0.065697
   6 H :    0.124193
   7 C :   -0.097915
   8 H :    0.086469
   9 C :   -0.007069
  10 H :    0.101124
  11 O :   -0.159174
  12 O :   -0.293826
  13 O :   -0.314165
  14 O :   -0.300646
  15 O :   -0.309911
  16 O :   -0.333035
  17 H :    0.114368
  18 H :    0.107347
  19 H :    0.288893
  20 H :    0.282069
  21 H :    0.280576
  22 H :    0.292622
  23 H :    0.285634

  Mayer bond orders larger than 0.100000
B(  0-C ,  1-C ) :   1.0302 B(  0-C , 16-O ) :   1.0663 B(  0-C , 17-H ) :   0.9156
B(  0-C , 18-H ) :   0.9212 B(  1-C ,  2-H ) :   0.8691 B(  1-C ,  3-C ) :   0.9748
B(  1-C , 11-O ) :   0.9695 B(  3-C ,  4-H ) :   0.8652 B(  3-C ,  5-C ) :   0.9898
B(  3-C , 15-O ) :   1.0997 B(  5-C ,  6-H ) :   0.8693 B(  5-C ,  7-C ) :   0.9882
B(  5-C , 14-O ) :   1.0679 B(  7-C ,  8-H ) :   0.8518 B(  7-C ,  9-C ) :   0.9792
B(  7-C , 13-O ) :   1.1018 B(  9-C , 10-H ) :   0.8787 B(  9-C , 11-O ) :   1.0125
B(  9-C , 12-O ) :   1.1154 B( 12-O , 19-H ) :   0.8409 B( 13-O , 20-H ) :   0.8342
B( 14-O , 21-H ) :   0.8506 B( 15-O , 22-H ) :   0.8439 B( 16-O , 23-H ) :   0.8463

Dispersion correction           -0.023886235
FINAL SINGLE POINT ENERGY      -685.695002507124

DIPOLE MOMENT
-------------

Method             : SCF
Type of density    : Electron Density
Multiplicity       :   1
Irrep              :   0
Energy             :  -685.8241142373308321 Eh
Relativity type    :
Basis              : AO
                                X                 Y                 Z
Electronic contribution:      2.551847117       0.238319255      -0.644227736
Nuclear contribution   :     -3.081348747      -1.335483214      -0.263184251
                        -----------------------------------------
Total Dipole Moment    :     -0.529501629      -1.097163959      -0.907411987
                        -----------------------------------------
Magnitude (a.u.)       :      1.519058012
Magnitude (Debye)      :      3.861138616

Rotational constants in cm-1:             0.039302             0.026728             0.017650
Rotational constants in MHz :          1178.245157           801.293574           529.119406

                             ****ORCA TERMINATED NORMALLY****
TOTAL RUN TIME: 0 days 0 hours 0 minutes 11 seconds 823 msec
