                         Program Version 6.0.0  -   RELEASE  -
|  1> ! pbe def2-sv(p) def2/J RI DEFGRID1 loosescf d4 GCP(DFT/SV(P)) printgap
|  2> %output
|  3>     printlevel normal
|  4> end
|  5> * xyz 0 1
|  6> C -2.4867565341 -0.213296493 -0.5399082461
|  7> C -1.2133949518 -0.1932441118 0.3125063232
|  8> H -1.4466782818 -0.5523161693 1.3271873125
|  9> C -0.6103203679 1.2195189153 0.4531534666
| 10> H -1.3514128046 1.9639360737 0.1254856853
| 11> C 0.628593564 1.3476484494 -0.4604836621
| 12> H 1.0741085514 2.3399504468 -0.3324395698
| 13> C 1.6924306269 0.3035596983 -0.0725630459
| 14> H 2.3041941322 0.0950056274 -0.9627490703
| 15> C 0.9889720666 -1.0113382544 0.3294977988
| 16> H 0.8513086825 -1.0162288185 1.4284156096
| 17> O -0.2843172794 -1.0903862072 -0.2844616857
| 18> O 1.7604816703 -2.0705681751 -0.102799808
| 19> O 2.4758561605 0.8306411448 0.9630879417
| 20> O 0.2710072799 1.2535765852 -1.8137919888
| 21> O -0.2968926172 1.4001774084 1.8112556075
| 22> O -3.0660006319 -1.4899500433 -0.5998933052
| 23> H -2.2577668286 0.1604847216 -1.5455790693
| 24> H -3.2317200787 0.4368843029 -0.0785920678
| 25> H 1.3116886192 -2.9118024146 0.0745400728
| 26> H 3.2116100744 0.2321256805 1.1549583798
| 27> H 0.0354536975 0.3324569585 -2.0069817669
| 28> H 0.1832688081 2.231137581 1.9366496648
| 29> H -2.4153025594 -2.1078549315 -0.963181111
| 30> *
| 31>
| 32>                          ****END OF INPUT****

CARTESIAN COORDINATES (ANGSTROEM)
---------------------------------
  C     -2.486757   -0.213296   -0.539908
  C     -1.213395   -0.193244    0.312506
  H     -1.446678   -0.552316    1.327187
  C     -0.610320    1.219519    0.453153
  H     -1.351413    1.963936    0.125486
  C      0.628594    1.347648   -0.460484
  H      1.074109    2.339950   -0.332440
  C      1.692431    0.303560   -0.072563
  H      2.304194    0.095006   -0.962749
  C      0.988972   -1.011338    0.329498
  H      0.851309   -1.016229    1.428416
  O     -0.284317   -1.090386   -0.284462
  O      1.760482   -2.070568   -0.102800
  O      2.475856    0.830641    0.963088
  O      0.271007    1.253577   -1.813792
  O     -0.296893    1.400177    1.811256
  O     -3.066001   -1.489950   -0.599893
  H     -2.257767    0.160485   -1.545579
  H     -3.231720    0.436884   -0.078592
  H      1.311689   -2.911802    0.074540
  H      3.211610    0.232126    1.154958
  H      0.035454    0.332457   -2.006982
  H      0.183269    2.231138    1.936650
  H     -2.415303   -2.107855   -0.963181

 Total Charge           Charge          ....    0
 Multiplicity           Mult            ....    1
 Number of Electrons    NEL             ....   96
 Basis Dimension        Dim             ....  192

ORBITAL ENERGIES
----------------

  NO   OCC          E(Eh)            E(eV)
   0   2.0000     -18.785080      -511.1680
   1   2.0000     -18.772334      -510.8212
   2   2.0000     -18.758830      -510.4537
   3   2.0000     -18.754987      -510.3491
   4   2.0000     -18.752492      -510.2812
   5   2.0000     -18.745830      -510.1000
   6   2.0000      -9.990066      -271.8435
   7   2.0000      -9.946331      -270.6534
   8   2.0000      -9.944727      -270.6098
   9   2.0000      -9.944173      -270.5947
  10   2.0000      -9.942316      -270.5442
  11   2.0000      -9.935961      -270.3712
  12   2.0000      -0.994132       -27.0517
  13   2.0000      -0.944028       -25.6883
  14   2.0000      -0.937482       -25.5102
  15   2.0000      -0.927038       -25.2260
  16   2.0000      -0.925958       -25.1966
  17   2.0000      -0.915833       -24.9211
  18   2.0000      -0.701265       -19.0824
  19   2.0000      -0.691823       -18.8255
  20   2.0000      -0.619970       -16.8703
  21   2.0000      -0.593892       -16.1606
  22   2.0000      -0.567157       -15.4331
  23   2.0000      -0.525480       -14.2990
  24   2.0000      -0.511439       -13.9170
  25   2.0000      -0.490535       -13.3481
  26   2.0000      -0.481087       -13.0910
  27   2.0000      -0.466707       -12.6997
  28   2.0000      -0.445057       -12.1106
  29   2.0000      -0.441514       -12.0142
  30   2.0000      -0.421373       -11.4661
  31   2.0000      -0.396067       -10.7775
  32   2.0000      -0.384719       -10.4687
  33   2.0000      -0.374690       -10.1958
  34   2.0000      -0.364913        -9.9298
  35   2.0000      -0.351368        -9.5612
  36   2.0000      -0.330709        -8.9991
  37   2.0000      -0.318229        -8.6594
  38   2.0000      -0.304242        -8.2788
  39   2.0000      -0.300502        -8.1771
  40   2.0000      -0.289728        -7.8839
  41   2.0000      -0.278405        -7.5758
  42   2.0000      -0.264995        -7.2109
  43   2.0000      -0.246136        -6.6977
  44   2.0000      -0.233512        -6.3542
  45   2.0000      -0.218426        -5.9437
  46   2.0000      -0.213735        -5.8160
  47   2.0000      -0.209774        -5.7082
  48   0.0000       0.015908         0.4329
  49   0.0000       0.020187         0.5493
  50   0.0000       0.030649         0.8340
  51   0.0000       0.042043         1.1440
  52   0.0000       0.058253         1.5851

MULLIKEN ATOMIC CHARGES
-----------------------
   0 C :    0.075368
   1 C :   -0.015133
   2 H :    0.084491
   3 C :    0.035148
   4 H :    0.072193
   5 C :    0.017847
   6 H :    0.073072
   7 C :    0.074491
   8 H :    0.071394
   9 C :    0.156609
  10 H :    0.057730
  11 O :   -0.336984
  12 O :   -0.378298
  13 O :   -0.414814
  14 O :   -0.417080
  15 O :   -0.404619
  16 O :   -0.432349
  17 H :    0.066378
  18 H :    0.095533
  19 H :    0.306590
  20 H :    0.306688
  21 H :    0.304551
  22 H :    0.304568
  23 H :    0.296626
Sum of atomic charges:   -0.0000000

LOEWDIN ATOMIC CHARGES
----------------------
   0 C :   -0.128469
   1 C :   -0.073326
   2 H :    0.116428
   3 C :   -0.075985
   4 H :    0.104472
   5 C :   -0.070473
   6 H :    0.116505
   7 C :   -0.083764
   8 H :    0.110625
   9 C :   -0.008944
  10 H :    0.090258
  11 O :   -0.170855
  12 O :   -0.295506
  13 O :   -0.315463
  14 O :   -0.309947
  15 O :   -0.312135
  16 O :   -0.334493
  17 H :    0.097382
  18 H :    0.122560
  19 H :    0.289324
  20 H :    0.290992
  21 H :    0.273156
  22 H :    0.287308
  23 H :    0.280348

  Mayer bond orders larger than 0.100000
B(  0-C ,  1-C ) :   1.0574 B(  0-C , 16-O ) :   1.0779 B(  0-C , 17-H ) :   0.8987
B(  0-C , 18-H ) :   0.9169 B(  1-C ,  2-H ) :   0.8840 B(  1-C ,  3-C ) :   0.9480
B(  1-C , 11-O ) :   0.9637 B(  3-C ,  4-H ) :   0.9006 B(  3-C ,  5-C ) :   0.9934
B(  3-C , 15-O ) :   1.0733 B(  5-C ,  6-H ) :   0.8885 B(  5-C ,  7-C ) :   0.9746
B(  5-C , 14-O ) :   1.0576 B(  7-C ,  8-H ) :   0.8861 B(  7-C ,  9-C ) :   1.0055
B(  7-C , 13-O ) :   1.0749 B(  9-C , 10-H ) :   0.8713 B(  9-C , 11-O ) :   1.0159
B(  9-C , 12-O ) :   1.1735 B( 12-O , 19-H ) :   0.8396 B( 13-O , 20-H ) :   0.8449
B( 14-O , 21-H ) :   0.8207 B( 15-O , 22-H ) :   0.8410 B( 16-O , 23-H ) :   0.8461

Dispersion correction           -0.024832926
FINAL SINGLE POINT ENERGY      -685.692799125558

DIPOLE MOMENT
-------------

Method             : SCF
Type of density    : Electron Density
Multiplicity       :   1
Irrep              :   0
Energy             :  -685.8233215495495187 Eh
Relativity type    :
Basis              : AO
                                X                 Y                 Z
Electronic contribution:      2.229156432      -1.528299753       0.133392709
Nuclear contribution   :     -1.611462673       1.112068300       0.147568514
                        -----------------------------------------
Total Dipole Moment    :      0.617693759      -0.416231453       0.280961223
                        -----------------------------------------
Magnitude (a.u.)       :      0.796073747
Magnitude (Debye)      :      2.023458659

Rotational constants in cm-1:             0.041916             0.025548             0.021460
Rotational constants in MHz :          1256.613167           765.904907           643.363846

                             ****ORCA TERMINATED NORMALLY****
TOTAL RUN TIME: 0 days 0 hours 0 minutes 11 seconds 931 msec
