                         Program Version 6.0.0  -   RELEASE  -
|  1> ! r2scan-3c def2/J RI DEFGRID2 scfconv6 printgap
|  2> %output
|  3>     printlevel normal
|  4> end
|  5> * xyz 0 1
|  6> C 3.364096085 -0.0414510608 0.1588321123
|  7> N 1.9429194062 -0.2808687354 0.285168478
|  8> C 1.5842696716 -1.4008723923 1.1233289491
|  9> C 1.0643258768 0.4995442949 -0.3538480134
| 10> O 1.4078578743 1.4420793936 -1.0752334707
| 11> C -0.3899082365 0.1904481534 -0.1634951907
| 12> C -1.0648075128 -0.5763221901 -1.1055616423
| 13> C -2.4236986541 -0.8024816406 -0.9695081406
| 14> C -3.1153421361 -0.2581745703 0.0998374454
| 15> C -2.4472674528 0.5166010919 1.0336869479
| 16> C -1.0880116156 0.7432412056 0.9039800101
| 17> H 3.5101239003 0.8225164479 -0.4863432805
| 18> H 3.8519283091 -0.9118950279 -0.2810105318
| 19> H 3.7968457221 0.1570457335 1.1397402371
| 20> H 2.0460554071 -2.3095763752 0.7338898045
| 21> H 0.5061857642 -1.5286777463 1.1451941012
| 22> H 1.9476633675 -1.2309956021 2.138178913
| 23> H -0.5215973605 -0.9906109975 -1.9420314164
| 24> H -2.9419427377 -1.4020511753 -1.7019928058
| 25> H -4.1751338352 -0.4334516809 0.2027031172
| 26> H -2.9847391178 0.9475375945 1.8643549215
| 27> H -0.5636789734 1.3515037095 1.6260425669
| 28> *
| 29>
| 30>                          ****END OF INPUT****

CARTESIAN COORDINATES (ANGSTROEM)
---------------------------------
  C      3.364096   -0.041451    0.158832
  N      1.942919   -0.280869    0.285168
  C      1.584270   -1.400872    1.123329
  C      1.064326    0.499544   -0.353848
  O      1.407858    1.442079   -1.075233
  C     -0.389908    0.190448   -0.163495
  C     -1.064808   -0.576322   -1.105562
  C     -2.423699   -0.802482   -0.969508
  C     -3.115342   -0.258175    0.099837
  C     -2.447267    0.516601    1.033687
  C     -1.088012    0.743241    0.903980
  H      3.510124    0.822516   -0.486343
  H      3.851928   -0.911895   -0.281011
  H      3.796846    0.157046    1.139740
  H      2.046055   -2.309576    0.733890
  H      0.506186   -1.528678    1.145194
  H      1.947663   -1.230996    2.138179
  H     -0.521597   -0.990611   -1.942031
  H     -2.941943   -1.402051   -1.701993
  H     -4.175134   -0.433452    0.202703
  H     -2.984739    0.947538    1.864355
  H     -0.563679    1.351504    1.626043

 Total Charge           Charge          ....    0
 Multiplicity           Mult            ....    1
 Number of Electrons    NEL             ....   80
 Basis Dimension        Dim             ....  274

ORBITAL ENERGIES
----------------

  NO   OCC          E(Eh)            E(eV)
   0   2.0000     -18.906566      -514.4738
   1   2.0000     -14.199204      -386.3800
   2   2.0000     -10.124132      -275.4916
   3   2.0000     -10.070310      -274.0271
   4   2.0000     -10.061533      -273.7882
   5   2.0000     -10.049865      -273.4707
   6   2.0000     -10.042515      -273.2707
   7   2.0000     -10.042102      -273.2595
   8   2.0000     -10.041695      -273.2484
   9   2.0000     -10.041435      -273.2413
  10   2.0000     -10.040040      -273.2034
  11   2.0000      -0.995130       -27.0789
  12   2.0000      -0.908899       -24.7324
  13   2.0000      -0.834169       -22.6989
  14   2.0000      -0.738700       -20.1011
  15   2.0000      -0.723729       -19.6937
  16   2.0000      -0.696518       -18.9532
  17   2.0000      -0.674311       -18.3489
  18   2.0000      -0.590244       -16.0614
  19   2.0000      -0.583443       -15.8763
  20   2.0000      -0.526007       -14.3134
  21   2.0000      -0.501790       -13.6544
  22   2.0000      -0.462526       -12.5860
  23   2.0000      -0.456574       -12.4240
  24   2.0000      -0.442319       -12.0361
  25   2.0000      -0.428377       -11.6567
  26   2.0000      -0.416948       -11.3457
  27   2.0000      -0.397332       -10.8119
  28   2.0000      -0.380735       -10.3603
  29   2.0000      -0.380017       -10.3408
  30   2.0000      -0.371078       -10.0975
  31   2.0000      -0.359910        -9.7937
  32   2.0000      -0.344432        -9.3725
  33   2.0000      -0.341646        -9.2967
  34   2.0000      -0.326578        -8.8867
  35   2.0000      -0.315153        -8.5757
  36   2.0000      -0.247727        -6.7410
  37   2.0000      -0.244942        -6.6652
  38   2.0000      -0.218948        -5.9579
  39   2.0000      -0.208757        -5.6806
  40   0.0000      -0.039277        -1.0688
  41   0.0000      -0.038792        -1.0556
  42   0.0000      -0.000554        -0.0151
  43   0.0000       0.059842         1.6284
  44   0.0000       0.087842         2.3903

MULLIKEN ATOMIC CHARGES
-----------------------
   0 C :   -0.409506
   1 N :    0.092462
   2 C :   -0.376721
   3 C :    0.211072
   4 O :   -0.448188
   5 C :    0.033954
   6 C :   -0.181016
   7 C :   -0.154938
   8 C :   -0.128797
   9 C :   -0.154596
  10 C :   -0.187166
  11 H :    0.203636
  12 H :    0.143651
  13 H :    0.142450
  14 H :    0.147456
  15 H :    0.175964
  16 H :    0.149972
  17 H :    0.151033
  18 H :    0.145790
  19 H :    0.147892
  20 H :    0.145631
  21 H :    0.149964
Sum of atomic charges:    0.0000000

LOEWDIN ATOMIC CHARGES
----------------------
   0 C :   -0.109460
   1 N :   -0.831730
   2 C :   -0.101415
   3 C :    0.346050
   4 O :   -0.469134
   5 C :   -0.034757
   6 C :   -0.136787
   7 C :   -0.157456
   8 C :   -0.165219
   9 C :   -0.157998
  10 C :   -0.140964
  11 H :    0.210507
  12 H :    0.173760
  13 H :    0.173769
  14 H :    0.173429
  15 H :    0.197655
  16 H :    0.172911
  17 H :    0.176626
  18 H :    0.168459
  19 H :    0.167715
  20 H :    0.168348
  21 H :    0.175691

  Mayer bond orders larger than 0.100000
B(  0-C ,  1-N ) :   0.9273 B(  0-C , 11-H ) :   0.9542 B(  0-C , 12-H ) :   0.9545
B(  0-C , 13-H ) :   0.9535 B(  1-N ,  2-C ) :   0.9209 B(  1-N ,  3-C ) :   1.2352
B(  2-C , 14-H ) :   0.9555 B(  2-C , 15-H ) :   0.9528 B(  2-C , 16-H ) :   0.9563
B(  3-C ,  4-O ) :   1.8702 B(  3-C ,  5-C ) :   0.8770 B(  5-C ,  6-C ) :   1.4350
B(  5-C , 10-C ) :   1.4347 B(  6-C ,  7-C ) :   1.4114 B(  6-C , 17-H ) :   0.9479
B(  7-C ,  8-C ) :   1.4163 B(  7-C , 18-H ) :   0.9499 B(  8-C ,  9-C ) :   1.4176
B(  8-C , 19-H ) :   0.9456 B(  9-C , 10-C ) :   1.4153 B(  9-C , 20-H ) :   0.9497
B( 10-C , 21-H ) :   0.9453

Dispersion correction           -0.008020068
FINAL SINGLE POINT ENERGY      -479.436458872417

DIPOLE MOMENT
-------------

Method             : SCF
Type of density    : Electron Density
Multiplicity       :   1
Irrep              :   0
Energy             :  -479.4425244859822897 Eh
Relativity type    :
Basis              : AO
                                X                 Y                 Z
Electronic contribution:     -4.190542769       3.924655506      -3.193762648
Nuclear contribution   :      4.226741134      -5.166989016       4.149909576
                        -----------------------------------------
Total Dipole Moment    :      0.036198365      -1.242333510       0.956146928
                        -----------------------------------------
Magnitude (a.u.)       :      1.568094327
Magnitude (Debye)      :      3.985779025

Rotational constants in cm-1:             0.081561             0.023148             0.022253
Rotational constants in MHz :          2445.128714           693.968726           667.123129

                             ****ORCA TERMINATED NORMALLY****
TOTAL RUN TIME: 0 days 0 hours 0 minutes 43 seconds 679 msec
