                         Program Version 6.0.0  -   RELEASE  -
|  1> ! r2scan-3c def2/J RI DEFGRID2 scfconv6 printgap
|  2> %output
|  3>     printlevel normal
|  4> end
|  5> %cpcm
|  6>     smd true
|  7>     smdsolvent "water"
|  8> end
|  9> * xyz 0 1
| 10> C 3.364096085 -0.0414510608 0.1588321123
| 11> N 1.9429194062 -0.2808687354 0.285168478
| 12> C 1.5842696716 -1.4008723923 1.1233289491
| 13> C 1.0643258768 0.4995442949 -0.3538480134
| 14> O 1.4078578743 1.4420793936 -1.0752334707
| 15> C -0.3899082365 0.1904481534 -0.1634951907
| 16> C -1.0648075128 -0.5763221901 -1.1055616423
| 17> C -2.4236986541 -0.8024816406 -0.9695081406
| 18> C -3.1153421361 -0.2581745703 0.0998374454
| 19> C -2.4472674528 0.5166010919 1.0336869479
| 20> C -1.0880116156 0.7432412056 0.9039800101
| 21> H 3.5101239003 0.8225164479 -0.4863432805
| 22> H 3.8519283091 -0.9118950279 -0.2810105318
| 23> H 3.7968457221 0.1570457335 1.1397402371
| 24> H 2.0460554071 -2.3095763752 0.7338898045
| 25> H 0.5061857642 -1.5286777463 1.1451941012
| 26> H 1.9476633675 -1.2309956021 2.138178913
| 27> H -0.5215973605 -0.9906109975 -1.9420314164
| 28> H -2.9419427377 -1.4020511753 -1.7019928058
| 29> H -4.1751338352 -0.4334516809 0.2027031172
| 30> H -2.9847391178 0.9475375945 1.8643549215
| 31> H -0.5636789734 1.3515037095 1.6260425669
| 32> *
| 33>
| 34>                          ****END OF INPUT****

CARTESIAN COORDINATES (ANGSTROEM)
---------------------------------
  C      3.364096   -0.041451    0.158832
  N      1.942919   -0.280869    0.285168
  C      1.584270   -1.400872    1.123329
  C      1.064326    0.499544   -0.353848
  O      1.407858    1.442079   -1.075233
  C     -0.389908    0.190448   -0.163495
  C     -1.064808   -0.576322   -1.105562
  C     -2.423699   -0.802482   -0.969508
  C     -3.115342   -0.258175    0.099837
  C     -2.447267    0.516601    1.033687
  C     -1.088012    0.743241    0.903980
  H      3.510124    0.822516   -0.486343
  H      3.851928   -0.911895   -0.281011
  H      3.796846    0.157046    1.139740
  H      2.046055   -2.309576    0.733890
  H      0.506186   -1.528678    1.145194
  H      1.947663   -1.230996    2.138179
  H     -0.521597   -0.990611   -1.942031
  H     -2.941943   -1.402051   -1.701993
  H     -4.175134   -0.433452    0.202703
  H     -2.984739    0.947538    1.864355
  H     -0.563679    1.351504    1.626043

 Total Charge           Charge          ....    0
 Multiplicity           Mult            ....    1
 Number of Electrons    NEL             ....   80
 Basis Dimension        Dim             ....  274

ORBITAL ENERGIES
----------------

  NO   OCC          E(Eh)            E(eV)
   0   2.0000     -18.924374      -514.9584
   1   2.0000     -14.202375      -386.4663
   2   2.0000     -10.135398      -275.7982
   3   2.0000     -10.054426      -273.5948
   4   2.0000     -10.051319      -273.5103
   5   2.0000     -10.051254      -273.5085
   6   2.0000     -10.040127      -273.2058
   7   2.0000     -10.040089      -273.2047
   8   2.0000     -10.037415      -273.1319
   9   2.0000     -10.037343      -273.1300
  10   2.0000     -10.035878      -273.0901
  11   2.0000      -1.010902       -27.5080
  12   2.0000      -0.911901       -24.8141
  13   2.0000      -0.833546       -22.6819
  14   2.0000      -0.737964       -20.0810
  15   2.0000      -0.721172       -19.6241
  16   2.0000      -0.686463       -18.6796
  17   2.0000      -0.669990       -18.2314
  18   2.0000      -0.587946       -15.9988
  19   2.0000      -0.580105       -15.7855
  20   2.0000      -0.521197       -14.1825
  21   2.0000      -0.497234       -13.5304
  22   2.0000      -0.457732       -12.4555
  23   2.0000      -0.450402       -12.2561
  24   2.0000      -0.446172       -12.1410
  25   2.0000      -0.423668       -11.5286
  26   2.0000      -0.413159       -11.2426
  27   2.0000      -0.391691       -10.6584
  28   2.0000      -0.382416       -10.4061
  29   2.0000      -0.368706       -10.0330
  30   2.0000      -0.364648        -9.9226
  31   2.0000      -0.357619        -9.7313
  32   2.0000      -0.350203        -9.5295
  33   2.0000      -0.341308        -9.2875
  34   2.0000      -0.325130        -8.8472
  35   2.0000      -0.311956        -8.4887
  36   2.0000      -0.253852        -6.9077
  37   2.0000      -0.245063        -6.6685
  38   2.0000      -0.225532        -6.1370
  39   2.0000      -0.223888        -6.0923
  40   0.0000      -0.040047        -1.0897
  41   0.0000      -0.038246        -1.0407
  42   0.0000      -0.009386        -0.2554
  43   0.0000       0.068161         1.8547
  44   0.0000       0.101536         2.7629

MULLIKEN ATOMIC CHARGES
-----------------------
   0 C :   -0.431463
   1 N :    0.102584
   2 C :   -0.399109
   3 C :    0.270027
   4 O :   -0.570974
   5 C :   -0.004638
   6 C :   -0.201764
   7 C :   -0.195731
   8 C :   -0.153916
   9 C :   -0.195118
  10 C :   -0.199987
  11 H :    0.188419
  12 H :    0.175296
  13 H :    0.174268
  14 H :    0.174202
  15 H :    0.182080
  16 H :    0.176596
  17 H :    0.183799
  18 H :    0.179565
  19 H :    0.181994
  20 H :    0.179468
  21 H :    0.184402
Sum of atomic charges:    0.0000000

LOEWDIN ATOMIC CHARGES
----------------------
   0 C :   -0.106240
   1 N :   -0.811930
   2 C :   -0.093789
   3 C :    0.346756
   4 O :   -0.563313
   5 C :   -0.049549
   6 C :   -0.143140
   7 C :   -0.163766
   8 C :   -0.169316
   9 C :   -0.163691
  10 C :   -0.143927
  11 H :    0.203349
  12 H :    0.187123
  13 H :    0.187274
  14 H :    0.185928
  15 H :    0.199466
  16 H :    0.185488
  17 H :    0.186944
  18 H :    0.180143
  19 H :    0.179039
  20 H :    0.180135
  21 H :    0.187015

  Mayer bond orders larger than 0.100000
B(  0-C ,  1-N ) :   0.9156 B(  0-C , 11-H ) :   0.9563 B(  0-C , 12-H ) :   0.9453
B(  0-C , 13-H ) :   0.9445 B(  1-N ,  2-C ) :   0.9158 B(  1-N ,  3-C ) :   1.3100
B(  2-C , 14-H ) :   0.9466 B(  2-C , 15-H ) :   0.9482 B(  2-C , 16-H ) :   0.9469
B(  3-C ,  4-O ) :   1.7806 B(  3-C ,  5-C ) :   0.8697 B(  5-C ,  6-C ) :   1.3990
B(  5-C , 10-C ) :   1.4072 B(  6-C ,  7-C ) :   1.3864 B(  6-C , 17-H ) :   0.9505
B(  7-C ,  8-C ) :   1.3829 B(  7-C , 18-H ) :   0.9582 B(  8-C ,  9-C ) :   1.3831
B(  8-C , 19-H ) :   0.9505 B(  9-C , 10-C ) :   1.3890 B(  9-C , 20-H ) :   0.9581
B( 10-C , 21-H ) :   0.9476

Dispersion correction           -0.008020068
FINAL SINGLE POINT ENERGY      -479.449546526004

DIPOLE MOMENT
-------------

Method             : SCF
Type of density    : Electron Density
Multiplicity       :   1
Irrep              :   0
Energy             :  -479.4556121395695527 Eh
Relativity type    :
Basis              : AO
                                X                 Y                 Z
Electronic contribution:     -4.162106924       3.246912035      -2.657126802
Nuclear contribution   :      4.226741134      -5.166989016       4.149909576
                        -----------------------------------------
Total Dipole Moment    :      0.064634210      -1.920076981       1.492782774
                        -----------------------------------------
Magnitude (a.u.)       :      2.432955734
Magnitude (Debye)      :      6.184082019

Rotational constants in cm-1:             0.081561             0.023148             0.022253
Rotational constants in MHz :          2445.128714           693.968726           667.123129

                             ****ORCA TERMINATED NORMALLY****
TOTAL RUN TIME: 0 days 0 hours 0 minutes 52 seconds 741 msec
