                         Program Version 6.0.0  -   RELEASE  -
|  1> ! pbe def2-sv(p) def2/J RI DEFGRID1 loosescf d4 GCP(DFT/SV(P)) printgap
|  2> %output
|  3>     printlevel normal
|  4> end
|  5> * xyz 0 1
|  6> C -2.4776495213 -0.8143287296 -0.2676469224
|  7> C -1.1555357395 -0.6082296099 0.488882644
|  8> H -1.2547561938 -1.0229397289 1.5050367366
|  9> C -0.7600089178 0.8738301138 0.6562211193
| 10> H -1.6362477989 1.4954669512 0.4232528102
| 11> C 0.3653078945 1.2620601264 -0.3258941578
| 12> H 0.709817601 2.2720014929 -0.0617391108
| 13> C 1.5869090236 0.3283555813 -0.1860350775
| 14> H 2.036860972 0.2015729987 -1.1840185029
| 15> C 1.1335684961 -1.0658424194 0.3053532098
| 16> H 1.1226879934 -1.0635997758 1.408667394
| 17> O -0.1513231655 -1.3424023926 -0.193192836
| 18> O 1.9968838888 -2.0721325283 -0.0979644171
| 19> O 2.5040470703 0.9340575846 0.6874013236
| 20> O -0.1672949854 1.2342756627 -1.6251985322
| 21> O -0.3625547615 1.0456588104 1.994307436
| 22> O -2.7437901406 0.1410890416 -1.2592072392
| 23> H -3.3101296418 -0.7512637791 0.4357182401
| 24> H -2.4456504719 -1.8238808807 -0.6985720356
| 25> H 1.7277118169 -2.3796584157 -0.9776027261
| 26> H 3.2443781551 0.3316939325 0.8480397701
| 27> H 0.415712259 1.7094510326 -2.2343460869
| 28> H -0.1687980007 1.9780791371 2.1681195839
| 29> H -1.9412932555 0.2846976593 -1.7879063548
| 30> *
| 31>
| 32>                          ****END OF INPUT****

CARTESIAN COORDINATES (ANGSTROEM)
---------------------------------
  C     -2.477650   -0.814329   -0.267647
  C     -1.155536   -0.608230    0.488883
  H     -1.254756   -1.022940    1.505037
  C     -0.760009    0.873830    0.656221
  H     -1.636248    1.495467    0.423253
  C      0.365308    1.262060   -0.325894
  H      0.709818    2.272001   -0.061739
  C      1.586909    0.328356   -0.186035
  H      2.036861    0.201573   -1.184019
  C      1.133568   -1.065842    0.305353
  H      1.122688   -1.063600    1.408667
  O     -0.151323   -1.342402   -0.193193
  O      1.996884   -2.072133   -0.097964
  O      2.504047    0.934058    0.687401
  O     -0.167295    1.234276   -1.625199
  O     -0.362555    1.045659    1.994307
  O     -2.743790    0.141089   -1.259207
  H     -3.310130   -0.751264    0.435718
  H     -2.445650   -1.823881   -0.698572
  H      1.727712   -2.379658   -0.977603
  H      3.244378    0.331694    0.848040
  H      0.415712    1.709451   -2.234346
  H     -0.168798    1.978079    2.168120
  H     -1.941293    0.284698   -1.787906

 Total Charge           Charge          ....    0
 Multiplicity           Mult            ....    1
 Number of Electrons    NEL             ....   96
 Basis Dimension        Dim             ....  192

ORBITAL ENERGIES
----------------

  NO   OCC          E(Eh)            E(eV)
   0   2.0000     -18.777108      -510.9511
   1   2.0000     -18.767463      -510.6886
   2   2.0000     -18.758486      -510.4444
   3   2.0000     -18.756199      -510.3821
   4   2.0000     -18.755957      -510.3755
   5   2.0000     -18.729089      -509.6444
   6   2.0000      -9.981006      -271.5970
   7   2.0000      -9.952510      -270.8216
   8   2.0000      -9.944089      -270.5924
   9   2.0000      -9.940689      -270.4999
  10   2.0000      -9.939584      -270.4698
  11   2.0000      -9.923821      -270.0409
  12   2.0000      -0.984067       -26.7778
  13   2.0000      -0.953504       -25.9462
  14   2.0000      -0.933267       -25.3955
  15   2.0000      -0.931812       -25.3559
  16   2.0000      -0.915280       -24.9060
  17   2.0000      -0.903838       -24.5947
  18   2.0000      -0.698724       -19.0132
  19   2.0000      -0.686258       -18.6740
  20   2.0000      -0.614344       -16.7172
  21   2.0000      -0.595288       -16.1986
  22   2.0000      -0.560836       -15.2611
  23   2.0000      -0.527267       -14.3477
  24   2.0000      -0.507998       -13.8233
  25   2.0000      -0.479946       -13.0600
  26   2.0000      -0.468176       -12.7397
  27   2.0000      -0.463176       -12.6037
  28   2.0000      -0.452290       -12.3074
  29   2.0000      -0.439678       -11.9643
  30   2.0000      -0.418429       -11.3860
  31   2.0000      -0.388606       -10.5745
  32   2.0000      -0.386990       -10.5305
  33   2.0000      -0.369364       -10.0509
  34   2.0000      -0.354811        -9.6549
  35   2.0000      -0.350193        -9.5292
  36   2.0000      -0.327942        -8.9237
  37   2.0000      -0.319356        -8.6901
  38   2.0000      -0.314426        -8.5560
  39   2.0000      -0.295833        -8.0500
  40   2.0000      -0.281124        -7.6498
  41   2.0000      -0.265581        -7.2268
  42   2.0000      -0.255387        -6.9494
  43   2.0000      -0.242046        -6.5864
  44   2.0000      -0.237998        -6.4763
  45   2.0000      -0.219160        -5.9636
  46   2.0000      -0.203620        -5.5408
  47   2.0000      -0.198617        -5.4047
  48   0.0000       0.008181         0.2226
  49   0.0000       0.022619         0.6155
  50   0.0000       0.029033         0.7900
  51   0.0000       0.050122         1.3639
  52   0.0000       0.056913         1.5487

MULLIKEN ATOMIC CHARGES
-----------------------
   0 C :    0.087747
   1 C :   -0.009586
   2 H :    0.082130
   3 C :    0.000434
   4 H :    0.088546
   5 C :    0.047072
   6 H :    0.062950
   7 C :    0.098990
   8 H :    0.022395
   9 C :    0.159356
  10 H :    0.067999
  11 O :   -0.310765
  12 O :   -0.393452
  13 O :   -0.417187
  14 O :   -0.421044
  15 O :   -0.406578
  16 O :   -0.447500
  17 H :    0.083173
  18 H :    0.079749
  19 H :    0.303833
  20 H :    0.306142
  21 H :    0.312759
  22 H :    0.302452
  23 H :    0.300387
Sum of atomic charges:   -0.0000000

LOEWDIN ATOMIC CHARGES
----------------------
   0 C :   -0.120650
   1 C :   -0.067067
   2 H :    0.115003
   3 C :   -0.074065
   4 H :    0.111600
   5 C :   -0.069800
   6 H :    0.103845
   7 C :   -0.091676
   8 H :    0.091496
   9 C :   -0.005684
  10 H :    0.101084
  11 O :   -0.157030
  12 O :   -0.304776
  13 O :   -0.319969
  14 O :   -0.304392
  15 O :   -0.309637
  16 O :   -0.343886
  17 H :    0.114544
  18 H :    0.103094
  19 H :    0.287899
  20 H :    0.289607
  21 H :    0.293581
  22 H :    0.286923
  23 H :    0.269956

  Mayer bond orders larger than 0.100000
B(  0-C ,  1-C ) :   1.0473 B(  0-C , 16-O ) :   1.0986 B(  0-C , 17-H ) :   0.9201
B(  0-C , 18-H ) :   0.9141 B(  1-C ,  2-H ) :   0.8924 B(  1-C ,  3-C ) :   0.9667
B(  1-C , 11-O ) :   0.9948 B(  3-C ,  4-H ) :   0.8932 B(  3-C ,  5-C ) :   1.0311
B(  3-C , 15-O ) :   1.0684 B(  5-C ,  6-H ) :   0.8906 B(  5-C ,  7-C ) :   0.9315
B(  5-C , 14-O ) :   1.0203 B(  7-C ,  8-H ) :   0.8787 B(  7-C ,  9-C ) :   0.9964
B(  7-C , 13-O ) :   1.0793 B(  9-C , 10-H ) :   0.8661 B(  9-C , 11-O ) :   1.0551
B(  9-C , 12-O ) :   1.1152 B( 12-O , 19-H ) :   0.8419 B( 13-O , 20-H ) :   0.8421
B( 14-O , 21-H ) :   0.8381 B( 15-O , 22-H ) :   0.8443 B( 16-O , 23-H ) :   0.8085

Dispersion correction           -0.025083106
FINAL SINGLE POINT ENERGY      -685.687470312036

DIPOLE MOMENT
-------------

Method             : SCF
Type of density    : Electron Density
Multiplicity       :   1
Irrep              :   0
Energy             :  -685.8185127181218377 Eh
Relativity type    :
Basis              : AO
                                X                 Y                 Z
Electronic contribution:      2.282390609      -0.572289569      -0.319555877
Nuclear contribution   :     -1.391039968       1.154588888      -0.153061192
                        -----------------------------------------
Total Dipole Moment    :      0.891350641       0.582299319      -0.472617070
                        -----------------------------------------
Magnitude (a.u.)       :      1.164879975
Magnitude (Debye)      :      2.960889591

Rotational constants in cm-1:             0.042854             0.026083             0.023104
Rotational constants in MHz :          1284.741415           781.941689           692.635252

                             ****ORCA TERMINATED NORMALLY****
TOTAL RUN TIME: 0 days 0 hours 0 minutes 11 seconds 976 msec
