                         Program Version 6.0.0  -   RELEASE  -
|  1> ! r2scan-3c def2/J RI DEFGRID2 scfconv6 printgap
|  2> %output
|  3>     printlevel normal
|  4> end
|  5> * xyz 0 1
|  6> C -1.1489808474 -1.2825723373 -0.5848626438
|  7> C -0.6769900539 -0.2271472887 0.4182224855
|  8> C -1.5370668217 1.0227814185 0.3828465544
|  9> N 0.7130569878 0.0860210939 0.0490830418
| 10> O 1.5815810966 -0.6444331791 0.4872306646
| 11> O 0.9294934235 1.0160548364 -0.6964046175
| 12> H -0.4934401406 -2.150058188 -0.5628648647
| 13> H -2.1548486381 -1.5964632156 -0.3252648441
| 14> H -1.157948762 -0.8681066847 -1.5902094754
| 15> H -0.6313112646 -0.6659613081 1.4185161047
| 16> H -1.16568882 1.7674361206 1.0821155982
| 17> H -2.5558013207 0.7656636531 0.6535250357
| 18> H -1.5347031884 1.4556368085 -0.6139396639
| 19> *
| 20>
| 21>                          ****END OF INPUT****

CARTESIAN COORDINATES (ANGSTROEM)
---------------------------------
  C     -1.148981   -1.282572   -0.584863
  C     -0.676990   -0.227147    0.418222
  C     -1.537067    1.022781    0.382847
  N      0.713057    0.086021    0.049083
  O      1.581581   -0.644433    0.487231
  O      0.929493    1.016055   -0.696405
  H     -0.493440   -2.150058   -0.562865
  H     -2.154849   -1.596463   -0.325265
  H     -1.157949   -0.868107   -1.590209
  H     -0.631311   -0.665961    1.418516
  H     -1.165689    1.767436    1.082116
  H     -2.555801    0.765664    0.653525
  H     -1.534703    1.455637   -0.613940

 Total Charge           Charge          ....    0
 Multiplicity           Mult            ....    1
 Number of Electrons    NEL             ....   48
 Basis Dimension        Dim             ....  164

ORBITAL ENERGIES
----------------

  NO   OCC          E(Eh)            E(eV)
   0   2.0000     -18.983942      -516.5793
   1   2.0000     -18.980496      -516.4855
   2   2.0000     -14.385786      -391.4571
   3   2.0000     -10.104445      -274.9559
   4   2.0000     -10.051304      -273.5099
   5   2.0000     -10.043951      -273.3098
   6   2.0000      -1.203914       -32.7602
   7   2.0000      -1.025166       -27.8962
   8   2.0000      -0.824857       -22.4455
   9   2.0000      -0.685383       -18.6502
  10   2.0000      -0.677241       -18.4287
  11   2.0000      -0.552275       -15.0282
  12   2.0000      -0.519642       -14.1402
  13   2.0000      -0.500882       -13.6297
  14   2.0000      -0.482685       -13.1345
  15   2.0000      -0.441025       -12.0009
  16   2.0000      -0.398226       -10.8363
  17   2.0000      -0.391284       -10.6474
  18   2.0000      -0.381214       -10.3734
  19   2.0000      -0.346433        -9.4269
  20   2.0000      -0.342275        -9.3138
  21   2.0000      -0.290268        -7.8986
  22   2.0000      -0.272436        -7.4134
  23   2.0000      -0.255054        -6.9404
  24   0.0000      -0.097865        -2.6630
  25   0.0000       0.069584         1.8935
  26   0.0000       0.095143         2.5890
  27   0.0000       0.113513         3.0889
  28   0.0000       0.120290         3.2733

MULLIKEN ATOMIC CHARGES
-----------------------
   0 C :   -0.472988
   1 C :   -0.126810
   2 C :   -0.430250
   3 N :    0.245346
   4 O :   -0.196446
   5 O :   -0.186186
   6 H :    0.171305
   7 H :    0.159464
   8 H :    0.165712
   9 H :    0.185058
  10 H :    0.159396
  11 H :    0.150656
  12 H :    0.175743
Sum of atomic charges:   -0.0000000

LOEWDIN ATOMIC CHARGES
----------------------
   0 C :   -0.346329
   1 C :    0.059913
   2 C :   -0.363176
   3 N :   -0.542142
   4 O :   -0.007856
   5 O :   -0.006412
   6 H :    0.170949
   7 H :    0.162767
   8 H :    0.167551
   9 H :    0.202275
  10 H :    0.166100
  11 H :    0.160845
  12 H :    0.175515

  Mayer bond orders larger than 0.100000
B(  0-C ,  1-C ) :   0.9180 B(  0-C ,  6-H ) :   0.9617 B(  0-C ,  7-H ) :   0.9710
B(  0-C ,  8-H ) :   0.9657 B(  1-C ,  2-C ) :   0.9300 B(  1-C ,  3-N ) :   0.8303
B(  1-C ,  4-O ) :   0.1094 B(  1-C ,  9-H ) :   0.9437 B(  2-C , 10-H ) :   0.9673
B(  2-C , 11-H ) :   0.9646 B(  2-C , 12-H ) :   0.9639 B(  3-N ,  4-O ) :   1.8499
B(  3-N ,  5-O ) :   1.8545 B(  4-O ,  5-O ) :   0.2743

Dispersion correction           -0.003006876
FINAL SINGLE POINT ENERGY      -323.585739396866

DIPOLE MOMENT
-------------

Method             : SCF
Type of density    : Electron Density
Multiplicity       :   1
Irrep              :   0
Energy             :  -323.5950858923081341 Eh
Relativity type    :
Basis              : AO
                                X                 Y                 Z
Electronic contribution:      7.614156658       0.936340975       0.200926312
Nuclear contribution   :     -9.053208623      -1.205991671       0.055217266
                        -----------------------------------------
Total Dipole Moment    :     -1.439051965      -0.269650695       0.256143578
                        -----------------------------------------
Magnitude (a.u.)       :      1.486334951
Magnitude (Debye)      :      3.777963206

Rotational constants in cm-1:             0.173659             0.109277             0.085042
Rotational constants in MHz :          5206.180475          3276.053314          2549.487171

                             ****ORCA TERMINATED NORMALLY****
TOTAL RUN TIME: 0 days 0 hours 0 minutes 21 seconds 202 msec
