                         Program Version 6.0.0  -   RELEASE  -
|  1> ! r2scan-3c def2/J RI DEFGRID2 scfconv6 printgap
|  2> %output
|  3>     printlevel normal
|  4> end
|  5> %cpcm
|  6>     smd true
|  7>     smdsolvent "water"
|  8> end
|  9> * xyz 0 1
| 10> C -1.1489808474 -1.2825723373 -0.5848626438
| 11> C -0.6769900539 -0.2271472887 0.4182224855
| 12> C -1.5370668217 1.0227814185 0.3828465544
| 13> N 0.7130569878 0.0860210939 0.0490830418
| 14> O 1.5815810966 -0.6444331791 0.4872306646
| 15> O 0.9294934235 1.0160548364 -0.6964046175
| 16> H -0.4934401406 -2.150058188 -0.5628648647
| 17> H -2.1548486381 -1.5964632156 -0.3252648441
| 18> H -1.157948762 -0.8681066847 -1.5902094754
| 19> H -0.6313112646 -0.6659613081 1.4185161047
| 20> H -1.16568882 1.7674361206 1.0821155982
| 21> H -2.5558013207 0.7656636531 0.6535250357
| 22> H -1.5347031884 1.4556368085 -0.6139396639
| 23> *
| 24>
| 25>                          ****END OF INPUT****

CARTESIAN COORDINATES (ANGSTROEM)
---------------------------------
  C     -1.148981   -1.282572   -0.584863
  C     -0.676990   -0.227147    0.418222
  C     -1.537067    1.022781    0.382847
  N      0.713057    0.086021    0.049083
  O      1.581581   -0.644433    0.487231
  O      0.929493    1.016055   -0.696405
  H     -0.493440   -2.150058   -0.562865
  H     -2.154849   -1.596463   -0.325265
  H     -1.157949   -0.868107   -1.590209
  H     -0.631311   -0.665961    1.418516
  H     -1.165689    1.767436    1.082116
  H     -2.555801    0.765664    0.653525
  H     -1.534703    1.455637   -0.613940

 Total Charge           Charge          ....    0
 Multiplicity           Mult            ....    1
 Number of Electrons    NEL             ....   48
 Basis Dimension        Dim             ....  164

ORBITAL ENERGIES
----------------

  NO   OCC          E(Eh)            E(eV)
   0   2.0000     -18.995789      -516.9017
   1   2.0000     -18.994407      -516.8641
   2   2.0000     -14.394296      -391.6887
   3   2.0000     -10.090682      -274.5814
   4   2.0000     -10.030334      -272.9393
   5   2.0000     -10.023907      -272.7644
   6   2.0000      -1.214694       -33.0535
   7   2.0000      -1.037255       -28.2251
   8   2.0000      -0.814647       -22.1677
   9   2.0000      -0.669389       -18.2150
  10   2.0000      -0.665547       -18.1105
  11   2.0000      -0.556288       -15.1374
  12   2.0000      -0.522279       -14.2119
  13   2.0000      -0.503173       -13.6920
  14   2.0000      -0.489911       -13.3311
  15   2.0000      -0.425234       -11.5712
  16   2.0000      -0.380479       -10.3534
  17   2.0000      -0.373691       -10.1686
  18   2.0000      -0.360528        -9.8105
  19   2.0000      -0.328227        -8.9315
  20   2.0000      -0.324162        -8.8209
  21   2.0000      -0.303775        -8.2661
  22   2.0000      -0.283533        -7.7153
  23   2.0000      -0.269378        -7.3301
  24   0.0000      -0.107558        -2.9268
  25   0.0000       0.086235         2.3466
  26   0.0000       0.109039         2.9671
  27   0.0000       0.133929         3.6444
  28   0.0000       0.137483         3.7411

MULLIKEN ATOMIC CHARGES
-----------------------
   0 C :   -0.502534
   1 C :   -0.091007
   2 C :   -0.482385
   3 N :    0.286270
   4 O :   -0.257220
   5 O :   -0.239922
   6 H :    0.176139
   7 H :    0.186783
   8 H :    0.178807
   9 H :    0.212827
  10 H :    0.176317
  11 H :    0.178177
  12 H :    0.177747
Sum of atomic charges:   -0.0000000

LOEWDIN ATOMIC CHARGES
----------------------
   0 C :   -0.343630
   1 C :    0.073701
   2 C :   -0.364630
   3 N :   -0.534361
   4 O :   -0.043409
   5 O :   -0.036542
   6 H :    0.171913
   7 H :    0.174243
   8 H :    0.171298
   9 H :    0.215125
  10 H :    0.169908
  11 H :    0.172252
  12 H :    0.174131

  Mayer bond orders larger than 0.100000
B(  0-C ,  1-C ) :   0.8901 B(  0-C ,  6-H ) :   0.9599 B(  0-C ,  7-H ) :   0.9615
B(  0-C ,  8-H ) :   0.9623 B(  1-C ,  2-C ) :   0.9087 B(  1-C ,  3-N ) :   0.8564
B(  1-C ,  9-H ) :   0.9323 B(  2-C , 10-H ) :   0.9674 B(  2-C , 11-H ) :   0.9570
B(  2-C , 12-H ) :   0.9647 B(  3-N ,  4-O ) :   1.8003 B(  3-N ,  5-O ) :   1.8130
B(  4-O ,  5-O ) :   0.2658

Dispersion correction           -0.003006876
FINAL SINGLE POINT ENERGY      -323.590563802800

DIPOLE MOMENT
-------------

Method             : SCF
Type of density    : Electron Density
Multiplicity       :   1
Irrep              :   0
Energy             :  -323.5999102982425484 Eh
Relativity type    :
Basis              : AO
                                X                 Y                 Z
Electronic contribution:      7.142798434       0.828476587       0.326256113
Nuclear contribution   :     -9.053208623      -1.205991671       0.055217266
                        -----------------------------------------
Total Dipole Moment    :     -1.910410189      -0.377515084       0.381473379
                        -----------------------------------------
Magnitude (a.u.)       :      1.984365558
Magnitude (Debye)      :      5.043856406

Rotational constants in cm-1:             0.173659             0.109277             0.085042
Rotational constants in MHz :          5206.180475          3276.053314          2549.487171

                             ****ORCA TERMINATED NORMALLY****
TOTAL RUN TIME: 0 days 0 hours 0 minutes 22 seconds 825 msec
