                         Program Version 6.0.0  -   RELEASE  -
|  1> ! pbe def2-sv(p) def2/J RI DEFGRID1 loosescf d4 GCP(DFT/SV(P)) printgap
|  2> %output
|  3>     printlevel normal
|  4> end
|  5> * xyz 0 1
|  6> C -2.2887781872 -1.0736580676 -0.197305347
|  7> C -0.9222849373 -0.5578740543 0.2834183592
|  8> H -0.820864546 -0.7108061733 1.3700835699
|  9> C -0.7410812992 0.9521371001 -0.0033738007
| 10> H -1.4259436303 1.2511094608 -0.8039778183
| 11> C 0.7154096511 1.2342842944 -0.4330547347
| 12> H 0.9311933625 2.2872555058 -0.1965676363
| 13> C 1.6568194422 0.3441100105 0.389895727
| 14> H 2.6913232488 0.5527478551 0.0902343922
| 15> C 1.3736323978 -1.1401054521 0.0352732587
| 16> H 1.5712709246 -1.7668304452 0.9224700177
| 17> O 0.0435552045 -1.3400546308 -0.3946733695
| 18> O 2.2143156178 -1.5986540441 -0.9590375649
| 19> O 1.4463505993 0.6251419446 1.7516383446
| 20> O 0.9698431637 0.9588851719 -1.7855657348
| 21> O -1.0969364658 1.7359145269 1.1055290922
| 22> O -3.3583423161 -0.2340927708 0.141639653
| 23> H -2.4375664504 -2.0901998235 0.1873362795
| 24> H -2.2682462237 -1.1204797355 -1.288350472
| 25> H 1.9794579455 -1.146234434 -1.7874048136
| 26> H 2.1860959999 0.2937926075 2.2797293283
| 27> H 0.42865369 1.5333712932 -2.3452477607
| 28> H -0.4392566254 1.5935516796 1.8063353778
| 29> H -3.410878365 -0.1397529211 1.1031550028
| 30> *
| 31>
| 32>                          ****END OF INPUT****

CARTESIAN COORDINATES (ANGSTROEM)
---------------------------------
  C     -2.288778   -1.073658   -0.197305
  C     -0.922285   -0.557874    0.283418
  H     -0.820865   -0.710806    1.370084
  C     -0.741081    0.952137   -0.003374
  H     -1.425944    1.251109   -0.803978
  C      0.715410    1.234284   -0.433055
  H      0.931193    2.287256   -0.196568
  C      1.656819    0.344110    0.389896
  H      2.691323    0.552748    0.090234
  C      1.373632   -1.140105    0.035273
  H      1.571271   -1.766830    0.922470
  O      0.043555   -1.340055   -0.394673
  O      2.214316   -1.598654   -0.959038
  O      1.446351    0.625142    1.751638
  O      0.969843    0.958885   -1.785566
  O     -1.096936    1.735915    1.105529
  O     -3.358342   -0.234093    0.141640
  H     -2.437566   -2.090200    0.187336
  H     -2.268246   -1.120480   -1.288350
  H      1.979458   -1.146234   -1.787405
  H      2.186096    0.293793    2.279729
  H      0.428654    1.533371   -2.345248
  H     -0.439257    1.593552    1.806335
  H     -3.410878   -0.139753    1.103155

 Total Charge           Charge          ....    0
 Multiplicity           Mult            ....    1
 Number of Electrons    NEL             ....   96
 Basis Dimension        Dim             ....  192

ORBITAL ENERGIES
----------------

  NO   OCC          E(Eh)            E(eV)
   0   2.0000     -18.783185      -511.1165
   1   2.0000     -18.770421      -510.7691
   2   2.0000     -18.762244      -510.5466
   3   2.0000     -18.748349      -510.1685
   4   2.0000     -18.745266      -510.0846
   5   2.0000     -18.742271      -510.0031
   6   2.0000      -9.983577      -271.6669
   7   2.0000      -9.950526      -270.7676
   8   2.0000      -9.949001      -270.7261
   9   2.0000      -9.937351      -270.4091
  10   2.0000      -9.936629      -270.3894
  11   2.0000      -9.927800      -270.1492
  12   2.0000      -0.980597       -26.6834
  13   2.0000      -0.953538       -25.9471
  14   2.0000      -0.943763       -25.6811
  15   2.0000      -0.926605       -25.2142
  16   2.0000      -0.917511       -24.9668
  17   2.0000      -0.905540       -24.6410
  18   2.0000      -0.700114       -19.0511
  19   2.0000      -0.686078       -18.6691
  20   2.0000      -0.613060       -16.6822
  21   2.0000      -0.589840       -16.0504
  22   2.0000      -0.564125       -15.3506
  23   2.0000      -0.529310       -14.4033
  24   2.0000      -0.509772       -13.8716
  25   2.0000      -0.496162       -13.5012
  26   2.0000      -0.471677       -12.8350
  27   2.0000      -0.456767       -12.4293
  28   2.0000      -0.448251       -12.1975
  29   2.0000      -0.440849       -11.9961
  30   2.0000      -0.419287       -11.4094
  31   2.0000      -0.392615       -10.6836
  32   2.0000      -0.383889       -10.4462
  33   2.0000      -0.365028        -9.9329
  34   2.0000      -0.356338        -9.6964
  35   2.0000      -0.346032        -9.4160
  36   2.0000      -0.337083        -9.1725
  37   2.0000      -0.326034        -8.8718
  38   2.0000      -0.307653        -8.3717
  39   2.0000      -0.297293        -8.0898
  40   2.0000      -0.275286        -7.4909
  41   2.0000      -0.269727        -7.3396
  42   2.0000      -0.259743        -7.0680
  43   2.0000      -0.244084        -6.6419
  44   2.0000      -0.239826        -6.5260
  45   2.0000      -0.220888        -6.0107
  46   2.0000      -0.211730        -5.7615
  47   2.0000      -0.192376        -5.2348
  48   0.0000      -0.001452        -0.0395
  49   0.0000       0.017871         0.4863
  50   0.0000       0.032767         0.8916
  51   0.0000       0.051357         1.3975
  52   0.0000       0.069183         1.8826

MULLIKEN ATOMIC CHARGES
-----------------------
   0 C :    0.069036
   1 C :    0.003519
   2 H :    0.040763
   3 C :    0.065815
   4 H :    0.060855
   5 C :    0.053077
   6 H :    0.072753
   7 C :   -0.043177
   8 H :    0.084241
   9 C :    0.241823
  10 H :    0.043939
  11 O :   -0.298581
  12 O :   -0.396269
  13 O :   -0.424170
  14 O :   -0.421311
  15 O :   -0.431969
  16 O :   -0.425457
  17 H :    0.080760
  18 H :    0.086629
  19 H :    0.305352
  20 H :    0.319047
  21 H :    0.311892
  22 H :    0.303100
  23 H :    0.298334
Sum of atomic charges:    0.0000000

LOEWDIN ATOMIC CHARGES
----------------------
   0 C :   -0.124527
   1 C :   -0.078548
   2 H :    0.094116
   3 C :   -0.077658
   4 H :    0.114226
   5 C :   -0.073915
   6 H :    0.105013
   7 C :   -0.093607
   8 H :    0.113505
   9 C :    0.003875
  10 H :    0.089913
  11 O :   -0.149877
  12 O :   -0.296777
  13 O :   -0.312102
  14 O :   -0.314569
  15 O :   -0.316832
  16 O :   -0.326435
  17 H :    0.098692
  18 H :    0.114956
  19 H :    0.282038
  20 H :    0.297860
  21 H :    0.292953
  22 H :    0.273199
  23 H :    0.284501

  Mayer bond orders larger than 0.100000
B(  0-C ,  1-C ) :   1.0388 B(  0-C , 16-O ) :   1.0800 B(  0-C , 17-H ) :   0.9235
B(  0-C , 18-H ) :   0.9128 B(  1-C ,  2-H ) :   0.8748 B(  1-C ,  3-C ) :   0.9612
B(  1-C , 11-O ) :   1.0270 B(  3-C ,  4-H ) :   0.8888 B(  3-C ,  5-C ) :   0.9749
B(  3-C , 15-O ) :   1.0349 B(  5-C ,  6-H ) :   0.8952 B(  5-C ,  7-C ) :   1.0270
B(  5-C , 14-O ) :   1.0443 B(  7-C ,  8-H ) :   0.8987 B(  7-C ,  9-C ) :   0.9313
B(  7-C , 13-O ) :   1.0357 B(  9-C , 10-H ) :   0.9025 B(  9-C , 11-O ) :   1.0276
B(  9-C , 12-O ) :   1.1464 B( 12-O , 19-H ) :   0.8289 B( 13-O , 20-H ) :   0.8394
B( 14-O , 21-H ) :   0.8418 B( 15-O , 22-H ) :   0.8240 B( 16-O , 23-H ) :   0.8469

Dispersion correction           -0.025059165
FINAL SINGLE POINT ENERGY      -685.691434382192

DIPOLE MOMENT
-------------

Method             : SCF
Type of density    : Electron Density
Multiplicity       :   1
Irrep              :   0
Energy             :  -685.8224979359799818 Eh
Relativity type    :
Basis              : AO
                                X                 Y                 Z
Electronic contribution:      1.632898268      -0.096041828      -0.670798962
Nuclear contribution   :     -0.948776937       0.506469577       1.252998746
                        -----------------------------------------
Total Dipole Moment    :      0.684121331       0.410427749       0.582199784
                        -----------------------------------------
Magnitude (a.u.)       :      0.987638356
Magnitude (Debye)      :      2.510377198

Rotational constants in cm-1:             0.043622             0.025631             0.021935
Rotational constants in MHz :          1307.750560           768.403249           657.580888

                             ****ORCA TERMINATED NORMALLY****
TOTAL RUN TIME: 0 days 0 hours 0 minutes 11 seconds 978 msec
