                         Program Version 6.0.0  -   RELEASE  -
|  1> ! pbe def2-sv(p) def2/J RI DEFGRID1 loosescf d4 GCP(DFT/SV(P)) printgap
|  2> %output
|  3>     printlevel normal
|  4> end
|  5> * xyz 0 1
|  6> C -2.8272578899 0.7709832226 0.7543599773
|  7> C -1.5249737105 0.5098979565 0.063794501
|  8> C -0.9128807586 1.4122953409 -0.6900919684
|  9> C 0.3928192588 1.2119728812 -1.3942821447
| 10> C 1.1460392377 -0.0348778556 -0.9219831971
| 11> H 1.8501387039 -0.3297358656 -1.7086965851
| 12> C 0.1384294441 -1.1787407481 -0.7494647816
| 13> C -0.9082696954 -0.8468826406 0.3167585322
| 14> H -0.4213687601 -0.8161706687 1.3089782507
| 15> O -1.9404132396 -1.8222290827 0.3399369266
| 16> C 1.9518995373 0.1727167214 0.341146127
| 17> C 1.663316895 1.0801612014 1.260424654
| 18> C 3.136126407 -0.7384285937 0.4812009304
| 19> H -3.556454923 0.0196368348 0.4574603501
| 20> H -3.2046156768 1.7597501181 0.5093827792
| 21> H -2.6971289029 0.6935790435 1.83335198
| 22> H -1.3754997901 2.3794182846 -0.8398192364
| 23> H 0.1909096657 1.1212269219 -2.4668541302
| 24> H 1.0196103188 2.096962926 -1.2612256695
| 25> H -0.3838265108 -1.3400596348 -1.6950853227
| 26> H 0.654655418 -2.1030990173 -0.4812880557
| 27> H -1.5487609525 -2.6875354141 0.5147241614
| 28> H 2.2644969907 1.1895724948 2.1479721501
| 29> H 0.819937272 1.7422419505 1.175216975
| 30> H 3.8646811342 -0.5243255441 -0.3000478088
| 31> H 3.6151390743 -0.6095102302 1.4476497535
| 32> H 2.8347216668 -1.7789230476 0.3750291791
| 33> *
| 34>
| 35>                          ****END OF INPUT****

CARTESIAN COORDINATES (ANGSTROEM)
---------------------------------
  C     -2.827258    0.770983    0.754360
  C     -1.524974    0.509898    0.063795
  C     -0.912881    1.412295   -0.690092
  C      0.392819    1.211973   -1.394282
  C      1.146039   -0.034878   -0.921983
  H      1.850139   -0.329736   -1.708697
  C      0.138429   -1.178741   -0.749465
  C     -0.908270   -0.846883    0.316759
  H     -0.421369   -0.816171    1.308978
  O     -1.940413   -1.822229    0.339937
  C      1.951900    0.172717    0.341146
  C      1.663317    1.080161    1.260425
  C      3.136126   -0.738429    0.481201
  H     -3.556455    0.019637    0.457460
  H     -3.204616    1.759750    0.509383
  H     -2.697129    0.693579    1.833352
  H     -1.375500    2.379418   -0.839819
  H      0.190910    1.121227   -2.466854
  H      1.019610    2.096963   -1.261226
  H     -0.383827   -1.340060   -1.695085
  H      0.654655   -2.103099   -0.481288
  H     -1.548761   -2.687535    0.514724
  H      2.264497    1.189572    2.147972
  H      0.819937    1.742242    1.175217
  H      3.864681   -0.524326   -0.300048
  H      3.615139   -0.609510    1.447650
  H      2.834722   -1.778923    0.375029

 Total Charge           Charge          ....    0
 Multiplicity           Mult            ....    1
 Number of Electrons    NEL             ....   84
 Basis Dimension        Dim             ....  186

ORBITAL ENERGIES
----------------

  NO   OCC          E(Eh)            E(eV)
   0   2.0000     -18.740466      -509.9540
   1   2.0000      -9.934281      -270.3255
   2   2.0000      -9.900387      -269.4032
   3   2.0000      -9.897958      -269.3371
   4   2.0000      -9.887428      -269.0506
   5   2.0000      -9.886628      -269.0288
   6   2.0000      -9.886107      -269.0146
   7   2.0000      -9.881749      -268.8961
   8   2.0000      -9.877315      -268.7754
   9   2.0000      -9.867504      -268.5084
  10   2.0000      -9.866985      -268.4943
  11   2.0000      -0.917924       -24.9780
  12   2.0000      -0.766148       -20.8479
  13   2.0000      -0.717047       -19.5118
  14   2.0000      -0.675633       -18.3849
  15   2.0000      -0.657619       -17.8947
  16   2.0000      -0.611918       -16.6511
  17   2.0000      -0.603432       -16.4202
  18   2.0000      -0.554662       -15.0931
  19   2.0000      -0.537013       -14.6129
  20   2.0000      -0.476738       -12.9727
  21   2.0000      -0.461135       -12.5481
  22   2.0000      -0.442225       -12.0336
  23   2.0000      -0.420847       -11.4518
  24   2.0000      -0.408742       -11.1224
  25   2.0000      -0.399229       -10.8636
  26   2.0000      -0.382919       -10.4198
  27   2.0000      -0.375336       -10.2134
  28   2.0000      -0.360247        -9.8028
  29   2.0000      -0.357078        -9.7166
  30   2.0000      -0.352522        -9.5926
  31   2.0000      -0.338928        -9.2227
  32   2.0000      -0.329720        -8.9721
  33   2.0000      -0.325292        -8.8516
  34   2.0000      -0.317913        -8.6508
  35   2.0000      -0.302821        -8.2402
  36   2.0000      -0.286400        -7.7933
  37   2.0000      -0.280843        -7.6421
  38   2.0000      -0.254222        -6.9177
  39   2.0000      -0.229203        -6.2369
  40   2.0000      -0.206744        -5.6258
  41   2.0000      -0.197715        -5.3801
  42   0.0000      -0.017091        -0.4651
  43   0.0000      -0.004036        -0.1098
  44   0.0000       0.030651         0.8341
  45   0.0000       0.039179         1.0661
  46   0.0000       0.062728         1.7069

MULLIKEN ATOMIC CHARGES
-----------------------
   0 C :   -0.198728
   1 C :   -0.058890
   2 C :   -0.217226
   3 C :   -0.036250
   4 C :   -0.128084
   5 H :    0.057731
   6 C :   -0.120502
   7 C :    0.083566
   8 H :    0.076027
   9 O :   -0.421228
  10 C :   -0.076146
  11 C :   -0.226725
  12 C :   -0.213300
  13 H :    0.121285
  14 H :    0.090546
  15 H :    0.098651
  16 H :    0.041657
  17 H :    0.091936
  18 H :    0.091460
  19 H :    0.088364
  20 H :    0.065885
  21 H :    0.296151
  22 H :    0.077632
  23 H :    0.105353
  24 H :    0.109384
  25 H :    0.097992
  26 H :    0.103458
Sum of atomic charges:    0.0000000

LOEWDIN ATOMIC CHARGES
----------------------
   0 C :   -0.321526
   1 C :   -0.066853
   2 C :   -0.152669
   3 C :   -0.210277
   4 C :   -0.128724
   5 H :    0.120210
   6 C :   -0.217220
   7 C :   -0.042569
   8 H :    0.106241
   9 O :   -0.326598
  10 C :   -0.052012
  11 C :   -0.267370
  12 C :   -0.322134
  13 H :    0.133943
  14 H :    0.118927
  15 H :    0.127013
  16 H :    0.116598
  17 H :    0.128427
  18 H :    0.124908
  19 H :    0.123094
  20 H :    0.108022
  21 H :    0.283230
  22 H :    0.116407
  23 H :    0.124573
  24 H :    0.129383
  25 H :    0.123517
  26 H :    0.123460

  Mayer bond orders larger than 0.100000
B(  0-C ,  1-C ) :   1.1284 B(  0-C , 13-H ) :   0.9216 B(  0-C , 14-H ) :   0.9417
B(  0-C , 15-H ) :   0.9289 B(  1-C ,  2-C ) :   1.9095 B(  1-C ,  7-C ) :   0.9962
B(  2-C ,  3-C ) :   1.0492 B(  2-C , 16-H ) :   0.9204 B(  3-C ,  4-C ) :   1.0908
B(  3-C , 17-H ) :   0.8869 B(  3-C , 18-H ) :   0.9029 B(  4-C ,  5-H ) :   0.8734
B(  4-C ,  6-C ) :   1.0439 B(  4-C , 10-C ) :   1.0060 B(  6-C ,  7-C ) :   1.0986
B(  6-C , 19-H ) :   0.9027 B(  6-C , 20-H ) :   0.9017 B(  7-C ,  8-H ) :   0.8670
B(  7-C ,  9-O ) :   1.0708 B(  9-O , 21-H ) :   0.8505 B( 10-C , 11-C ) :   2.0578
B( 10-C , 12-C ) :   1.1209 B( 11-C , 22-H ) :   0.8999 B( 11-C , 23-H ) :   0.8905
B( 12-C , 24-H ) :   0.9272 B( 12-C , 25-H ) :   0.9406 B( 12-C , 26-H ) :   0.9298

Dispersion correction           -0.029706707
FINAL SINGLE POINT ENERGY      -464.792021932667

DIPOLE MOMENT
-------------

Method             : SCF
Type of density    : Electron Density
Multiplicity       :   1
Irrep              :   0
Energy             :  -464.8809837843878086 Eh
Relativity type    :
Basis              : AO
                                X                 Y                 Z
Electronic contribution:     -3.095124322      -1.085822962      -0.986248236
Nuclear contribution   :      3.655063386       0.735735322       0.958920532
                        -----------------------------------------
Total Dipole Moment    :      0.559939064      -0.350087640      -0.027327704
                        -----------------------------------------
Magnitude (a.u.)       :      0.660938662
Magnitude (Debye)      :      1.679972569

Rotational constants in cm-1:             0.056809             0.027779             0.024333
Rotational constants in MHz :          1703.091609           832.785470           729.483676

                             ****ORCA TERMINATED NORMALLY****
TOTAL RUN TIME: 0 days 0 hours 0 minutes 12 seconds 708 msec
