                         Program Version 6.0.0  -   RELEASE  -
|  1> ! pbe def2-sv(p) def2/J RI DEFGRID1 loosescf d4 GCP(DFT/SV(P)) printgap
|  2> %output
|  3>     printlevel normal
|  4> end
|  5> * xyz 0 1
|  6> C -2.2258235713 -0.8825140407 -0.1742022137
|  7> C -1.1450489356 -0.3359826821 0.7866891699
|  8> H -1.6149913488 -0.3463465107 1.7792807657
|  9> C -0.721489491 1.1166599442 0.4924990142
| 10> H -1.5660604952 1.6367134981 0.0186686297
| 11> C 0.4897345993 1.2360381851 -0.4620393727
| 12> H 0.8331243373 2.2773934942 -0.402668019
| 13> C 1.620443538 0.3174054032 0.0178531813
| 14> H 2.4154251334 0.2976520551 -0.7362359017
| 15> C 1.0787231632 -1.1231705291 0.1409725497
| 16> H 1.8301358952 -1.7386291802 0.6613908447
| 17> O -0.0473171633 -1.2338916426 0.965794469
| 18> O 0.8638066252 -1.587788374 -1.1595422225
| 19> O 2.2124620775 0.7543476756 1.2086873279
| 20> O 0.1319625899 0.9904521584 -1.7975727647
| 21> O -0.3423130811 1.7815657672 1.6800058118
| 22> O -1.8810343254 -0.9781148099 -1.5282274724
| 23> H -3.1202926685 -0.2570221548 -0.0460565404
| 24> H -2.4657228478 -1.901007483 0.1405972755
| 25> H 0.457257786 -2.4673957784 -1.144456648
| 26> H 1.5144067455 1.0533033147 1.8179979544
| 27> H 0.3559999228 0.0646922353 -2.0109497505
| 28> H -1.109240027 1.9080830285 2.2566293956
| 29> H -1.6465605274 -0.100950378 -1.874617032
| 30> *
| 31>
| 32>                          ****END OF INPUT****

CARTESIAN COORDINATES (ANGSTROEM)
---------------------------------
  C     -2.225824   -0.882514   -0.174202
  C     -1.145049   -0.335983    0.786689
  H     -1.614991   -0.346347    1.779281
  C     -0.721489    1.116660    0.492499
  H     -1.566060    1.636713    0.018669
  C      0.489735    1.236038   -0.462039
  H      0.833124    2.277393   -0.402668
  C      1.620444    0.317405    0.017853
  H      2.415425    0.297652   -0.736236
  C      1.078723   -1.123171    0.140973
  H      1.830136   -1.738629    0.661391
  O     -0.047317   -1.233892    0.965794
  O      0.863807   -1.587788   -1.159542
  O      2.212462    0.754348    1.208687
  O      0.131963    0.990452   -1.797573
  O     -0.342313    1.781566    1.680006
  O     -1.881034   -0.978115   -1.528227
  H     -3.120293   -0.257022   -0.046057
  H     -2.465723   -1.901007    0.140597
  H      0.457258   -2.467396   -1.144457
  H      1.514407    1.053303    1.817998
  H      0.356000    0.064692   -2.010950
  H     -1.109240    1.908083    2.256629
  H     -1.646561   -0.100950   -1.874617

 Total Charge           Charge          ....    0
 Multiplicity           Mult            ....    1
 Number of Electrons    NEL             ....   96
 Basis Dimension        Dim             ....  192

ORBITAL ENERGIES
----------------

  NO   OCC          E(Eh)            E(eV)
   0   2.0000     -18.781167      -511.0615
   1   2.0000     -18.775554      -510.9088
   2   2.0000     -18.771859      -510.8083
   3   2.0000     -18.759344      -510.4677
   4   2.0000     -18.746945      -510.1303
   5   2.0000     -18.740990      -509.9683
   6   2.0000      -9.986311      -271.7413
   7   2.0000      -9.959675      -271.0165
   8   2.0000      -9.954716      -270.8816
   9   2.0000      -9.948599      -270.7151
  10   2.0000      -9.941839      -270.5312
  11   2.0000      -9.939895      -270.4783
  12   2.0000      -0.987769       -26.8786
  13   2.0000      -0.957300       -26.0495
  14   2.0000      -0.936943       -25.4955
  15   2.0000      -0.925887       -25.1947
  16   2.0000      -0.920770       -25.0554
  17   2.0000      -0.913264       -24.8512
  18   2.0000      -0.711386       -19.3578
  19   2.0000      -0.690724       -18.7955
  20   2.0000      -0.632852       -17.2208
  21   2.0000      -0.588253       -16.0072
  22   2.0000      -0.585618       -15.9355
  23   2.0000      -0.523313       -14.2401
  24   2.0000      -0.521176       -14.1819
  25   2.0000      -0.491856       -13.3841
  26   2.0000      -0.477345       -12.9892
  27   2.0000      -0.463937       -12.6244
  28   2.0000      -0.436848       -11.8872
  29   2.0000      -0.427671       -11.6375
  30   2.0000      -0.422308       -11.4916
  31   2.0000      -0.408944       -11.1279
  32   2.0000      -0.398562       -10.8454
  33   2.0000      -0.382647       -10.4124
  34   2.0000      -0.363684        -9.8964
  35   2.0000      -0.360654        -9.8139
  36   2.0000      -0.345872        -9.4116
  37   2.0000      -0.331774        -9.0280
  38   2.0000      -0.318132        -8.6568
  39   2.0000      -0.287852        -7.8329
  40   2.0000      -0.285657        -7.7731
  41   2.0000      -0.270990        -7.3740
  42   2.0000      -0.256482        -6.9792
  43   2.0000      -0.251504        -6.8438
  44   2.0000      -0.245077        -6.6689
  45   2.0000      -0.229079        -6.2336
  46   2.0000      -0.213990        -5.8230
  47   2.0000      -0.205215        -5.5842
  48   0.0000      -0.000348        -0.0095
  49   0.0000       0.016930         0.4607
  50   0.0000       0.041241         1.1222
  51   0.0000       0.055937         1.5221
  52   0.0000       0.065098         1.7714

MULLIKEN ATOMIC CHARGES
-----------------------
   0 C :    0.033448
   1 C :    0.076411
   2 H :    0.054481
   3 C :   -0.008049
   4 H :    0.075898
   5 C :    0.062572
   6 H :    0.088007
   7 C :    0.014328
   8 H :    0.090481
   9 C :    0.195939
  10 H :    0.072244
  11 O :   -0.315525
  12 O :   -0.407739
  13 O :   -0.424430
  14 O :   -0.435317
  15 O :   -0.424254
  16 O :   -0.442511
  17 H :    0.067910
  18 H :    0.087028
  19 H :    0.312343
  20 H :    0.304449
  21 H :    0.319751
  22 H :    0.311973
  23 H :    0.290562
Sum of atomic charges:    0.0000000

LOEWDIN ATOMIC CHARGES
----------------------
   0 C :   -0.135743
   1 C :   -0.077020
   2 H :    0.116848
   3 C :   -0.078956
   4 H :    0.108606
   5 C :   -0.065827
   6 H :    0.119572
   7 C :   -0.083159
   8 H :    0.123053
   9 C :   -0.010796
  10 H :    0.102418
  11 O :   -0.144817
  12 O :   -0.306770
  13 O :   -0.315074
  14 O :   -0.314236
  15 O :   -0.308966
  16 O :   -0.339640
  17 H :    0.097171
  18 H :    0.115112
  19 H :    0.290483
  20 H :    0.273968
  21 H :    0.276547
  22 H :    0.291843
  23 H :    0.265385

  Mayer bond orders larger than 0.100000
B(  0-C ,  1-C ) :   1.0196 B(  0-C , 16-O ) :   1.1220 B(  0-C , 17-H ) :   0.9082
B(  0-C , 18-H ) :   0.9151 B(  1-C ,  2-H ) :   0.8820 B(  1-C ,  3-C ) :   0.9653
B(  1-C , 11-O ) :   0.9909 B(  3-C ,  4-H ) :   0.8986 B(  3-C ,  5-C ) :   0.9753
B(  3-C , 15-O ) :   1.0055 B(  5-C ,  6-H ) :   0.8999 B(  5-C ,  7-C ) :   1.0154
B(  5-C , 14-O ) :   1.0642 B(  7-C ,  8-H ) :   0.8971 B(  7-C ,  9-C ) :   0.9702
B(  7-C , 13-O ) :   1.0815 B(  9-C , 10-H ) :   0.9028 B(  9-C , 11-O ) :   1.0681
B(  9-C , 12-O ) :   1.0690 B( 12-O , 19-H ) :   0.8250 B( 12-O , 21-H ) :   0.1068
B( 13-O , 20-H ) :   0.8101 B( 14-O , 21-H ) :   0.7777 B( 14-O , 23-H ) :   0.1125
B( 15-O , 22-H ) :   0.8398 B( 16-O , 23-H ) :   0.7977

Dispersion correction           -0.026610627
FINAL SINGLE POINT ENERGY      -685.700543098742

DIPOLE MOMENT
-------------

Method             : SCF
Type of density    : Electron Density
Multiplicity       :   1
Irrep              :   0
Energy             :  -685.8354456688161918 Eh
Relativity type    :
Basis              : AO
                                X                 Y                 Z
Electronic contribution:      2.812830833      -0.440119527       0.202610438
Nuclear contribution   :     -3.848104692       0.396065838       0.421819343
                        -----------------------------------------
Total Dipole Moment    :     -1.035273859      -0.044053689       0.624429780
                        -----------------------------------------
Magnitude (a.u.)       :      1.209812069
Magnitude (Debye)      :      3.075097897

Rotational constants in cm-1:             0.041067             0.031130             0.027042
Rotational constants in MHz :          1231.144585           933.240231           810.713320

                             ****ORCA TERMINATED NORMALLY****
TOTAL RUN TIME: 0 days 0 hours 0 minutes 12 seconds 571 msec
