                         Program Version 6.0.0  -   RELEASE  -
|  1> ! r2scan-3c def2/J RI DEFGRID2 scfconv6 printgap
|  2> %output
|  3>     printlevel normal
|  4> end
|  5> * xyz 0 1
|  6> C -2.5242148342 -0.9652536483 0.3802544221
|  7> C -1.0957536224 -0.4604540037 0.6317988766
|  8> H -0.9294303944 -0.3631323708 1.7159375432
|  9> C -0.8268681473 0.8995159857 -0.0358261413
| 10> H -0.9942099308 0.8019445474 -1.1167180605
| 11> C 0.6374674186 1.2824471499 0.2035307714
| 12> H 0.7812907873 1.4320903149 1.2861322071
| 13> C 1.5824319025 0.169774308 -0.2643367387
| 14> H 1.5439604062 0.1033005744 -1.3612772079
| 15> C 1.1485150037 -1.186889249 0.3079876702
| 16> H 1.3557902493 -1.1755343382 1.3982495844
| 17> O -0.2221787439 -1.4386952705 0.0956069819
| 18> O 1.8564615703 -2.1773512067 -0.3349280225
| 19> O 2.892699186 0.4083961636 0.1746781925
| 20> O 0.9893297275 2.4518932035 -0.4940455081
| 21> O -1.6152211155 1.9315948587 0.5063658569
| 22> O -2.8527268826 -0.9898522309 -0.9839413831
| 23> H -3.237810045 -0.2961362563 0.8627096568
| 24> H -2.6161505244 -1.9633195381 0.8235917432
| 25> H 1.5548155769 -3.0486476499 -0.0310250331
| 26> H 3.1772586712 1.2664701881 -0.1767456171
| 27> H 0.3538435283 3.1465051862 -0.2635909054
| 28> H -2.5171131377 1.8665242095 0.1632752565
| 29> H -2.2625625363 -1.6137733204 -1.430079262
| 30> *
| 31>
| 32>                          ****END OF INPUT****

CARTESIAN COORDINATES (ANGSTROEM)
---------------------------------
  C     -2.524215   -0.965254    0.380254
  C     -1.095754   -0.460454    0.631799
  H     -0.929430   -0.363132    1.715938
  C     -0.826868    0.899516   -0.035826
  H     -0.994210    0.801945   -1.116718
  C      0.637467    1.282447    0.203531
  H      0.781291    1.432090    1.286132
  C      1.582432    0.169774   -0.264337
  H      1.543960    0.103301   -1.361277
  C      1.148515   -1.186889    0.307988
  H      1.355790   -1.175534    1.398250
  O     -0.222179   -1.438695    0.095607
  O      1.856462   -2.177351   -0.334928
  O      2.892699    0.408396    0.174678
  O      0.989330    2.451893   -0.494046
  O     -1.615221    1.931595    0.506366
  O     -2.852727   -0.989852   -0.983941
  H     -3.237810   -0.296136    0.862710
  H     -2.616151   -1.963320    0.823592
  H      1.554816   -3.048648   -0.031025
  H      3.177259    1.266470   -0.176746
  H      0.353844    3.146505   -0.263591
  H     -2.517113    1.866524    0.163275
  H     -2.262563   -1.613773   -1.430079

 Total Charge           Charge          ....    0
 Multiplicity           Mult            ....    1
 Number of Electrons    NEL             ....   96
 Basis Dimension        Dim             ....  318

ORBITAL ENERGIES
----------------

  NO   OCC          E(Eh)            E(eV)
   0   2.0000     -18.975983      -516.3627
   1   2.0000     -18.973675      -516.2999
   2   2.0000     -18.966331      -516.1001
   3   2.0000     -18.962947      -516.0080
   4   2.0000     -18.960170      -515.9325
   5   2.0000     -18.952444      -515.7222
   6   2.0000     -10.141680      -275.9692
   7   2.0000     -10.097528      -274.7677
   8   2.0000     -10.092711      -274.6366
   9   2.0000     -10.092235      -274.6237
  10   2.0000     -10.090493      -274.5763
  11   2.0000     -10.088585      -274.5244
  12   2.0000      -1.054951       -28.7067
  13   2.0000      -1.018913       -27.7260
  14   2.0000      -1.006754       -27.3952
  15   2.0000      -0.999178       -27.1890
  16   2.0000      -0.985976       -26.8298
  17   2.0000      -0.981074       -26.6964
  18   2.0000      -0.754164       -20.5218
  19   2.0000      -0.739685       -20.1279
  20   2.0000      -0.668961       -18.2034
  21   2.0000      -0.615929       -16.7603
  22   2.0000      -0.598185       -16.2775
  23   2.0000      -0.554399       -15.0860
  24   2.0000      -0.524361       -14.2686
  25   2.0000      -0.519788       -14.1442
  26   2.0000      -0.497581       -13.5399
  27   2.0000      -0.488914       -13.3040
  28   2.0000      -0.479912       -13.0591
  29   2.0000      -0.464618       -12.6429
  30   2.0000      -0.438806       -11.9405
  31   2.0000      -0.420152       -11.4329
  32   2.0000      -0.407011       -11.0753
  33   2.0000      -0.405920       -11.0456
  34   2.0000      -0.388462       -10.5706
  35   2.0000      -0.380514       -10.3543
  36   2.0000      -0.353800        -9.6274
  37   2.0000      -0.339149        -9.2287
  38   2.0000      -0.330984        -9.0065
  39   2.0000      -0.318818        -8.6755
  40   2.0000      -0.305503        -8.3131
  41   2.0000      -0.304374        -8.2824
  42   2.0000      -0.280163        -7.6236
  43   2.0000      -0.266447        -7.2504
  44   2.0000      -0.253639        -6.9019
  45   2.0000      -0.251387        -6.8406
  46   2.0000      -0.239952        -6.5294
  47   2.0000      -0.231376        -6.2961
  48   0.0000       0.031242         0.8501
  49   0.0000       0.039378         1.0715
  50   0.0000       0.057626         1.5681
  51   0.0000       0.072699         1.9782
  52   0.0000       0.085840         2.3358

MULLIKEN ATOMIC CHARGES
-----------------------
   0 C :   -0.263044
   1 C :    0.066634
   2 H :    0.168659
   3 C :   -0.101167
   4 H :    0.191441
   5 C :   -0.020084
   6 H :    0.167253
   7 C :    0.041563
   8 H :    0.172349
   9 C :   -0.110912
  10 H :    0.145164
  11 O :   -0.206339
  12 O :   -0.379096
  13 O :   -0.421639
  14 O :   -0.441432
  15 O :   -0.445286
  16 O :   -0.422555
  17 H :    0.144357
  18 H :    0.146173
  19 H :    0.307511
  20 H :    0.313945
  21 H :    0.313232
  22 H :    0.315676
  23 H :    0.317597
Sum of atomic charges:    0.0000000

LOEWDIN ATOMIC CHARGES
----------------------
   0 C :    0.037175
   1 C :    0.103709
   2 H :    0.185693
   3 C :    0.104120
   4 H :    0.192176
   5 C :    0.108649
   6 H :    0.186066
   7 C :    0.128844
   8 H :    0.191904
   9 C :    0.308109
  10 H :    0.182053
  11 O :   -0.692736
  12 O :   -0.480160
  13 O :   -0.556660
  14 O :   -0.576656
  15 O :   -0.582346
  16 O :   -0.596485
  17 H :    0.181448
  18 H :    0.172465
  19 H :    0.282957
  20 H :    0.283174
  21 H :    0.283152
  22 H :    0.277692
  23 H :    0.275657

  Mayer bond orders larger than 0.100000
B(  0-C ,  1-C ) :   0.8996 B(  0-C , 16-O ) :   1.0173 B(  0-C , 17-H ) :   0.9807
B(  0-C , 18-H ) :   0.9823 B(  1-C ,  2-H ) :   0.9337 B(  1-C ,  3-C ) :   0.7423
B(  1-C , 11-O ) :   0.7580 B(  1-C , 16-O ) :  -0.1241 B(  3-C ,  4-H ) :   1.0281
B(  3-C ,  5-C ) :   0.8211 B(  3-C , 15-O ) :   0.9065 B(  5-C ,  6-H ) :   0.9806
B(  5-C ,  7-C ) :   0.8650 B(  5-C , 14-O ) :   0.9097 B(  7-C ,  8-H ) :   0.9676
B(  7-C ,  9-C ) :   0.8689 B(  7-C , 13-O ) :   0.9024 B(  9-C , 10-H ) :   1.0198
B(  9-C , 11-O ) :   0.9321 B(  9-C , 12-O ) :   1.0880 B( 12-O , 19-H ) :   0.8806
B( 13-O , 20-H ) :   0.8800 B( 14-O , 21-H ) :   0.8756 B( 15-O , 22-H ) :   0.8859
B( 16-O , 23-H ) :   0.8766

Dispersion correction           -0.008040935
FINAL SINGLE POINT ENERGY      -687.077340659219

DIPOLE MOMENT
-------------

Method             : SCF
Type of density    : Electron Density
Multiplicity       :   1
Irrep              :   0
Energy             :  -687.0886150639827292 Eh
Relativity type    :
Basis              : AO
                                X                 Y                 Z
Electronic contribution:      2.711080220      -0.262568806      -1.333796574
Nuclear contribution   :     -3.540431499       0.149383340       1.739457868
                        -----------------------------------------
Total Dipole Moment    :     -0.829351279      -0.113185466       0.405661294
                        -----------------------------------------
Magnitude (a.u.)       :      0.930158900
Magnitude (Debye)      :      2.364276032

Rotational constants in cm-1:             0.039662             0.026926             0.017648
Rotational constants in MHz :          1189.035422           807.214243           529.086516

                             ****ORCA TERMINATED NORMALLY****
TOTAL RUN TIME: 0 days 0 hours 0 minutes 49 seconds 541 msec
