                         Program Version 6.0.0  -   RELEASE  -
|  1> ! r2scan-3c def2/J RI DEFGRID2 scfconv6 printgap
|  2> %output
|  3>     printlevel normal
|  4> end
|  5> %cpcm
|  6>     smd true
|  7>     smdsolvent "water"
|  8> end
|  9> * xyz 0 1
| 10> C -2.5242148342 -0.9652536483 0.3802544221
| 11> C -1.0957536224 -0.4604540037 0.6317988766
| 12> H -0.9294303944 -0.3631323708 1.7159375432
| 13> C -0.8268681473 0.8995159857 -0.0358261413
| 14> H -0.9942099308 0.8019445474 -1.1167180605
| 15> C 0.6374674186 1.2824471499 0.2035307714
| 16> H 0.7812907873 1.4320903149 1.2861322071
| 17> C 1.5824319025 0.169774308 -0.2643367387
| 18> H 1.5439604062 0.1033005744 -1.3612772079
| 19> C 1.1485150037 -1.186889249 0.3079876702
| 20> H 1.3557902493 -1.1755343382 1.3982495844
| 21> O -0.2221787439 -1.4386952705 0.0956069819
| 22> O 1.8564615703 -2.1773512067 -0.3349280225
| 23> O 2.892699186 0.4083961636 0.1746781925
| 24> O 0.9893297275 2.4518932035 -0.4940455081
| 25> O -1.6152211155 1.9315948587 0.5063658569
| 26> O -2.8527268826 -0.9898522309 -0.9839413831
| 27> H -3.237810045 -0.2961362563 0.8627096568
| 28> H -2.6161505244 -1.9633195381 0.8235917432
| 29> H 1.5548155769 -3.0486476499 -0.0310250331
| 30> H 3.1772586712 1.2664701881 -0.1767456171
| 31> H 0.3538435283 3.1465051862 -0.2635909054
| 32> H -2.5171131377 1.8665242095 0.1632752565
| 33> H -2.2625625363 -1.6137733204 -1.430079262
| 34> *
| 35>
| 36>                          ****END OF INPUT****

CARTESIAN COORDINATES (ANGSTROEM)
---------------------------------
  C     -2.524215   -0.965254    0.380254
  C     -1.095754   -0.460454    0.631799
  H     -0.929430   -0.363132    1.715938
  C     -0.826868    0.899516   -0.035826
  H     -0.994210    0.801945   -1.116718
  C      0.637467    1.282447    0.203531
  H      0.781291    1.432090    1.286132
  C      1.582432    0.169774   -0.264337
  H      1.543960    0.103301   -1.361277
  C      1.148515   -1.186889    0.307988
  H      1.355790   -1.175534    1.398250
  O     -0.222179   -1.438695    0.095607
  O      1.856462   -2.177351   -0.334928
  O      2.892699    0.408396    0.174678
  O      0.989330    2.451893   -0.494046
  O     -1.615221    1.931595    0.506366
  O     -2.852727   -0.989852   -0.983941
  H     -3.237810   -0.296136    0.862710
  H     -2.616151   -1.963320    0.823592
  H      1.554816   -3.048648   -0.031025
  H      3.177259    1.266470   -0.176746
  H      0.353844    3.146505   -0.263591
  H     -2.517113    1.866524    0.163275
  H     -2.262563   -1.613773   -1.430079

 Total Charge           Charge          ....    0
 Multiplicity           Mult            ....    1
 Number of Electrons    NEL             ....   96
 Basis Dimension        Dim             ....  318

ORBITAL ENERGIES
----------------

  NO   OCC          E(Eh)            E(eV)
   0   2.0000     -18.972857      -516.2777
   1   2.0000     -18.969159      -516.1771
   2   2.0000     -18.963459      -516.0219
   3   2.0000     -18.961742      -515.9752
   4   2.0000     -18.960012      -515.9282
   5   2.0000     -18.956947      -515.8448
   6   2.0000     -10.138644      -275.8865
   7   2.0000     -10.088601      -274.5248
   8   2.0000     -10.086126      -274.4575
   9   2.0000     -10.086075      -274.4561
  10   2.0000     -10.084381      -274.4100
  11   2.0000     -10.077011      -274.2094
  12   2.0000      -1.053603       -28.6700
  13   2.0000      -1.014274       -27.5998
  14   2.0000      -1.005350       -27.3570
  15   2.0000      -0.995191       -27.0805
  16   2.0000      -0.985479       -26.8163
  17   2.0000      -0.981160       -26.6987
  18   2.0000      -0.748092       -20.3566
  19   2.0000      -0.733840       -19.9688
  20   2.0000      -0.661040       -17.9878
  21   2.0000      -0.611572       -16.6417
  22   2.0000      -0.591657       -16.0998
  23   2.0000      -0.548037       -14.9128
  24   2.0000      -0.519561       -14.1380
  25   2.0000      -0.516153       -14.0452
  26   2.0000      -0.490873       -13.3573
  27   2.0000      -0.485253       -13.2044
  28   2.0000      -0.472123       -12.8471
  29   2.0000      -0.459719       -12.5096
  30   2.0000      -0.433736       -11.8026
  31   2.0000      -0.419667       -11.4197
  32   2.0000      -0.402881       -10.9629
  33   2.0000      -0.398571       -10.8457
  34   2.0000      -0.382814       -10.4169
  35   2.0000      -0.377077       -10.2608
  36   2.0000      -0.355152        -9.6642
  37   2.0000      -0.343598        -9.3498
  38   2.0000      -0.331326        -9.0158
  39   2.0000      -0.317160        -8.6304
  40   2.0000      -0.307952        -8.3798
  41   2.0000      -0.298896        -8.1334
  42   2.0000      -0.281568        -7.6619
  43   2.0000      -0.264123        -7.1872
  44   2.0000      -0.253119        -6.8877
  45   2.0000      -0.250866        -6.8264
  46   2.0000      -0.244274        -6.6470
  47   2.0000      -0.227161        -6.1814
  48   0.0000       0.043587         1.1861
  49   0.0000       0.056002         1.5239
  50   0.0000       0.073774         2.0075
  51   0.0000       0.086139         2.3440
  52   0.0000       0.098665         2.6848

MULLIKEN ATOMIC CHARGES
-----------------------
   0 C :   -0.242830
   1 C :    0.042013
   2 H :    0.195938
   3 C :   -0.113927
   4 H :    0.198056
   5 C :   -0.009494
   6 H :    0.180569
   7 C :    0.049219
   8 H :    0.184099
   9 C :   -0.095271
  10 H :    0.168877
  11 O :   -0.244959
  12 O :   -0.450939
  13 O :   -0.492193
  14 O :   -0.499222
  15 O :   -0.494277
  16 O :   -0.487843
  17 H :    0.167755
  18 H :    0.158943
  19 H :    0.361084
  20 H :    0.354594
  21 H :    0.351696
  22 H :    0.362583
  23 H :    0.355531
Sum of atomic charges:    0.0000000

LOEWDIN ATOMIC CHARGES
----------------------
   0 C :    0.039716
   1 C :    0.109608
   2 H :    0.197218
   3 C :    0.106424
   4 H :    0.195117
   5 C :    0.109915
   6 H :    0.193610
   7 C :    0.124487
   8 H :    0.196559
   9 C :    0.306787
  10 H :    0.192994
  11 O :   -0.701231
  12 O :   -0.511745
  13 O :   -0.589512
  14 O :   -0.599183
  15 O :   -0.595425
  16 O :   -0.625177
  17 H :    0.192945
  18 H :    0.179081
  19 H :    0.302614
  20 H :    0.297159
  21 H :    0.295450
  22 H :    0.294672
  23 H :    0.287919

  Mayer bond orders larger than 0.100000
B(  0-C ,  1-C ) :   0.9262 B(  0-C , 16-O ) :   0.9947 B(  0-C , 17-H ) :   0.9653
B(  0-C , 18-H ) :   0.9729 B(  1-C ,  2-H ) :   0.9248 B(  1-C ,  3-C ) :   0.7685
B(  1-C , 11-O ) :   0.7554 B(  3-C ,  4-H ) :   1.0213 B(  3-C ,  5-C ) :   0.8505
B(  3-C , 15-O ) :   0.9016 B(  5-C ,  6-H ) :   0.9622 B(  5-C ,  7-C ) :   0.9010
B(  5-C , 14-O ) :   0.8947 B(  7-C ,  8-H ) :   0.9474 B(  7-C ,  9-C ) :   0.8673
B(  7-C , 13-O ) :   0.8781 B(  9-C , 10-H ) :   1.0114 B(  9-C , 11-O ) :   0.9590
B(  9-C , 12-O ) :   1.0656 B( 12-O , 19-H ) :   0.8539 B( 13-O , 20-H ) :   0.8603
B( 14-O , 21-H ) :   0.8566 B( 15-O , 22-H ) :   0.8597 B( 16-O , 23-H ) :   0.8567

Dispersion correction           -0.008040935
FINAL SINGLE POINT ENERGY      -687.111560644390

DIPOLE MOMENT
-------------

Method             : SCF
Type of density    : Electron Density
Multiplicity       :   1
Irrep              :   0
Energy             :  -687.1228350491535366 Eh
Relativity type    :
Basis              : AO
                                X                 Y                 Z
Electronic contribution:      2.317552836      -0.278320501      -1.053926340
Nuclear contribution   :     -3.540431499       0.149383340       1.739457868
                        -----------------------------------------
Total Dipole Moment    :     -1.222878663      -0.128937161       0.685531528
                        -----------------------------------------
Magnitude (a.u.)       :      1.407838944
Magnitude (Debye)      :      3.578442212

Rotational constants in cm-1:             0.039662             0.026926             0.017648
Rotational constants in MHz :          1189.035422           807.214243           529.086516

                             ****ORCA TERMINATED NORMALLY****
TOTAL RUN TIME: 0 days 0 hours 0 minutes 58 seconds 607 msec
