                         Program Version 6.0.0  -   RELEASE  -
|  1> ! wb97x-v def2-tzvp def2/J RIJCOSX DEFGRID2 scfconv7 GCP(DFT/TZ) printgap
|  2> %output
|  3>     printlevel normal
|  4> end
|  5> * xyz 0 1
|  6> C -3.368885322732028 -0.002408411772424092 -0.5316264016802522
|  7> C -2.728595859962714 -1.207761934650278 -0.24875806501678202
|  8> C -1.4543876343984876 -1.2059446193887513 0.3082847031249349
|  9> C -0.807634908165691 0.0020306851197711496 0.5895188090620072
| 10> C -1.4566807196653326 1.2077471096287984 0.30397648150110695
| 11> C -2.7309304722574406 1.2051454331839915 -0.25302322598538923
| 12> C 0.5469880896568244 0.004486065619035749 1.1920573997702724
| 13> Br 1.9805360912400494 0.00022915103601855966 -0.23771242608731388
| 14> H -4.364047431249577 -0.004139609151037572 -0.964826679098351
| 15> H -3.2249487705805877 -2.1498698804076435 -0.45891282021623997
| 16> H -0.9546672318193286 -2.1448885364417127 0.5297374873584982
| 17> H -0.9587651457969499 2.1484258076439726 0.5220902682446973
| 18> H -3.229089482064996 2.1455500338800824 -0.46650956887057843
| 19> H 0.7568001168558939 -0.89080621982157 1.7741982541301915
| 20> H 0.7559901901895367 0.9037189794956304 1.7683641890429826
| 21> *
| 22>
| 23>                          ****END OF INPUT****

CARTESIAN COORDINATES (ANGSTROEM)
---------------------------------
  C     -3.368885   -0.002408   -0.531626
  C     -2.728596   -1.207762   -0.248758
  C     -1.454388   -1.205945    0.308285
  C     -0.807635    0.002031    0.589519
  C     -1.456681    1.207747    0.303976
  C     -2.730930    1.205145   -0.253023
  C      0.546988    0.004486    1.192057
  Br     1.980536    0.000229   -0.237712
  H     -4.364047   -0.004140   -0.964827
  H     -3.224949   -2.149870   -0.458913
  H     -0.954667   -2.144889    0.529737
  H     -0.958765    2.148426    0.522090
  H     -3.229089    2.145550   -0.466510
  H      0.756800   -0.890806    1.774198
  H      0.755990    0.903719    1.768364

 Total Charge           Charge          ....    0
 Multiplicity           Mult            ....    1
 Number of Electrons    NEL             ....   84
 Basis Dimension        Dim             ....  307

ORBITAL ENERGIES
----------------

  NO   OCC          E(Eh)            E(eV)
   0   2.0000    -494.707770    -13461.6828
   1   2.0000     -66.877197     -1819.8211
   2   2.0000     -60.934036     -1658.0994
   3   2.0000     -60.932499     -1658.0576
   4   2.0000     -60.932370     -1658.0541
   5   2.0000     -12.114726      -329.6584
   6   2.0000     -12.073765      -328.5439
   7   2.0000     -12.063578      -328.2666
   8   2.0000     -12.063280      -328.2585
   9   2.0000     -12.062350      -328.2332
  10   2.0000     -12.060982      -328.1960
  11   2.0000     -12.059824      -328.1645
  12   2.0000     -10.628820      -289.2249
  13   2.0000      -8.408547      -228.8082
  14   2.0000      -8.401786      -228.6242
  15   2.0000      -8.401743      -228.6231
  16   2.0000      -4.393602      -119.5560
  17   2.0000      -4.391057      -119.4867
  18   2.0000      -4.391000      -119.4852
  19   2.0000      -4.383563      -119.2828
  20   2.0000      -4.383550      -119.2825
  21   2.0000      -1.399311       -38.0772
  22   2.0000      -1.334336       -36.3091
  23   2.0000      -1.290105       -35.1055
  24   2.0000      -1.284433       -34.9512
  25   2.0000      -1.193164       -32.4676
  26   2.0000      -1.118796       -30.4440
  27   2.0000      -1.092489       -29.7282
  28   2.0000      -0.973627       -26.4937
  29   2.0000      -0.969043       -26.3690
  30   2.0000      -0.931545       -25.3486
  31   2.0000      -0.893001       -24.2998
  32   2.0000      -0.886061       -24.1110
  33   2.0000      -0.872377       -23.7386
  34   2.0000      -0.836686       -22.7674
  35   2.0000      -0.827024       -22.5045
  36   2.0000      -0.814304       -22.1583
  37   2.0000      -0.772398       -21.0180
  38   2.0000      -0.713185       -19.4067
  39   2.0000      -0.710324       -19.3289
  40   2.0000      -0.648949       -17.6588
  41   2.0000      -0.648671       -17.6512
  42   0.0000      -0.318727        -8.6730
  43   0.0000      -0.245804        -6.6887
  44   0.0000      -0.222608        -6.0575
  45   0.0000      -0.075000        -2.0408
  46   0.0000      -0.057207        -1.5567

MULLIKEN ATOMIC CHARGES
-----------------------
   0 C :   -0.127609
   1 C :   -0.104756
   2 C :   -0.188110
   3 C :    0.178387
   4 C :   -0.188251
   5 C :   -0.104687
   6 C :   -0.225468
   7 Br:   -0.150174
   8 H :    0.122566
   9 H :    0.122158
  10 H :    0.122127
  11 H :    0.122052
  12 H :    0.122161
  13 H :    0.149817
  14 H :    0.149787
Sum of atomic charges:   -0.0000000

LOEWDIN ATOMIC CHARGES
----------------------
   0 C :   -0.132906
   1 C :   -0.133589
   2 C :   -0.102090
   3 C :   -0.194451
   4 C :   -0.102109
   5 C :   -0.133599
   6 C :   -0.354024
   7 Br:    0.164452
   8 H :    0.142796
   9 H :    0.143420
  10 H :    0.147378
  11 H :    0.147362
  12 H :    0.143419
  13 H :    0.131974
  14 H :    0.131967

  Mayer bond orders larger than 0.100000
B(  0-C ,  1-C ) :   1.4183 B(  0-C ,  5-C ) :   1.4185 B(  0-C ,  8-H ) :   0.9693
B(  1-C ,  2-C ) :   1.4463 B(  1-C ,  9-H ) :   0.9719 B(  2-C ,  3-C ) :   1.3713
B(  2-C , 10-H ) :   0.9683 B(  3-C ,  4-C ) :   1.3714 B(  3-C ,  6-C ) :   0.9365
B(  4-C ,  5-C ) :   1.4462 B(  4-C , 11-H ) :   0.9683 B(  5-C , 12-H ) :   0.9719
B(  6-C ,  7-Br) :   1.0372 B(  6-C , 13-H ) :   0.9741 B(  6-C , 14-H ) :   0.9741

FINAL SINGLE POINT ENERGY     -2844.890615676313

DIPOLE MOMENT
-------------

Method             : SCF
Type of density    : Electron Density
Multiplicity       :   1
Irrep              :   0
Energy             : -2844.8999037816129203 Eh
Relativity type    :
Basis              : AO
                                X                 Y                 Z
Electronic contribution:     28.085110939      -0.005210537      -4.271973889
Nuclear contribution   :    -28.869894197       0.006416579       4.745277146
                        -----------------------------------------
Total Dipole Moment    :     -0.784783258       0.001206042       0.473303258
                        -----------------------------------------
Magnitude (a.u.)       :      0.916461778
Magnitude (Debye)      :      2.329460714

Rotational constants in cm-1:             0.128359             0.021742             0.020449
Rotational constants in MHz :          3848.111020           651.798166           613.056846

                             ****ORCA TERMINATED NORMALLY****
TOTAL RUN TIME: 0 days 0 hours 2 minutes 54 seconds 300 msec
