                         Program Version 6.0.0  -   RELEASE  -
|  1> ! wb97x-v def2-tzvp def2/J RIJCOSX DEFGRID2 scfconv7 GCP(DFT/TZ) printgap
|  2> %output
|  3>     printlevel normal
|  4> end
|  5> %cpcm
|  6>     smd true
|  7>     smdsolvent "water"
|  8> end
|  9> * xyz 0 1
| 10> C -3.368885322732028 -0.002408411772424092 -0.5316264016802522
| 11> C -2.728595859962714 -1.207761934650278 -0.24875806501678202
| 12> C -1.4543876343984876 -1.2059446193887513 0.3082847031249349
| 13> C -0.807634908165691 0.0020306851197711496 0.5895188090620072
| 14> C -1.4566807196653326 1.2077471096287984 0.30397648150110695
| 15> C -2.7309304722574406 1.2051454331839915 -0.25302322598538923
| 16> C 0.5469880896568244 0.004486065619035749 1.1920573997702724
| 17> Br 1.9805360912400494 0.00022915103601855966 -0.23771242608731388
| 18> H -4.364047431249577 -0.004139609151037572 -0.964826679098351
| 19> H -3.2249487705805877 -2.1498698804076435 -0.45891282021623997
| 20> H -0.9546672318193286 -2.1448885364417127 0.5297374873584982
| 21> H -0.9587651457969499 2.1484258076439726 0.5220902682446973
| 22> H -3.229089482064996 2.1455500338800824 -0.46650956887057843
| 23> H 0.7568001168558939 -0.89080621982157 1.7741982541301915
| 24> H 0.7559901901895367 0.9037189794956304 1.7683641890429826
| 25> *
| 26>
| 27>                          ****END OF INPUT****

CARTESIAN COORDINATES (ANGSTROEM)
---------------------------------
  C     -3.368885   -0.002408   -0.531626
  C     -2.728596   -1.207762   -0.248758
  C     -1.454388   -1.205945    0.308285
  C     -0.807635    0.002031    0.589519
  C     -1.456681    1.207747    0.303976
  C     -2.730930    1.205145   -0.253023
  C      0.546988    0.004486    1.192057
  Br     1.980536    0.000229   -0.237712
  H     -4.364047   -0.004140   -0.964827
  H     -3.224949   -2.149870   -0.458913
  H     -0.954667   -2.144889    0.529737
  H     -0.958765    2.148426    0.522090
  H     -3.229089    2.145550   -0.466510
  H      0.756800   -0.890806    1.774198
  H      0.755990    0.903719    1.768364

 Total Charge           Charge          ....    0
 Multiplicity           Mult            ....    1
 Number of Electrons    NEL             ....   84
 Basis Dimension        Dim             ....  307

ORBITAL ENERGIES
----------------

  NO   OCC          E(Eh)            E(eV)
   0   2.0000    -494.706408    -13461.6457
   1   2.0000     -66.875941     -1819.7869
   2   2.0000     -60.932724     -1658.0637
   3   2.0000     -60.931284     -1658.0245
   4   2.0000     -60.931149     -1658.0209
   5   2.0000     -12.103744      -329.3596
   6   2.0000     -12.066097      -328.3352
   7   2.0000     -12.054307      -328.0144
   8   2.0000     -12.053960      -328.0049
   9   2.0000     -12.053114      -327.9819
  10   2.0000     -12.051602      -327.9408
  11   2.0000     -12.050475      -327.9101
  12   2.0000     -10.627644      -289.1929
  13   2.0000      -8.407148      -228.7701
  14   2.0000      -8.400807      -228.5976
  15   2.0000      -8.400790      -228.5971
  16   2.0000      -4.392144      -119.5163
  17   2.0000      -4.389763      -119.4515
  18   2.0000      -4.389730      -119.4506
  19   2.0000      -4.382720      -119.2599
  20   2.0000      -4.382706      -119.2595
  21   2.0000      -1.391924       -37.8762
  22   2.0000      -1.329192       -36.1691
  23   2.0000      -1.284818       -34.9617
  24   2.0000      -1.276254       -34.7286
  25   2.0000      -1.184260       -32.2253
  26   2.0000      -1.109572       -30.1930
  27   2.0000      -1.083053       -29.4714
  28   2.0000      -0.963246       -26.2113
  29   2.0000      -0.960204       -26.1285
  30   2.0000      -0.920167       -25.0390
  31   2.0000      -0.882769       -24.0214
  32   2.0000      -0.875393       -23.8207
  33   2.0000      -0.859958       -23.4006
  34   2.0000      -0.829407       -22.5693
  35   2.0000      -0.818200       -22.2644
  36   2.0000      -0.803387       -21.8613
  37   2.0000      -0.766673       -20.8622
  38   2.0000      -0.712686       -19.3932
  39   2.0000      -0.709294       -19.3009
  40   2.0000      -0.642531       -17.4842
  41   2.0000      -0.642244       -17.4764
  42   0.0000      -0.312158        -8.4943
  43   0.0000      -0.238660        -6.4943
  44   0.0000      -0.215521        -5.8646
  45   0.0000      -0.066889        -1.8202
  46   0.0000      -0.043817        -1.1923

MULLIKEN ATOMIC CHARGES
-----------------------
   0 C :   -0.169819
   1 C :   -0.143875
   2 C :   -0.234044
   3 C :    0.170983
   4 C :   -0.234162
   5 C :   -0.143768
   6 C :   -0.232940
   7 Br:   -0.195921
   8 H :    0.163630
   9 H :    0.163076
  10 H :    0.162682
  11 H :    0.162692
  12 H :    0.163079
  13 H :    0.184199
  14 H :    0.184188
Sum of atomic charges:   -0.0000000

LOEWDIN ATOMIC CHARGES
----------------------
   0 C :   -0.141949
   1 C :   -0.143357
   2 C :   -0.108332
   3 C :   -0.200657
   4 C :   -0.108327
   5 C :   -0.143362
   6 C :   -0.340652
   7 Br:    0.133528
   8 H :    0.151842
   9 H :    0.152421
  10 H :    0.156991
  11 H :    0.157000
  12 H :    0.152420
  13 H :    0.141217
  14 H :    0.141217

  Mayer bond orders larger than 0.100000
B(  0-C ,  1-C ) :   1.3950 B(  0-C ,  5-C ) :   1.3952 B(  0-C ,  8-H ) :   0.9722
B(  1-C ,  2-C ) :   1.4241 B(  1-C ,  9-H ) :   0.9756 B(  2-C ,  3-C ) :   1.3432
B(  2-C , 10-H ) :   0.9774 B(  3-C ,  4-C ) :   1.3434 B(  3-C ,  6-C ) :   0.9443
B(  4-C ,  5-C ) :   1.4239 B(  4-C , 11-H ) :   0.9774 B(  5-C , 12-H ) :   0.9756
B(  6-C ,  7-Br) :   0.9886 B(  6-C , 13-H ) :   0.9656 B(  6-C , 14-H ) :   0.9656

FINAL SINGLE POINT ENERGY     -2844.896308972727

DIPOLE MOMENT
-------------

Method             : SCF
Type of density    : Electron Density
Multiplicity       :   1
Irrep              :   0
Energy             : -2844.9055970780273128 Eh
Relativity type    :
Basis              : AO
                                X                 Y                 Z
Electronic contribution:     27.927658895      -0.004371890      -4.039882943
Nuclear contribution   :    -28.869894197       0.006416579       4.745277146
                        -----------------------------------------
Total Dipole Moment    :     -0.942235301       0.002044689       0.705394203
                        -----------------------------------------
Magnitude (a.u.)       :      1.177026986
Magnitude (Debye)      :      2.991764839

Rotational constants in cm-1:             0.128359             0.021742             0.020449
Rotational constants in MHz :          3848.111020           651.798166           613.056846

                             ****ORCA TERMINATED NORMALLY****
TOTAL RUN TIME: 0 days 0 hours 2 minutes 46 seconds 299 msec
