                         Program Version 6.0.0  -   RELEASE  -
|  1> ! wb97x-v def2-tzvp def2/J RIJCOSX DEFGRID2 scfconv7 GCP(DFT/TZ) printgap
|  2> %output
|  3>     printlevel normal
|  4> end
|  5> * xyz 0 1
|  6> C -1.4380834689456679 0.766724205821567 -0.1424297885639072
|  7> C -1.27896767065098 -0.7336206274955095 -0.4664500071015719
|  8> C -0.1373667669636782 -1.185933497047582 0.4518000531809408
|  9> C 0.8415501344354567 -0.01983188144430739 0.3998370030702959
| 10> C -0.05979422665854531 1.2248367555215627 0.4109653270049799
| 11> O 1.572131434047822 -0.13506667355056154 -0.8486787851572518
| 12> H -2.2094833962269727 0.9046813335925603 0.6221467890305976
| 13> H -1.7470950196513055 1.3437887559567425 -1.0186754429147937
| 14> H -2.2013225219974837 -1.2983898552749438 -0.30279141461316966
| 15> H -0.9891790923583098 -0.8726435408201277 -1.5134487576661408
| 16> H -0.49963489265674577 -1.2903005348280476 1.4814835528918748
| 17> H 0.3278554604705105 -2.131360862701421 0.1560797416269473
| 18> H 1.556963650421803 -0.02569482968347923 1.2325566586941061
| 19> H -0.15576452667282495 1.595053472881135 1.437133871185217
| 20> H 0.39164142524996076 2.029213226176793 -0.17963708799575231
| 21> H 2.0806948339693823 0.679197644501255 -0.956630094267786
| 22> *
| 23>
| 24>                          ****END OF INPUT****

CARTESIAN COORDINATES (ANGSTROEM)
---------------------------------
  C     -1.438083    0.766724   -0.142430
  C     -1.278968   -0.733621   -0.466450
  C     -0.137367   -1.185933    0.451800
  C      0.841550   -0.019832    0.399837
  C     -0.059794    1.224837    0.410965
  O      1.572131   -0.135067   -0.848679
  H     -2.209483    0.904681    0.622147
  H     -1.747095    1.343789   -1.018675
  H     -2.201323   -1.298390   -0.302791
  H     -0.989179   -0.872644   -1.513449
  H     -0.499635   -1.290301    1.481484
  H      0.327855   -2.131361    0.156080
  H      1.556964   -0.025695    1.232557
  H     -0.155765    1.595053    1.437134
  H      0.391641    2.029213   -0.179637
  H      2.080695    0.679198   -0.956630

 Total Charge           Charge          ....    0
 Multiplicity           Mult            ....    1
 Number of Electrons    NEL             ....   48
 Basis Dimension        Dim             ....  246

ORBITAL ENERGIES
----------------

  NO   OCC          E(Eh)            E(eV)
   0   2.0000     -21.664692      -589.5262
   1   2.0000     -12.092074      -329.0421
   2   2.0000     -12.041985      -327.6791
   3   2.0000     -12.039091      -327.6003
   4   2.0000     -12.036311      -327.5247
   5   2.0000     -12.033959      -327.4607
   6   2.0000      -1.662266       -45.2326
   7   2.0000      -1.342618       -36.5345
   8   2.0000      -1.216194       -33.0943
   9   2.0000      -1.212464       -32.9928
  10   2.0000      -1.085090       -29.5268
  11   2.0000      -1.045526       -28.4502
  12   2.0000      -1.003933       -27.3184
  13   2.0000      -0.942621       -25.6500
  14   2.0000      -0.937292       -25.5050
  15   2.0000      -0.885002       -24.0821
  16   2.0000      -0.879823       -23.9412
  17   2.0000      -0.842250       -22.9188
  18   2.0000      -0.795525       -21.6473
  19   2.0000      -0.787835       -21.4381
  20   2.0000      -0.786411       -21.3993
  21   2.0000      -0.781263       -21.2592
  22   2.0000      -0.777511       -21.1572
  23   2.0000      -0.744307       -20.2536
  24   0.0000      -0.143902        -3.9158
  25   0.0000      -0.058074        -1.5803
  26   0.0000      -0.045062        -1.2262
  27   0.0000      -0.035223        -0.9585
  28   0.0000      -0.021986        -0.5983

MULLIKEN ATOMIC CHARGES
-----------------------
   0 C :   -0.184090
   1 C :   -0.181393
   2 C :   -0.165556
   3 C :    0.092848
   4 C :   -0.227889
   5 O :   -0.455377
   6 H :    0.092934
   7 H :    0.094378
   8 H :    0.095981
   9 H :    0.097492
  10 H :    0.087969
  11 H :    0.104905
  12 H :    0.075247
  13 H :    0.092961
  14 H :    0.087660
  15 H :    0.291928
Sum of atomic charges:   -0.0000000

LOEWDIN ATOMIC CHARGES
----------------------
   0 C :   -0.244161
   1 C :   -0.251230
   2 C :   -0.235483
   3 C :   -0.326195
   4 C :   -0.236317
   5 O :   -0.041016
   6 H :    0.128654
   7 H :    0.127276
   8 H :    0.125337
   9 H :    0.134827
  10 H :    0.136814
  11 H :    0.134565
  12 H :    0.124321
  13 H :    0.131989
  14 H :    0.127057
  15 H :    0.163562

  Mayer bond orders larger than 0.100000
B(  0-C ,  1-C ) :   1.0101 B(  0-C ,  4-C ) :   0.9970 B(  0-C ,  6-H ) :   0.9812
B(  0-C ,  7-H ) :   0.9707 B(  1-C ,  2-C ) :   1.0058 B(  1-C ,  8-H ) :   0.9747
B(  1-C ,  9-H ) :   0.9644 B(  2-C ,  3-C ) :   0.9602 B(  2-C , 10-H ) :   0.9699
B(  2-C , 11-H ) :   0.9664 B(  3-C ,  4-C ) :   0.9867 B(  3-C ,  5-O ) :   1.0510
B(  3-C , 12-H ) :   0.9854 B(  4-C , 13-H ) :   0.9639 B(  4-C , 14-H ) :   0.9710
B(  5-O , 15-H ) :   0.9073

FINAL SINGLE POINT ENERGY      -271.790124845435

DIPOLE MOMENT
-------------

Method             : SCF
Type of density    : Electron Density
Multiplicity       :   1
Irrep              :   0
Energy             :  -271.8010295508349827 Eh
Relativity type    :
Basis              : AO
                                X                 Y                 Z
Electronic contribution:      2.805610526      -0.448466433      -1.018442124
Nuclear contribution   :     -2.858328621       0.938550642       1.405734246
                        -----------------------------------------
Total Dipole Moment    :     -0.052718095       0.490084209       0.387292122
                        -----------------------------------------
Magnitude (a.u.)       :      0.626862758
Magnitude (Debye)      :      1.593358505

Rotational constants in cm-1:             0.172875             0.116290             0.092519
Rotational constants in MHz :          5182.648324          3486.298474          2773.663846

                             ****ORCA TERMINATED NORMALLY****
TOTAL RUN TIME: 0 days 0 hours 1 minutes 26 seconds 395 msec
