                         Program Version 6.0.0  -   RELEASE  -
|  1> ! wb97x-v def2-tzvp def2/J RIJCOSX DEFGRID2 scfconv7 GCP(DFT/TZ) printgap
|  2> %output
|  3>     printlevel normal
|  4> end
|  5> %cpcm
|  6>     smd true
|  7>     smdsolvent "water"
|  8> end
|  9> * xyz 0 1
| 10> C -1.4380834689456679 0.766724205821567 -0.1424297885639072
| 11> C -1.27896767065098 -0.7336206274955095 -0.4664500071015719
| 12> C -0.1373667669636782 -1.185933497047582 0.4518000531809408
| 13> C 0.8415501344354567 -0.01983188144430739 0.3998370030702959
| 14> C -0.05979422665854531 1.2248367555215627 0.4109653270049799
| 15> O 1.572131434047822 -0.13506667355056154 -0.8486787851572518
| 16> H -2.2094833962269727 0.9046813335925603 0.6221467890305976
| 17> H -1.7470950196513055 1.3437887559567425 -1.0186754429147937
| 18> H -2.2013225219974837 -1.2983898552749438 -0.30279141461316966
| 19> H -0.9891790923583098 -0.8726435408201277 -1.5134487576661408
| 20> H -0.49963489265674577 -1.2903005348280476 1.4814835528918748
| 21> H 0.3278554604705105 -2.131360862701421 0.1560797416269473
| 22> H 1.556963650421803 -0.02569482968347923 1.2325566586941061
| 23> H -0.15576452667282495 1.595053472881135 1.437133871185217
| 24> H 0.39164142524996076 2.029213226176793 -0.17963708799575231
| 25> H 2.0806948339693823 0.679197644501255 -0.956630094267786
| 26> *
| 27>
| 28>                          ****END OF INPUT****

CARTESIAN COORDINATES (ANGSTROEM)
---------------------------------
  C     -1.438083    0.766724   -0.142430
  C     -1.278968   -0.733621   -0.466450
  C     -0.137367   -1.185933    0.451800
  C      0.841550   -0.019832    0.399837
  C     -0.059794    1.224837    0.410965
  O      1.572131   -0.135067   -0.848679
  H     -2.209483    0.904681    0.622147
  H     -1.747095    1.343789   -1.018675
  H     -2.201323   -1.298390   -0.302791
  H     -0.989179   -0.872644   -1.513449
  H     -0.499635   -1.290301    1.481484
  H      0.327855   -2.131361    0.156080
  H      1.556964   -0.025695    1.232557
  H     -0.155765    1.595053    1.437134
  H      0.391641    2.029213   -0.179637
  H      2.080695    0.679198   -0.956630

 Total Charge           Charge          ....    0
 Multiplicity           Mult            ....    1
 Number of Electrons    NEL             ....   48
 Basis Dimension        Dim             ....  246

ORBITAL ENERGIES
----------------

  NO   OCC          E(Eh)            E(eV)
   0   2.0000     -21.668283      -589.6240
   1   2.0000     -12.086867      -328.9004
   2   2.0000     -12.031560      -327.3954
   3   2.0000     -12.031058      -327.3817
   4   2.0000     -12.030449      -327.3652
   5   2.0000     -12.029344      -327.3351
   6   2.0000      -1.666266       -45.3414
   7   2.0000      -1.336834       -36.3771
   8   2.0000      -1.211432       -32.9647
   9   2.0000      -1.205476       -32.8027
  10   2.0000      -1.083785       -29.4913
  11   2.0000      -1.040339       -28.3091
  12   2.0000      -1.004231       -27.3265
  13   2.0000      -0.941067       -25.6077
  14   2.0000      -0.938757       -25.5449
  15   2.0000      -0.880343       -23.9553
  16   2.0000      -0.879070       -23.9207
  17   2.0000      -0.835123       -22.7249
  18   2.0000      -0.789432       -21.4815
  19   2.0000      -0.781252       -21.2589
  20   2.0000      -0.779396       -21.2084
  21   2.0000      -0.776144       -21.1199
  22   2.0000      -0.771089       -20.9824
  23   2.0000      -0.737715       -20.0742
  24   0.0000      -0.140054        -3.8111
  25   0.0000      -0.044154        -1.2015
  26   0.0000      -0.037668        -1.0250
  27   0.0000      -0.023004        -0.6260
  28   0.0000      -0.009471        -0.2577

MULLIKEN ATOMIC CHARGES
-----------------------
   0 C :   -0.208584
   1 C :   -0.221915
   2 C :   -0.186742
   3 C :    0.105816
   4 C :   -0.258750
   5 O :   -0.570547
   6 H :    0.107405
   7 H :    0.109099
   8 H :    0.114136
   9 H :    0.099333
  10 H :    0.110356
  11 H :    0.113599
  12 H :    0.103052
  13 H :    0.110890
  14 H :    0.117695
  15 H :    0.355156
Sum of atomic charges:   -0.0000000

LOEWDIN ATOMIC CHARGES
----------------------
   0 C :   -0.248015
   1 C :   -0.258066
   2 C :   -0.241362
   3 C :   -0.322247
   4 C :   -0.234161
   5 O :   -0.082067
   6 H :    0.132146
   7 H :    0.128857
   8 H :    0.128960
   9 H :    0.130566
  10 H :    0.143565
  11 H :    0.132880
  12 H :    0.131401
  13 H :    0.137495
  14 H :    0.134592
  15 H :    0.185457

  Mayer bond orders larger than 0.100000
B(  0-C ,  1-C ) :   0.9991 B(  0-C ,  4-C ) :   0.9926 B(  0-C ,  6-H ) :   0.9767
B(  0-C ,  7-H ) :   0.9701 B(  1-C ,  2-C ) :   0.9921 B(  1-C ,  8-H ) :   0.9719
B(  1-C ,  9-H ) :   0.9730 B(  2-C ,  3-C ) :   0.9609 B(  2-C , 10-H ) :   0.9653
B(  2-C , 11-H ) :   0.9670 B(  3-C ,  4-C ) :   0.9963 B(  3-C ,  5-O ) :   0.9915
B(  3-C , 12-H ) :   0.9846 B(  4-C , 13-H ) :   0.9612 B(  4-C , 14-H ) :   0.9703
B(  5-O , 15-H ) :   0.8710

FINAL SINGLE POINT ENERGY      -271.797946465490

DIPOLE MOMENT
-------------

Method             : SCF
Type of density    : Electron Density
Multiplicity       :   1
Irrep              :   0
Energy             :  -271.8088511708899659 Eh
Relativity type    :
Basis              : AO
                                X                 Y                 Z
Electronic contribution:      2.789680967      -0.220299479      -0.788695802
Nuclear contribution   :     -2.858328621       0.938550642       1.405734246
                        -----------------------------------------
Total Dipole Moment    :     -0.068647654       0.718251164       0.617038444
                        -----------------------------------------
Magnitude (a.u.)       :      0.949385947
Magnitude (Debye)      :      2.413147300

Rotational constants in cm-1:             0.172875             0.116290             0.092519
Rotational constants in MHz :          5182.648324          3486.298474          2773.663846

                             ****ORCA TERMINATED NORMALLY****
TOTAL RUN TIME: 0 days 0 hours 1 minutes 48 seconds 782 msec
