                         Program Version 6.0.0  -   RELEASE  -
|  1> ! wb97x-v def2-tzvp def2/J RIJCOSX DEFGRID2 scfconv7 GCP(DFT/TZ) printgap
|  2> %output
|  3>     printlevel normal
|  4> end
|  5> * xyz 0 1
|  6> C -2.5796980241458116 0.6002265852104465 -0.1567434472545848
|  7> C -1.4007376763813235 -0.3111213290260883 0.06818697286373816
|  8> O -0.1914885369480094 0.4886708431308334 -0.14096383508499827
|  9> C 0.9811338167977062 -0.14915460433304473 0.02311999141177403
| 10> O 1.0615329825220732 -1.328421212526673 0.331363211257384
| 11> C 2.1592664663883117 0.7407981049702171 -0.2106893313658298
| 12> H -2.5810004468954806 0.9992933882828049 -1.1750927822066435
| 13> H -3.502774360861308 0.03131711145745638 -0.010454966582056129
| 14> H -2.57429464846904 1.433327389845273 0.5520228024951968
| 15> H -1.3858639628056062 -1.145572104620438 -0.6393238751832198
| 16> H -1.3773002273926402 -0.7086208409295519 1.087058779636395
| 17> H 2.7856782562803475 0.7356571859803999 0.6860795843969842
| 18> H 1.8667872513185062 1.7618452211446076 -0.45388752639677216
| 19> H 2.7531017859610754 0.32082696555579787 -1.0280455557378727
| 20> *
| 21>
| 22>                          ****END OF INPUT****

CARTESIAN COORDINATES (ANGSTROEM)
---------------------------------
  C     -2.579698    0.600227   -0.156743
  C     -1.400738   -0.311121    0.068187
  O     -0.191489    0.488671   -0.140964
  C      0.981134   -0.149155    0.023120
  O      1.061533   -1.328421    0.331363
  C      2.159266    0.740798   -0.210689
  H     -2.581000    0.999293   -1.175093
  H     -3.502774    0.031317   -0.010455
  H     -2.574295    1.433327    0.552023
  H     -1.385864   -1.145572   -0.639324
  H     -1.377300   -0.708621    1.087059
  H      2.785678    0.735657    0.686080
  H      1.866787    1.761845   -0.453888
  H      2.753102    0.320827   -1.028046

 Total Charge           Charge          ....    0
 Multiplicity           Mult            ....    1
 Number of Electrons    NEL             ....   48
 Basis Dimension        Dim             ....  234

ORBITAL ENERGIES
----------------

  NO   OCC          E(Eh)            E(eV)
   0   2.0000     -21.716868      -590.9460
   1   2.0000     -21.651023      -589.1543
   2   2.0000     -12.176743      -331.3460
   3   2.0000     -12.107554      -329.4633
   4   2.0000     -12.056565      -328.0758
   5   2.0000     -12.048308      -327.8511
   6   2.0000      -1.754429       -47.7404
   7   2.0000      -1.686832       -45.9010
   8   2.0000      -1.320605       -35.9355
   9   2.0000      -1.253731       -34.1158
  10   2.0000      -1.168775       -31.8040
  11   2.0000      -1.107471       -30.1358
  12   2.0000      -1.056462       -28.7478
  13   2.0000      -0.995234       -27.0817
  14   2.0000      -0.993372       -27.0310
  15   2.0000      -0.933879       -25.4121
  16   2.0000      -0.904630       -24.6162
  17   2.0000      -0.864442       -23.5227
  18   2.0000      -0.861681       -23.4475
  19   2.0000      -0.841544       -22.8996
  20   2.0000      -0.838777       -22.8243
  21   2.0000      -0.835110       -22.7245
  22   2.0000      -0.820425       -22.3249
  23   2.0000      -0.784016       -21.3342
  24   0.0000      -0.301085        -8.1929
  25   0.0000      -0.186252        -5.0682
  26   0.0000      -0.102368        -2.7856
  27   0.0000      -0.012956        -0.3525
  28   0.0000      -0.006554        -0.1783

MULLIKEN ATOMIC CHARGES
-----------------------
   0 C :   -0.307338
   1 C :   -0.043211
   2 O :   -0.247016
   3 C :    0.319581
   4 O :   -0.367034
   5 C :   -0.329069
   6 H :    0.115209
   7 H :    0.113567
   8 H :    0.115138
   9 H :    0.113400
  10 H :    0.114232
  11 H :    0.137023
  12 H :    0.129185
  13 H :    0.136332
Sum of atomic charges:    0.0000000

LOEWDIN ATOMIC CHARGES
----------------------
   0 C :   -0.305100
   1 C :   -0.282507
   2 O :    0.237156
   3 C :   -0.493542
   4 O :    0.073069
   5 C :   -0.255937
   6 H :    0.121035
   7 H :    0.125081
   8 H :    0.121057
   9 H :    0.126688
  10 H :    0.126810
  11 H :    0.139205
  12 H :    0.127409
  13 H :    0.139575

  Mayer bond orders larger than 0.100000
B(  0-C ,  1-C ) :   0.9970 B(  0-C ,  6-H ) :   0.9740 B(  0-C ,  7-H ) :   0.9743
B(  0-C ,  8-H ) :   0.9740 B(  1-C ,  2-O ) :   0.8837 B(  1-C ,  9-H ) :   0.9732
B(  1-C , 10-H ) :   0.9733 B(  2-O ,  3-C ) :   1.2060 B(  3-C ,  4-O ) :   2.0215
B(  3-C ,  5-C ) :   0.9664 B(  5-C , 11-H ) :   0.9618 B(  5-C , 12-H ) :   0.9765
B(  5-C , 13-H ) :   0.9598

FINAL SINGLE POINT ENERGY      -307.724911849909

DIPOLE MOMENT
-------------

Method             : SCF
Type of density    : Electron Density
Multiplicity       :   1
Irrep              :   0
Energy             :  -307.7343457005094365 Eh
Relativity type    :
Basis              : AO
                                X                 Y                 Z
Electronic contribution:      3.352543617      -2.433469498       0.621480498
Nuclear contribution   :     -3.735925195       3.152491040      -0.810394710
                        -----------------------------------------
Total Dipole Moment    :     -0.383381578       0.719021541      -0.188914212
                        -----------------------------------------
Magnitude (a.u.)       :      0.836458003
Magnitude (Debye)      :      2.126107279

Rotational constants in cm-1:             0.284150             0.068868             0.057227
Rotational constants in MHz :          8518.596605          2064.624642          1715.616708

                             ****ORCA TERMINATED NORMALLY****
TOTAL RUN TIME: 0 days 0 hours 1 minutes 17 seconds 848 msec
