                         Program Version 6.0.0  -   RELEASE  -
|  1> ! wb97x-v def2-tzvp def2/J RIJCOSX DEFGRID2 scfconv7 GCP(DFT/TZ) printgap
|  2> %output
|  3>     printlevel normal
|  4> end
|  5> %cpcm
|  6>     smd true
|  7>     smdsolvent "water"
|  8> end
|  9> * xyz 0 1
| 10> C -2.5796980241458116 0.6002265852104465 -0.1567434472545848
| 11> C -1.4007376763813235 -0.3111213290260883 0.06818697286373816
| 12> O -0.1914885369480094 0.4886708431308334 -0.14096383508499827
| 13> C 0.9811338167977062 -0.14915460433304473 0.02311999141177403
| 14> O 1.0615329825220732 -1.328421212526673 0.331363211257384
| 15> C 2.1592664663883117 0.7407981049702171 -0.2106893313658298
| 16> H -2.5810004468954806 0.9992933882828049 -1.1750927822066435
| 17> H -3.502774360861308 0.03131711145745638 -0.010454966582056129
| 18> H -2.57429464846904 1.433327389845273 0.5520228024951968
| 19> H -1.3858639628056062 -1.145572104620438 -0.6393238751832198
| 20> H -1.3773002273926402 -0.7086208409295519 1.087058779636395
| 21> H 2.7856782562803475 0.7356571859803999 0.6860795843969842
| 22> H 1.8667872513185062 1.7618452211446076 -0.45388752639677216
| 23> H 2.7531017859610754 0.32082696555579787 -1.0280455557378727
| 24> *
| 25>
| 26>                          ****END OF INPUT****

CARTESIAN COORDINATES (ANGSTROEM)
---------------------------------
  C     -2.579698    0.600227   -0.156743
  C     -1.400738   -0.311121    0.068187
  O     -0.191489    0.488671   -0.140964
  C      0.981134   -0.149155    0.023120
  O      1.061533   -1.328421    0.331363
  C      2.159266    0.740798   -0.210689
  H     -2.581000    0.999293   -1.175093
  H     -3.502774    0.031317   -0.010455
  H     -2.574295    1.433327    0.552023
  H     -1.385864   -1.145572   -0.639324
  H     -1.377300   -0.708621    1.087059
  H      2.785678    0.735657    0.686080
  H      1.866787    1.761845   -0.453888
  H      2.753102    0.320827   -1.028046

 Total Charge           Charge          ....    0
 Multiplicity           Mult            ....    1
 Number of Electrons    NEL             ....   48
 Basis Dimension        Dim             ....  234

ORBITAL ENERGIES
----------------

  NO   OCC          E(Eh)            E(eV)
   0   2.0000     -21.721831      -591.0811
   1   2.0000     -21.665918      -589.5596
   2   2.0000     -12.187253      -331.6320
   3   2.0000     -12.098926      -329.2285
   4   2.0000     -12.046607      -327.8048
   5   2.0000     -12.034183      -327.4668
   6   2.0000      -1.762350       -47.9560
   7   2.0000      -1.700021       -46.2599
   8   2.0000      -1.317016       -35.8378
   9   2.0000      -1.246502       -33.9190
  10   2.0000      -1.163556       -31.6620
  11   2.0000      -1.114188       -30.3186
  12   2.0000      -1.067242       -29.0411
  13   2.0000      -0.998386       -27.1675
  14   2.0000      -0.992202       -26.9992
  15   2.0000      -0.939411       -25.5627
  16   2.0000      -0.916987       -24.9525
  17   2.0000      -0.863500       -23.4970
  18   2.0000      -0.858152       -23.3515
  19   2.0000      -0.835993       -22.7485
  20   2.0000      -0.831131       -22.6162
  21   2.0000      -0.827574       -22.5194
  22   2.0000      -0.807787       -21.9810
  23   2.0000      -0.772777       -21.0283
  24   0.0000      -0.305809        -8.3215
  25   0.0000      -0.180783        -4.9193
  26   0.0000      -0.105574        -2.8728
  27   0.0000      -0.009457        -0.2573
  28   0.0000       0.000176         0.0048

MULLIKEN ATOMIC CHARGES
-----------------------
   0 C :   -0.365736
   1 C :   -0.050191
   2 O :   -0.270554
   3 C :    0.410096
   4 O :   -0.489933
   5 C :   -0.374918
   6 H :    0.131132
   7 H :    0.136868
   8 H :    0.131138
   9 H :    0.132692
  10 H :    0.132872
  11 H :    0.163725
  12 H :    0.148835
  13 H :    0.163975
Sum of atomic charges:    0.0000000

LOEWDIN ATOMIC CHARGES
----------------------
   0 C :   -0.307126
   1 C :   -0.280337
   2 O :    0.234038
   3 C :   -0.474268
   4 O :    0.006929
   5 C :   -0.250956
   6 H :    0.123904
   7 H :    0.132140
   8 H :    0.123935
   9 H :    0.130995
  10 H :    0.130950
  11 H :    0.147302
  12 H :    0.134516
  13 H :    0.147977

  Mayer bond orders larger than 0.100000
B(  0-C ,  1-C ) :   1.0080 B(  0-C ,  6-H ) :   0.9715 B(  0-C ,  7-H ) :   0.9697
B(  0-C ,  8-H ) :   0.9716 B(  1-C ,  2-O ) :   0.8577 B(  1-C ,  9-H ) :   0.9660
B(  1-C , 10-H ) :   0.9662 B(  2-O ,  3-C ) :   1.2261 B(  3-C ,  4-O ) :   1.8913
B(  3-C ,  5-C ) :   0.9770 B(  5-C , 11-H ) :   0.9504 B(  5-C , 12-H ) :   0.9732
B(  5-C , 13-H ) :   0.9484

FINAL SINGLE POINT ENERGY      -307.731626011145

DIPOLE MOMENT
-------------

Method             : SCF
Type of density    : Electron Density
Multiplicity       :   1
Irrep              :   0
Energy             :  -307.7410598617453843 Eh
Relativity type    :
Basis              : AO
                                X                 Y                 Z
Electronic contribution:      3.248864976      -2.169229402       0.551147430
Nuclear contribution   :     -3.735925195       3.152491040      -0.810394710
                        -----------------------------------------
Total Dipole Moment    :     -0.487060219       0.983261637      -0.259247280
                        -----------------------------------------
Magnitude (a.u.)       :      1.127492908
Magnitude (Debye)      :      2.865859218

Rotational constants in cm-1:             0.284150             0.068868             0.057227
Rotational constants in MHz :          8518.596605          2064.624642          1715.616708

                             ****ORCA TERMINATED NORMALLY****
TOTAL RUN TIME: 0 days 0 hours 1 minutes 20 seconds 314 msec
