                         Program Version 6.0.0  -   RELEASE  -
|  1> ! r2scan-3c def2/J RI DEFGRID2 scfconv6 printgap
|  2> %output
|  3>     printlevel normal
|  4> end
|  5> * xyz 0 1
|  6> C -3.5270182955 0.0006799128 -0.0012627692
|  7> C -2.8420613491 0.9143258547 0.7816160013
|  8> C -1.4580341452 0.9060124164 0.7747267718
|  9> C -0.7397920754 0.000802489 -0.000726113
| 10> C -1.4576840095 -0.9042895955 -0.7766668217
| 11> C -2.8416925632 -0.9127354517 -0.7840836575
| 12> Cl -0.5806938146 -2.035524013 -1.7563811369
| 13> C 0.7398043491 -0.0001674962 0.0003448227
| 14> C 1.4594661831 0.9042313106 -0.774691555
| 15> C 2.8435030435 0.9111232002 -0.7806702195
| 16> C 3.5270219741 -0.0031319679 0.0027512696
| 17> C 2.8402289804 -0.9159126244 0.7850419114
| 18> C 1.45626225 -0.9060540251 0.7766932695
| 19> Cl 0.577480064 -2.0365266575 1.7557221459
| 20> Cl 0.5847195591 2.0365841607 -1.7551942134
| 21> Cl -0.5815076336 2.0374368727 1.7546659197
| 22> H -4.6045014391 0.0004178823 -0.0012294183
| 23> H -3.3693206364 1.6270699935 1.3934601628
| 24> H -3.3686351312 -1.6255847893 -1.3960603361
| 25> H 3.371894506 1.6233860835 -1.3920968089
| 26> H 4.6045449438 -0.0043331533 0.0036379363
| 27> H 3.366030207 -1.629297391 1.3974319088
| 28> *
| 29>
| 30>                          ****END OF INPUT****

CARTESIAN COORDINATES (ANGSTROEM)
---------------------------------
  C     -3.527018    0.000680   -0.001263
  C     -2.842061    0.914326    0.781616
  C     -1.458034    0.906012    0.774727
  C     -0.739792    0.000802   -0.000726
  C     -1.457684   -0.904290   -0.776667
  C     -2.841693   -0.912735   -0.784084
  Cl    -0.580694   -2.035524   -1.756381
  C      0.739804   -0.000167    0.000345
  C      1.459466    0.904231   -0.774692
  C      2.843503    0.911123   -0.780670
  C      3.527022   -0.003132    0.002751
  C      2.840229   -0.915913    0.785042
  C      1.456262   -0.906054    0.776693
  Cl     0.577480   -2.036527    1.755722
  Cl     0.584720    2.036584   -1.755194
  Cl    -0.581508    2.037437    1.754666
  H     -4.604501    0.000418   -0.001229
  H     -3.369321    1.627070    1.393460
  H     -3.368635   -1.625585   -1.396060
  H      3.371895    1.623386   -1.392097
  H      4.604545   -0.004333    0.003638
  H      3.366030   -1.629297    1.397432

 Total Charge           Charge          ....    0
 Multiplicity           Mult            ....    1
 Number of Electrons    NEL             ....  146
 Basis Dimension        Dim             ....  366

ORBITAL ENERGIES
----------------

  NO   OCC          E(Eh)            E(eV)
   0   2.0000    -101.227770     -2754.5477
   1   2.0000    -101.227770     -2754.5477
   2   2.0000    -101.227769     -2754.5476
   3   2.0000    -101.227768     -2754.5476
   4   2.0000     -10.115904      -275.2678
   5   2.0000     -10.115901      -275.2677
   6   2.0000     -10.115897      -275.2675
   7   2.0000     -10.115894      -275.2675
   8   2.0000     -10.078079      -274.2385
   9   2.0000     -10.077873      -274.2329
  10   2.0000     -10.061772      -273.7947
  11   2.0000     -10.061765      -273.7945
  12   2.0000     -10.058490      -273.7054
  13   2.0000     -10.058488      -273.7054
  14   2.0000     -10.058453      -273.7044
  15   2.0000     -10.058450      -273.7043
  16   2.0000      -9.383541      -255.3391
  17   2.0000      -9.383541      -255.3391
  18   2.0000      -9.383540      -255.3391
  19   2.0000      -9.383538      -255.3391
  20   2.0000      -7.129858      -194.0133
  21   2.0000      -7.129858      -194.0133
  22   2.0000      -7.129857      -194.0133
  23   2.0000      -7.129856      -194.0132
  24   2.0000      -7.119846      -193.7409
  25   2.0000      -7.119845      -193.7408
  26   2.0000      -7.119845      -193.7408
  27   2.0000      -7.119843      -193.7408
  28   2.0000      -7.119217      -193.7237
  29   2.0000      -7.119217      -193.7237
  30   2.0000      -7.119216      -193.7237
  31   2.0000      -7.119214      -193.7237
  32   2.0000      -0.902449       -24.5569
  33   2.0000      -0.875623       -23.8269
  34   2.0000      -0.850388       -23.1402
  35   2.0000      -0.847152       -23.0522
  36   2.0000      -0.802195       -21.8288
  37   2.0000      -0.801075       -21.7984
  38   2.0000      -0.764742       -20.8097
  39   2.0000      -0.711376       -19.3575
  40   2.0000      -0.711306       -19.3556
  41   2.0000      -0.709689       -19.3116
  42   2.0000      -0.621031       -16.8991
  43   2.0000      -0.587298       -15.9812
  44   2.0000      -0.582908       -15.8617
  45   2.0000      -0.576739       -15.6939
  46   2.0000      -0.516630       -14.0582
  47   2.0000      -0.488180       -13.2840
  48   2.0000      -0.477122       -12.9831
  49   2.0000      -0.472339       -12.8530
  50   2.0000      -0.454270       -12.3613
  51   2.0000      -0.438961       -11.9447
  52   2.0000      -0.420412       -11.4400
  53   2.0000      -0.420333       -11.4379
  54   2.0000      -0.418661       -11.3923
  55   2.0000      -0.395604       -10.7649
  56   2.0000      -0.394358       -10.7310
  57   2.0000      -0.374811       -10.1991
  58   2.0000      -0.357181        -9.7194
  59   2.0000      -0.356938        -9.7128
  60   2.0000      -0.355509        -9.6739
  61   2.0000      -0.348688        -9.4883
  62   2.0000      -0.335987        -9.1427
  63   2.0000      -0.308335        -8.3902
  64   2.0000      -0.303652        -8.2628
  65   2.0000      -0.298059        -8.1106
  66   2.0000      -0.296337        -8.0637
  67   2.0000      -0.291291        -7.9264
  68   2.0000      -0.290141        -7.8951
  69   2.0000      -0.249500        -6.7892
  70   2.0000      -0.242859        -6.6085
  71   2.0000      -0.236482        -6.4350
  72   2.0000      -0.235632        -6.4119
  73   0.0000      -0.063671        -1.7326
  74   0.0000      -0.058173        -1.5830
  75   0.0000      -0.052307        -1.4233
  76   0.0000      -0.051532        -1.4022
  77   0.0000      -0.024720        -0.6727

MULLIKEN ATOMIC CHARGES
-----------------------
   0 C :   -0.088652
   1 C :   -0.234003
   2 C :    0.150189
   3 C :    0.005019
   4 C :    0.150245
   5 C :   -0.233964
   6 Cl:   -0.114029
   7 C :    0.004978
   8 C :    0.150289
   9 C :   -0.233998
  10 C :   -0.088639
  11 C :   -0.234013
  12 C :    0.150186
  13 Cl:   -0.114051
  14 Cl:   -0.114053
  15 Cl:   -0.114048
  16 H :    0.153459
  17 H :    0.162905
  18 H :    0.162901
  19 H :    0.162905
  20 H :    0.153468
  21 H :    0.162906
Sum of atomic charges:   -0.0000000

LOEWDIN ATOMIC CHARGES
----------------------
   0 C :   -0.139654
   1 C :   -0.168751
   2 C :   -0.139326
   3 C :   -0.117755
   4 C :   -0.139351
   5 C :   -0.168754
   6 Cl:    0.169049
   7 C :   -0.117755
   8 C :   -0.139333
   9 C :   -0.168751
  10 C :   -0.139656
  11 C :   -0.168756
  12 C :   -0.139329
  13 Cl:    0.169050
  14 Cl:    0.168981
  15 Cl:    0.169011
  16 H :    0.174424
  17 H :    0.180556
  18 H :    0.180554
  19 H :    0.180556
  20 H :    0.174432
  21 H :    0.180561

  Mayer bond orders larger than 0.100000
B(  0-C ,  1-C ) :   1.3791 B(  0-C ,  5-C ) :   1.3791 B(  0-C , 16-H ) :   0.9510
B(  1-C ,  2-C ) :   1.3500 B(  1-C , 17-H ) :   0.9345 B(  2-C ,  3-C ) :   1.3662
B(  2-C ,  7-C ) :  -0.1149 B(  2-C , 15-Cl) :   1.0113 B(  3-C ,  4-C ) :   1.3662
B(  3-C ,  7-C ) :   0.7402 B(  3-C ,  8-C ) :  -0.1148 B(  3-C , 12-C ) :  -0.1150
B(  4-C ,  5-C ) :   1.3501 B(  4-C ,  6-Cl) :   1.0113 B(  4-C ,  7-C ) :  -0.1149
B(  5-C , 18-H ) :   0.9345 B(  7-C ,  8-C ) :   1.3661 B(  7-C , 12-C ) :   1.3663
B(  8-C ,  9-C ) :   1.3499 B(  8-C , 14-Cl) :   1.0113 B(  9-C , 10-C ) :   1.3791
B(  9-C , 19-H ) :   0.9345 B( 10-C , 11-C ) :   1.3791 B( 10-C , 20-H ) :   0.9510
B( 11-C , 12-C ) :   1.3501 B( 11-C , 21-H ) :   0.9345 B( 12-C , 13-Cl) :   1.0112

Dispersion correction           -0.013883551
FINAL SINGLE POINT ENERGY     -2301.495389707130

DIPOLE MOMENT
-------------

Method             : SCF
Type of density    : Electron Density
Multiplicity       :   1
Irrep              :   0
Energy             : -2301.4907903905195781 Eh
Relativity type    :
Basis              : AO
                                X                 Y                 Z
Electronic contribution:      0.000014152       0.009376822      -0.005748066
Nuclear contribution   :      0.000014130      -0.010470316       0.006419040
                        -----------------------------------------
Total Dipole Moment    :      0.000028282      -0.001093494       0.000670974
                        -----------------------------------------
Magnitude (a.u.)       :      0.001283252
Magnitude (Debye)      :      0.003261766

Rotational constants in cm-1:             0.014268             0.011693             0.010427
Rotational constants in MHz :           427.744643           350.538806           312.586011

                             ****ORCA TERMINATED NORMALLY****
TOTAL RUN TIME: 0 days 0 hours 1 minutes 8 seconds 96 msec
