                         Program Version 6.0.0  -   RELEASE  -
|  1> ! r2scan-3c def2/J RI DEFGRID2 scfconv6 printgap
|  2> %output
|  3>     printlevel normal
|  4> end
|  5> %cpcm
|  6>     smd true
|  7>     smdsolvent "water"
|  8> end
|  9> * xyz 0 1
| 10> C -3.5270182955 0.0006799128 -0.0012627692
| 11> C -2.8420613491 0.9143258547 0.7816160013
| 12> C -1.4580341452 0.9060124164 0.7747267718
| 13> C -0.7397920754 0.000802489 -0.000726113
| 14> C -1.4576840095 -0.9042895955 -0.7766668217
| 15> C -2.8416925632 -0.9127354517 -0.7840836575
| 16> Cl -0.5806938146 -2.035524013 -1.7563811369
| 17> C 0.7398043491 -0.0001674962 0.0003448227
| 18> C 1.4594661831 0.9042313106 -0.774691555
| 19> C 2.8435030435 0.9111232002 -0.7806702195
| 20> C 3.5270219741 -0.0031319679 0.0027512696
| 21> C 2.8402289804 -0.9159126244 0.7850419114
| 22> C 1.45626225 -0.9060540251 0.7766932695
| 23> Cl 0.577480064 -2.0365266575 1.7557221459
| 24> Cl 0.5847195591 2.0365841607 -1.7551942134
| 25> Cl -0.5815076336 2.0374368727 1.7546659197
| 26> H -4.6045014391 0.0004178823 -0.0012294183
| 27> H -3.3693206364 1.6270699935 1.3934601628
| 28> H -3.3686351312 -1.6255847893 -1.3960603361
| 29> H 3.371894506 1.6233860835 -1.3920968089
| 30> H 4.6045449438 -0.0043331533 0.0036379363
| 31> H 3.366030207 -1.629297391 1.3974319088
| 32> *
| 33>
| 34>                          ****END OF INPUT****

CARTESIAN COORDINATES (ANGSTROEM)
---------------------------------
  C     -3.527018    0.000680   -0.001263
  C     -2.842061    0.914326    0.781616
  C     -1.458034    0.906012    0.774727
  C     -0.739792    0.000802   -0.000726
  C     -1.457684   -0.904290   -0.776667
  C     -2.841693   -0.912735   -0.784084
  Cl    -0.580694   -2.035524   -1.756381
  C      0.739804   -0.000167    0.000345
  C      1.459466    0.904231   -0.774692
  C      2.843503    0.911123   -0.780670
  C      3.527022   -0.003132    0.002751
  C      2.840229   -0.915913    0.785042
  C      1.456262   -0.906054    0.776693
  Cl     0.577480   -2.036527    1.755722
  Cl     0.584720    2.036584   -1.755194
  Cl    -0.581508    2.037437    1.754666
  H     -4.604501    0.000418   -0.001229
  H     -3.369321    1.627070    1.393460
  H     -3.368635   -1.625585   -1.396060
  H      3.371895    1.623386   -1.392097
  H      4.604545   -0.004333    0.003638
  H      3.366030   -1.629297    1.397432

 Total Charge           Charge          ....    0
 Multiplicity           Mult            ....    1
 Number of Electrons    NEL             ....  146
 Basis Dimension        Dim             ....  366

ORBITAL ENERGIES
----------------

  NO   OCC          E(Eh)            E(eV)
   0   2.0000    -101.231243     -2754.6422
   1   2.0000    -101.231242     -2754.6421
   2   2.0000    -101.231240     -2754.6421
   3   2.0000    -101.231238     -2754.6420
   4   2.0000     -10.114703      -275.2351
   5   2.0000     -10.114700      -275.2350
   6   2.0000     -10.114695      -275.2348
   7   2.0000     -10.114692      -275.2348
   8   2.0000     -10.077858      -274.2325
   9   2.0000     -10.077653      -274.2269
  10   2.0000     -10.054208      -273.5889
  11   2.0000     -10.054203      -273.5888
  12   2.0000     -10.053178      -273.5609
  13   2.0000     -10.053176      -273.5608
  14   2.0000     -10.053068      -273.5579
  15   2.0000     -10.053066      -273.5578
  16   2.0000      -9.387144      -255.4372
  17   2.0000      -9.387144      -255.4372
  18   2.0000      -9.387143      -255.4371
  19   2.0000      -9.387141      -255.4371
  20   2.0000      -7.133342      -194.1081
  21   2.0000      -7.133342      -194.1081
  22   2.0000      -7.133341      -194.1081
  23   2.0000      -7.133339      -194.1080
  24   2.0000      -7.123509      -193.8405
  25   2.0000      -7.123509      -193.8405
  26   2.0000      -7.123509      -193.8405
  27   2.0000      -7.123507      -193.8405
  28   2.0000      -7.122851      -193.8226
  29   2.0000      -7.122851      -193.8226
  30   2.0000      -7.122850      -193.8226
  31   2.0000      -7.122848      -193.8225
  32   2.0000      -0.902819       -24.5669
  33   2.0000      -0.875393       -23.8206
  34   2.0000      -0.852803       -23.2059
  35   2.0000      -0.849547       -23.1174
  36   2.0000      -0.800986       -21.7959
  37   2.0000      -0.800804       -21.7910
  38   2.0000      -0.764139       -20.7933
  39   2.0000      -0.708994       -19.2927
  40   2.0000      -0.708891       -19.2899
  41   2.0000      -0.706899       -19.2357
  42   2.0000      -0.616395       -16.7730
  43   2.0000      -0.585559       -15.9339
  44   2.0000      -0.580937       -15.8081
  45   2.0000      -0.572208       -15.5706
  46   2.0000      -0.512191       -13.9374
  47   2.0000      -0.483295       -13.1511
  48   2.0000      -0.474159       -12.9025
  49   2.0000      -0.469629       -12.7792
  50   2.0000      -0.451061       -12.2740
  51   2.0000      -0.434970       -11.8361
  52   2.0000      -0.419013       -11.4019
  53   2.0000      -0.418915       -11.3993
  54   2.0000      -0.412686       -11.2298
  55   2.0000      -0.395537       -10.7631
  56   2.0000      -0.394551       -10.7363
  57   2.0000      -0.366675        -9.9777
  58   2.0000      -0.360482        -9.8092
  59   2.0000      -0.352009        -9.5787
  60   2.0000      -0.350406        -9.5350
  61   2.0000      -0.344676        -9.3791
  62   2.0000      -0.339227        -9.2308
  63   2.0000      -0.309536        -8.4229
  64   2.0000      -0.304525        -8.2865
  65   2.0000      -0.301250        -8.1974
  66   2.0000      -0.298705        -8.1282
  67   2.0000      -0.295001        -8.0274
  68   2.0000      -0.293927        -7.9982
  69   2.0000      -0.249747        -6.7960
  70   2.0000      -0.242664        -6.6032
  71   2.0000      -0.236989        -6.4488
  72   2.0000      -0.235788        -6.4161
  73   0.0000      -0.061770        -1.6808
  74   0.0000      -0.056765        -1.5447
  75   0.0000      -0.050124        -1.3639
  76   0.0000      -0.049911        -1.3582
  77   0.0000      -0.025542        -0.6950

MULLIKEN ATOMIC CHARGES
-----------------------
   0 C :   -0.130071
   1 C :   -0.237982
   2 C :    0.125194
   3 C :    0.023760
   4 C :    0.125270
   5 C :   -0.237944
   6 Cl:   -0.129555
   7 C :    0.023737
   8 C :    0.125321
   9 C :   -0.237980
  10 C :   -0.130058
  11 C :   -0.237996
  12 C :    0.125215
  13 Cl:   -0.129574
  14 Cl:   -0.129589
  15 Cl:   -0.129577
  16 H :    0.194934
  17 H :    0.197989
  18 H :    0.197986
  19 H :    0.197982
  20 H :    0.194942
  21 H :    0.197995
Sum of atomic charges:   -0.0000000

LOEWDIN ATOMIC CHARGES
----------------------
   0 C :   -0.133741
   1 C :   -0.165037
   2 C :   -0.149632
   3 C :   -0.123466
   4 C :   -0.149653
   5 C :   -0.165039
   6 Cl:    0.155445
   7 C :   -0.123465
   8 C :   -0.149638
   9 C :   -0.165038
  10 C :   -0.133744
  11 C :   -0.165040
  12 C :   -0.149632
  13 Cl:    0.155450
  14 Cl:    0.155370
  15 Cl:    0.155404
  16 H :    0.189698
  17 H :    0.193012
  18 H :    0.193010
  19 H :    0.193011
  20 H :    0.189708
  21 H :    0.193019

  Mayer bond orders larger than 0.100000
B(  0-C ,  1-C ) :   1.3714 B(  0-C ,  5-C ) :   1.3713 B(  0-C , 16-H ) :   0.9532
B(  1-C ,  2-C ) :   1.3175 B(  1-C , 17-H ) :   0.9373 B(  2-C ,  3-C ) :   1.3464
B(  2-C ,  7-C ) :  -0.1191 B(  2-C , 15-Cl) :   1.0095 B(  3-C ,  4-C ) :   1.3464
B(  3-C ,  7-C ) :   0.7427 B(  3-C ,  8-C ) :  -0.1190 B(  3-C , 12-C ) :  -0.1192
B(  4-C ,  5-C ) :   1.3176 B(  4-C ,  6-Cl) :   1.0095 B(  4-C ,  7-C ) :  -0.1192
B(  5-C , 18-H ) :   0.9373 B(  7-C ,  8-C ) :   1.3463 B(  7-C , 12-C ) :   1.3464
B(  8-C ,  9-C ) :   1.3175 B(  8-C , 14-Cl) :   1.0096 B(  9-C , 10-C ) :   1.3713
B(  9-C , 19-H ) :   0.9373 B( 10-C , 11-C ) :   1.3713 B( 10-C , 20-H ) :   0.9532
B( 11-C , 12-C ) :   1.3177 B( 11-C , 21-H ) :   0.9373 B( 12-C , 13-Cl) :   1.0095

Dispersion correction           -0.013883551
FINAL SINGLE POINT ENERGY     -2301.499014427874

DIPOLE MOMENT
-------------

Method             : SCF
Type of density    : Electron Density
Multiplicity       :   1
Irrep              :   0
Energy             : -2301.4944151112645159 Eh
Relativity type    :
Basis              : AO
                                X                 Y                 Z
Electronic contribution:      0.000034354       0.008812756      -0.005405231
Nuclear contribution   :      0.000014130      -0.010470316       0.006419040
                        -----------------------------------------
Total Dipole Moment    :      0.000048484      -0.001657560       0.001013809
                        -----------------------------------------
Magnitude (a.u.)       :      0.001943622
Magnitude (Debye)      :      0.004940293

Rotational constants in cm-1:             0.014268             0.011693             0.010427
Rotational constants in MHz :           427.744643           350.538806           312.586011

                             ****ORCA TERMINATED NORMALLY****
TOTAL RUN TIME: 0 days 0 hours 1 minutes 24 seconds 928 msec
