                         Program Version 6.0.0  -   RELEASE  -
|  1> ! pbe def2-sv(p) def2/J RI DEFGRID1 loosescf d4 GCP(DFT/SV(P)) printgap
|  2> %output
|  3>     printlevel normal
|  4> end
|  5> * xyz 0 1
|  6> C -1.887996747 -0.0126086231 0.3151802494
|  7> C -1.181808946 -1.2601394644 -0.207775737
|  8> C 0.2909825903 -1.2464317296 0.1869076321
|  9> C 0.9825491598 0.0106887742 -0.3390530701
| 10> C 0.2713672517 1.2595351015 0.1882434987
| 11> C -1.2016385463 1.2446851106 -0.2102067288
| 12> O 2.339350446 -0.043086094 0.0710899832
| 13> H -1.8588853847 -0.0116907123 1.4066972532
| 14> H -2.9343784977 -0.0208296163 0.0055878123
| 15> H -1.6576072158 -2.1561144552 0.1933685026
| 16> H -1.2633406059 -1.2941551849 -1.2965578123
| 17> H 0.3922820107 -1.2608915716 1.2737853225
| 18> H 0.8065787082 -2.1238860948 -0.2066519376
| 19> H 0.936585374 0.007681192 -1.4414845314
| 20> H 0.3630802372 1.2759302847 1.2765197407
| 21> H 0.7551433719 2.1559674999 -0.2070192231
| 22> H -1.6961196029 2.1336911995 0.1846388575
| 23> H -1.2800089272 1.2712930411 -1.2995490595
| 24> H 2.7936814683 0.7578477565 -0.2229131196
| 25> *
| 26>
| 27>                          ****END OF INPUT****

CARTESIAN COORDINATES (ANGSTROEM)
---------------------------------
  C     -1.887997   -0.012609    0.315180
  C     -1.181809   -1.260139   -0.207776
  C      0.290983   -1.246432    0.186908
  C      0.982549    0.010689   -0.339053
  C      0.271367    1.259535    0.188243
  C     -1.201639    1.244685   -0.210207
  O      2.339350   -0.043086    0.071090
  H     -1.858885   -0.011691    1.406697
  H     -2.934378   -0.020830    0.005588
  H     -1.657607   -2.156114    0.193369
  H     -1.263341   -1.294155   -1.296558
  H      0.392282   -1.260892    1.273785
  H      0.806579   -2.123886   -0.206652
  H      0.936585    0.007681   -1.441485
  H      0.363080    1.275930    1.276520
  H      0.755143    2.155967   -0.207019
  H     -1.696120    2.133691    0.184639
  H     -1.280009    1.271293   -1.299549
  H      2.793681    0.757848   -0.222913

 Total Charge           Charge          ....    0
 Multiplicity           Mult            ....    1
 Number of Electrons    NEL             ....   56
 Basis Dimension        Dim             ....  122

ORBITAL ENERGIES
----------------

  NO   OCC          E(Eh)            E(eV)
   0   2.0000     -18.736405      -509.8435
   1   2.0000      -9.931548      -270.2512
   2   2.0000      -9.884428      -268.9690
   3   2.0000      -9.882146      -268.9069
   4   2.0000      -9.881563      -268.8910
   5   2.0000      -9.881065      -268.8774
   6   2.0000      -9.876099      -268.7423
   7   2.0000      -0.912797       -24.8385
   8   2.0000      -0.748741       -20.3743
   9   2.0000      -0.667062       -18.1517
  10   2.0000      -0.653748       -17.7894
  11   2.0000      -0.547789       -14.9061
  12   2.0000      -0.534595       -14.5471
  13   2.0000      -0.497150       -13.5281
  14   2.0000      -0.455659       -12.3991
  15   2.0000      -0.424859       -11.5610
  16   2.0000      -0.398272       -10.8375
  17   2.0000      -0.393519       -10.7082
  18   2.0000      -0.366390        -9.9700
  19   2.0000      -0.343953        -9.3594
  20   2.0000      -0.335569        -9.1313
  21   2.0000      -0.320707        -8.7269
  22   2.0000      -0.302530        -8.2323
  23   2.0000      -0.289277        -7.8716
  24   2.0000      -0.281378        -7.6567
  25   2.0000      -0.274600        -7.4723
  26   2.0000      -0.251720        -6.8497
  27   2.0000      -0.208351        -5.6695
  28   0.0000       0.030119         0.8196
  29   0.0000       0.039557         1.0764
  30   0.0000       0.053009         1.4425
  31   0.0000       0.073915         2.0113
  32   0.0000       0.092252         2.5103

MULLIKEN ATOMIC CHARGES
-----------------------
   0 C :   -0.153689
   1 C :   -0.159358
   2 C :   -0.122490
   3 C :    0.013884
   4 C :   -0.145407
   5 C :   -0.159069
   6 O :   -0.417209
   7 H :    0.076663
   8 H :    0.084984
   9 H :    0.088198
  10 H :    0.075675
  11 H :    0.077349
  12 H :    0.089684
  13 H :    0.048593
  14 H :    0.077337
  15 H :    0.070605
  16 H :    0.086920
  17 H :    0.074980
  18 H :    0.292349
Sum of atomic charges:   -0.0000000

LOEWDIN ATOMIC CHARGES
----------------------
   0 C :   -0.227424
   1 C :   -0.226035
   2 C :   -0.226220
   3 C :   -0.055199
   4 C :   -0.240947
   5 C :   -0.226767
   6 O :   -0.333300
   7 H :    0.115337
   8 H :    0.116797
   9 H :    0.118387
  10 H :    0.114151
  11 H :    0.118769
  12 H :    0.120562
  13 H :    0.092905
  14 H :    0.117741
  15 H :    0.109467
  16 H :    0.117458
  17 H :    0.114089
  18 H :    0.280231

  Mayer bond orders larger than 0.100000
B(  0-C ,  1-C ) :   1.1301 B(  0-C ,  5-C ) :   1.1358 B(  0-C ,  7-H ) :   0.9163
B(  0-C ,  8-H ) :   0.9183 B(  1-C ,  2-C ) :   1.1186 B(  1-C ,  9-H ) :   0.9190
B(  1-C , 10-H ) :   0.9144 B(  2-C ,  3-C ) :   1.0914 B(  2-C , 11-H ) :   0.9051
B(  2-C , 12-H ) :   0.9125 B(  3-C ,  4-C ) :   1.0791 B(  3-C ,  6-O ) :   1.0756
B(  3-C , 13-H ) :   0.9013 B(  4-C ,  5-C ) :   1.1119 B(  4-C , 14-H ) :   0.9022
B(  4-C , 15-H ) :   0.9121 B(  5-C , 16-H ) :   0.9168 B(  5-C , 17-H ) :   0.9138
B(  6-O , 18-H ) :   0.8524

Dispersion correction           -0.016195755
FINAL SINGLE POINT ENERGY      -310.347012137943

DIPOLE MOMENT
-------------

Method             : SCF
Type of density    : Electron Density
Multiplicity       :   1
Irrep              :   0
Energy             :  -310.4200214222589693 Eh
Relativity type    :
Basis              : AO
                                X                 Y                 Z
Electronic contribution:      4.092421179      -0.232551324       0.040409893
Nuclear contribution   :     -4.321187919       0.688765267      -0.311896870
                        -----------------------------------------
Total Dipole Moment    :     -0.228766740       0.456213942      -0.271486977
                        -----------------------------------------
Magnitude (a.u.)       :      0.578074875
Magnitude (Debye)      :      1.469349561

Rotational constants in cm-1:             0.144624             0.074966             0.054299
Rotational constants in MHz :          4335.711326          2247.425394          1627.853862

                             ****ORCA TERMINATED NORMALLY****
TOTAL RUN TIME: 0 days 0 hours 0 minutes 31 seconds 969 msec
