                         Program Version 6.0.0  -   RELEASE  -
|  1> ! pbe def2-sv(p) def2/J RI DEFGRID1 loosescf d4 GCP(DFT/SV(P)) printgap
|  2> %output
|  3>     printlevel normal
|  4> end
|  5> * xyz 0 1
|  6> C -2.553029599 -0.7018711257 -0.3180088123
|  7> C -1.1686846743 -0.3161033269 0.2189996619
|  8> H -1.2066149064 -0.2640706385 1.320448882
|  9> C -0.7099975031 1.0387439969 -0.3401823274
| 10> H -0.6986737543 0.9873040884 -1.4343234103
| 11> C 0.7108763583 1.3357286523 0.1583914445
| 12> H 0.6882605956 1.4640691471 1.2553112013
| 13> C 1.6599522974 0.1731976923 -0.1592163087
| 14> H 1.8143457778 0.1204027137 -1.2461022011
| 15> C 1.0560834215 -1.1638936746 0.2949231275
| 16> H 1.0638535948 -1.1805178419 1.4049816012
| 17> O -0.2658510257 -1.3373829452 -0.1675652023
| 18> O 1.8209899242 -2.1791298039 -0.2329572381
| 19> O 2.8808556815 0.3262396299 0.5141901382
| 20> O 1.238732522 2.4941534381 -0.441789935
| 21> O -1.5839912182 2.0887573351 -0.0181641474
| 22> O -3.1445430704 -1.7429248105 0.4122411171
| 23> H -2.4481416587 -0.9686428821 -1.3756495384
| 24> H -3.2204509896 0.1568553624 -0.2281316668
| 25> H 1.4345802154 -3.0403881113 -0.0078061832
| 26> H 3.2888579937 1.1550441079 0.2193352494
| 27> H 0.5443987706 3.1705164237 -0.4767022141
| 28> H -1.6974952992 2.1423282468 0.9430229225
| 29> H -2.6087265819 -2.5416565109 0.3077053005
| 30> *
| 31>
| 32>                          ****END OF INPUT****

CARTESIAN COORDINATES (ANGSTROEM)
---------------------------------
  C     -2.553030   -0.701871   -0.318009
  C     -1.168685   -0.316103    0.219000
  H     -1.206615   -0.264071    1.320449
  C     -0.709998    1.038744   -0.340182
  H     -0.698674    0.987304   -1.434323
  C      0.710876    1.335729    0.158391
  H      0.688261    1.464069    1.255311
  C      1.659952    0.173198   -0.159216
  H      1.814346    0.120403   -1.246102
  C      1.056083   -1.163894    0.294923
  H      1.063854   -1.180518    1.404982
  O     -0.265851   -1.337383   -0.167565
  O      1.820990   -2.179130   -0.232957
  O      2.880856    0.326240    0.514190
  O      1.238733    2.494153   -0.441790
  O     -1.583991    2.088757   -0.018164
  O     -3.144543   -1.742925    0.412241
  H     -2.448142   -0.968643   -1.375650
  H     -3.220451    0.156855   -0.228132
  H      1.434580   -3.040388   -0.007806
  H      3.288858    1.155044    0.219335
  H      0.544399    3.170516   -0.476702
  H     -1.697495    2.142328    0.943023
  H     -2.608727   -2.541657    0.307705

 Total Charge           Charge          ....    0
 Multiplicity           Mult            ....    1
 Number of Electrons    NEL             ....   96
 Basis Dimension        Dim             ....  192

ORBITAL ENERGIES
----------------

  NO   OCC          E(Eh)            E(eV)
   0   2.0000     -18.779560      -511.0178
   1   2.0000     -18.775376      -510.9040
   2   2.0000     -18.761371      -510.5228
   3   2.0000     -18.757507      -510.4177
   4   2.0000     -18.749391      -510.1969
   5   2.0000     -18.747625      -510.1488
   6   2.0000      -9.990142      -271.8456
   7   2.0000      -9.951320      -270.7892
   8   2.0000      -9.950152      -270.7574
   9   2.0000      -9.945708      -270.6365
  10   2.0000      -9.941212      -270.5141
  11   2.0000      -9.934868      -270.3415
  12   2.0000      -0.988239       -26.8914
  13   2.0000      -0.958415       -26.0798
  14   2.0000      -0.938135       -25.5280
  15   2.0000      -0.929313       -25.2879
  16   2.0000      -0.918941       -25.0056
  17   2.0000      -0.913990       -24.8709
  18   2.0000      -0.709267       -19.3001
  19   2.0000      -0.694906       -18.9094
  20   2.0000      -0.623069       -16.9546
  21   2.0000      -0.589452       -16.0398
  22   2.0000      -0.565394       -15.3852
  23   2.0000      -0.537997       -14.6397
  24   2.0000      -0.499687       -13.5972
  25   2.0000      -0.494739       -13.4625
  26   2.0000      -0.484524       -13.1846
  27   2.0000      -0.467176       -12.7125
  28   2.0000      -0.455359       -12.3909
  29   2.0000      -0.436336       -11.8733
  30   2.0000      -0.422932       -11.5086
  31   2.0000      -0.400730       -10.9044
  32   2.0000      -0.388833       -10.5807
  33   2.0000      -0.377330       -10.2677
  34   2.0000      -0.369902       -10.0655
  35   2.0000      -0.357601        -9.7308
  36   2.0000      -0.323181        -8.7942
  37   2.0000      -0.316023        -8.5994
  38   2.0000      -0.303928        -8.2703
  39   2.0000      -0.299385        -8.1467
  40   2.0000      -0.289706        -7.8833
  41   2.0000      -0.281446        -7.6585
  42   2.0000      -0.259296        -7.0558
  43   2.0000      -0.247658        -6.7391
  44   2.0000      -0.236144        -6.4258
  45   2.0000      -0.225362        -6.1324
  46   2.0000      -0.214814        -5.8454
  47   2.0000      -0.209565        -5.7025
  48   0.0000       0.005517         0.1501
  49   0.0000       0.023621         0.6428
  50   0.0000       0.028186         0.7670
  51   0.0000       0.040621         1.1054
  52   0.0000       0.054857         1.4927

MULLIKEN ATOMIC CHARGES
-----------------------
   0 C :    0.103686
   1 C :   -0.031819
   2 H :    0.041736
   3 C :    0.035694
   4 H :    0.072051
   5 C :    0.070995
   6 H :    0.035240
   7 C :    0.050611
   8 H :    0.065582
   9 C :    0.197381
  10 H :    0.040768
  11 O :   -0.320354
  12 O :   -0.366089
  13 O :   -0.412315
  14 O :   -0.422086
  15 O :   -0.413485
  16 O :   -0.431298
  17 H :    0.076888
  18 H :    0.085785
  19 H :    0.304407
  20 H :    0.310221
  21 H :    0.305317
  22 H :    0.303748
  23 H :    0.297336
Sum of atomic charges:    0.0000000

LOEWDIN ATOMIC CHARGES
----------------------
   0 C :   -0.126262
   1 C :   -0.082156
   2 H :    0.097439
   3 C :   -0.084899
   4 H :    0.121885
   5 C :   -0.085476
   6 H :    0.095039
   7 C :   -0.075532
   8 H :    0.113180
   9 C :    0.008447
  10 H :    0.082549
  11 O :   -0.160190
  12 O :   -0.283991
  13 O :   -0.313458
  14 O :   -0.327217
  15 O :   -0.304242
  16 O :   -0.334494
  17 H :    0.105494
  18 H :    0.117427
  19 H :    0.289186
  20 H :    0.291421
  21 H :    0.284900
  22 H :    0.287825
  23 H :    0.283126

  Mayer bond orders larger than 0.100000
B(  0-C ,  1-C ) :   1.0396 B(  0-C , 16-O ) :   1.0832 B(  0-C , 17-H ) :   0.9084
B(  0-C , 18-H ) :   0.9110 B(  1-C ,  2-H ) :   0.8687 B(  1-C ,  3-C ) :   0.9834
B(  1-C , 11-O ) :   0.9846 B(  3-C ,  4-H ) :   0.8626 B(  3-C ,  5-C ) :   1.0054
B(  3-C , 15-O ) :   1.0076 B(  5-C ,  6-H ) :   0.8644 B(  5-C ,  7-C ) :   1.0119
B(  5-C , 14-O ) :   1.0904 B(  7-C ,  8-H ) :   0.8672 B(  7-C ,  9-C ) :   0.9943
B(  7-C , 13-O ) :   1.0791 B(  9-C , 10-H ) :   0.8859 B(  9-C , 11-O ) :   1.0001
B(  9-C , 12-O ) :   1.2020 B( 12-O , 19-H ) :   0.8412 B( 13-O , 20-H ) :   0.8409
B( 14-O , 21-H ) :   0.8308 B( 15-O , 22-H ) :   0.8431 B( 16-O , 23-H ) :   0.8506

Dispersion correction           -0.023548293
FINAL SINGLE POINT ENERGY      -685.698809017131

DIPOLE MOMENT
-------------

Method             : SCF
Type of density    : Electron Density
Multiplicity       :   1
Irrep              :   0
Energy             :  -685.8280946320920748 Eh
Relativity type    :
Basis              : AO
                                X                 Y                 Z
Electronic contribution:      2.551647942      -0.939021324      -0.277938724
Nuclear contribution   :     -2.843467036       1.121781998       0.640893488
                        -----------------------------------------
Total Dipole Moment    :     -0.291819095       0.182760674       0.362954764
                        -----------------------------------------
Magnitude (a.u.)       :      0.500295921
Magnitude (Debye)      :      1.271651172

Rotational constants in cm-1:             0.039335             0.025670             0.016358
Rotational constants in MHz :          1179.237443           769.556010           490.390283

                             ****ORCA TERMINATED NORMALLY****
TOTAL RUN TIME: 0 days 0 hours 0 minutes 12 seconds 27 msec
