                         Program Version 6.0.0  -   RELEASE  -
|  1> ! r2scan-3c def2/J RI DEFGRID2 scfconv6 printgap
|  2> %output
|  3>     printlevel normal
|  4> end
|  5> * xyz 0 1
|  6> C -2.7523203895 -0.8430577239 0.1432340891
|  7> C -1.9623634222 0.4315394356 -0.119836246
|  8> C -0.4787541649 0.2306312736 -0.0577072573
|  9> C 0.4031209206 1.2862165951 -0.3174179834
| 10> N 1.7151009551 1.1418211819 -0.2658352428
| 11> C 2.1769502805 -0.0650653381 0.0467696768
| 12> C 1.3141786982 -1.1180032596 0.303776085
| 13> N -0.00276679 -0.9705604589 0.2521410804
| 14> H -2.5189447539 -1.2344926696 1.1288304828
| 15> H -2.4984730039 -1.602560465 -0.5903759874
| 16> H -3.8178826032 -0.6389096109 0.0865419205
| 17> H -2.2315539732 1.1961852987 0.6138518781
| 18> H -2.2114739187 0.8315611657 -1.1061107914
| 19> H 0.0414025024 2.2727491252 -0.5730424192
| 20> H 3.250652379 -0.1725808353 0.0869497861
| 21> H 1.6723406671 -2.1055050199 0.5577345878
| 22> *
| 23>
| 24>                          ****END OF INPUT****

CARTESIAN COORDINATES (ANGSTROEM)
---------------------------------
  C     -2.752320   -0.843058    0.143234
  C     -1.962363    0.431539   -0.119836
  C     -0.478754    0.230631   -0.057707
  C      0.403121    1.286217   -0.317418
  N      1.715101    1.141821   -0.265835
  C      2.176950   -0.065065    0.046770
  C      1.314179   -1.118003    0.303776
  N     -0.002767   -0.970560    0.252141
  H     -2.518945   -1.234493    1.128830
  H     -2.498473   -1.602560   -0.590376
  H     -3.817883   -0.638910    0.086542
  H     -2.231554    1.196185    0.613852
  H     -2.211474    0.831561   -1.106111
  H      0.041403    2.272749   -0.573042
  H      3.250652   -0.172581    0.086950
  H      1.672341   -2.105505    0.557735

 Total Charge           Charge          ....    0
 Multiplicity           Mult            ....    1
 Number of Electrons    NEL             ....   58
 Basis Dimension        Dim             ....  202

ORBITAL ENERGIES
----------------

  NO   OCC          E(Eh)            E(eV)
   0   2.0000     -14.173248      -385.6737
   1   2.0000     -14.170795      -385.6069
   2   2.0000     -10.084828      -274.4221
   3   2.0000     -10.076569      -274.1974
   4   2.0000     -10.074778      -274.1487
   5   2.0000     -10.073656      -274.1181
   6   2.0000     -10.043103      -273.2867
   7   2.0000     -10.019434      -272.6427
   8   2.0000      -0.954216       -25.9655
   9   2.0000      -0.880060       -23.9476
  10   2.0000      -0.776099       -21.1187
  11   2.0000      -0.717651       -19.5283
  12   2.0000      -0.639820       -17.4104
  13   2.0000      -0.626888       -17.0585
  14   2.0000      -0.570183       -15.5155
  15   2.0000      -0.494615       -13.4591
  16   2.0000      -0.485604       -13.2140
  17   2.0000      -0.448123       -12.1940
  18   2.0000      -0.438113       -11.9217
  19   2.0000      -0.406728       -11.0676
  20   2.0000      -0.392300       -10.6750
  21   2.0000      -0.367573       -10.0022
  22   2.0000      -0.346456        -9.4275
  23   2.0000      -0.327967        -8.9244
  24   2.0000      -0.326698        -8.8899
  25   2.0000      -0.309912        -8.4331
  26   2.0000      -0.274252        -7.4628
  27   2.0000      -0.249050        -6.7770
  28   2.0000      -0.215002        -5.8505
  29   0.0000      -0.075372        -2.0510
  30   0.0000      -0.050951        -1.3864
  31   0.0000       0.072695         1.9781
  32   0.0000       0.088508         2.4084
  33   0.0000       0.104701         2.8490

MULLIKEN ATOMIC CHARGES
-----------------------
   0 C :   -0.484352
   1 C :   -0.269441
   2 C :    0.268055
   3 C :   -0.227559
   4 N :   -0.148307
   5 C :   -0.070834
   6 C :   -0.068040
   7 N :   -0.170533
   8 H :    0.158355
   9 H :    0.156893
  10 H :    0.143425
  11 H :    0.150849
  12 H :    0.148884
  13 H :    0.139301
  14 H :    0.136209
  15 H :    0.137096
Sum of atomic charges:   -0.0000000

LOEWDIN ATOMIC CHARGES
----------------------
   0 C :   -0.402544
   1 C :   -0.259233
   2 C :    0.149496
   3 C :    0.103797
   4 N :   -0.569917
   5 C :    0.084959
   6 C :    0.100716
   7 N :   -0.581926
   8 H :    0.162068
   9 H :    0.161082
  10 H :    0.148486
  11 H :    0.171349
  12 H :    0.170421
  13 H :    0.188456
  14 H :    0.186577
  15 H :    0.186213

  Mayer bond orders larger than 0.100000
B(  0-C ,  1-C ) :   0.9386 B(  0-C ,  8-H ) :   0.9745 B(  0-C ,  9-H ) :   0.9767
B(  0-C , 10-H ) :   0.9696 B(  1-C ,  2-C ) :   0.9113 B(  1-C , 11-H ) :   0.9437
B(  1-C , 12-H ) :   0.9501 B(  2-C ,  3-C ) :   1.2808 B(  2-C ,  7-N ) :   1.3899
B(  3-C ,  4-N ) :   1.4950 B(  3-C ,  6-C ) :   0.1170 B(  3-C , 13-H ) :   0.9786
B(  4-N ,  5-C ) :   1.4133 B(  5-C ,  6-C ) :   1.3142 B(  5-C , 14-H ) :   0.9713
B(  6-C ,  7-N ) :   1.4143 B(  6-C , 15-H ) :   0.9679

Dispersion correction           -0.004838634
FINAL SINGLE POINT ENERGY      -342.851174671382

DIPOLE MOMENT
-------------

Method             : SCF
Type of density    : Electron Density
Multiplicity       :   1
Irrep              :   0
Energy             :  -342.8561690080068161 Eh
Relativity type    :
Basis              : AO
                                X                 Y                 Z
Electronic contribution:      7.497136400       1.335911813      -0.184380898
Nuclear contribution   :     -7.790483596      -1.362742201       0.191668040
                        -----------------------------------------
Total Dipole Moment    :     -0.293347196      -0.026830389       0.007287143
                        -----------------------------------------
Magnitude (a.u.)       :      0.294661754
Magnitude (Debye)      :      0.748970657

Rotational constants in cm-1:             0.171830             0.052776             0.040990
Rotational constants in MHz :          5151.334631          1582.187958          1228.863404

                             ****ORCA TERMINATED NORMALLY****
TOTAL RUN TIME: 0 days 0 hours 0 minutes 21 seconds 705 msec
