                         Program Version 6.0.0  -   RELEASE  -
|  1> ! r2scan-3c def2/J RI DEFGRID2 scfconv6 printgap
|  2> %output
|  3>     printlevel normal
|  4> end
|  5> %cpcm
|  6>     smd true
|  7>     smdsolvent "water"
|  8> end
|  9> * xyz 0 1
| 10> C -2.7523203895 -0.8430577239 0.1432340891
| 11> C -1.9623634222 0.4315394356 -0.119836246
| 12> C -0.4787541649 0.2306312736 -0.0577072573
| 13> C 0.4031209206 1.2862165951 -0.3174179834
| 14> N 1.7151009551 1.1418211819 -0.2658352428
| 15> C 2.1769502805 -0.0650653381 0.0467696768
| 16> C 1.3141786982 -1.1180032596 0.303776085
| 17> N -0.00276679 -0.9705604589 0.2521410804
| 18> H -2.5189447539 -1.2344926696 1.1288304828
| 19> H -2.4984730039 -1.602560465 -0.5903759874
| 20> H -3.8178826032 -0.6389096109 0.0865419205
| 21> H -2.2315539732 1.1961852987 0.6138518781
| 22> H -2.2114739187 0.8315611657 -1.1061107914
| 23> H 0.0414025024 2.2727491252 -0.5730424192
| 24> H 3.250652379 -0.1725808353 0.0869497861
| 25> H 1.6723406671 -2.1055050199 0.5577345878
| 26> *
| 27>
| 28>                          ****END OF INPUT****

CARTESIAN COORDINATES (ANGSTROEM)
---------------------------------
  C     -2.752320   -0.843058    0.143234
  C     -1.962363    0.431539   -0.119836
  C     -0.478754    0.230631   -0.057707
  C      0.403121    1.286217   -0.317418
  N      1.715101    1.141821   -0.265835
  C      2.176950   -0.065065    0.046770
  C      1.314179   -1.118003    0.303776
  N     -0.002767   -0.970560    0.252141
  H     -2.518945   -1.234493    1.128830
  H     -2.498473   -1.602560   -0.590376
  H     -3.817883   -0.638910    0.086542
  H     -2.231554    1.196185    0.613852
  H     -2.211474    0.831561   -1.106111
  H      0.041403    2.272749   -0.573042
  H      3.250652   -0.172581    0.086950
  H      1.672341   -2.105505    0.557735

 Total Charge           Charge          ....    0
 Multiplicity           Mult            ....    1
 Number of Electrons    NEL             ....   58
 Basis Dimension        Dim             ....  202

ORBITAL ENERGIES
----------------

  NO   OCC          E(Eh)            E(eV)
   0   2.0000     -14.173918      -385.6919
   1   2.0000     -14.169574      -385.5737
   2   2.0000     -10.080950      -274.3166
   3   2.0000     -10.071322      -274.0546
   4   2.0000     -10.069961      -274.0176
   5   2.0000     -10.068561      -273.9795
   6   2.0000     -10.031032      -272.9582
   7   2.0000     -10.011857      -272.4365
   8   2.0000      -0.952667       -25.9234
   9   2.0000      -0.879341       -23.9281
  10   2.0000      -0.769170       -20.9302
  11   2.0000      -0.710917       -19.3450
  12   2.0000      -0.634034       -17.2529
  13   2.0000      -0.622978       -16.9521
  14   2.0000      -0.563286       -15.3278
  15   2.0000      -0.490438       -13.3455
  16   2.0000      -0.481214       -13.0945
  17   2.0000      -0.439304       -11.9541
  18   2.0000      -0.429642       -11.6911
  19   2.0000      -0.398885       -10.8542
  20   2.0000      -0.388846       -10.5810
  21   2.0000      -0.360248        -9.8028
  22   2.0000      -0.337809        -9.1922
  23   2.0000      -0.320454        -8.7200
  24   2.0000      -0.318319        -8.6619
  25   2.0000      -0.309476        -8.4213
  26   2.0000      -0.278931        -7.5901
  27   2.0000      -0.243869        -6.6360
  28   2.0000      -0.216382        -5.8881
  29   0.0000      -0.074402        -2.0246
  30   0.0000      -0.046768        -1.2726
  31   0.0000       0.076339         2.0773
  32   0.0000       0.093392         2.5413
  33   0.0000       0.117136         3.1874

MULLIKEN ATOMIC CHARGES
-----------------------
   0 C :   -0.542032
   1 C :   -0.263148
   2 C :    0.262473
   3 C :   -0.220697
   4 N :   -0.202888
   5 C :   -0.087520
   6 C :   -0.077347
   7 N :   -0.207316
   8 H :    0.163362
   9 H :    0.163887
  10 H :    0.160427
  11 H :    0.173244
  12 H :    0.171406
  13 H :    0.169958
  14 H :    0.167642
  15 H :    0.168548
Sum of atomic charges:   -0.0000000

LOEWDIN ATOMIC CHARGES
----------------------
   0 C :   -0.411392
   1 C :   -0.256169
   2 C :    0.155376
   3 C :    0.109076
   4 N :   -0.606967
   5 C :    0.084572
   6 C :    0.102795
   7 N :   -0.607551
   8 H :    0.159594
   9 H :    0.159180
  10 H :    0.154396
  11 H :    0.180667
  12 H :    0.179816
  13 H :    0.200620
  14 H :    0.197999
  15 H :    0.197988

  Mayer bond orders larger than 0.100000
B(  0-C ,  1-C ) :   0.8963 B(  0-C ,  8-H ) :   0.9780 B(  0-C ,  9-H ) :   0.9802
B(  0-C , 10-H ) :   0.9645 B(  1-C ,  2-C ) :   0.9257 B(  1-C , 11-H ) :   0.9353
B(  1-C , 12-H ) :   0.9415 B(  2-C ,  3-C ) :   1.2993 B(  2-C ,  7-N ) :   1.3878
B(  3-C ,  4-N ) :   1.4966 B(  3-C ,  6-C ) :   0.1164 B(  3-C , 13-H ) :   0.9624
B(  4-N ,  5-C ) :   1.4071 B(  5-C ,  6-C ) :   1.3292 B(  5-C , 14-H ) :   0.9610
B(  6-C ,  7-N ) :   1.4054 B(  6-C , 15-H ) :   0.9577

Dispersion correction           -0.004838634
FINAL SINGLE POINT ENERGY      -342.859530940553

DIPOLE MOMENT
-------------

Method             : SCF
Type of density    : Electron Density
Multiplicity       :   1
Irrep              :   0
Energy             :  -342.8645252771771084 Eh
Relativity type    :
Basis              : AO
                                X                 Y                 Z
Electronic contribution:      7.385014926       1.415358789      -0.203153725
Nuclear contribution   :     -7.790483596      -1.362742201       0.191668040
                        -----------------------------------------
Total Dipole Moment    :     -0.405468670       0.052616588      -0.011485684
                        -----------------------------------------
Magnitude (a.u.)       :      0.409029667
Magnitude (Debye)      :      1.039670789

Rotational constants in cm-1:             0.171830             0.052776             0.040990
Rotational constants in MHz :          5151.334631          1582.187958          1228.863404

                             ****ORCA TERMINATED NORMALLY****
TOTAL RUN TIME: 0 days 0 hours 0 minutes 30 seconds 362 msec
