                         Program Version 6.0.0  -   RELEASE  -
|  1> ! r2scan-3c def2/J RI DEFGRID2 scfconv6 printgap
|  2> %output
|  3>     printlevel normal
|  4> end
|  5> * xyz 0 1
|  6> C -2.332329656 1.2369088676 0.0530701416
|  7> N -1.6048532642 -0.0001669793 -0.1154169706
|  8> C -2.3319630368 -1.2369793796 0.0567111689
|  9> C -0.2346264693 2.32347e-05 -0.0422617919
| 10> C 0.497794169 -1.1974731401 -0.0204107855
| 11> C 1.8774869138 -1.1902832395 0.0119118424
| 12> C 2.584432963 6.28072e-05 0.0287164294
| 13> C 1.8773846864 1.1903750395 0.0138147737
| 14> C 0.4976881244 1.1975393212 -0.0184145687
| 15> H -2.134893867 1.6999802945 1.0264651903
| 16> H -3.3976877716 1.0390575693 -0.0254099889
| 17> H -2.0627644954 1.9446478883 -0.7330358708
| 18> H -3.397612726 -1.0388857482 -0.0168687224
| 19> H -2.1301671057 -1.6994634911 1.029452504
| 20> H -2.0661923128 -1.9453545566 -0.7301790651
| 21> H -0.0082239052 -2.148441727 -0.0282508456
| 22> H 2.4084995968 -2.131850197 0.0276890008
| 23> H 3.6636635176 0.0001115089 0.0562349582
| 24> H 2.4083524645 2.1319415612 0.0314690625
| 25> H -0.0083515705 2.14850969 -0.024360693
| 26> *
| 27>
| 28>                          ****END OF INPUT****

CARTESIAN COORDINATES (ANGSTROEM)
---------------------------------
  C     -2.332330    1.236909    0.053070
  N     -1.604853   -0.000167   -0.115417
  C     -2.331963   -1.236979    0.056711
  C     -0.234626    0.000023   -0.042262
  C      0.497794   -1.197473   -0.020411
  C      1.877487   -1.190283    0.011912
  C      2.584433    0.000063    0.028716
  C      1.877385    1.190375    0.013815
  C      0.497688    1.197539   -0.018415
  H     -2.134894    1.699980    1.026465
  H     -3.397688    1.039058   -0.025410
  H     -2.062764    1.944648   -0.733036
  H     -3.397613   -1.038886   -0.016869
  H     -2.130167   -1.699463    1.029453
  H     -2.066192   -1.945355   -0.730179
  H     -0.008224   -2.148442   -0.028251
  H      2.408500   -2.131850    0.027689
  H      3.663664    0.000112    0.056235
  H      2.408352    2.131942    0.031469
  H     -0.008352    2.148510   -0.024361

 Total Charge           Charge          ....    0
 Multiplicity           Mult            ....    1
 Number of Electrons    NEL             ....   66
 Basis Dimension        Dim             ....  231

ORBITAL ENERGIES
----------------

  NO   OCC          E(Eh)            E(eV)
   0   2.0000     -14.179880      -385.8542
   1   2.0000     -10.066749      -273.9302
   2   2.0000     -10.062393      -273.8116
   3   2.0000     -10.062388      -273.8115
   4   2.0000     -10.023077      -272.7418
   5   2.0000     -10.023074      -272.7417
   6   2.0000     -10.018779      -272.6248
   7   2.0000     -10.018772      -272.6247
   8   2.0000     -10.012092      -272.4429
   9   2.0000      -0.919239       -25.0138
  10   2.0000      -0.806277       -21.9399
  11   2.0000      -0.712864       -19.3980
  12   2.0000      -0.710387       -19.3306
  13   2.0000      -0.687914       -18.7191
  14   2.0000      -0.626653       -17.0521
  15   2.0000      -0.563138       -15.3238
  16   2.0000      -0.540492       -14.7075
  17   2.0000      -0.496985       -13.5237
  18   2.0000      -0.448792       -12.2123
  19   2.0000      -0.439952       -11.9717
  20   2.0000      -0.436073       -11.8661
  21   2.0000      -0.411432       -11.1956
  22   2.0000      -0.386369       -10.5136
  23   2.0000      -0.382496       -10.4082
  24   2.0000      -0.377231       -10.2650
  25   2.0000      -0.366552        -9.9744
  26   2.0000      -0.348673        -9.4879
  27   2.0000      -0.336608        -9.1596
  28   2.0000      -0.317264        -8.6332
  29   2.0000      -0.295840        -8.0502
  30   2.0000      -0.259224        -7.0538
  31   2.0000      -0.225751        -6.1430
  32   2.0000      -0.168573        -4.5871
  33   0.0000      -0.020097        -0.5469
  34   0.0000      -0.002885        -0.0785
  35   0.0000       0.076131         2.0716
  36   0.0000       0.080392         2.1876
  37   0.0000       0.102179         2.7804

MULLIKEN ATOMIC CHARGES
-----------------------
   0 C :   -0.438051
   1 N :    0.149971
   2 C :   -0.438011
   3 C :    0.241736
   4 C :   -0.312543
   5 C :   -0.153488
   6 C :   -0.198794
   7 C :   -0.153602
   8 C :   -0.312545
   9 H :    0.161005
  10 H :    0.137040
  11 H :    0.156219
  12 H :    0.136974
  13 H :    0.161084
  14 H :    0.156221
  15 H :    0.138296
  16 H :    0.142867
  17 H :    0.144465
  18 H :    0.142865
  19 H :    0.138293
Sum of atomic charges:    0.0000000

LOEWDIN ATOMIC CHARGES
----------------------
   0 C :   -0.123536
   1 N :   -0.909173
   2 C :   -0.123541
   3 C :    0.149408
   4 C :   -0.170560
   5 C :   -0.156929
   6 C :   -0.207884
   7 C :   -0.156930
   8 C :   -0.170611
   9 H :    0.166572
  10 H :    0.176860
  11 H :    0.172757
  12 H :    0.176873
  13 H :    0.166704
  14 H :    0.172633
  15 H :    0.170944
  16 H :    0.165644
  17 H :    0.164191
  18 H :    0.165644
  19 H :    0.170935

  Mayer bond orders larger than 0.100000
B(  0-C ,  1-N ) :   0.8957 B(  0-C ,  9-H ) :   0.9490 B(  0-C , 10-H ) :   0.9647
B(  0-C , 11-H ) :   0.9620 B(  1-N ,  2-C ) :   0.8956 B(  1-N ,  3-C ) :   1.3059
B(  2-C , 12-H ) :   0.9647 B(  2-C , 13-H ) :   0.9491 B(  2-C , 14-H ) :   0.9620
B(  3-C ,  4-C ) :   1.2975 B(  3-C ,  8-C ) :   1.2971 B(  4-C ,  5-C ) :   1.4303
B(  4-C , 15-H ) :   0.9367 B(  5-C ,  6-C ) :   1.4129 B(  5-C , 16-H ) :   0.9496
B(  6-C ,  7-C ) :   1.4130 B(  6-C , 17-H ) :   0.9479 B(  7-C ,  8-C ) :   1.4303
B(  7-C , 18-H ) :   0.9496 B(  8-C , 19-H ) :   0.9368

Dispersion correction           -0.006694910
FINAL SINGLE POINT ENERGY      -366.099958309230

DIPOLE MOMENT
-------------

Method             : SCF
Type of density    : Electron Density
Multiplicity       :   1
Irrep              :   0
Energy             :  -366.1059956387305760 Eh
Relativity type    :
Basis              : AO
                                X                 Y                 Z
Electronic contribution:      5.435597220      -0.000151885      -0.500185535
Nuclear contribution   :     -6.318330239       0.000236246       0.574657131
                        -----------------------------------------
Total Dipole Moment    :     -0.882733019       0.000084361       0.074471596
                        -----------------------------------------
Magnitude (a.u.)       :      0.885868844
Magnitude (Debye)      :      2.251699657

Rotational constants in cm-1:             0.118006             0.041316             0.030998
Rotational constants in MHz :          3537.721015          1238.627062           929.296662

                             ****ORCA TERMINATED NORMALLY****
TOTAL RUN TIME: 0 days 0 hours 0 minutes 35 seconds 273 msec
