                         Program Version 6.0.0  -   RELEASE  -
|  1> ! r2scan-3c def2/J RI DEFGRID2 scfconv6 printgap
|  2> %output
|  3>     printlevel normal
|  4> end
|  5> %cpcm
|  6>     smd true
|  7>     smdsolvent "water"
|  8> end
|  9> * xyz 0 1
| 10> C -2.332329656 1.2369088676 0.0530701416
| 11> N -1.6048532642 -0.0001669793 -0.1154169706
| 12> C -2.3319630368 -1.2369793796 0.0567111689
| 13> C -0.2346264693 2.32347e-05 -0.0422617919
| 14> C 0.497794169 -1.1974731401 -0.0204107855
| 15> C 1.8774869138 -1.1902832395 0.0119118424
| 16> C 2.584432963 6.28072e-05 0.0287164294
| 17> C 1.8773846864 1.1903750395 0.0138147737
| 18> C 0.4976881244 1.1975393212 -0.0184145687
| 19> H -2.134893867 1.6999802945 1.0264651903
| 20> H -3.3976877716 1.0390575693 -0.0254099889
| 21> H -2.0627644954 1.9446478883 -0.7330358708
| 22> H -3.397612726 -1.0388857482 -0.0168687224
| 23> H -2.1301671057 -1.6994634911 1.029452504
| 24> H -2.0661923128 -1.9453545566 -0.7301790651
| 25> H -0.0082239052 -2.148441727 -0.0282508456
| 26> H 2.4084995968 -2.131850197 0.0276890008
| 27> H 3.6636635176 0.0001115089 0.0562349582
| 28> H 2.4083524645 2.1319415612 0.0314690625
| 29> H -0.0083515705 2.14850969 -0.024360693
| 30> *
| 31>
| 32>                          ****END OF INPUT****

CARTESIAN COORDINATES (ANGSTROEM)
---------------------------------
  C     -2.332330    1.236909    0.053070
  N     -1.604853   -0.000167   -0.115417
  C     -2.331963   -1.236979    0.056711
  C     -0.234626    0.000023   -0.042262
  C      0.497794   -1.197473   -0.020411
  C      1.877487   -1.190283    0.011912
  C      2.584433    0.000063    0.028716
  C      1.877385    1.190375    0.013815
  C      0.497688    1.197539   -0.018415
  H     -2.134894    1.699980    1.026465
  H     -3.397688    1.039058   -0.025410
  H     -2.062764    1.944648   -0.733036
  H     -3.397613   -1.038886   -0.016869
  H     -2.130167   -1.699463    1.029453
  H     -2.066192   -1.945355   -0.730179
  H     -0.008224   -2.148442   -0.028251
  H      2.408500   -2.131850    0.027689
  H      3.663664    0.000112    0.056235
  H      2.408352    2.131942    0.031469
  H     -0.008352    2.148510   -0.024361

 Total Charge           Charge          ....    0
 Multiplicity           Mult            ....    1
 Number of Electrons    NEL             ....   66
 Basis Dimension        Dim             ....  231

ORBITAL ENERGIES
----------------

  NO   OCC          E(Eh)            E(eV)
   0   2.0000     -14.175750      -385.7418
   1   2.0000     -10.069559      -274.0066
   2   2.0000     -10.046931      -273.3909
   3   2.0000     -10.046927      -273.3908
   4   2.0000     -10.027508      -272.8624
   5   2.0000     -10.027505      -272.8623
   6   2.0000     -10.021427      -272.6969
   7   2.0000     -10.021420      -272.6967
   8   2.0000     -10.016006      -272.5494
   9   2.0000      -0.914428       -24.8829
  10   2.0000      -0.811226       -22.0746
  11   2.0000      -0.713952       -19.4276
  12   2.0000      -0.711007       -19.3475
  13   2.0000      -0.678949       -18.4751
  14   2.0000      -0.621808       -16.9203
  15   2.0000      -0.564851       -15.3704
  16   2.0000      -0.539205       -14.6725
  17   2.0000      -0.493080       -13.4174
  18   2.0000      -0.443468       -12.0674
  19   2.0000      -0.438009       -11.9188
  20   2.0000      -0.426953       -11.6180
  21   2.0000      -0.408502       -11.1159
  22   2.0000      -0.384171       -10.4538
  23   2.0000      -0.381671       -10.3858
  24   2.0000      -0.363651        -9.8955
  25   2.0000      -0.356289        -9.6951
  26   2.0000      -0.343113        -9.3366
  27   2.0000      -0.335084        -9.1181
  28   2.0000      -0.319260        -8.6875
  29   2.0000      -0.295748        -8.0477
  30   2.0000      -0.261990        -7.1291
  31   2.0000      -0.234596        -6.3837
  32   2.0000      -0.169483        -4.6119
  33   0.0000      -0.027539        -0.7494
  34   0.0000      -0.009160        -0.2493
  35   0.0000       0.083877         2.2824
  36   0.0000       0.090812         2.4711
  37   0.0000       0.111162         3.0249

MULLIKEN ATOMIC CHARGES
-----------------------
   0 C :   -0.452368
   1 N :    0.141855
   2 C :   -0.452375
   3 C :    0.202647
   4 C :   -0.336980
   5 C :   -0.198078
   6 C :   -0.249033
   7 C :   -0.198185
   8 C :   -0.336924
   9 H :    0.169266
  10 H :    0.168178
  11 H :    0.167950
  12 H :    0.168145
  13 H :    0.169307
  14 H :    0.167977
  15 H :    0.173515
  16 H :    0.173890
  17 H :    0.173819
  18 H :    0.173888
  19 H :    0.173507
Sum of atomic charges:    0.0000000

LOEWDIN ATOMIC CHARGES
----------------------
   0 C :   -0.122408
   1 N :   -0.910427
   2 C :   -0.122415
   3 C :    0.137491
   4 C :   -0.183374
   5 C :   -0.173336
   6 C :   -0.233715
   7 C :   -0.173336
   8 C :   -0.183420
   9 H :    0.171398
  10 H :    0.188146
  11 H :    0.177891
  12 H :    0.188166
  13 H :    0.171499
  14 H :    0.177790
  15 H :    0.183016
  16 H :    0.175728
  17 H :    0.172570
  18 H :    0.175728
  19 H :    0.183008

  Mayer bond orders larger than 0.100000
B(  0-C ,  1-N ) :   0.8965 B(  0-C ,  9-H ) :   0.9451 B(  0-C , 10-H ) :   0.9574
B(  0-C , 11-H ) :   0.9555 B(  1-N ,  2-C ) :   0.8965 B(  1-N ,  3-C ) :   1.3115
B(  2-C , 12-H ) :   0.9573 B(  2-C , 13-H ) :   0.9452 B(  2-C , 14-H ) :   0.9555
B(  3-C ,  4-C ) :   1.2574 B(  3-C ,  8-C ) :   1.2571 B(  4-C ,  5-C ) :   1.3990
B(  4-C , 15-H ) :   0.9483 B(  5-C ,  6-C ) :   1.3607 B(  5-C , 16-H ) :   0.9638
B(  6-C ,  7-C ) :   1.3608 B(  6-C , 17-H ) :   0.9614 B(  7-C ,  8-C ) :   1.3990
B(  7-C , 18-H ) :   0.9638 B(  8-C , 19-H ) :   0.9484

Dispersion correction           -0.006694910
FINAL SINGLE POINT ENERGY      -366.105090696520

DIPOLE MOMENT
-------------

Method             : SCF
Type of density    : Electron Density
Multiplicity       :   1
Irrep              :   0
Energy             :  -366.1111280260200260 Eh
Relativity type    :
Basis              : AO
                                X                 Y                 Z
Electronic contribution:      5.024744003      -0.000106935      -0.467550564
Nuclear contribution   :     -6.318330239       0.000236246       0.574657131
                        -----------------------------------------
Total Dipole Moment    :     -1.293586236       0.000129311       0.107106567
                        -----------------------------------------
Magnitude (a.u.)       :      1.298012783
Magnitude (Debye)      :      3.299286295

Rotational constants in cm-1:             0.118006             0.041316             0.030998
Rotational constants in MHz :          3537.721015          1238.627062           929.296662

                             ****ORCA TERMINATED NORMALLY****
TOTAL RUN TIME: 0 days 0 hours 0 minutes 38 seconds 955 msec
