                         Program Version 6.0.0  -   RELEASE  -
|  1> ! wb97x-v def2-tzvp def2/J RIJCOSX DEFGRID2 scfconv7 GCP(DFT/TZ) printgap
|  2> %output
|  3>     printlevel normal
|  4> end
|  5> * xyz 0 1
|  6> C -1.9438567658720427 -1.243947389569796 -0.07706503711441648
|  7> C -1.4984392823007737 0.20504950751856837 0.0718887057436523
|  8> C -0.019625451753102537 0.4448318728604514 0.19297400102301654
|  9> O 0.4700758087290009 1.4995468151133622 0.5679452930544994
| 10> O 0.7232439547911518 -0.6121693556523603 -0.17790262262046105
| 11> C 2.1617347746428104 -0.4294854866135586 -0.11545290351294286
| 12> H -3.035726333368741 -1.2879463419892243 -0.11695093065529089
| 13> H -1.5550013498605924 -1.6933989989196736 -0.9940396629707072
| 14> H -1.6120191258875527 -1.8501216536479603 0.7706520197470856
| 15> H -1.9583892110201653 0.676348321860327 0.946256477241112
| 16> H -1.8217297395510161 0.7989802657467172 -0.7936157760223326
| 17> H 2.5867480759459966 -1.3708644008836621 -0.46185480287615216
| 18> H 2.4707988834226113 -0.22665166966339764 0.9128120695920044
| 19> H 2.466571594189261 0.39126517169454794 -0.7691960133782563
| 20> *
| 21>
| 22>                          ****END OF INPUT****

CARTESIAN COORDINATES (ANGSTROEM)
---------------------------------
  C     -1.943857   -1.243947   -0.077065
  C     -1.498439    0.205050    0.071889
  C     -0.019625    0.444832    0.192974
  O      0.470076    1.499547    0.567945
  O      0.723244   -0.612169   -0.177903
  C      2.161735   -0.429485   -0.115453
  H     -3.035726   -1.287946   -0.116951
  H     -1.555001   -1.693399   -0.994040
  H     -1.612019   -1.850122    0.770652
  H     -1.958389    0.676348    0.946256
  H     -1.821730    0.798980   -0.793616
  H      2.586748   -1.370864   -0.461855
  H      2.470799   -0.226652    0.912812
  H      2.466572    0.391265   -0.769196

 Total Charge           Charge          ....    0
 Multiplicity           Mult            ....    1
 Number of Electrons    NEL             ....   48
 Basis Dimension        Dim             ....  234

ORBITAL ENERGIES
----------------

  NO   OCC          E(Eh)            E(eV)
   0   2.0000     -21.720867      -591.0548
   1   2.0000     -21.651648      -589.1713
   2   2.0000     -12.175395      -331.3093
   3   2.0000     -12.104157      -329.3708
   4   2.0000     -12.063051      -328.2523
   5   2.0000     -12.044873      -327.7577
   6   2.0000      -1.758529       -47.8520
   7   2.0000      -1.688300       -45.9410
   8   2.0000      -1.317942       -35.8630
   9   2.0000      -1.256321       -34.1862
  10   2.0000      -1.155914       -31.4540
  11   2.0000      -1.111452       -30.2441
  12   2.0000      -1.055850       -28.7311
  13   2.0000      -1.006651       -27.3924
  14   2.0000      -0.997125       -27.1331
  15   2.0000      -0.933473       -25.4011
  16   2.0000      -0.904685       -24.6177
  17   2.0000      -0.871122       -23.7044
  18   2.0000      -0.867328       -23.6012
  19   2.0000      -0.843672       -22.9575
  20   2.0000      -0.837538       -22.7906
  21   2.0000      -0.825545       -22.4642
  22   2.0000      -0.799675       -21.7603
  23   2.0000      -0.784098       -21.3364
  24   0.0000      -0.301140        -8.1944
  25   0.0000      -0.182719        -4.9720
  26   0.0000      -0.101509        -2.7622
  27   0.0000      -0.045116        -1.2277
  28   0.0000      -0.003792        -0.1032

MULLIKEN ATOMIC CHARGES
-----------------------
   0 C :   -0.321564
   1 C :   -0.170395
   2 C :    0.300749
   3 O :   -0.362315
   4 O :   -0.233776
   5 C :   -0.191519
   6 H :    0.116157
   7 H :    0.114992
   8 H :    0.112393
   9 H :    0.126997
  10 H :    0.118433
  11 H :    0.127862
  12 H :    0.130997
  13 H :    0.130988
Sum of atomic charges:   -0.0000000

LOEWDIN ATOMIC CHARGES
----------------------
   0 C :   -0.300289
   1 C :   -0.248924
   2 C :   -0.468739
   3 O :    0.074725
   4 O :    0.229704
   5 C :   -0.285402
   6 H :    0.118685
   7 H :    0.119916
   8 H :    0.119895
   9 H :    0.152405
  10 H :    0.154926
  11 H :    0.109475
  12 H :    0.111717
  13 H :    0.111905

  Mayer bond orders larger than 0.100000
B(  0-C ,  1-C ) :   0.9832 B(  0-C ,  6-H ) :   0.9745 B(  0-C ,  7-H ) :   0.9725
B(  0-C ,  8-H ) :   0.9784 B(  1-C ,  2-C ) :   0.9830 B(  1-C ,  9-H ) :   0.9734
B(  1-C , 10-H ) :   0.9479 B(  2-C ,  3-O ) :   2.0418 B(  2-C ,  4-O ) :   1.1926
B(  4-O ,  5-C ) :   0.9076 B(  5-C , 11-H ) :   0.9724 B(  5-C , 12-H ) :   0.9784
B(  5-C , 13-H ) :   0.9767

FINAL SINGLE POINT ENERGY      -307.719454425706

DIPOLE MOMENT
-------------

Method             : SCF
Type of density    : Electron Density
Multiplicity       :   1
Irrep              :   0
Energy             :  -307.7289152705060360 Eh
Relativity type    :
Basis              : AO
                                X                 Y                 Z
Electronic contribution:      2.299462603       3.276665662       0.744880586
Nuclear contribution   :     -2.374352418      -4.036668454      -1.033268829
                        -----------------------------------------
Total Dipole Moment    :     -0.074889815      -0.760002792      -0.288388244
                        -----------------------------------------
Magnitude (a.u.)       :      0.816321326
Magnitude (Debye)      :      2.074923914

Rotational constants in cm-1:             0.203062             0.088355             0.064067
Rotational constants in MHz :          6087.642915          2648.812212          1920.682784

                             ****ORCA TERMINATED NORMALLY****
TOTAL RUN TIME: 0 days 0 hours 1 minutes 26 seconds 726 msec
