                         Program Version 6.0.0  -   RELEASE  -
|  1> ! wb97x-v def2-tzvp def2/J RIJCOSX DEFGRID2 scfconv7 GCP(DFT/TZ) printgap
|  2> %output
|  3>     printlevel normal
|  4> end
|  5> %cpcm
|  6>     smd true
|  7>     smdsolvent "water"
|  8> end
|  9> * xyz 0 1
| 10> C -1.9438567658720427 -1.243947389569796 -0.07706503711441648
| 11> C -1.4984392823007737 0.20504950751856837 0.0718887057436523
| 12> C -0.019625451753102537 0.4448318728604514 0.19297400102301654
| 13> O 0.4700758087290009 1.4995468151133622 0.5679452930544994
| 14> O 0.7232439547911518 -0.6121693556523603 -0.17790262262046105
| 15> C 2.1617347746428104 -0.4294854866135586 -0.11545290351294286
| 16> H -3.035726333368741 -1.2879463419892243 -0.11695093065529089
| 17> H -1.5550013498605924 -1.6933989989196736 -0.9940396629707072
| 18> H -1.6120191258875527 -1.8501216536479603 0.7706520197470856
| 19> H -1.9583892110201653 0.676348321860327 0.946256477241112
| 20> H -1.8217297395510161 0.7989802657467172 -0.7936157760223326
| 21> H 2.5867480759459966 -1.3708644008836621 -0.46185480287615216
| 22> H 2.4707988834226113 -0.22665166966339764 0.9128120695920044
| 23> H 2.466571594189261 0.39126517169454794 -0.7691960133782563
| 24> *
| 25>
| 26>                          ****END OF INPUT****

CARTESIAN COORDINATES (ANGSTROEM)
---------------------------------
  C     -1.943857   -1.243947   -0.077065
  C     -1.498439    0.205050    0.071889
  C     -0.019625    0.444832    0.192974
  O      0.470076    1.499547    0.567945
  O      0.723244   -0.612169   -0.177903
  C      2.161735   -0.429485   -0.115453
  H     -3.035726   -1.287946   -0.116951
  H     -1.555001   -1.693399   -0.994040
  H     -1.612019   -1.850122    0.770652
  H     -1.958389    0.676348    0.946256
  H     -1.821730    0.798980   -0.793616
  H      2.586748   -1.370864   -0.461855
  H      2.470799   -0.226652    0.912812
  H      2.466572    0.391265   -0.769196

 Total Charge           Charge          ....    0
 Multiplicity           Mult            ....    1
 Number of Electrons    NEL             ....   48
 Basis Dimension        Dim             ....  234

ORBITAL ENERGIES
----------------

  NO   OCC          E(Eh)            E(eV)
   0   2.0000     -21.724687      -591.1588
   1   2.0000     -21.665832      -589.5573
   2   2.0000     -12.185193      -331.5759
   3   2.0000     -12.092861      -329.0635
   4   2.0000     -12.054410      -328.0172
   5   2.0000     -12.033589      -327.4506
   6   2.0000      -1.764961       -48.0270
   7   2.0000      -1.700948       -46.2851
   8   2.0000      -1.314146       -35.7597
   9   2.0000      -1.249992       -34.0140
  10   2.0000      -1.153103       -31.3775
  11   2.0000      -1.112723       -30.2787
  12   2.0000      -1.067771       -29.0555
  13   2.0000      -1.004925       -27.3454
  14   2.0000      -0.999315       -27.1928
  15   2.0000      -0.938183       -25.5293
  16   2.0000      -0.915906       -24.9231
  17   2.0000      -0.872655       -23.7461
  18   2.0000      -0.864476       -23.5236
  19   2.0000      -0.833393       -22.6778
  20   2.0000      -0.831975       -22.6392
  21   2.0000      -0.817049       -22.2330
  22   2.0000      -0.790702       -21.5161
  23   2.0000      -0.773899       -21.0589
  24   0.0000      -0.305159        -8.3038
  25   0.0000      -0.176034        -4.7901
  26   0.0000      -0.103717        -2.8223
  27   0.0000      -0.042063        -1.1446
  28   0.0000       0.007362         0.2003

MULLIKEN ATOMIC CHARGES
-----------------------
   0 C :   -0.380962
   1 C :   -0.178566
   2 C :    0.390007
   3 O :   -0.486873
   4 O :   -0.255360
   5 C :   -0.232446
   6 H :    0.137296
   7 H :    0.126220
   8 H :    0.130746
   9 H :    0.143407
  10 H :    0.148352
  11 H :    0.156870
  12 H :    0.151006
  13 H :    0.150304
Sum of atomic charges:   -0.0000000

LOEWDIN ATOMIC CHARGES
----------------------
   0 C :   -0.303083
   1 C :   -0.243993
   2 C :   -0.448851
   3 O :    0.008330
   4 O :    0.227540
   5 C :   -0.282365
   6 H :    0.124685
   7 H :    0.120816
   8 H :    0.122487
   9 H :    0.157868
  10 H :    0.164605
  11 H :    0.119380
  12 H :    0.116259
  13 H :    0.116322

  Mayer bond orders larger than 0.100000
B(  0-C ,  1-C ) :   0.9816 B(  0-C ,  6-H ) :   0.9708 B(  0-C ,  7-H ) :   0.9709
B(  0-C ,  8-H ) :   0.9772 B(  1-C ,  2-C ) :   0.9972 B(  1-C ,  9-H ) :   0.9617
B(  1-C , 10-H ) :   0.9339 B(  2-C ,  3-O ) :   1.9088 B(  2-C ,  4-O ) :   1.2124
B(  4-O ,  5-C ) :   0.8821 B(  5-C , 11-H ) :   0.9675 B(  5-C , 12-H ) :   0.9729
B(  5-C , 13-H ) :   0.9715

FINAL SINGLE POINT ENERGY      -307.725647495947

DIPOLE MOMENT
-------------

Method             : SCF
Type of density    : Electron Density
Multiplicity       :   1
Irrep              :   0
Energy             :  -307.7351083407474448 Eh
Relativity type    :
Basis              : AO
                                X                 Y                 Z
Electronic contribution:      2.219168415       3.006915771       0.634268968
Nuclear contribution   :     -2.374352418      -4.036668454      -1.033268829
                        -----------------------------------------
Total Dipole Moment    :     -0.155184003      -1.029752683      -0.398999861
                        -----------------------------------------
Magnitude (a.u.)       :      1.115201126
Magnitude (Debye)      :      2.834615992

Rotational constants in cm-1:             0.203062             0.088355             0.064067
Rotational constants in MHz :          6087.642915          2648.812212          1920.682784

                             ****ORCA TERMINATED NORMALLY****
TOTAL RUN TIME: 0 days 0 hours 1 minutes 29 seconds 715 msec
