                         Program Version 6.0.0  -   RELEASE  -
|  1> ! r2scan-3c def2/J RI DEFGRID2 scfconv6 printgap
|  2> %output
|  3>     printlevel normal
|  4> end
|  5> * xyz 0 1
|  6> C 2.8861345065 -0.0615107617 -0.0006882514
|  7> C 1.3916679706 -0.0042038403 0.0004055217
|  8> C 0.7126363006 1.2128380853 0.0003732739
|  9> C -0.6677883232 1.2220996612 0.0002059355
| 10> C -1.3550777273 0.0083573978 7.37861e-05
| 11> N -0.7135292724 -1.1536888808 0.0002585444
| 12> C 0.6107022099 -1.1517336832 0.0004114839
| 13> C -2.8510089157 -0.0340665068 -0.0005615968
| 14> H 3.2801811228 0.4253892546 -0.8912607414
| 15> H 3.2835913985 0.4595452883 0.8686235003
| 16> H 3.2318045178 -1.0913953343 0.0180448558
| 17> H 1.2680447121 2.1401054289 0.0004954036
| 18> H -1.2163532446 2.1516209788 0.0002518497
| 19> H 1.0697571122 -2.132906109 0.0007222532
| 20> H -3.1871903676 -1.0658331954 0.0071555082
| 21> H -3.2411637487 0.4791843601 0.8759529136
| 22> H -3.2395413546 0.4647290894 -0.886202043
| 23> *
| 24>
| 25>                          ****END OF INPUT****

CARTESIAN COORDINATES (ANGSTROEM)
---------------------------------
  C      2.886135   -0.061511   -0.000688
  C      1.391668   -0.004204    0.000406
  C      0.712636    1.212838    0.000373
  C     -0.667788    1.222100    0.000206
  C     -1.355078    0.008357    0.000074
  N     -0.713529   -1.153689    0.000259
  C      0.610702   -1.151734    0.000411
  C     -2.851009   -0.034067   -0.000562
  H      3.280181    0.425389   -0.891261
  H      3.283591    0.459545    0.868624
  H      3.231805   -1.091395    0.018045
  H      1.268045    2.140105    0.000495
  H     -1.216353    2.151621    0.000252
  H      1.069757   -2.132906    0.000722
  H     -3.187190   -1.065833    0.007156
  H     -3.241164    0.479184    0.875953
  H     -3.239541    0.464729   -0.886202

 Total Charge           Charge          ....    0
 Multiplicity           Mult            ....    1
 Number of Electrons    NEL             ....   58
 Basis Dimension        Dim             ....  202

ORBITAL ENERGIES
----------------

  NO   OCC          E(Eh)            E(eV)
   0   2.0000     -14.145473      -384.9179
   1   2.0000     -10.068488      -273.9775
   2   2.0000     -10.057237      -273.6713
   3   2.0000     -10.046421      -273.3770
   4   2.0000     -10.045934      -273.3638
   5   2.0000     -10.037466      -273.1333
   6   2.0000     -10.033638      -273.0292
   7   2.0000     -10.021338      -272.6945
   8   2.0000      -0.909655       -24.7530
   9   2.0000      -0.783014       -21.3069
  10   2.0000      -0.753071       -20.4921
  11   2.0000      -0.698034       -18.9945
  12   2.0000      -0.636882       -17.3304
  13   2.0000      -0.597125       -16.2486
  14   2.0000      -0.560627       -15.2554
  15   2.0000      -0.471091       -12.8190
  16   2.0000      -0.460456       -12.5297
  17   2.0000      -0.420920       -11.4538
  18   2.0000      -0.407953       -11.1010
  19   2.0000      -0.392254       -10.6738
  20   2.0000      -0.381580       -10.3833
  21   2.0000      -0.372761       -10.1433
  22   2.0000      -0.358605        -9.7581
  23   2.0000      -0.343735        -9.3535
  24   2.0000      -0.341112        -9.2821
  25   2.0000      -0.322305        -8.7704
  26   2.0000      -0.263207        -7.1622
  27   2.0000      -0.225810        -6.1446
  28   2.0000      -0.217055        -5.9064
  29   0.0000      -0.048314        -1.3147
  30   0.0000      -0.031258        -0.8506
  31   0.0000       0.076678         2.0865
  32   0.0000       0.098910         2.6915
  33   0.0000       0.101635         2.7656

MULLIKEN ATOMIC CHARGES
-----------------------
   0 C :   -0.543392
   1 C :    0.246756
   2 C :   -0.210770
   3 C :   -0.186915
   4 C :    0.277427
   5 N :   -0.186616
   6 C :   -0.205667
   7 C :   -0.583969
   8 H :    0.161414
   9 H :    0.160347
  10 H :    0.152829
  11 H :    0.146981
  12 H :    0.150077
  13 H :    0.134688
  14 H :    0.179567
  15 H :    0.153384
  16 H :    0.153858
Sum of atomic charges:   -0.0000000

LOEWDIN ATOMIC CHARGES
----------------------
   0 C :   -0.388734
   1 C :   -0.090109
   2 C :   -0.120240
   3 C :   -0.138861
   4 C :    0.120739
   5 N :   -0.619811
   6 C :    0.079695
   7 C :   -0.363560
   8 H :    0.164746
   9 H :    0.164529
  10 H :    0.161661
  11 H :    0.170245
  12 H :    0.170135
  13 H :    0.184297
  14 H :    0.175287
  15 H :    0.164889
  16 H :    0.165092

  Mayer bond orders larger than 0.100000
B(  0-C ,  1-C ) :   0.8009 B(  0-C ,  8-H ) :   0.9762 B(  0-C ,  9-H ) :   0.9771
B(  0-C , 10-H ) :   0.9882 B(  1-C ,  2-C ) :   1.3359 B(  1-C ,  6-C ) :   1.3303
B(  2-C ,  3-C ) :   1.4882 B(  2-C , 11-H ) :   0.9571 B(  3-C ,  4-C ) :   1.3689
B(  3-C , 12-H ) :   0.9198 B(  4-C ,  5-N ) :   1.3440 B(  4-C ,  7-C ) :   0.8211
B(  5-N ,  6-C ) :   1.5025 B(  6-C , 13-H ) :   0.9905 B(  7-C , 14-H ) :   1.0003
B(  7-C , 15-H ) :   0.9698 B(  7-C , 16-H ) :   0.9690

Dispersion correction           -0.005184052
FINAL SINGLE POINT ENERGY      -326.823227727164

DIPOLE MOMENT
-------------

Method             : SCF
Type of density    : Electron Density
Multiplicity       :   1
Irrep              :   0
Energy             :  -326.8257859929803999 Eh
Relativity type    :
Basis              : AO
                                X                 Y                 Z
Electronic contribution:     -0.769554190      -0.998740940       0.004142719
Nuclear contribution   :      1.167982316       1.710935308      -0.005830707
                        -----------------------------------------
Total Dipole Moment    :      0.398428127       0.712194368      -0.001687988
                        -----------------------------------------
Magnitude (a.u.)       :      0.816069016
Magnitude (Debye)      :      2.074282592

Rotational constants in cm-1:             0.186419             0.050007             0.040015
Rotational constants in MHz :          5588.710337          1499.183980          1199.633409

                             ****ORCA TERMINATED NORMALLY****
TOTAL RUN TIME: 0 days 0 hours 0 minutes 21 seconds 645 msec
