                         Program Version 6.0.0  -   RELEASE  -
|  1> ! r2scan-3c def2/J RI DEFGRID2 scfconv6 printgap
|  2> %output
|  3>     printlevel normal
|  4> end
|  5> %cpcm
|  6>     smd true
|  7>     smdsolvent "water"
|  8> end
|  9> * xyz 0 1
| 10> C 2.8861345065 -0.0615107617 -0.0006882514
| 11> C 1.3916679706 -0.0042038403 0.0004055217
| 12> C 0.7126363006 1.2128380853 0.0003732739
| 13> C -0.6677883232 1.2220996612 0.0002059355
| 14> C -1.3550777273 0.0083573978 7.37861e-05
| 15> N -0.7135292724 -1.1536888808 0.0002585444
| 16> C 0.6107022099 -1.1517336832 0.0004114839
| 17> C -2.8510089157 -0.0340665068 -0.0005615968
| 18> H 3.2801811228 0.4253892546 -0.8912607414
| 19> H 3.2835913985 0.4595452883 0.8686235003
| 20> H 3.2318045178 -1.0913953343 0.0180448558
| 21> H 1.2680447121 2.1401054289 0.0004954036
| 22> H -1.2163532446 2.1516209788 0.0002518497
| 23> H 1.0697571122 -2.132906109 0.0007222532
| 24> H -3.1871903676 -1.0658331954 0.0071555082
| 25> H -3.2411637487 0.4791843601 0.8759529136
| 26> H -3.2395413546 0.4647290894 -0.886202043
| 27> *
| 28>
| 29>                          ****END OF INPUT****

CARTESIAN COORDINATES (ANGSTROEM)
---------------------------------
  C      2.886135   -0.061511   -0.000688
  C      1.391668   -0.004204    0.000406
  C      0.712636    1.212838    0.000373
  C     -0.667788    1.222100    0.000206
  C     -1.355078    0.008357    0.000074
  N     -0.713529   -1.153689    0.000259
  C      0.610702   -1.151734    0.000411
  C     -2.851009   -0.034067   -0.000562
  H      3.280181    0.425389   -0.891261
  H      3.283591    0.459545    0.868624
  H      3.231805   -1.091395    0.018045
  H      1.268045    2.140105    0.000495
  H     -1.216353    2.151621    0.000252
  H      1.069757   -2.132906    0.000722
  H     -3.187190   -1.065833    0.007156
  H     -3.241164    0.479184    0.875953
  H     -3.239541    0.464729   -0.886202

 Total Charge           Charge          ....    0
 Multiplicity           Mult            ....    1
 Number of Electrons    NEL             ....   58
 Basis Dimension        Dim             ....  202

ORBITAL ENERGIES
----------------

  NO   OCC          E(Eh)            E(eV)
   0   2.0000     -14.150948      -385.0669
   1   2.0000     -10.068976      -273.9908
   2   2.0000     -10.056603      -273.6541
   3   2.0000     -10.043805      -273.3058
   4   2.0000     -10.041423      -273.2410
   5   2.0000     -10.033550      -273.0268
   6   2.0000     -10.020430      -272.6698
   7   2.0000     -10.016356      -272.5589
   8   2.0000      -0.913406       -24.8550
   9   2.0000      -0.779810       -21.2197
  10   2.0000      -0.751438       -20.4477
  11   2.0000      -0.691758       -18.8237
  12   2.0000      -0.631726       -17.1901
  13   2.0000      -0.593663       -16.1544
  14   2.0000      -0.558194       -15.1892
  15   2.0000      -0.468045       -12.7361
  16   2.0000      -0.455951       -12.4071
  17   2.0000      -0.414281       -11.2732
  18   2.0000      -0.404984       -11.0202
  19   2.0000      -0.383332       -10.4310
  20   2.0000      -0.375518       -10.2184
  21   2.0000      -0.366746        -9.9797
  22   2.0000      -0.349699        -9.5158
  23   2.0000      -0.340015        -9.2523
  24   2.0000      -0.339306        -9.2330
  25   2.0000      -0.317055        -8.6275
  26   2.0000      -0.264585        -7.1997
  27   2.0000      -0.225247        -6.1293
  28   2.0000      -0.224945        -6.1211
  29   0.0000      -0.049119        -1.3366
  30   0.0000      -0.030850        -0.8395
  31   0.0000       0.082263         2.2385
  32   0.0000       0.104032         2.8309
  33   0.0000       0.107467         2.9243

MULLIKEN ATOMIC CHARGES
-----------------------
   0 C :   -0.568624
   1 C :    0.215321
   2 C :   -0.213706
   3 C :   -0.212130
   4 C :    0.263345
   5 N :   -0.244901
   6 C :   -0.214834
   7 C :   -0.605717
   8 H :    0.178058
   9 H :    0.177238
  10 H :    0.171096
  11 H :    0.182278
  12 H :    0.183693
  13 H :    0.160718
  14 H :    0.177084
  15 H :    0.175355
  16 H :    0.175725
Sum of atomic charges:   -0.0000000

LOEWDIN ATOMIC CHARGES
----------------------
   0 C :   -0.391491
   1 C :   -0.089912
   2 C :   -0.115872
   3 C :   -0.138469
   4 C :    0.113578
   5 N :   -0.668242
   6 C :    0.069096
   7 C :   -0.367900
   8 H :    0.171676
   9 H :    0.171500
  10 H :    0.167007
  11 H :    0.183711
  12 H :    0.183052
  13 H :    0.193179
  14 H :    0.172014
  15 H :    0.173464
  16 H :    0.173608

  Mayer bond orders larger than 0.100000
B(  0-C ,  1-C ) :   0.8133 B(  0-C ,  8-H ) :   0.9679 B(  0-C ,  9-H ) :   0.9688
B(  0-C , 10-H ) :   0.9844 B(  1-C ,  2-C ) :   1.3156 B(  1-C ,  6-C ) :   1.3424
B(  2-C ,  3-C ) :   1.4649 B(  2-C , 11-H ) :   0.9592 B(  3-C ,  4-C ) :   1.3608
B(  3-C , 12-H ) :   0.9270 B(  4-C ,  5-N ) :   1.3425 B(  4-C ,  7-C ) :   0.8320
B(  5-N ,  6-C ) :   1.4854 B(  6-C , 13-H ) :   0.9771 B(  7-C , 14-H ) :   1.0032
B(  7-C , 15-H ) :   0.9588 B(  7-C , 16-H ) :   0.9581

Dispersion correction           -0.005184052
FINAL SINGLE POINT ENERGY      -326.829224859573

DIPOLE MOMENT
-------------

Method             : SCF
Type of density    : Electron Density
Multiplicity       :   1
Irrep              :   0
Energy             :  -326.8317831253899612 Eh
Relativity type    :
Basis              : AO
                                X                 Y                 Z
Electronic contribution:     -0.582911320      -0.616722700       0.003538206
Nuclear contribution   :      1.167982316       1.710935308      -0.005830707
                        -----------------------------------------
Total Dipole Moment    :      0.585070997       1.094212608      -0.002292501
                        -----------------------------------------
Magnitude (a.u.)       :      1.240812056
Magnitude (Debye)      :      3.153893602

Rotational constants in cm-1:             0.186419             0.050007             0.040015
Rotational constants in MHz :          5588.710337          1499.183980          1199.633409

                             ****ORCA TERMINATED NORMALLY****
TOTAL RUN TIME: 0 days 0 hours 0 minutes 30 seconds 661 msec
