                         Program Version 6.0.0  -   RELEASE  -
|  1> ! pbe def2-sv(p) def2/J RI DEFGRID1 loosescf d4 GCP(DFT/SV(P)) printgap
|  2> %output
|  3>     printlevel normal
|  4> end
|  5> * xyz 0 1
|  6> C -1.9574311213 -0.6114983056 -0.8007112961
|  7> C -1.1842984427 -0.1334093968 0.4369941186
|  8> H -1.895470998 -0.1176220142 1.2715827937
|  9> C -0.6136466408 1.2867440871 0.2705544763
| 10> H -1.3405587995 1.8986610765 -0.2731302803
| 11> C 0.7197724696 1.3028535394 -0.5143576284
| 12> H 1.1284952956 2.3179420816 -0.4174691888
| 13> C 1.6988206268 0.2946254777 0.1106503607
| 14> H 2.5647037337 0.1791705124 -0.5555601536
| 15> C 1.0300922782 -1.0879903387 0.2153043236
| 16> H 1.6571214918 -1.7189925889 0.8632473778
| 17> O -0.199520509 -1.0667168159 0.8799859577
| 18> O 0.9486356254 -1.6145533875 -1.0787595181
| 19> O 2.0949816089 0.6652393723 1.4082124783
| 20> O 0.5525650823 1.0781482057 -1.8909727841
| 21> O -0.4496294713 1.9120116809 1.5202882512
| 22> O -2.665635234 -1.7821837138 -0.4536365192
| 23> H -1.2750367832 -0.8061015663 -1.6333121741
| 24> H -2.6492979238 0.1895722764 -1.0883243846
| 25> H 0.6401888541 -2.5328008548 -1.0396116597
| 26> H 2.7210903465 1.4026369683 1.3611192969
| 27> H 0.6259953931 0.1256233349 -2.0667862253
| 28> H 0.221185014 1.4189941385 2.0241706764
| 29> H -3.2105212253 -2.0585176667 -1.2039078408
| 30> *
| 31>
| 32>                          ****END OF INPUT****

CARTESIAN COORDINATES (ANGSTROEM)
---------------------------------
  C     -1.957431   -0.611498   -0.800711
  C     -1.184298   -0.133409    0.436994
  H     -1.895471   -0.117622    1.271583
  C     -0.613647    1.286744    0.270554
  H     -1.340559    1.898661   -0.273130
  C      0.719772    1.302854   -0.514358
  H      1.128495    2.317942   -0.417469
  C      1.698821    0.294625    0.110650
  H      2.564704    0.179171   -0.555560
  C      1.030092   -1.087990    0.215304
  H      1.657121   -1.718993    0.863247
  O     -0.199521   -1.066717    0.879986
  O      0.948636   -1.614553   -1.078760
  O      2.094982    0.665239    1.408212
  O      0.552565    1.078148   -1.890973
  O     -0.449629    1.912012    1.520288
  O     -2.665635   -1.782184   -0.453637
  H     -1.275037   -0.806102   -1.633312
  H     -2.649298    0.189572   -1.088324
  H      0.640189   -2.532801   -1.039612
  H      2.721090    1.402637    1.361119
  H      0.625995    0.125623   -2.066786
  H      0.221185    1.418994    2.024171
  H     -3.210521   -2.058518   -1.203908

 Total Charge           Charge          ....    0
 Multiplicity           Mult            ....    1
 Number of Electrons    NEL             ....   96
 Basis Dimension        Dim             ....  192

ORBITAL ENERGIES
----------------

  NO   OCC          E(Eh)            E(eV)
   0   2.0000     -18.786415      -511.2043
   1   2.0000     -18.778592      -510.9915
   2   2.0000     -18.764943      -510.6201
   3   2.0000     -18.746899      -510.1291
   4   2.0000     -18.745033      -510.0783
   5   2.0000     -18.733291      -509.7588
   6   2.0000      -9.995352      -271.9873
   7   2.0000      -9.954129      -270.8656
   8   2.0000      -9.939653      -270.4717
   9   2.0000      -9.936846      -270.3953
  10   2.0000      -9.933149      -270.2947
  11   2.0000      -9.929059      -270.1834
  12   2.0000      -0.990672       -26.9576
  13   2.0000      -0.953277       -25.9400
  14   2.0000      -0.928901       -25.2767
  15   2.0000      -0.925516       -25.1846
  16   2.0000      -0.916663       -24.9437
  17   2.0000      -0.906582       -24.6694
  18   2.0000      -0.699619       -19.0376
  19   2.0000      -0.693533       -18.8720
  20   2.0000      -0.622651       -16.9432
  21   2.0000      -0.584797       -15.9131
  22   2.0000      -0.570077       -15.5126
  23   2.0000      -0.537160       -14.6169
  24   2.0000      -0.502955       -13.6861
  25   2.0000      -0.489267       -13.3136
  26   2.0000      -0.472021       -12.8444
  27   2.0000      -0.458501       -12.4765
  28   2.0000      -0.436552       -11.8792
  29   2.0000      -0.428874       -11.6703
  30   2.0000      -0.417732       -11.3671
  31   2.0000      -0.402232       -10.9453
  32   2.0000      -0.387260       -10.5379
  33   2.0000      -0.373162       -10.1542
  34   2.0000      -0.366283        -9.9671
  35   2.0000      -0.345770        -9.4089
  36   2.0000      -0.333492        -9.0748
  37   2.0000      -0.331520        -9.0211
  38   2.0000      -0.312299        -8.4981
  39   2.0000      -0.290943        -7.9170
  40   2.0000      -0.277917        -7.5625
  41   2.0000      -0.264774        -7.2049
  42   2.0000      -0.259838        -7.0706
  43   2.0000      -0.243779        -6.6336
  44   2.0000      -0.239567        -6.5190
  45   2.0000      -0.220083        -5.9888
  46   2.0000      -0.213076        -5.7981
  47   2.0000      -0.193603        -5.2682
  48   0.0000       0.002908         0.0791
  49   0.0000       0.014200         0.3864
  50   0.0000       0.031140         0.8474
  51   0.0000       0.055139         1.5004
  52   0.0000       0.066368         1.8060

MULLIKEN ATOMIC CHARGES
-----------------------
   0 C :    0.016342
   1 C :    0.043357
   2 H :    0.083769
   3 C :    0.078635
   4 H :    0.074061
   5 C :    0.055271
   6 H :    0.063677
   7 C :   -0.033668
   8 H :    0.086764
   9 C :    0.206930
  10 H :    0.075614
  11 O :   -0.308485
  12 O :   -0.414415
  13 O :   -0.411732
  14 O :   -0.424152
  15 O :   -0.437073
  16 O :   -0.433256
  17 H :    0.055030
  18 H :    0.073176
  19 H :    0.319595
  20 H :    0.316210
  21 H :    0.318111
  22 H :    0.298170
  23 H :    0.298070
Sum of atomic charges:    0.0000000

LOEWDIN ATOMIC CHARGES
----------------------
   0 C :   -0.144220
   1 C :   -0.061988
   2 H :    0.126467
   3 C :   -0.069687
   4 H :    0.118938
   5 C :   -0.077619
   6 H :    0.108442
   7 C :   -0.092326
   8 H :    0.111638
   9 C :   -0.000554
  10 H :    0.105170
  11 O :   -0.135981
  12 O :   -0.309342
  13 O :   -0.301907
  14 O :   -0.320024
  15 O :   -0.324756
  16 O :   -0.346539
  17 H :    0.090283
  18 H :    0.101772
  19 H :    0.297485
  20 H :    0.296592
  21 H :    0.272892
  22 H :    0.270321
  23 H :    0.284942

  Mayer bond orders larger than 0.100000
B(  0-C ,  1-C ) :   1.0576 B(  0-C , 16-O ) :   1.0893 B(  0-C , 17-H ) :   0.8905
B(  0-C , 18-H ) :   0.9126 B(  1-C ,  2-H ) :   0.8909 B(  1-C ,  3-C ) :   0.9992
B(  1-C , 11-O ) :   0.9758 B(  3-C ,  4-H ) :   0.8904 B(  3-C ,  5-C ) :   0.9426
B(  3-C , 15-O ) :   1.0436 B(  5-C ,  6-H ) :   0.9013 B(  5-C ,  7-C ) :   0.9948
B(  5-C , 14-O ) :   1.0826 B(  7-C ,  8-H ) :   0.8968 B(  7-C ,  9-C ) :   0.9908
B(  7-C , 13-O ) :   1.0476 B(  9-C , 10-H ) :   0.9022 B(  9-C , 11-O ) :   1.0996
B(  9-C , 12-O ) :   1.0743 B( 12-O , 19-H ) :   0.8292 B( 13-O , 20-H ) :   0.8397
B( 14-O , 21-H ) :   0.8012 B( 15-O , 22-H ) :   0.8179 B( 16-O , 23-H ) :   0.8527

Dispersion correction           -0.025880249
FINAL SINGLE POINT ENERGY      -685.695056824867

DIPOLE MOMENT
-------------

Method             : SCF
Type of density    : Electron Density
Multiplicity       :   1
Irrep              :   0
Energy             :  -685.8270061683931544 Eh
Relativity type    :
Basis              : AO
                                X                 Y                 Z
Electronic contribution:      1.369414349      -0.929336292       1.929737335
Nuclear contribution   :     -0.757724453       0.268134497      -2.581750750
                        -----------------------------------------
Total Dipole Moment    :      0.611689896      -0.661201795      -0.652013415
                        -----------------------------------------
Magnitude (a.u.)       :      1.111968451
Magnitude (Debye)      :      2.826399184

Rotational constants in cm-1:             0.041857             0.027671             0.024577
Rotational constants in MHz :          1254.847455           829.554225           736.812851

                             ****ORCA TERMINATED NORMALLY****
TOTAL RUN TIME: 0 days 0 hours 0 minutes 12 seconds 302 msec
