                         Program Version 6.0.0  -   RELEASE  -
|  1> ! pbe def2-sv(p) def2/J RI DEFGRID1 loosescf d4 GCP(DFT/SV(P)) printgap
|  2> %output
|  3>     printlevel normal
|  4> end
|  5> * xyz 0 1
|  6> C -3.6813718285 -0.2693545979 0.127127073
|  7> C -2.1999494906 -0.2932723049 -0.2373494742
|  8> H -2.1021014269 -0.5614932917 -1.2954467734
|  9> C -1.4342343954 -1.3153184566 0.5996118227
| 10> C 0.0428526499 -1.3193475846 0.2244744497
| 11> C 0.6748370705 0.0593717372 0.4737541463
| 12> H 0.5141596715 0.3096436999 1.529384136
| 13> C -0.1010111227 1.0845792072 -0.3223286049
| 14> O 0.408659085 1.8424812271 -1.124984042
| 15> C -1.5793745879 1.0974338451 -0.0368174413
| 16> C 2.1889818584 0.1320369725 0.2009773935
| 17> C 2.9823244772 -0.5501042 1.3137088706
| 18> C 2.5759024317 -0.4463033299 -1.1589773436
| 19> H -3.8104234719 -0.0134424931 1.176104424
| 20> H -4.2117880265 0.4643303284 -0.4745094104
| 21> H -4.1281487265 -1.2446958801 -0.0474685898
| 22> H -1.5476773131 -1.0768971447 1.6590872486
| 23> H -1.8533884937 -2.3087699361 0.4319226312
| 24> H 0.574164863 -2.0671458453 0.8130228844
| 25> H 0.1432461286 -1.5795445426 -0.830128219
| 26> H -1.7236173012 1.4022599868 1.001875058
| 27> H -2.0603042015 1.8322288537 -0.6850228709
| 28> H 2.4498925209 1.1976732143 0.1928352281
| 29> H 2.7700193759 -1.6157982785 1.3419882028
| 30> H 2.7395813886 -0.1202974716 2.2826525914
| 31> H 4.047895032 -0.4222857204 1.1410515007
| 32> H 3.6235263136 -0.2373309009 -1.3622768113
| 33> H 1.9818006358 0.0096747292 -1.9475306705
| 34> H 2.434473237 -1.5236470963 -1.181263162
| 35> *
| 36>
| 37>                          ****END OF INPUT****

CARTESIAN COORDINATES (ANGSTROEM)
---------------------------------
  C     -3.681372   -0.269355    0.127127
  C     -2.199949   -0.293272   -0.237349
  H     -2.102101   -0.561493   -1.295447
  C     -1.434234   -1.315318    0.599612
  C      0.042853   -1.319348    0.224474
  C      0.674837    0.059372    0.473754
  H      0.514160    0.309644    1.529384
  C     -0.101011    1.084579   -0.322329
  O      0.408659    1.842481   -1.124984
  C     -1.579375    1.097434   -0.036817
  C      2.188982    0.132037    0.200977
  C      2.982324   -0.550104    1.313709
  C      2.575902   -0.446303   -1.158977
  H     -3.810423   -0.013442    1.176104
  H     -4.211788    0.464330   -0.474509
  H     -4.128149   -1.244696   -0.047469
  H     -1.547677   -1.076897    1.659087
  H     -1.853388   -2.308770    0.431923
  H      0.574165   -2.067146    0.813023
  H      0.143246   -1.579545   -0.830128
  H     -1.723617    1.402260    1.001875
  H     -2.060304    1.832229   -0.685023
  H      2.449893    1.197673    0.192835
  H      2.770019   -1.615798    1.341988
  H      2.739581   -0.120297    2.282653
  H      4.047895   -0.422286    1.141052
  H      3.623526   -0.237331   -1.362277
  H      1.981801    0.009675   -1.947531
  H      2.434473   -1.523647   -1.181263

 Total Charge           Charge          ....    0
 Multiplicity           Mult            ....    1
 Number of Electrons    NEL             ....   86
 Basis Dimension        Dim             ....  190

ORBITAL ENERGIES
----------------

  NO   OCC          E(Eh)            E(eV)
   0   2.0000     -18.740672      -509.9596
   1   2.0000      -9.968826      -271.2655
   2   2.0000      -9.907174      -269.5879
   3   2.0000      -9.899005      -269.3656
   4   2.0000      -9.895831      -269.2793
   5   2.0000      -9.893401      -269.2131
   6   2.0000      -9.891578      -269.1635
   7   2.0000      -9.891101      -269.1506
   8   2.0000      -9.883268      -268.9374
   9   2.0000      -9.873861      -268.6814
  10   2.0000      -9.866638      -268.4849
  11   2.0000      -0.935318       -25.4513
  12   2.0000      -0.769977       -20.9521
  13   2.0000      -0.729114       -19.8402
  14   2.0000      -0.678293       -18.4573
  15   2.0000      -0.657787       -17.8993
  16   2.0000      -0.613919       -16.7056
  17   2.0000      -0.607727       -16.5371
  18   2.0000      -0.556368       -15.1396
  19   2.0000      -0.519833       -14.1454
  20   2.0000      -0.504988       -13.7414
  21   2.0000      -0.468519       -12.7491
  22   2.0000      -0.433967       -11.8088
  23   2.0000      -0.419872       -11.4253
  24   2.0000      -0.413863       -11.2618
  25   2.0000      -0.400514       -10.8985
  26   2.0000      -0.389241       -10.5918
  27   2.0000      -0.380352       -10.3499
  28   2.0000      -0.369714       -10.0604
  29   2.0000      -0.361273        -9.8307
  30   2.0000      -0.351799        -9.5729
  31   2.0000      -0.344250        -9.3675
  32   2.0000      -0.334252        -9.0955
  33   2.0000      -0.331277        -9.0145
  34   2.0000      -0.322477        -8.7750
  35   2.0000      -0.310662        -8.4536
  36   2.0000      -0.306633        -8.3439
  37   2.0000      -0.294779        -8.0213
  38   2.0000      -0.287597        -7.8259
  39   2.0000      -0.284109        -7.7310
  40   2.0000      -0.274060        -7.4575
  41   2.0000      -0.267413        -7.2767
  42   2.0000      -0.191368        -5.2074
  43   0.0000      -0.051522        -1.4020
  44   0.0000       0.033486         0.9112
  45   0.0000       0.037836         1.0296
  46   0.0000       0.044800         1.2191
  47   0.0000       0.064866         1.7651

MULLIKEN ATOMIC CHARGES
-----------------------
   0 C :   -0.193298
   1 C :   -0.234604
   2 H :    0.077042
   3 C :   -0.107473
   4 C :   -0.119520
   5 C :   -0.168290
   6 H :    0.075747
   7 C :    0.013630
   8 O :   -0.162364
   9 C :   -0.046231
  10 C :   -0.104273
  11 C :   -0.236527
  12 C :   -0.264294
  13 H :    0.091733
  14 H :    0.102451
  15 H :    0.100055
  16 H :    0.071346
  17 H :    0.085284
  18 H :    0.092722
  19 H :    0.089557
  20 H :    0.085498
  21 H :    0.083497
  22 H :    0.075391
  23 H :    0.094712
  24 H :    0.092825
  25 H :    0.099534
  26 H :    0.097288
  27 H :    0.112594
  28 H :    0.095967
Sum of atomic charges:    0.0000000

LOEWDIN ATOMIC CHARGES
----------------------
   0 C :   -0.326246
   1 C :   -0.146552
   2 H :    0.119616
   3 C :   -0.216231
   4 C :   -0.208836
   5 C :   -0.161343
   6 H :    0.130667
   7 C :    0.057856
   8 O :   -0.126080
   9 C :   -0.232932
  10 C :   -0.146584
  11 C :   -0.328701
  12 C :   -0.333212
  13 H :    0.117572
  14 H :    0.120669
  15 H :    0.119718
  16 H :    0.114802
  17 H :    0.119841
  18 H :    0.120630
  19 H :    0.122229
  20 H :    0.132906
  21 H :    0.127008
  22 H :    0.121412
  23 H :    0.113396
  24 H :    0.114631
  25 H :    0.119721
  26 H :    0.119790
  27 H :    0.121745
  28 H :    0.112509

  Mayer bond orders larger than 0.100000
B(  0-C ,  1-C ) :   1.1145 B(  0-C , 13-H ) :   0.9452 B(  0-C , 14-H ) :   0.9473
B(  0-C , 15-H ) :   0.9472 B(  1-C ,  2-H ) :   0.8942 B(  1-C ,  3-C ) :   1.0871
B(  1-C ,  9-C ) :   1.0771 B(  3-C ,  4-C ) :   1.1329 B(  3-C , 16-H ) :   0.9063
B(  3-C , 17-H ) :   0.9101 B(  4-C ,  5-C ) :   1.0730 B(  4-C , 18-H ) :   0.9088
B(  4-C , 19-H ) :   0.8946 B(  5-C ,  6-H ) :   0.8634 B(  5-C ,  7-C ) :   0.9313
B(  5-C , 10-C ) :   1.0341 B(  7-C ,  8-O ) :   2.1762 B(  7-C ,  9-C ) :   1.0546
B(  9-C , 20-H ) :   0.8775 B(  9-C , 21-H ) :   0.8892 B( 10-C , 11-C ) :   1.1114
B( 10-C , 12-C ) :   1.1085 B( 10-C , 22-H ) :   0.8902 B( 11-C , 23-H ) :   0.9409
B( 11-C , 24-H ) :   0.9486 B( 11-C , 25-H ) :   0.9501 B( 12-C , 26-H ) :   0.9477
B( 12-C , 27-H ) :   0.9447 B( 12-C , 28-H ) :   0.9407

Dispersion correction           -0.029811870
FINAL SINGLE POINT ENERGY      -466.037203507357

DIPOLE MOMENT
-------------

Method             : SCF
Type of density    : Electron Density
Multiplicity       :   1
Irrep              :   0
Energy             :  -466.1339770950381762 Eh
Relativity type    :
Basis              : AO
                                X                 Y                 Z
Electronic contribution:     -0.353090845       6.374279863      -2.883830763
Nuclear contribution   :     -0.142815592      -7.061014820       3.497941024
                        -----------------------------------------
Total Dipole Moment    :     -0.495906436      -0.686734956       0.614110260
                        -----------------------------------------
Magnitude (a.u.)       :      1.046259770
Magnitude (Debye)      :      2.659380990

Rotational constants in cm-1:             0.066205             0.023404             0.019872
Rotational constants in MHz :          1984.763402           701.619788           595.761088

                             ****ORCA TERMINATED NORMALLY****
TOTAL RUN TIME: 0 days 0 hours 0 minutes 15 seconds 644 msec
