                         Program Version 6.0.0  -   RELEASE  -
|  1> ! wb97x-v def2-tzvp def2/J RIJCOSX DEFGRID2 scfconv7 GCP(DFT/TZ) printgap
|  2> %output
|  3>     printlevel normal
|  4> end
|  5> * xyz 0 1
|  6> C 3.2996742122156175 1.0783724286520622 -0.004802645061395452
|  7> N 2.2745512735708706 0.04000013300431395 0.003161295680765735
|  8> C 2.4819520839914158 -1.292476002364167 -0.00018287584920077997
|  9> N 1.3522811974903017 -2.009995130817148 0.001839584805966413
| 10> C 0.37776429341200907 -1.0665630824625592 0.006174974631709091
| 11> C 0.9012229020680046 0.21332871167305376 0.005661960589081551
| 12> C 0.10119318469059156 1.3820901150274834 0.0037942547066405633
| 13> O 0.5037426999473812 2.552250966799571 0.0018333340890869295
| 14> N -1.277520271285552 1.0659011177537754 0.002584093329459013
| 15> C -1.8407464590236613 -0.21589077266486917 -0.006696108228653679
| 16> O -3.065778838648913 -0.3600347411665942 -0.02533106001355235
| 17> N -0.9731098761150285 -1.2916201842006814 0.011527929913940407
| 18> C -1.4864745369486334 -2.6641115810365825 0.0006346365161509558
| 19> C -2.2473133068888473 2.1685963784235005 -0.0013314699207274893
| 20> H 3.222227070986593 1.6795926364244318 -0.9133789315456013
| 21> H 3.1889193328061456 1.7236323410318797 0.8691331860569141
| 22> H 4.274222856710858 0.5897079041897593 0.025746551554729925
| 23> H 3.479415402743488 -1.7113165598829996 -0.0033800843336663413
| 24> H -1.244095550602587 -3.1507011143201087 -0.948128247668069
| 25> H -2.5661778387609533 -2.6325949656993832 0.1278634836208133
| 26> H -1.0385793239580943 -3.227092710442253 0.8220852578698653
| 27> H -2.890614980001298 2.105090920985172 0.8792635669282756
| 28> H -2.8659563885031885 2.123035757239036 -0.9006564723063158
| 29> H -1.6968657472140027 3.1063826226575086 0.015761532508481314
| 30> *
| 31>
| 32>                          ****END OF INPUT****

CARTESIAN COORDINATES (ANGSTROEM)
---------------------------------
  C      3.299674    1.078372   -0.004803
  N      2.274551    0.040000    0.003161
  C      2.481952   -1.292476   -0.000183
  N      1.352281   -2.009995    0.001840
  C      0.377764   -1.066563    0.006175
  C      0.901223    0.213329    0.005662
  C      0.101193    1.382090    0.003794
  O      0.503743    2.552251    0.001833
  N     -1.277520    1.065901    0.002584
  C     -1.840746   -0.215891   -0.006696
  O     -3.065779   -0.360035   -0.025331
  N     -0.973110   -1.291620    0.011528
  C     -1.486475   -2.664112    0.000635
  C     -2.247313    2.168596   -0.001331
  H      3.222227    1.679593   -0.913379
  H      3.188919    1.723632    0.869133
  H      4.274223    0.589708    0.025747
  H      3.479415   -1.711317   -0.003380
  H     -1.244096   -3.150701   -0.948128
  H     -2.566178   -2.632595    0.127863
  H     -1.038579   -3.227093    0.822085
  H     -2.890615    2.105091    0.879264
  H     -2.865956    2.123036   -0.900656
  H     -1.696866    3.106383    0.015762

 Total Charge           Charge          ....    0
 Multiplicity           Mult            ....    1
 Number of Electrons    NEL             ....  102
 Basis Dimension        Dim             ....  494

ORBITAL ENERGIES
----------------

  NO   OCC          E(Eh)            E(eV)
   0   2.0000     -21.649452      -589.1115
   1   2.0000     -21.642380      -588.9191
   2   2.0000     -16.618502      -452.2124
   3   2.0000     -16.591886      -451.4882
   4   2.0000     -16.586162      -451.3324
   5   2.0000     -16.536496      -449.9809
   6   2.0000     -12.194050      -331.8170
   7   2.0000     -12.174843      -331.2943
   8   2.0000     -12.136685      -330.2560
   9   2.0000     -12.134157      -330.1872
  10   2.0000     -12.110600      -329.5462
  11   2.0000     -12.090303      -328.9939
  12   2.0000     -12.085480      -328.8626
  13   2.0000     -12.074137      -328.5540
  14   2.0000      -1.710170       -46.5361
  15   2.0000      -1.700642       -46.2768
  16   2.0000      -1.638466       -44.5849
  17   2.0000      -1.580193       -42.9992
  18   2.0000      -1.536868       -41.8203
  19   2.0000      -1.500800       -40.8388
  20   2.0000      -1.349885       -36.7322
  21   2.0000      -1.280578       -34.8463
  22   2.0000      -1.266051       -34.4510
  23   2.0000      -1.250465       -34.0269
  24   2.0000      -1.211458       -32.9654
  25   2.0000      -1.180712       -32.1288
  26   2.0000      -1.131990       -30.8030
  27   2.0000      -1.105779       -30.0898
  28   2.0000      -1.080281       -29.3959
  29   2.0000      -1.043799       -28.4032
  30   2.0000      -1.034321       -28.1453
  31   2.0000      -1.009319       -27.4650
  32   2.0000      -0.978870       -26.6364
  33   2.0000      -0.973897       -26.5011
  34   2.0000      -0.953467       -25.9452
  35   2.0000      -0.948244       -25.8030
  36   2.0000      -0.945070       -25.7167
  37   2.0000      -0.919426       -25.0189
  38   2.0000      -0.895176       -24.3590
  39   2.0000      -0.881665       -23.9913
  40   2.0000      -0.872300       -23.7365
  41   2.0000      -0.867788       -23.6137
  42   2.0000      -0.859265       -23.3818
  43   2.0000      -0.858999       -23.3746
  44   2.0000      -0.845785       -23.0150
  45   2.0000      -0.835015       -22.7219
  46   2.0000      -0.823027       -22.3957
  47   2.0000      -0.804202       -21.8835
  48   2.0000      -0.779554       -21.2128
  49   2.0000      -0.756255       -20.5787
  50   2.0000      -0.668821       -18.1995
  51   0.0000      -0.347305        -9.4506
  52   0.0000      -0.296035        -8.0555
  53   0.0000      -0.264516        -7.1978
  54   0.0000      -0.180987        -4.9249
  55   0.0000      -0.158352        -4.3090

MULLIKEN ATOMIC CHARGES
-----------------------
   0 C :   -0.268216
   1 N :    0.005771
   2 C :    0.016367
   3 N :   -0.287180
   4 C :    0.161161
   5 C :   -0.103091
   6 C :    0.212254
   7 O :   -0.396439
   8 N :   -0.056700
   9 C :    0.266011
  10 O :   -0.405543
  11 N :   -0.051884
  12 C :   -0.281318
  13 C :   -0.271324
  14 H :    0.151083
  15 H :    0.153705
  16 H :    0.127253
  17 H :    0.157499
  18 H :    0.129931
  19 H :    0.173545
  20 H :    0.136344
  21 H :    0.132702
  22 H :    0.132483
  23 H :    0.165585
Sum of atomic charges:    0.0000000

LOEWDIN ATOMIC CHARGES
----------------------
   0 C :   -0.238121
   1 N :    0.261979
   2 C :   -0.232257
   3 N :    0.101496
   4 C :   -0.244990
   5 C :   -0.175782
   6 C :   -0.365699
   7 O :    0.043460
   8 N :    0.230774
   9 C :   -0.423304
  10 O :    0.041327
  11 N :    0.235905
  12 C :   -0.242827
  13 C :   -0.251564
  14 H :    0.127459
  15 H :    0.128272
  16 H :    0.122423
  17 H :    0.135908
  18 H :    0.120333
  19 H :    0.132043
  20 H :    0.122321
  21 H :    0.121348
  22 H :    0.121212
  23 H :    0.128282

  Mayer bond orders larger than 0.100000
B(  0-C ,  1-N ) :   0.9082 B(  0-C , 14-H ) :   0.9692 B(  0-C , 15-H ) :   0.9693
B(  0-C , 16-H ) :   0.9647 B(  1-N ,  2-C ) :   1.3451 B(  1-N ,  5-C ) :   1.1602
B(  2-C ,  3-N ) :   1.5727 B(  2-C , 17-H ) :   0.9563 B(  3-N ,  4-C ) :   1.4544
B(  4-C ,  5-C ) :   1.4295 B(  4-C , 11-N ) :   1.1483 B(  5-C ,  6-C ) :   1.0452
B(  6-C ,  7-O ) :   2.0699 B(  6-C ,  8-N ) :   1.1635 B(  8-N ,  9-C ) :   1.1401
B(  8-N , 13-C ) :   0.9059 B(  9-C , 10-O ) :   2.0140 B(  9-C , 11-N ) :   1.1620
B( 11-N , 12-C ) :   0.9006 B( 12-C , 18-H ) :   0.9737 B( 12-C , 19-H ) :   0.9598
B( 12-C , 20-H ) :   0.9702 B( 13-C , 21-H ) :   0.9730 B( 13-C , 22-H ) :   0.9731
B( 13-C , 23-H ) :   0.9601

FINAL SINGLE POINT ENERGY      -680.427965287054

DIPOLE MOMENT
-------------

Method             : SCF
Type of density    : Electron Density
Multiplicity       :   1
Irrep              :   0
Energy             :  -680.4437420087541568 Eh
Relativity type    :
Basis              : AO
                                X                 Y                 Z
Electronic contribution:     -0.142999959      -0.906374012       0.035257669
Nuclear contribution   :      1.754509920       0.580638350      -0.019726781
                        -----------------------------------------
Total Dipole Moment    :      1.611509961      -0.325735662       0.015530889
                        -----------------------------------------
Magnitude (a.u.)       :      1.644174347
Magnitude (Debye)      :      4.179159068

Rotational constants in cm-1:             0.035427             0.023481             0.014236
Rotational constants in MHz :          1062.078271           703.932381           426.788499

                             ****ORCA TERMINATED NORMALLY****
TOTAL RUN TIME: 0 days 0 hours 8 minutes 32 seconds 228 msec
