                         Program Version 6.0.0  -   RELEASE  -
|  1> ! wb97x-v def2-tzvp def2/J RIJCOSX DEFGRID2 scfconv7 GCP(DFT/TZ) printgap
|  2> %output
|  3>     printlevel normal
|  4> end
|  5> %cpcm
|  6>     smd true
|  7>     smdsolvent "water"
|  8> end
|  9> * xyz 0 1
| 10> C 3.2996742122156175 1.0783724286520622 -0.004802645061395452
| 11> N 2.2745512735708706 0.04000013300431395 0.003161295680765735
| 12> C 2.4819520839914158 -1.292476002364167 -0.00018287584920077997
| 13> N 1.3522811974903017 -2.009995130817148 0.001839584805966413
| 14> C 0.37776429341200907 -1.0665630824625592 0.006174974631709091
| 15> C 0.9012229020680046 0.21332871167305376 0.005661960589081551
| 16> C 0.10119318469059156 1.3820901150274834 0.0037942547066405633
| 17> O 0.5037426999473812 2.552250966799571 0.0018333340890869295
| 18> N -1.277520271285552 1.0659011177537754 0.002584093329459013
| 19> C -1.8407464590236613 -0.21589077266486917 -0.006696108228653679
| 20> O -3.065778838648913 -0.3600347411665942 -0.02533106001355235
| 21> N -0.9731098761150285 -1.2916201842006814 0.011527929913940407
| 22> C -1.4864745369486334 -2.6641115810365825 0.0006346365161509558
| 23> C -2.2473133068888473 2.1685963784235005 -0.0013314699207274893
| 24> H 3.222227070986593 1.6795926364244318 -0.9133789315456013
| 25> H 3.1889193328061456 1.7236323410318797 0.8691331860569141
| 26> H 4.274222856710858 0.5897079041897593 0.025746551554729925
| 27> H 3.479415402743488 -1.7113165598829996 -0.0033800843336663413
| 28> H -1.244095550602587 -3.1507011143201087 -0.948128247668069
| 29> H -2.5661778387609533 -2.6325949656993832 0.1278634836208133
| 30> H -1.0385793239580943 -3.227092710442253 0.8220852578698653
| 31> H -2.890614980001298 2.105090920985172 0.8792635669282756
| 32> H -2.8659563885031885 2.123035757239036 -0.9006564723063158
| 33> H -1.6968657472140027 3.1063826226575086 0.015761532508481314
| 34> *
| 35>
| 36>                          ****END OF INPUT****

CARTESIAN COORDINATES (ANGSTROEM)
---------------------------------
  C      3.299674    1.078372   -0.004803
  N      2.274551    0.040000    0.003161
  C      2.481952   -1.292476   -0.000183
  N      1.352281   -2.009995    0.001840
  C      0.377764   -1.066563    0.006175
  C      0.901223    0.213329    0.005662
  C      0.101193    1.382090    0.003794
  O      0.503743    2.552251    0.001833
  N     -1.277520    1.065901    0.002584
  C     -1.840746   -0.215891   -0.006696
  O     -3.065779   -0.360035   -0.025331
  N     -0.973110   -1.291620    0.011528
  C     -1.486475   -2.664112    0.000635
  C     -2.247313    2.168596   -0.001331
  H      3.222227    1.679593   -0.913379
  H      3.188919    1.723632    0.869133
  H      4.274223    0.589708    0.025747
  H      3.479415   -1.711317   -0.003380
  H     -1.244096   -3.150701   -0.948128
  H     -2.566178   -2.632595    0.127863
  H     -1.038579   -3.227093    0.822085
  H     -2.890615    2.105091    0.879264
  H     -2.865956    2.123036   -0.900656
  H     -1.696866    3.106383    0.015762

 Total Charge           Charge          ....    0
 Multiplicity           Mult            ....    1
 Number of Electrons    NEL             ....  102
 Basis Dimension        Dim             ....  494

ORBITAL ENERGIES
----------------

  NO   OCC          E(Eh)            E(eV)
   0   2.0000     -21.659727      -589.3911
   1   2.0000     -21.657185      -589.3220
   2   2.0000     -16.605829      -451.8676
   3   2.0000     -16.594229      -451.5519
   4   2.0000     -16.591904      -451.4887
   5   2.0000     -16.532070      -449.8605
   6   2.0000     -12.204547      -332.1026
   7   2.0000     -12.182366      -331.4990
   8   2.0000     -12.131718      -330.1208
   9   2.0000     -12.125296      -329.9461
  10   2.0000     -12.085992      -328.8766
  11   2.0000     -12.083547      -328.8100
  12   2.0000     -12.077942      -328.6575
  13   2.0000     -12.073412      -328.5342
  14   2.0000      -1.725228       -46.9458
  15   2.0000      -1.713444       -46.6252
  16   2.0000      -1.629978       -44.3540
  17   2.0000      -1.580937       -43.0195
  18   2.0000      -1.539702       -41.8974
  19   2.0000      -1.494154       -40.6580
  20   2.0000      -1.345350       -36.6088
  21   2.0000      -1.271465       -34.5983
  22   2.0000      -1.259134       -34.2628
  23   2.0000      -1.250016       -34.0147
  24   2.0000      -1.208047       -32.8726
  25   2.0000      -1.181141       -32.1405
  26   2.0000      -1.128933       -30.7198
  27   2.0000      -1.100822       -29.9549
  28   2.0000      -1.086652       -29.5693
  29   2.0000      -1.050407       -28.5830
  30   2.0000      -1.045853       -28.4591
  31   2.0000      -1.001030       -27.2394
  32   2.0000      -0.976561       -26.5736
  33   2.0000      -0.973863       -26.5002
  34   2.0000      -0.952187       -25.9103
  35   2.0000      -0.939860       -25.5749
  36   2.0000      -0.930053       -25.3080
  37   2.0000      -0.927802       -25.2468
  38   2.0000      -0.898431       -24.4476
  39   2.0000      -0.894126       -24.3304
  40   2.0000      -0.876824       -23.8596
  41   2.0000      -0.876608       -23.8537
  42   2.0000      -0.844940       -22.9920
  43   2.0000      -0.843919       -22.9642
  44   2.0000      -0.840166       -22.8621
  45   2.0000      -0.835191       -22.7267
  46   2.0000      -0.819329       -22.2951
  47   2.0000      -0.797872       -21.7112
  48   2.0000      -0.778317       -21.1791
  49   2.0000      -0.750976       -20.4351
  50   2.0000      -0.665160       -18.0999
  51   0.0000      -0.345169        -9.3925
  52   0.0000      -0.301264        -8.1978
  53   0.0000      -0.255630        -6.9561
  54   0.0000      -0.178396        -4.8544
  55   0.0000      -0.155691        -4.2366

MULLIKEN ATOMIC CHARGES
-----------------------
   0 C :   -0.320349
   1 N :    0.026493
   2 C :    0.025888
   3 N :   -0.352082
   4 C :    0.171376
   5 C :   -0.090171
   6 C :    0.265635
   7 O :   -0.510784
   8 N :   -0.031194
   9 C :    0.324479
  10 O :   -0.522799
  11 N :   -0.027590
  12 C :   -0.312247
  13 C :   -0.310756
  14 H :    0.165426
  15 H :    0.165255
  16 H :    0.169814
  17 H :    0.208105
  18 H :    0.158850
  19 H :    0.165877
  20 H :    0.157776
  21 H :    0.156031
  22 H :    0.156052
  23 H :    0.160914
Sum of atomic charges:    0.0000000

LOEWDIN ATOMIC CHARGES
----------------------
   0 C :   -0.233740
   1 N :    0.270446
   2 C :   -0.205292
   3 N :    0.069023
   4 C :   -0.238793
   5 C :   -0.169940
   6 C :   -0.352059
   7 O :   -0.018577
   8 N :    0.239835
   9 C :   -0.408282
  10 O :   -0.023385
  11 N :    0.246348
  12 C :   -0.240241
  13 C :   -0.252331
  14 H :    0.129848
  15 H :    0.129892
  16 H :    0.136677
  17 H :    0.153473
  18 H :    0.127652
  19 H :    0.130827
  20 H :    0.128435
  21 H :    0.126102
  22 H :    0.125947
  23 H :    0.128133

  Mayer bond orders larger than 0.100000
B(  0-C ,  1-N ) :   0.8901 B(  0-C , 14-H ) :   0.9651 B(  0-C , 15-H ) :   0.9655
B(  0-C , 16-H ) :   0.9587 B(  1-N ,  2-C ) :   1.3669 B(  1-N ,  5-C ) :   1.1559
B(  2-C ,  3-N ) :   1.5383 B(  2-C , 17-H ) :   0.9428 B(  3-N ,  4-C ) :   1.4755
B(  4-C ,  5-C ) :   1.4414 B(  4-C , 11-N ) :   1.1474 B(  5-C ,  6-C ) :   1.0802
B(  6-C ,  7-O ) :   1.9567 B(  6-C ,  8-N ) :   1.1729 B(  8-N ,  9-C ) :   1.1600
B(  8-N , 13-C ) :   0.8897 B(  9-C , 10-O ) :   1.8986 B(  9-C , 11-N ) :   1.1961
B( 11-N , 12-C ) :   0.8862 B( 12-C , 18-H ) :   0.9678 B( 12-C , 19-H ) :   0.9601
B( 12-C , 20-H ) :   0.9646 B( 13-C , 21-H ) :   0.9678 B( 13-C , 22-H ) :   0.9679
B( 13-C , 23-H ) :   0.9584

FINAL SINGLE POINT ENERGY      -680.448485211694

DIPOLE MOMENT
-------------

Method             : SCF
Type of density    : Electron Density
Multiplicity       :   1
Irrep              :   0
Energy             :  -680.4642619333943685 Eh
Relativity type    :
Basis              : AO
                                X                 Y                 Z
Electronic contribution:      0.549221922      -1.196886772       0.039394861
Nuclear contribution   :      1.754509920       0.580638350      -0.019726781
                        -----------------------------------------
Total Dipole Moment    :      2.303731842      -0.616248422       0.019668080
                        -----------------------------------------
Magnitude (a.u.)       :      2.384812226
Magnitude (Debye)      :      6.061710946

Rotational constants in cm-1:             0.035427             0.023481             0.014236
Rotational constants in MHz :          1062.078271           703.932381           426.788499

                             ****ORCA TERMINATED NORMALLY****
TOTAL RUN TIME: 0 days 0 hours 8 minutes 6 seconds 13 msec
