                         Program Version 6.0.0  -   RELEASE  -
|  1> ! r2scan-3c def2/J RI DEFGRID2 scfconv6 printgap
|  2> %output
|  3>     printlevel normal
|  4> end
|  5> * xyz 0 1
|  6> C -2.5593631803 -0.8799851496 0.2785638571
|  7> C -1.1240670533 -0.4492412031 0.6128102422
|  8> H -1.011107916 -0.3995487779 1.7059291307
|  9> C -0.8230258801 0.9427939738 0.0391600974
| 10> H -1.0681268627 0.9475700075 -1.0335632224
| 11> C 0.6650038472 1.2842043279 0.200183608
| 12> H 0.8826010487 1.4151766224 1.2726108946
| 13> C 1.5376182792 0.1431410048 -0.3281975799
| 14> H 1.3888614127 0.0557689582 -1.4163362198
| 15> C 1.104319447 -1.1741341012 0.3442123826
| 16> H 1.276991044 -1.089247735 1.4309443794
| 17> O -0.2518880471 -1.4298069257 0.078786516
| 18> O 1.8597067033 -2.2464383176 -0.0918872519
| 19> O 2.8799124797 0.4443949793 -0.0378416271
| 20> O 0.9007104986 2.4870015058 -0.4902071173
| 21> O -1.6250285863 1.8637309003 0.7320335914
| 22> O -2.7760721022 -1.0074021557 -1.1011134368
| 23> H -3.2391035395 -0.1042416001 0.6334217315
| 24> H -2.7725151775 -1.8227713722 0.7951880792
| 25> H 1.523057088 -2.5549886551 -0.9479791366
| 26> H 3.4181349646 -0.3520336168 -0.1643779523
| 27> H 1.848513887 2.6826535888 -0.4558439096
| 28> H -1.4230241357 2.7514057996 0.399432002
| 29> H -2.2028844426 -1.7117986748 -1.4358979227
| 30> *
| 31>
| 32>                          ****END OF INPUT****

CARTESIAN COORDINATES (ANGSTROEM)
---------------------------------
  C     -2.559363   -0.879985    0.278564
  C     -1.124067   -0.449241    0.612810
  H     -1.011108   -0.399549    1.705929
  C     -0.823026    0.942794    0.039160
  H     -1.068127    0.947570   -1.033563
  C      0.665004    1.284204    0.200184
  H      0.882601    1.415177    1.272611
  C      1.537618    0.143141   -0.328198
  H      1.388861    0.055769   -1.416336
  C      1.104319   -1.174134    0.344212
  H      1.276991   -1.089248    1.430944
  O     -0.251888   -1.429807    0.078787
  O      1.859707   -2.246438   -0.091887
  O      2.879912    0.444395   -0.037842
  O      0.900710    2.487002   -0.490207
  O     -1.625029    1.863731    0.732034
  O     -2.776072   -1.007402   -1.101113
  H     -3.239104   -0.104242    0.633422
  H     -2.772515   -1.822771    0.795188
  H      1.523057   -2.554989   -0.947979
  H      3.418135   -0.352034   -0.164378
  H      1.848514    2.682654   -0.455844
  H     -1.423024    2.751406    0.399432
  H     -2.202884   -1.711799   -1.435898

 Total Charge           Charge          ....    0
 Multiplicity           Mult            ....    1
 Number of Electrons    NEL             ....   96
 Basis Dimension        Dim             ....  318

ORBITAL ENERGIES
----------------

  NO   OCC          E(Eh)            E(eV)
   0   2.0000     -18.983209      -516.5594
   1   2.0000     -18.982562      -516.5418
   2   2.0000     -18.968563      -516.1608
   3   2.0000     -18.962440      -515.9942
   4   2.0000     -18.957745      -515.8665
   5   2.0000     -18.953645      -515.7549
   6   2.0000     -10.149003      -276.1684
   7   2.0000     -10.097632      -274.7705
   8   2.0000     -10.093827      -274.6670
   9   2.0000     -10.092357      -274.6270
  10   2.0000     -10.089422      -274.5471
  11   2.0000     -10.080838      -274.3135
  12   2.0000      -1.064655       -28.9707
  13   2.0000      -1.016375       -27.6570
  14   2.0000      -1.010057       -27.4851
  15   2.0000      -0.996628       -27.1196
  16   2.0000      -0.988014       -26.8852
  17   2.0000      -0.986214       -26.8362
  18   2.0000      -0.754422       -20.5289
  19   2.0000      -0.741367       -20.1736
  20   2.0000      -0.660583       -17.9754
  21   2.0000      -0.625635       -17.0244
  22   2.0000      -0.596244       -16.2246
  23   2.0000      -0.569027       -15.4840
  24   2.0000      -0.532030       -14.4773
  25   2.0000      -0.517948       -14.0941
  26   2.0000      -0.497703       -13.5432
  27   2.0000      -0.476307       -12.9610
  28   2.0000      -0.467415       -12.7190
  29   2.0000      -0.465256       -12.6602
  30   2.0000      -0.448251       -12.1975
  31   2.0000      -0.437329       -11.9003
  32   2.0000      -0.401291       -10.9197
  33   2.0000      -0.398895       -10.8545
  34   2.0000      -0.383896       -10.4463
  35   2.0000      -0.379096       -10.3157
  36   2.0000      -0.358208        -9.7473
  37   2.0000      -0.351406        -9.5622
  38   2.0000      -0.333205        -9.0670
  39   2.0000      -0.321002        -8.7349
  40   2.0000      -0.312773        -8.5110
  41   2.0000      -0.303097        -8.2477
  42   2.0000      -0.287624        -7.8266
  43   2.0000      -0.269150        -7.3240
  44   2.0000      -0.255096        -6.9415
  45   2.0000      -0.244686        -6.6582
  46   2.0000      -0.241529        -6.5723
  47   2.0000      -0.232320        -6.3218
  48   0.0000       0.029764         0.8099
  49   0.0000       0.044001         1.1973
  50   0.0000       0.059413         1.6167
  51   0.0000       0.074873         2.0374
  52   0.0000       0.083762         2.2793

MULLIKEN ATOMIC CHARGES
-----------------------
   0 C :   -0.249494
   1 C :    0.016521
   2 H :    0.167376
   3 C :   -0.062201
   4 H :    0.194937
   5 C :   -0.030428
   6 H :    0.170063
   7 C :    0.111646
   8 H :    0.163146
   9 C :   -0.156284
  10 H :    0.157149
  11 O :   -0.219545
  12 O :   -0.384931
  13 O :   -0.439479
  14 O :   -0.443822
  15 O :   -0.442677
  16 O :   -0.419518
  17 H :    0.161545
  18 H :    0.141707
  19 H :    0.321065
  20 H :    0.310470
  21 H :    0.314628
  22 H :    0.313160
  23 H :    0.304966
Sum of atomic charges:   -0.0000000

LOEWDIN ATOMIC CHARGES
----------------------
   0 C :    0.044088
   1 C :    0.118432
   2 H :    0.189487
   3 C :    0.114325
   4 H :    0.194025
   5 C :    0.107142
   6 H :    0.186157
   7 C :    0.106191
   8 H :    0.181998
   9 C :    0.292937
  10 H :    0.196901
  11 O :   -0.684739
  12 O :   -0.494590
  13 O :   -0.578695
  14 O :   -0.575566
  15 O :   -0.577437
  16 O :   -0.589430
  17 H :    0.198012
  18 H :    0.166117
  19 H :    0.283381
  20 H :    0.283078
  21 H :    0.282684
  22 H :    0.283538
  23 H :    0.271964

  Mayer bond orders larger than 0.100000
B(  0-C ,  1-C ) :   0.9377 B(  0-C , 16-O ) :   1.0334 B(  0-C , 17-H ) :   0.9609
B(  0-C , 18-H ) :   0.9832 B(  1-C ,  2-H ) :   0.9325 B(  1-C ,  3-C ) :   0.8613
B(  1-C , 11-O ) :   0.7658 B(  1-C , 16-O ) :  -0.1129 B(  3-C ,  4-H ) :   0.9976
B(  3-C ,  5-C ) :   0.8251 B(  3-C , 15-O ) :   0.8701 B(  5-C ,  6-H ) :   0.9933
B(  5-C ,  7-C ) :   0.8613 B(  5-C , 14-O ) :   0.9057 B(  7-C ,  8-H ) :   0.9480
B(  7-C ,  9-C ) :   0.7669 B(  7-C , 13-O ) :   0.8973 B(  9-C , 10-H ) :   1.0107
B(  9-C , 11-O ) :   0.9817 B(  9-C , 12-O ) :   1.0958 B( 12-O , 19-H ) :   0.8725
B( 13-O , 20-H ) :   0.8749 B( 14-O , 21-H ) :   0.8793 B( 15-O , 22-H ) :   0.8814
B( 16-O , 23-H ) :   0.8826

Dispersion correction           -0.008049080
FINAL SINGLE POINT ENERGY      -687.079760945636

DIPOLE MOMENT
-------------

Method             : SCF
Type of density    : Electron Density
Multiplicity       :   1
Irrep              :   0
Energy             :  -687.0911083564362798 Eh
Relativity type    :
Basis              : AO
                                X                 Y                 Z
Electronic contribution:      1.967610303      -0.230510840      -0.862406265
Nuclear contribution   :     -1.278736837      -0.169147469       0.721597835
                        -----------------------------------------
Total Dipole Moment    :      0.688873466      -0.399658308      -0.140808430
                        -----------------------------------------
Magnitude (a.u.)       :      0.808764755
Magnitude (Debye)      :      2.055716637

Rotational constants in cm-1:             0.039031             0.027059             0.017809
Rotational constants in MHz :          1170.105358           811.212974           533.900397

                             ****ORCA TERMINATED NORMALLY****
TOTAL RUN TIME: 0 days 0 hours 0 minutes 49 seconds 516 msec
