                         Program Version 6.0.0  -   RELEASE  -
|  1> ! r2scan-3c def2/J RI DEFGRID2 scfconv6 printgap
|  2> %output
|  3>     printlevel normal
|  4> end
|  5> %cpcm
|  6>     smd true
|  7>     smdsolvent "water"
|  8> end
|  9> * xyz 0 1
| 10> C -2.5593631803 -0.8799851496 0.2785638571
| 11> C -1.1240670533 -0.4492412031 0.6128102422
| 12> H -1.011107916 -0.3995487779 1.7059291307
| 13> C -0.8230258801 0.9427939738 0.0391600974
| 14> H -1.0681268627 0.9475700075 -1.0335632224
| 15> C 0.6650038472 1.2842043279 0.200183608
| 16> H 0.8826010487 1.4151766224 1.2726108946
| 17> C 1.5376182792 0.1431410048 -0.3281975799
| 18> H 1.3888614127 0.0557689582 -1.4163362198
| 19> C 1.104319447 -1.1741341012 0.3442123826
| 20> H 1.276991044 -1.089247735 1.4309443794
| 21> O -0.2518880471 -1.4298069257 0.078786516
| 22> O 1.8597067033 -2.2464383176 -0.0918872519
| 23> O 2.8799124797 0.4443949793 -0.0378416271
| 24> O 0.9007104986 2.4870015058 -0.4902071173
| 25> O -1.6250285863 1.8637309003 0.7320335914
| 26> O -2.7760721022 -1.0074021557 -1.1011134368
| 27> H -3.2391035395 -0.1042416001 0.6334217315
| 28> H -2.7725151775 -1.8227713722 0.7951880792
| 29> H 1.523057088 -2.5549886551 -0.9479791366
| 30> H 3.4181349646 -0.3520336168 -0.1643779523
| 31> H 1.848513887 2.6826535888 -0.4558439096
| 32> H -1.4230241357 2.7514057996 0.399432002
| 33> H -2.2028844426 -1.7117986748 -1.4358979227
| 34> *
| 35>
| 36>                          ****END OF INPUT****

CARTESIAN COORDINATES (ANGSTROEM)
---------------------------------
  C     -2.559363   -0.879985    0.278564
  C     -1.124067   -0.449241    0.612810
  H     -1.011108   -0.399549    1.705929
  C     -0.823026    0.942794    0.039160
  H     -1.068127    0.947570   -1.033563
  C      0.665004    1.284204    0.200184
  H      0.882601    1.415177    1.272611
  C      1.537618    0.143141   -0.328198
  H      1.388861    0.055769   -1.416336
  C      1.104319   -1.174134    0.344212
  H      1.276991   -1.089248    1.430944
  O     -0.251888   -1.429807    0.078787
  O      1.859707   -2.246438   -0.091887
  O      2.879912    0.444395   -0.037842
  O      0.900710    2.487002   -0.490207
  O     -1.625029    1.863731    0.732034
  O     -2.776072   -1.007402   -1.101113
  H     -3.239104   -0.104242    0.633422
  H     -2.772515   -1.822771    0.795188
  H      1.523057   -2.554989   -0.947979
  H      3.418135   -0.352034   -0.164378
  H      1.848514    2.682654   -0.455844
  H     -1.423024    2.751406    0.399432
  H     -2.202884   -1.711799   -1.435898

 Total Charge           Charge          ....    0
 Multiplicity           Mult            ....    1
 Number of Electrons    NEL             ....   96
 Basis Dimension        Dim             ....  318

ORBITAL ENERGIES
----------------

  NO   OCC          E(Eh)            E(eV)
   0   2.0000     -18.977175      -516.3952
   1   2.0000     -18.970714      -516.2194
   2   2.0000     -18.962071      -515.9842
   3   2.0000     -18.960561      -515.9431
   4   2.0000     -18.960114      -515.9309
   5   2.0000     -18.957112      -515.8492
   6   2.0000     -10.137390      -275.8524
   7   2.0000     -10.090301      -274.5711
   8   2.0000     -10.086292      -274.4620
   9   2.0000     -10.085712      -274.4462
  10   2.0000     -10.083671      -274.3906
  11   2.0000     -10.076655      -274.1997
  12   2.0000      -1.055789       -28.7295
  13   2.0000      -1.013216       -27.5710
  14   2.0000      -1.005788       -27.3689
  15   2.0000      -0.994976       -27.0747
  16   2.0000      -0.986124       -26.8338
  17   2.0000      -0.982076       -26.7236
  18   2.0000      -0.748863       -20.3776
  19   2.0000      -0.733613       -19.9626
  20   2.0000      -0.654196       -17.8016
  21   2.0000      -0.617403       -16.8004
  22   2.0000      -0.591055       -16.0834
  23   2.0000      -0.561011       -15.2659
  24   2.0000      -0.524877       -14.2826
  25   2.0000      -0.509429       -13.8623
  26   2.0000      -0.492107       -13.3909
  27   2.0000      -0.470249       -12.7961
  28   2.0000      -0.463799       -12.6206
  29   2.0000      -0.457714       -12.4550
  30   2.0000      -0.442077       -12.0295
  31   2.0000      -0.432204       -11.7609
  32   2.0000      -0.399730       -10.8772
  33   2.0000      -0.396951       -10.8016
  34   2.0000      -0.379823       -10.3355
  35   2.0000      -0.375301       -10.2125
  36   2.0000      -0.356232        -9.6936
  37   2.0000      -0.345127        -9.3914
  38   2.0000      -0.333180        -9.0663
  39   2.0000      -0.316745        -8.6191
  40   2.0000      -0.311929        -8.4880
  41   2.0000      -0.304661        -8.2903
  42   2.0000      -0.283136        -7.7045
  43   2.0000      -0.264188        -7.1889
  44   2.0000      -0.253319        -6.8932
  45   2.0000      -0.246643        -6.7115
  46   2.0000      -0.242885        -6.6092
  47   2.0000      -0.227054        -6.1785
  48   0.0000       0.041225         1.1218
  49   0.0000       0.064723         1.7612
  50   0.0000       0.068629         1.8675
  51   0.0000       0.089950         2.4477
  52   0.0000       0.101158         2.7526

MULLIKEN ATOMIC CHARGES
-----------------------
   0 C :   -0.249942
   1 C :    0.017738
   2 H :    0.195115
   3 C :   -0.057113
   4 H :    0.192696
   5 C :   -0.015442
   6 H :    0.182275
   7 C :    0.075810
   8 H :    0.184249
   9 C :   -0.127033
  10 H :    0.179170
  11 O :   -0.254641
  12 O :   -0.437703
  13 O :   -0.496512
  14 O :   -0.499441
  15 O :   -0.503163
  16 O :   -0.491166
  17 H :    0.167067
  18 H :    0.160895
  19 H :    0.371401
  20 H :    0.348511
  21 H :    0.352415
  22 H :    0.351046
  23 H :    0.353770
Sum of atomic charges:   -0.0000000

LOEWDIN ATOMIC CHARGES
----------------------
   0 C :    0.042371
   1 C :    0.120512
   2 H :    0.200234
   3 C :    0.113009
   4 H :    0.194498
   5 C :    0.108341
   6 H :    0.193203
   7 C :    0.110517
   8 H :    0.191121
   9 C :    0.295166
  10 H :    0.205727
  11 O :   -0.691951
  12 O :   -0.510415
  13 O :   -0.597539
  14 O :   -0.598023
  15 O :   -0.603620
  16 O :   -0.622606
  17 H :    0.197876
  18 H :    0.175891
  19 H :    0.300911
  20 H :    0.295798
  21 H :    0.294996
  22 H :    0.295945
  23 H :    0.288039

  Mayer bond orders larger than 0.100000
B(  0-C ,  1-C ) :   0.9385 B(  0-C , 16-O ) :   1.0133 B(  0-C , 17-H ) :   0.9633
B(  0-C , 18-H ) :   0.9721 B(  1-C ,  2-H ) :   0.9245 B(  1-C ,  3-C ) :   0.8799
B(  1-C , 11-O ) :   0.7729 B(  1-C , 16-O ) :  -0.1035 B(  3-C ,  4-H ) :   0.9833
B(  3-C ,  5-C ) :   0.8640 B(  3-C , 15-O ) :   0.8462 B(  5-C ,  6-H ) :   0.9709
B(  5-C ,  7-C ) :   0.8875 B(  5-C , 14-O ) :   0.8903 B(  7-C ,  8-H ) :   0.9521
B(  7-C ,  9-C ) :   0.7896 B(  7-C , 13-O ) :   0.8872 B(  9-C , 10-H ) :   0.9983
B(  9-C , 11-O ) :   0.9669 B(  9-C , 12-O ) :   1.0915 B( 12-O , 19-H ) :   0.8446
B( 13-O , 20-H ) :   0.8577 B( 14-O , 21-H ) :   0.8604 B( 15-O , 22-H ) :   0.8627
B( 16-O , 23-H ) :   0.8576

Dispersion correction           -0.008049080
FINAL SINGLE POINT ENERGY      -687.110725767750

DIPOLE MOMENT
-------------

Method             : SCF
Type of density    : Electron Density
Multiplicity       :   1
Irrep              :   0
Energy             :  -687.1220731785502949 Eh
Relativity type    :
Basis              : AO
                                X                 Y                 Z
Electronic contribution:      2.270543844      -0.449415371      -0.876553521
Nuclear contribution   :     -1.278736837      -0.169147469       0.721597835
                        -----------------------------------------
Total Dipole Moment    :      0.991807006      -0.618562840      -0.154955686
                        -----------------------------------------
Magnitude (a.u.)       :      1.179115087
Magnitude (Debye)      :      2.997072371

Rotational constants in cm-1:             0.039031             0.027059             0.017809
Rotational constants in MHz :          1170.105358           811.212974           533.900397

                             ****ORCA TERMINATED NORMALLY****
TOTAL RUN TIME: 0 days 0 hours 0 minutes 58 seconds 571 msec
