                         Program Version 6.0.0  -   RELEASE  -
|  1> ! wb97x-v def2-tzvp def2/J RIJCOSX DEFGRID2 scfconv7 GCP(DFT/TZ) printgap
|  2> %output
|  3>     printlevel normal
|  4> end
|  5> * xyz 0 1
|  6> C -2.7660824349508792 -3.372215059182772e-05 0.7369295500664007
|  7> C -1.9789307252198038 9.283570729991214e-05 -0.579010908044372
|  8> C -0.4929212877864705 5.140754324728626e-05 -0.3342495463170311
|  9> C 0.20796321073426902 -1.201626186992796 -0.18696504580903867
| 10> C 1.5712579637835211 -1.2039803467112749 0.09951334858160994
| 11> C 2.25830482495755 -3.733947037584874e-05 0.2441826930683706
| 12> C 1.5713242620836463 1.2039502181128643 0.09957021352594887
| 13> C 0.20802910231968055 1.2016839688382333 -0.18690916966729648
| 14> H -3.844528332522458 -8.112884925737952e-05 0.5487261607329516
| 15> H -2.5229682471621935 0.8857335301147125 1.3335666547585703
| 16> H -2.522874487604513 -0.8858516858789853 1.333454604606404
| 17> H -2.2536816096630834 0.8832451777714168 -1.1663936892799014
| 18> H -2.2537034086552152 -0.8829309449015631 -1.1665769895527682
| 19> H -0.3224726073095449 -2.1440551462001673 -0.2997280624762734
| 20> H 2.0990223219258706 -2.1472115074581484 0.20593800591792938
| 21> H 3.3212007292457106 -6.944430468632403e-05 0.4651434657416054
| 22> H 2.0991400615642357 2.1471464578520054 0.2060385017734672
| 23> H -0.32235657503626675 2.1441452625879953 -0.29963018010386605
| 24> *
| 25>
| 26>                          ****END OF INPUT****

CARTESIAN COORDINATES (ANGSTROEM)
---------------------------------
  C     -2.766082   -0.000034    0.736930
  C     -1.978931    0.000093   -0.579011
  C     -0.492921    0.000051   -0.334250
  C      0.207963   -1.201626   -0.186965
  C      1.571258   -1.203980    0.099513
  C      2.258305   -0.000037    0.244183
  C      1.571324    1.203950    0.099570
  C      0.208029    1.201684   -0.186909
  H     -3.844528   -0.000081    0.548726
  H     -2.522968    0.885734    1.333567
  H     -2.522874   -0.885852    1.333455
  H     -2.253682    0.883245   -1.166394
  H     -2.253703   -0.882931   -1.166577
  H     -0.322473   -2.144055   -0.299728
  H      2.099022   -2.147212    0.205938
  H      3.321201   -0.000069    0.465143
  H      2.099140    2.147146    0.206039
  H     -0.322357    2.144145   -0.299630

 Total Charge           Charge          ....    0
 Multiplicity           Mult            ....    1
 Number of Electrons    NEL             ....   58
 Basis Dimension        Dim             ....  308

ORBITAL ENERGIES
----------------

  NO   OCC          E(Eh)            E(eV)
   0   2.0000     -12.056165      -328.0649
   1   2.0000     -12.050194      -327.9025
   2   2.0000     -12.050066      -327.8990
   3   2.0000     -12.048503      -327.8564
   4   2.0000     -12.046928      -327.8136
   5   2.0000     -12.046581      -327.8041
   6   2.0000     -12.045787      -327.7825
   7   2.0000     -12.037683      -327.5620
   8   2.0000      -1.382017       -37.6066
   9   2.0000      -1.302884       -35.4533
  10   2.0000      -1.268983       -34.5308
  11   2.0000      -1.237054       -33.6620
  12   2.0000      -1.128520       -30.7086
  13   2.0000      -1.103434       -30.0260
  14   2.0000      -1.066853       -29.0306
  15   2.0000      -0.956880       -26.0380
  16   2.0000      -0.951912       -25.9028
  17   2.0000      -0.912859       -24.8402
  18   2.0000      -0.878283       -23.8993
  19   2.0000      -0.871131       -23.7047
  20   2.0000      -0.860723       -23.4215
  21   2.0000      -0.840782       -22.8788
  22   2.0000      -0.818085       -22.2612
  23   2.0000      -0.803372       -21.8609
  24   2.0000      -0.784927       -21.3589
  25   2.0000      -0.768773       -20.9194
  26   2.0000      -0.760432       -20.6924
  27   2.0000      -0.635128       -17.2827
  28   2.0000      -0.631848       -17.1935
  29   0.0000      -0.238178        -6.4811
  30   0.0000      -0.233623        -6.3572
  31   0.0000      -0.071668        -1.9502
  32   0.0000      -0.043715        -1.1895
  33   0.0000      -0.012493        -0.3399

MULLIKEN ATOMIC CHARGES
-----------------------
   0 C :   -0.336488
   1 C :   -0.208846
   2 C :    0.223148
   3 C :   -0.228390
   4 C :   -0.097274
   5 C :   -0.142517
   6 C :   -0.097271
   7 C :   -0.228438
   8 H :    0.110320
   9 H :    0.111881
  10 H :    0.111885
  11 H :    0.103457
  12 H :    0.103466
  13 H :    0.114155
  14 H :    0.115524
  15 H :    0.115698
  16 H :    0.115531
  17 H :    0.114159
Sum of atomic charges:    0.0000000

LOEWDIN ATOMIC CHARGES
----------------------
   0 C :   -0.294384
   1 C :   -0.242024
   2 C :   -0.144351
   3 C :   -0.114808
   4 C :   -0.139680
   5 C :   -0.147149
   6 C :   -0.139679
   7 C :   -0.114810
   8 H :    0.114780
   9 H :    0.118426
  10 H :    0.118426
  11 H :    0.138121
  12 H :    0.138122
  13 H :    0.143608
  14 H :    0.140882
  15 H :    0.140031
  16 H :    0.140882
  17 H :    0.143608

  Mayer bond orders larger than 0.100000
B(  0-C ,  1-C ) :   0.9759 B(  0-C ,  8-H ) :   0.9780 B(  0-C ,  9-H ) :   0.9794
B(  0-C , 10-H ) :   0.9794 B(  1-C ,  2-C ) :   0.8946 B(  1-C , 11-H ) :   0.9890
B(  1-C , 12-H ) :   0.9890 B(  2-C ,  3-C ) :   1.3851 B(  2-C ,  7-C ) :   1.3850
B(  3-C ,  4-C ) :   1.4424 B(  3-C , 13-H ) :   0.9728 B(  4-C ,  5-C ) :   1.4214
B(  4-C , 14-H ) :   0.9741 B(  5-C ,  6-C ) :   1.4214 B(  5-C , 15-H ) :   0.9726
B(  6-C ,  7-C ) :   1.4425 B(  6-C , 16-H ) :   0.9740 B(  7-C , 17-H ) :   0.9728

FINAL SINGLE POINT ENERGY      -310.887014399594

DIPOLE MOMENT
-------------

Method             : SCF
Type of density    : Electron Density
Multiplicity       :   1
Irrep              :   0
Energy             :  -310.8971769047944349 Eh
Relativity type    :
Basis              : AO
                                X                 Y                 Z
Electronic contribution:      6.003912359       0.000048681      -1.101373677
Nuclear contribution   :     -6.153362431      -0.000047102       1.098918461
                        -----------------------------------------
Total Dipole Moment    :     -0.149450072       0.000001579      -0.002455216
                        -----------------------------------------
Magnitude (a.u.)       :      0.149470238
Magnitude (Debye)      :      0.379923152

Rotational constants in cm-1:             0.150481             0.049228             0.040831
Rotational constants in MHz :          4511.303493          1475.822944          1224.087020

                             ****ORCA TERMINATED NORMALLY****
TOTAL RUN TIME: 0 days 0 hours 2 minutes 57 seconds 441 msec
