                         Program Version 6.0.0  -   RELEASE  -
|  1> ! wb97x-v def2-tzvp def2/J RIJCOSX DEFGRID2 scfconv7 GCP(DFT/TZ) printgap
|  2> %output
|  3>     printlevel normal
|  4> end
|  5> %cpcm
|  6>     smd true
|  7>     smdsolvent "water"
|  8> end
|  9> * xyz 0 1
| 10> C -2.7660824349508792 -3.372215059182772e-05 0.7369295500664007
| 11> C -1.9789307252198038 9.283570729991214e-05 -0.579010908044372
| 12> C -0.4929212877864705 5.140754324728626e-05 -0.3342495463170311
| 13> C 0.20796321073426902 -1.201626186992796 -0.18696504580903867
| 14> C 1.5712579637835211 -1.2039803467112749 0.09951334858160994
| 15> C 2.25830482495755 -3.733947037584874e-05 0.2441826930683706
| 16> C 1.5713242620836463 1.2039502181128643 0.09957021352594887
| 17> C 0.20802910231968055 1.2016839688382333 -0.18690916966729648
| 18> H -3.844528332522458 -8.112884925737952e-05 0.5487261607329516
| 19> H -2.5229682471621935 0.8857335301147125 1.3335666547585703
| 20> H -2.522874487604513 -0.8858516858789853 1.333454604606404
| 21> H -2.2536816096630834 0.8832451777714168 -1.1663936892799014
| 22> H -2.2537034086552152 -0.8829309449015631 -1.1665769895527682
| 23> H -0.3224726073095449 -2.1440551462001673 -0.2997280624762734
| 24> H 2.0990223219258706 -2.1472115074581484 0.20593800591792938
| 25> H 3.3212007292457106 -6.944430468632403e-05 0.4651434657416054
| 26> H 2.0991400615642357 2.1471464578520054 0.2060385017734672
| 27> H -0.32235657503626675 2.1441452625879953 -0.29963018010386605
| 28> *
| 29>
| 30>                          ****END OF INPUT****

CARTESIAN COORDINATES (ANGSTROEM)
---------------------------------
  C     -2.766082   -0.000034    0.736930
  C     -1.978931    0.000093   -0.579011
  C     -0.492921    0.000051   -0.334250
  C      0.207963   -1.201626   -0.186965
  C      1.571258   -1.203980    0.099513
  C      2.258305   -0.000037    0.244183
  C      1.571324    1.203950    0.099570
  C      0.208029    1.201684   -0.186909
  H     -3.844528   -0.000081    0.548726
  H     -2.522968    0.885734    1.333567
  H     -2.522874   -0.885852    1.333455
  H     -2.253682    0.883245   -1.166394
  H     -2.253703   -0.882931   -1.166577
  H     -0.322473   -2.144055   -0.299728
  H      2.099022   -2.147212    0.205938
  H      3.321201   -0.000069    0.465143
  H      2.099140    2.147146    0.206039
  H     -0.322357    2.144145   -0.299630

 Total Charge           Charge          ....    0
 Multiplicity           Mult            ....    1
 Number of Electrons    NEL             ....   58
 Basis Dimension        Dim             ....  308

ORBITAL ENERGIES
----------------

  NO   OCC          E(Eh)            E(eV)
   0   2.0000     -12.054777      -328.0272
   1   2.0000     -12.048404      -327.8537
   2   2.0000     -12.048231      -327.8490
   3   2.0000     -12.045080      -327.7633
   4   2.0000     -12.044364      -327.7438
   5   2.0000     -12.043797      -327.7284
   6   2.0000     -12.039586      -327.6138
   7   2.0000     -12.029393      -327.3364
   8   2.0000      -1.381802       -37.6008
   9   2.0000      -1.299425       -35.3591
  10   2.0000      -1.268296       -34.5121
  11   2.0000      -1.232308       -33.5328
  12   2.0000      -1.123685       -30.5770
  13   2.0000      -1.101538       -29.9744
  14   2.0000      -1.062665       -28.9166
  15   2.0000      -0.953569       -25.9479
  16   2.0000      -0.950288       -25.8587
  17   2.0000      -0.907935       -24.7062
  18   2.0000      -0.873867       -23.7791
  19   2.0000      -0.867918       -23.6172
  20   2.0000      -0.852518       -23.1982
  21   2.0000      -0.834625       -22.7113
  22   2.0000      -0.813179       -22.1277
  23   2.0000      -0.799518       -21.7560
  24   2.0000      -0.778230       -21.1767
  25   2.0000      -0.761042       -20.7090
  26   2.0000      -0.760195       -20.6860
  27   2.0000      -0.636240       -17.3130
  28   2.0000      -0.632415       -17.2089
  29   0.0000      -0.238554        -6.4914
  30   0.0000      -0.234156        -6.3717
  31   0.0000      -0.070820        -1.9271
  32   0.0000      -0.035878        -0.9763
  33   0.0000      -0.003143        -0.0855

MULLIKEN ATOMIC CHARGES
-----------------------
   0 C :   -0.396748
   1 C :   -0.188266
   2 C :    0.177261
   3 C :   -0.266199
   4 C :   -0.140263
   5 C :   -0.194209
   6 C :   -0.140276
   7 C :   -0.266234
   8 H :    0.129035
   9 H :    0.126434
  10 H :    0.126438
  11 H :    0.120587
  12 H :    0.120595
  13 H :    0.156810
  14 H :    0.159395
  15 H :    0.159423
  16 H :    0.159400
  17 H :    0.156817
Sum of atomic charges:    0.0000000

LOEWDIN ATOMIC CHARGES
----------------------
   0 C :   -0.300227
   1 C :   -0.240137
   2 C :   -0.152483
   3 C :   -0.122505
   4 C :   -0.151399
   5 C :   -0.160209
   6 C :   -0.151399
   7 C :   -0.122507
   8 H :    0.118874
   9 H :    0.119954
  10 H :    0.119954
  11 H :    0.142884
  12 H :    0.142884
  13 H :    0.153553
  14 H :    0.150112
  15 H :    0.148986
  16 H :    0.150112
  17 H :    0.153552

  Mayer bond orders larger than 0.100000
B(  0-C ,  1-C ) :   0.9657 B(  0-C ,  8-H ) :   0.9753 B(  0-C ,  9-H ) :   0.9783
B(  0-C , 10-H ) :   0.9783 B(  1-C ,  2-C ) :   0.9111 B(  1-C , 11-H ) :   0.9813
B(  1-C , 12-H ) :   0.9813 B(  2-C ,  3-C ) :   1.3661 B(  2-C ,  7-C ) :   1.3661
B(  3-C ,  4-C ) :   1.4203 B(  3-C , 13-H ) :   0.9788 B(  4-C ,  5-C ) :   1.3984
B(  4-C , 14-H ) :   0.9768 B(  5-C ,  6-C ) :   1.3984 B(  5-C , 15-H ) :   0.9757
B(  6-C ,  7-C ) :   1.4204 B(  6-C , 16-H ) :   0.9768 B(  7-C , 17-H ) :   0.9788

FINAL SINGLE POINT ENERGY      -310.888263779658

DIPOLE MOMENT
-------------

Method             : SCF
Type of density    : Electron Density
Multiplicity       :   1
Irrep              :   0
Energy             :  -310.8984262848583739 Eh
Relativity type    :
Basis              : AO
                                X                 Y                 Z
Electronic contribution:      5.910053212       0.000048563      -1.121913008
Nuclear contribution   :     -6.153362431      -0.000047102       1.098918461
                        -----------------------------------------
Total Dipole Moment    :     -0.243309219       0.000001461      -0.022994546
                        -----------------------------------------
Magnitude (a.u.)       :      0.244393382
Magnitude (Debye)      :      0.621198610

Rotational constants in cm-1:             0.150481             0.049228             0.040831
Rotational constants in MHz :          4511.303493          1475.822944          1224.087020

                             ****ORCA TERMINATED NORMALLY****
TOTAL RUN TIME: 0 days 0 hours 2 minutes 45 seconds 446 msec
