                         Program Version 6.0.0  -   RELEASE  -
|  1> ! wb97x-v def2-tzvp def2/J RIJCOSX DEFGRID2 scfconv7 GCP(DFT/TZ) printgap
|  2> %output
|  3>     printlevel normal
|  4> end
|  5> * xyz 0 1
|  6> C -2.8498639152768295 0.40712732127024265 -0.10878183020937313
|  7> N -1.8325237898904154 -0.5921081072934451 0.1953864922796559
|  8> C -0.4899162605762158 -0.2695210308612502 0.0779369950834427
|  9> C 0.4678300037240975 -1.300815530847461 0.010745117681987161
| 10> C 1.8217231688971194 -1.0071721814264902 -0.04978063858170931
| 11> C 2.267947266818317 0.31689938496306946 -0.04824478298075716
| 12> C 1.3255281685983338 1.3398219663027475 0.00903730077665221
| 13> C -0.038449988253269514 1.0618347742920378 0.06636589804719233
| 14> H -2.7099323172738043 0.8737201256546773 -1.0954303611080105
| 15> H -2.857510565010949 1.199568380121698 0.646314518310805
| 16> H -3.82810464641661 -0.07706578380397165 -0.09016775884838796
| 17> H -2.0501953717280816 -1.5120727356659158 -0.1609191663740039
| 18> H 0.1315897770201248 -2.3346806038927346 0.009966713428554074
| 19> H 2.5385378058257864 -1.8216851881685985 -0.1012328438341417
| 20> H 3.328021554097305 0.5425636813083425 -0.09554228458300434
| 21> H 1.6497682850742457 2.376560133502945 0.0034108539472821305
| 22> H -0.7473636793003198 1.8811096878907174 0.1055872108409303
| 23> *
| 24>
| 25>                          ****END OF INPUT****

CARTESIAN COORDINATES (ANGSTROEM)
---------------------------------
  C     -2.849864    0.407127   -0.108782
  N     -1.832524   -0.592108    0.195386
  C     -0.489916   -0.269521    0.077937
  C      0.467830   -1.300816    0.010745
  C      1.821723   -1.007172   -0.049781
  C      2.267947    0.316899   -0.048245
  C      1.325528    1.339822    0.009037
  C     -0.038450    1.061835    0.066366
  H     -2.709932    0.873720   -1.095430
  H     -2.857511    1.199568    0.646315
  H     -3.828105   -0.077066   -0.090168
  H     -2.050195   -1.512073   -0.160919
  H      0.131590   -2.334681    0.009967
  H      2.538538   -1.821685   -0.101233
  H      3.328022    0.542564   -0.095542
  H      1.649768    2.376560    0.003411
  H     -0.747364    1.881110    0.105587

 Total Charge           Charge          ....    0
 Multiplicity           Mult            ....    1
 Number of Electrons    NEL             ....   58
 Basis Dimension        Dim             ....  302

ORBITAL ENERGIES
----------------

  NO   OCC          E(Eh)            E(eV)
   0   2.0000     -16.535284      -449.9480
   1   2.0000     -12.087410      -328.9151
   2   2.0000     -12.077049      -328.6332
   3   2.0000     -12.046705      -327.8075
   4   2.0000     -12.046167      -327.7929
   5   2.0000     -12.040350      -327.6346
   6   2.0000     -12.038741      -327.5908
   7   2.0000     -12.034296      -327.4698
   8   2.0000      -1.505141       -40.9570
   9   2.0000      -1.366276       -37.1782
  10   2.0000      -1.268888       -34.5282
  11   2.0000      -1.264855       -34.4184
  12   2.0000      -1.191831       -32.4314
  13   2.0000      -1.108096       -30.1528
  14   2.0000      -1.089724       -29.6529
  15   2.0000      -1.013528       -27.5795
  16   2.0000      -0.970764       -26.4158
  17   2.0000      -0.938927       -25.5495
  18   2.0000      -0.920145       -25.0384
  19   2.0000      -0.891327       -24.2542
  20   2.0000      -0.881590       -23.9893
  21   2.0000      -0.867295       -23.6003
  22   2.0000      -0.828922       -22.5561
  23   2.0000      -0.821008       -22.3408
  24   2.0000      -0.797344       -21.6968
  25   2.0000      -0.786224       -21.3942
  26   2.0000      -0.731663       -19.9096
  27   2.0000      -0.633286       -17.2326
  28   2.0000      -0.607422       -16.5288
  29   0.0000      -0.231008        -6.2860
  30   0.0000      -0.229565        -6.2468
  31   0.0000      -0.098543        -2.6815
  32   0.0000      -0.061909        -1.6846
  33   0.0000      -0.042330        -1.1518

MULLIKEN ATOMIC CHARGES
-----------------------
   0 C :   -0.274914
   1 N :   -0.268449
   2 C :    0.305652
   3 C :   -0.269444
   4 C :   -0.082335
   5 C :   -0.171098
   6 C :   -0.095435
   7 C :   -0.275945
   8 H :    0.122232
   9 H :    0.125855
  10 H :    0.125187
  11 H :    0.207844
  12 H :    0.101704
  13 H :    0.111901
  14 H :    0.110379
  15 H :    0.112042
  16 H :    0.114822
Sum of atomic charges:   -0.0000000

LOEWDIN ATOMIC CHARGES
----------------------
   0 C :   -0.320041
   1 N :    0.055056
   2 C :   -0.214173
   3 C :   -0.136131
   4 C :   -0.141901
   5 C :   -0.169490
   6 C :   -0.140686
   7 C :   -0.141858
   8 H :    0.105661
   9 H :    0.113072
  10 H :    0.114039
  11 H :    0.175895
  12 H :    0.138501
  13 H :    0.141259
  14 H :    0.137556
  15 H :    0.141227
  16 H :    0.142013

  Mayer bond orders larger than 0.100000
B(  0-C ,  1-N ) :   0.9829 B(  0-C ,  8-H ) :   0.9752 B(  0-C ,  9-H ) :   0.9726
B(  0-C , 10-H ) :   0.9755 B(  1-N ,  2-C ) :   1.1374 B(  1-N , 11-H ) :   0.9274
B(  2-C ,  3-C ) :   1.3202 B(  2-C ,  7-C ) :   1.3718 B(  3-C ,  4-C ) :   1.5069
B(  3-C , 12-H ) :   0.9717 B(  4-C ,  5-C ) :   1.4024 B(  4-C , 13-H ) :   0.9737
B(  5-C ,  6-C ) :   1.4468 B(  5-C , 14-H ) :   0.9764 B(  6-C ,  7-C ) :   1.4525
B(  6-C , 15-H ) :   0.9702 B(  7-C , 16-H ) :   0.9658

FINAL SINGLE POINT ENERGY      -326.922092225017

DIPOLE MOMENT
-------------

Method             : SCF
Type of density    : Electron Density
Multiplicity       :   1
Irrep              :   0
Energy             :  -326.9317579874166313 Eh
Relativity type    :
Basis              : AO
                                X                 Y                 Z
Electronic contribution:      3.654275986      -1.238450610       0.569475892
Nuclear contribution   :     -4.261303670       1.100159073      -0.842332868
                        -----------------------------------------
Total Dipole Moment    :     -0.607027684      -0.138291538      -0.272856976
                        -----------------------------------------
Magnitude (a.u.)       :      0.679748547
Magnitude (Debye)      :      1.727783498

Rotational constants in cm-1:             0.165222             0.050926             0.039384
Rotational constants in MHz :          4953.218474          1526.736202          1180.703887

                             ****ORCA TERMINATED NORMALLY****
TOTAL RUN TIME: 0 days 0 hours 2 minutes 29 seconds 774 msec
