                         Program Version 6.0.0  -   RELEASE  -
|  1> ! wb97x-v def2-tzvp def2/J RIJCOSX DEFGRID2 scfconv7 GCP(DFT/TZ) printgap
|  2> %output
|  3>     printlevel normal
|  4> end
|  5> %cpcm
|  6>     smd true
|  7>     smdsolvent "water"
|  8> end
|  9> * xyz 0 1
| 10> C -2.8498639152768295 0.40712732127024265 -0.10878183020937313
| 11> N -1.8325237898904154 -0.5921081072934451 0.1953864922796559
| 12> C -0.4899162605762158 -0.2695210308612502 0.0779369950834427
| 13> C 0.4678300037240975 -1.300815530847461 0.010745117681987161
| 14> C 1.8217231688971194 -1.0071721814264902 -0.04978063858170931
| 15> C 2.267947266818317 0.31689938496306946 -0.04824478298075716
| 16> C 1.3255281685983338 1.3398219663027475 0.00903730077665221
| 17> C -0.038449988253269514 1.0618347742920378 0.06636589804719233
| 18> H -2.7099323172738043 0.8737201256546773 -1.0954303611080105
| 19> H -2.857510565010949 1.199568380121698 0.646314518310805
| 20> H -3.82810464641661 -0.07706578380397165 -0.09016775884838796
| 21> H -2.0501953717280816 -1.5120727356659158 -0.1609191663740039
| 22> H 0.1315897770201248 -2.3346806038927346 0.009966713428554074
| 23> H 2.5385378058257864 -1.8216851881685985 -0.1012328438341417
| 24> H 3.328021554097305 0.5425636813083425 -0.09554228458300434
| 25> H 1.6497682850742457 2.376560133502945 0.0034108539472821305
| 26> H -0.7473636793003198 1.8811096878907174 0.1055872108409303
| 27> *
| 28>
| 29>                          ****END OF INPUT****

CARTESIAN COORDINATES (ANGSTROEM)
---------------------------------
  C     -2.849864    0.407127   -0.108782
  N     -1.832524   -0.592108    0.195386
  C     -0.489916   -0.269521    0.077937
  C      0.467830   -1.300816    0.010745
  C      1.821723   -1.007172   -0.049781
  C      2.267947    0.316899   -0.048245
  C      1.325528    1.339822    0.009037
  C     -0.038450    1.061835    0.066366
  H     -2.709932    0.873720   -1.095430
  H     -2.857511    1.199568    0.646315
  H     -3.828105   -0.077066   -0.090168
  H     -2.050195   -1.512073   -0.160919
  H      0.131590   -2.334681    0.009967
  H      2.538538   -1.821685   -0.101233
  H      3.328022    0.542564   -0.095542
  H      1.649768    2.376560    0.003411
  H     -0.747364    1.881110    0.105587

 Total Charge           Charge          ....    0
 Multiplicity           Mult            ....    1
 Number of Electrons    NEL             ....   58
 Basis Dimension        Dim             ....  302

ORBITAL ENERGIES
----------------

  NO   OCC          E(Eh)            E(eV)
   0   2.0000     -16.527786      -449.7439
   1   2.0000     -12.088406      -328.9423
   2   2.0000     -12.061369      -328.2065
   3   2.0000     -12.048301      -327.8509
   4   2.0000     -12.048023      -327.8434
   5   2.0000     -12.040382      -327.6354
   6   2.0000     -12.039090      -327.6003
   7   2.0000     -12.036186      -327.5213
   8   2.0000      -1.498540       -40.7774
   9   2.0000      -1.368932       -37.2505
  10   2.0000      -1.269602       -34.5476
  11   2.0000      -1.265884       -34.4465
  12   2.0000      -1.183388       -32.2016
  13   2.0000      -1.107772       -30.1440
  14   2.0000      -1.087945       -29.6045
  15   2.0000      -1.009815       -27.4785
  16   2.0000      -0.965992       -26.2860
  17   2.0000      -0.938406       -25.5353
  18   2.0000      -0.915589       -24.9144
  19   2.0000      -0.890565       -24.2335
  20   2.0000      -0.871679       -23.7196
  21   2.0000      -0.866922       -23.5901
  22   2.0000      -0.822157       -22.3720
  23   2.0000      -0.813076       -22.1249
  24   2.0000      -0.796175       -21.6650
  25   2.0000      -0.783218       -21.3125
  26   2.0000      -0.730968       -19.8906
  27   2.0000      -0.637784       -17.3550
  28   2.0000      -0.609536       -16.5863
  29   0.0000      -0.235094        -6.3972
  30   0.0000      -0.233349        -6.3498
  31   0.0000      -0.089204        -2.4274
  32   0.0000      -0.063974        -1.7408
  33   0.0000      -0.035847        -0.9754

MULLIKEN ATOMIC CHARGES
-----------------------
   0 C :   -0.300312
   1 N :   -0.294997
   2 C :    0.269371
   3 C :   -0.324670
   4 C :   -0.113372
   5 C :   -0.238074
   6 C :   -0.134200
   7 C :   -0.337316
   8 H :    0.130232
   9 H :    0.140627
  10 H :    0.153280
  11 H :    0.261717
  12 H :    0.153514
  13 H :    0.157676
  14 H :    0.155381
  15 H :    0.157965
  16 H :    0.163181
Sum of atomic charges:   -0.0000000

LOEWDIN ATOMIC CHARGES
----------------------
   0 C :   -0.318866
   1 N :    0.051585
   2 C :   -0.225711
   3 C :   -0.143636
   4 C :   -0.156024
   5 C :   -0.189395
   6 C :   -0.155325
   7 C :   -0.152351
   8 H :    0.109227
   9 H :    0.116429
  10 H :    0.121189
  11 H :    0.192201
  12 H :    0.151429
  13 H :    0.150613
  14 H :    0.145524
  15 H :    0.150502
  16 H :    0.152607

  Mayer bond orders larger than 0.100000
B(  0-C ,  1-N ) :   0.9651 B(  0-C ,  8-H ) :   0.9746 B(  0-C ,  9-H ) :   0.9691
B(  0-C , 10-H ) :   0.9692 B(  1-N ,  2-C ) :   1.1776 B(  1-N , 11-H ) :   0.9056
B(  2-C ,  3-C ) :   1.2991 B(  2-C ,  7-C ) :   1.3444 B(  3-C ,  4-C ) :   1.4739
B(  3-C , 12-H ) :   0.9822 B(  4-C ,  5-C ) :   1.3736 B(  4-C , 13-H ) :   0.9754
B(  5-C ,  6-C ) :   1.4206 B(  5-C , 14-H ) :   0.9808 B(  6-C ,  7-C ) :   1.4249
B(  6-C , 15-H ) :   0.9720 B(  7-C , 16-H ) :   0.9720

FINAL SINGLE POINT ENERGY      -326.929741128181

DIPOLE MOMENT
-------------

Method             : SCF
Type of density    : Electron Density
Multiplicity       :   1
Irrep              :   0
Energy             :  -326.9394068905807558 Eh
Relativity type    :
Basis              : AO
                                X                 Y                 Z
Electronic contribution:      3.407688438      -1.313805460       0.460448217
Nuclear contribution   :     -4.261303670       1.100159073      -0.842332868
                        -----------------------------------------
Total Dipole Moment    :     -0.853615232      -0.213646387      -0.381884651
                        -----------------------------------------
Magnitude (a.u.)       :      0.959239089
Magnitude (Debye)      :      2.438191997

Rotational constants in cm-1:             0.165222             0.050926             0.039384
Rotational constants in MHz :          4953.218474          1526.736202          1180.703887

                             ****ORCA TERMINATED NORMALLY****
TOTAL RUN TIME: 0 days 0 hours 2 minutes 37 seconds 279 msec
