                         Program Version 6.0.0  -   RELEASE  -
|  1> ! r2scan-3c def2/J RI DEFGRID2 scfconv6 printgap
|  2> %output
|  3>     printlevel normal
|  4> end
|  5> * xyz 0 1
|  6> C -3.4250743753 0.633206572 0.1336953183
|  7> C -1.9314648648 0.4981204982 0.0844809953
|  8> C -1.1346612476 1.4988422404 -0.265330626
|  9> C 0.3573657856 1.4246496584 -0.3221190279
| 10> C 0.8556642699 -0.0247550709 -0.2819108015
| 11> H 0.5859036866 -0.5036292655 -1.2290382937
| 12> C 0.1065177282 -0.7665368108 0.8259380434
| 13> C -1.3750679095 -0.8586460895 0.4620242699
| 14> H -1.9341304285 -1.2430540999 1.3331917667
| 15> O -1.4970403505 -1.7998475057 -0.6010823782
| 16> C 2.354964995 -0.0775178565 -0.1286357051
| 17> C 3.1363971172 -0.3336259585 -1.1667457175
| 18> C 2.9190914501 0.18581772 1.2347078351
| 19> H -3.9025372863 -0.039466112 -0.5779384742
| 20> H -3.725058297 1.64980306 -0.1044203533
| 21> H -3.7923701204 0.3815244921 1.1280824024
| 22> H -1.5627181303 2.4608287761 -0.5168930396
| 23> H 0.715431649 1.9135110311 -1.2312404427
| 24> H 0.7648549784 1.9853082315 0.5253530352
| 25> H 0.4981592672 -1.7792942499 0.9320586159
| 26> H 0.2028944039 -0.2407043978 1.7755271828
| 27> H -2.4194459309 -1.8393223674 -0.8839870708
| 28> H 4.2100935706 -0.3544854867 -1.0818535511
| 29> H 2.7343888531 -0.5365698079 -2.1452550849
| 30> H 2.4915524333 1.0884685579 1.6657683645
| 31> H 2.6884683455 -0.6438522287 1.9010052413
| 32> H 3.998685975 0.2982612247 1.185862783
| 33> *
| 34>
| 35>                          ****END OF INPUT****

CARTESIAN COORDINATES (ANGSTROEM)
---------------------------------
  C     -3.425074    0.633207    0.133695
  C     -1.931465    0.498120    0.084481
  C     -1.134661    1.498842   -0.265331
  C      0.357366    1.424650   -0.322119
  C      0.855664   -0.024755   -0.281911
  H      0.585904   -0.503629   -1.229038
  C      0.106518   -0.766537    0.825938
  C     -1.375068   -0.858646    0.462024
  H     -1.934130   -1.243054    1.333192
  O     -1.497040   -1.799848   -0.601082
  C      2.354965   -0.077518   -0.128636
  C      3.136397   -0.333626   -1.166746
  C      2.919091    0.185818    1.234708
  H     -3.902537   -0.039466   -0.577938
  H     -3.725058    1.649803   -0.104420
  H     -3.792370    0.381524    1.128082
  H     -1.562718    2.460829   -0.516893
  H      0.715432    1.913511   -1.231240
  H      0.764855    1.985308    0.525353
  H      0.498159   -1.779294    0.932059
  H      0.202894   -0.240704    1.775527
  H     -2.419446   -1.839322   -0.883987
  H      4.210094   -0.354485   -1.081854
  H      2.734389   -0.536570   -2.145255
  H      2.491552    1.088469    1.665768
  H      2.688468   -0.643852    1.901005
  H      3.998686    0.298261    1.185863

 Total Charge           Charge          ....    0
 Multiplicity           Mult            ....    1
 Number of Electrons    NEL             ....   84
 Basis Dimension        Dim             ....  294

ORBITAL ENERGIES
----------------

  NO   OCC          E(Eh)            E(eV)
   0   2.0000     -18.948255      -515.6082
   1   2.0000     -10.083398      -274.3832
   2   2.0000     -10.033932      -273.0372
   3   2.0000     -10.032751      -273.0050
   4   2.0000     -10.031079      -272.9595
   5   2.0000     -10.030574      -272.9458
   6   2.0000     -10.030269      -272.9375
   7   2.0000     -10.026323      -272.8301
   8   2.0000     -10.024978      -272.7935
   9   2.0000     -10.021952      -272.7112
  10   2.0000     -10.006281      -272.2847
  11   2.0000      -0.985289       -26.8111
  12   2.0000      -0.811776       -22.0896
  13   2.0000      -0.770230       -20.9590
  14   2.0000      -0.722225       -19.6528
  15   2.0000      -0.705088       -19.1864
  16   2.0000      -0.654255       -17.8032
  17   2.0000      -0.645570       -17.5669
  18   2.0000      -0.585602       -15.9350
  19   2.0000      -0.565699       -15.3935
  20   2.0000      -0.509667       -13.8688
  21   2.0000      -0.497090       -13.5265
  22   2.0000      -0.452510       -12.3134
  23   2.0000      -0.441037       -12.0012
  24   2.0000      -0.422361       -11.4930
  25   2.0000      -0.417876       -11.3710
  26   2.0000      -0.402423       -10.9505
  27   2.0000      -0.394245       -10.7280
  28   2.0000      -0.383811       -10.4440
  29   2.0000      -0.373769       -10.1708
  30   2.0000      -0.369836       -10.0638
  31   2.0000      -0.364071        -9.9069
  32   2.0000      -0.352652        -9.5961
  33   2.0000      -0.337756        -9.1908
  34   2.0000      -0.329031        -8.9534
  35   2.0000      -0.313602        -8.5335
  36   2.0000      -0.298762        -8.1297
  37   2.0000      -0.294783        -8.0215
  38   2.0000      -0.269236        -7.3263
  39   2.0000      -0.239697        -6.5225
  40   2.0000      -0.220917        -6.0115
  41   2.0000      -0.216287        -5.8855
  42   0.0000      -0.012437        -0.3384
  43   0.0000      -0.001790        -0.0487
  44   0.0000       0.054461         1.4820
  45   0.0000       0.083209         2.2642
  46   0.0000       0.096280         2.6199

MULLIKEN ATOMIC CHARGES
-----------------------
   0 C :   -0.509045
   1 C :    0.051185
   2 C :   -0.199475
   3 C :   -0.366116
   4 C :   -0.029789
   5 H :    0.202060
   6 C :   -0.390852
   7 C :    0.065466
   8 H :    0.144223
   9 O :   -0.423665
  10 C :    0.084621
  11 C :   -0.388838
  12 C :   -0.545970
  13 H :    0.141845
  14 H :    0.155229
  15 H :    0.156786
  16 H :    0.149661
  17 H :    0.160829
  18 H :    0.165471
  19 H :    0.172324
  20 H :    0.160594
  21 H :    0.284617
  22 H :    0.136228
  23 H :    0.143146
  24 H :    0.161032
  25 H :    0.166827
  26 H :    0.151607
Sum of atomic charges:    0.0000000

LOEWDIN ATOMIC CHARGES
----------------------
   0 C :   -0.390117
   1 C :   -0.117367
   2 C :   -0.173716
   3 C :   -0.264806
   4 C :   -0.194455
   5 H :    0.185721
   6 C :   -0.240967
   7 C :    0.080958
   8 H :    0.170458
   9 O :   -0.604462
  10 C :   -0.118545
  11 C :   -0.321799
  12 C :   -0.394942
  13 H :    0.153136
  14 H :    0.161361
  15 H :    0.160570
  16 H :    0.163035
  17 H :    0.169653
  18 H :    0.167139
  19 H :    0.175793
  20 H :    0.169217
  21 H :    0.268535
  22 H :    0.154679
  23 H :    0.158464
  24 H :    0.157805
  25 H :    0.164583
  26 H :    0.160070

  Mayer bond orders larger than 0.100000
B(  0-C ,  1-C ) :   0.8384 B(  0-C , 13-H ) :   0.9669 B(  0-C , 14-H ) :   0.9934
B(  0-C , 15-H ) :   0.9767 B(  1-C ,  2-C ) :   1.8717 B(  1-C ,  7-C ) :   0.9031
B(  2-C ,  3-C ) :   0.9278 B(  2-C , 16-H ) :   0.9210 B(  3-C ,  4-C ) :   0.9347
B(  3-C , 17-H ) :   0.9594 B(  3-C , 18-H ) :   0.9927 B(  4-C ,  5-H ) :   0.9964
B(  4-C ,  6-C ) :   0.8591 B(  4-C , 10-C ) :   0.8578 B(  6-C ,  7-C ) :   0.9877
B(  6-C , 19-H ) :   0.9648 B(  6-C , 20-H ) :   0.9799 B(  7-C ,  8-H ) :   0.9845
B(  7-C ,  9-O ) :   0.8791 B(  9-O , 21-H ) :   0.9030 B( 10-C , 11-C ) :   1.8768
B( 10-C , 12-C ) :   0.8698 B( 11-C , 22-H ) :   0.9714 B( 11-C , 23-H ) :   0.9878
B( 12-C , 24-H ) :   0.9819 B( 12-C , 25-H ) :   0.9653 B( 12-C , 26-H ) :   0.9804

Dispersion correction           -0.009592186
FINAL SINGLE POINT ENERGY      -465.757622711384

DIPOLE MOMENT
-------------

Method             : SCF
Type of density    : Electron Density
Multiplicity       :   1
Irrep              :   0
Energy             :  -465.7596796212976642 Eh
Relativity type    :
Basis              : AO
                                X                 Y                 Z
Electronic contribution:     -1.992952591      -2.039093540      -2.156955815
Nuclear contribution   :      1.435873809       2.410036099       2.501829649
                        -----------------------------------------
Total Dipole Moment    :     -0.557078782       0.370942559       0.344873834
                        -----------------------------------------
Magnitude (a.u.)       :      0.752909764
Magnitude (Debye)      :      1.913744532

Rotational constants in cm-1:             0.071390             0.022465             0.020405
Rotational constants in MHz :          2140.212555           673.471147           611.719877

                             ****ORCA TERMINATED NORMALLY****
TOTAL RUN TIME: 0 days 0 hours 0 minutes 43 seconds 499 msec
