                         Program Version 6.0.0  -   RELEASE  -
|  1> ! r2scan-3c def2/J RI DEFGRID2 scfconv6 printgap
|  2> %output
|  3>     printlevel normal
|  4> end
|  5> %cpcm
|  6>     smd true
|  7>     smdsolvent "water"
|  8> end
|  9> * xyz 0 1
| 10> C -3.4250743753 0.633206572 0.1336953183
| 11> C -1.9314648648 0.4981204982 0.0844809953
| 12> C -1.1346612476 1.4988422404 -0.265330626
| 13> C 0.3573657856 1.4246496584 -0.3221190279
| 14> C 0.8556642699 -0.0247550709 -0.2819108015
| 15> H 0.5859036866 -0.5036292655 -1.2290382937
| 16> C 0.1065177282 -0.7665368108 0.8259380434
| 17> C -1.3750679095 -0.8586460895 0.4620242699
| 18> H -1.9341304285 -1.2430540999 1.3331917667
| 19> O -1.4970403505 -1.7998475057 -0.6010823782
| 20> C 2.354964995 -0.0775178565 -0.1286357051
| 21> C 3.1363971172 -0.3336259585 -1.1667457175
| 22> C 2.9190914501 0.18581772 1.2347078351
| 23> H -3.9025372863 -0.039466112 -0.5779384742
| 24> H -3.725058297 1.64980306 -0.1044203533
| 25> H -3.7923701204 0.3815244921 1.1280824024
| 26> H -1.5627181303 2.4608287761 -0.5168930396
| 27> H 0.715431649 1.9135110311 -1.2312404427
| 28> H 0.7648549784 1.9853082315 0.5253530352
| 29> H 0.4981592672 -1.7792942499 0.9320586159
| 30> H 0.2028944039 -0.2407043978 1.7755271828
| 31> H -2.4194459309 -1.8393223674 -0.8839870708
| 32> H 4.2100935706 -0.3544854867 -1.0818535511
| 33> H 2.7343888531 -0.5365698079 -2.1452550849
| 34> H 2.4915524333 1.0884685579 1.6657683645
| 35> H 2.6884683455 -0.6438522287 1.9010052413
| 36> H 3.998685975 0.2982612247 1.185862783
| 37> *
| 38>
| 39>                          ****END OF INPUT****

CARTESIAN COORDINATES (ANGSTROEM)
---------------------------------
  C     -3.425074    0.633207    0.133695
  C     -1.931465    0.498120    0.084481
  C     -1.134661    1.498842   -0.265331
  C      0.357366    1.424650   -0.322119
  C      0.855664   -0.024755   -0.281911
  H      0.585904   -0.503629   -1.229038
  C      0.106518   -0.766537    0.825938
  C     -1.375068   -0.858646    0.462024
  H     -1.934130   -1.243054    1.333192
  O     -1.497040   -1.799848   -0.601082
  C      2.354965   -0.077518   -0.128636
  C      3.136397   -0.333626   -1.166746
  C      2.919091    0.185818    1.234708
  H     -3.902537   -0.039466   -0.577938
  H     -3.725058    1.649803   -0.104420
  H     -3.792370    0.381524    1.128082
  H     -1.562718    2.460829   -0.516893
  H      0.715432    1.913511   -1.231240
  H      0.764855    1.985308    0.525353
  H      0.498159   -1.779294    0.932059
  H      0.202894   -0.240704    1.775527
  H     -2.419446   -1.839322   -0.883987
  H      4.210094   -0.354485   -1.081854
  H      2.734389   -0.536570   -2.145255
  H      2.491552    1.088469    1.665768
  H      2.688468   -0.643852    1.901005
  H      3.998686    0.298261    1.185863

 Total Charge           Charge          ....    0
 Multiplicity           Mult            ....    1
 Number of Electrons    NEL             ....   84
 Basis Dimension        Dim             ....  294

ORBITAL ENERGIES
----------------

  NO   OCC          E(Eh)            E(eV)
   0   2.0000     -18.950772      -515.6767
   1   2.0000     -10.078899      -274.2608
   2   2.0000     -10.037146      -273.1246
   3   2.0000     -10.029801      -272.9247
   4   2.0000     -10.028334      -272.8848
   5   2.0000     -10.024385      -272.7774
   6   2.0000     -10.020694      -272.6770
   7   2.0000     -10.020045      -272.6593
   8   2.0000     -10.015887      -272.5461
   9   2.0000     -10.014891      -272.5190
  10   2.0000     -10.005536      -272.2645
  11   2.0000      -0.987203       -26.8632
  12   2.0000      -0.808899       -22.0113
  13   2.0000      -0.767365       -20.8811
  14   2.0000      -0.717033       -19.5115
  15   2.0000      -0.700399       -19.0588
  16   2.0000      -0.649713       -17.6796
  17   2.0000      -0.639720       -17.4077
  18   2.0000      -0.580954       -15.8086
  19   2.0000      -0.561529       -15.2800
  20   2.0000      -0.506709       -13.7883
  21   2.0000      -0.494741       -13.4626
  22   2.0000      -0.448987       -12.2175
  23   2.0000      -0.436420       -11.8756
  24   2.0000      -0.416925       -11.3451
  25   2.0000      -0.413247       -11.2450
  26   2.0000      -0.399553       -10.8724
  27   2.0000      -0.384626       -10.4662
  28   2.0000      -0.377881       -10.2827
  29   2.0000      -0.368509       -10.0277
  30   2.0000      -0.363157        -9.8820
  31   2.0000      -0.357835        -9.7372
  32   2.0000      -0.349162        -9.5012
  33   2.0000      -0.331392        -9.0176
  34   2.0000      -0.324471        -8.8293
  35   2.0000      -0.311066        -8.4645
  36   2.0000      -0.295899        -8.0518
  37   2.0000      -0.292957        -7.9718
  38   2.0000      -0.266324        -7.2471
  39   2.0000      -0.242102        -6.5879
  40   2.0000      -0.223062        -6.0698
  41   2.0000      -0.215123        -5.8538
  42   0.0000      -0.009946        -0.2706
  43   0.0000      -0.003236        -0.0881
  44   0.0000       0.070626         1.9218
  45   0.0000       0.094081         2.5601
  46   0.0000       0.102906         2.8002

MULLIKEN ATOMIC CHARGES
-----------------------
   0 C :   -0.544320
   1 C :    0.007771
   2 C :   -0.239881
   3 C :   -0.369785
   4 C :   -0.004670
   5 H :    0.195580
   6 C :   -0.407471
   7 C :    0.085545
   8 H :    0.162373
   9 O :   -0.509382
  10 C :    0.046757
  11 C :   -0.468380
  12 C :   -0.570090
  13 H :    0.172209
  14 H :    0.168678
  15 H :    0.171099
  16 H :    0.174840
  17 H :    0.172299
  18 H :    0.191328
  19 H :    0.179128
  20 H :    0.182135
  21 H :    0.341977
  22 H :    0.162754
  23 H :    0.164749
  24 H :    0.184664
  25 H :    0.183082
  26 H :    0.167010
Sum of atomic charges:    0.0000000

LOEWDIN ATOMIC CHARGES
----------------------
   0 C :   -0.395862
   1 C :   -0.121536
   2 C :   -0.184951
   3 C :   -0.267371
   4 C :   -0.198225
   5 H :    0.180789
   6 C :   -0.243721
   7 C :    0.081423
   8 H :    0.180297
   9 O :   -0.639548
  10 C :   -0.119485
  11 C :   -0.352233
  12 C :   -0.400636
  13 H :    0.165144
  14 H :    0.164026
  15 H :    0.166283
  16 H :    0.171599
  17 H :    0.172166
  18 H :    0.175708
  19 H :    0.175164
  20 H :    0.177173
  21 H :    0.287052
  22 H :    0.161264
  23 H :    0.163172
  24 H :    0.167247
  25 H :    0.171065
  26 H :    0.163994

  Mayer bond orders larger than 0.100000
B(  0-C ,  1-C ) :   0.8464 B(  0-C , 13-H ) :   0.9587 B(  0-C , 14-H ) :   0.9904
B(  0-C , 15-H ) :   0.9695 B(  1-C ,  2-C ) :   1.8593 B(  1-C ,  7-C ) :   0.9032
B(  2-C ,  3-C ) :   0.9098 B(  2-C , 16-H ) :   0.9283 B(  3-C ,  4-C ) :   0.9180
B(  3-C , 17-H ) :   0.9563 B(  3-C , 18-H ) :   0.9861 B(  4-C ,  5-H ) :   1.0027
B(  4-C ,  6-C ) :   0.8378 B(  4-C , 10-C ) :   0.8432 B(  6-C ,  7-C ) :   0.9614
B(  6-C , 19-H ) :   0.9723 B(  6-C , 20-H ) :   0.9752 B(  7-C ,  8-H ) :   0.9789
B(  7-C ,  9-O ) :   0.8689 B(  9-O , 21-H ) :   0.8765 B( 10-C , 11-C ) :   1.8562
B( 10-C , 12-C ) :   0.8823 B( 11-C , 22-H ) :   0.9719 B( 11-C , 23-H ) :   0.9865
B( 12-C , 24-H ) :   0.9727 B( 12-C , 25-H ) :   0.9582 B( 12-C , 26-H ) :   0.9766

Dispersion correction           -0.009592186
FINAL SINGLE POINT ENERGY      -465.765494658011

DIPOLE MOMENT
-------------

Method             : SCF
Type of density    : Electron Density
Multiplicity       :   1
Irrep              :   0
Energy             :  -465.7675515679242153 Eh
Relativity type    :
Basis              : AO
                                X                 Y                 Z
Electronic contribution:     -2.277081157      -1.850972629      -1.875277721
Nuclear contribution   :      1.435873809       2.410036099       2.501829649
                        -----------------------------------------
Total Dipole Moment    :     -0.841207348       0.559063470       0.626551928
                        -----------------------------------------
Magnitude (a.u.)       :      1.188591219
Magnitude (Debye)      :      3.021158782

Rotational constants in cm-1:             0.071390             0.022465             0.020405
Rotational constants in MHz :          2140.212555           673.471147           611.719877

                             ****ORCA TERMINATED NORMALLY****
TOTAL RUN TIME: 0 days 0 hours 0 minutes 57 seconds 491 msec
