                         Program Version 6.0.0  -   RELEASE  -
|  1> ! wb97x-v def2-tzvp def2/J RIJCOSX DEFGRID2 scfconv7 GCP(DFT/TZ) printgap
|  2> %output
|  3>     printlevel normal
|  4> end
|  5> * xyz 0 1
|  6> C -2.1982291206921527 0.31471119971137423 0.30634066634141954
|  7> C -1.003886599035155 0.1606168288520936 -0.6435340309047757
|  8> C 0.0040689098022694365 -0.8107322533098779 -0.10888799239570127
|  9> C 1.2727834453524127 -0.5678717832349184 0.23986002513975685
| 10> C 2.0073783379910335 0.7328634513178435 0.1658712699244868
| 11> H -2.6816238309033524 -0.6515306621565974 0.4870110950010085
| 12> H -2.9476621163067622 0.9939717988328345 -0.11254015364498703
| 13> H -1.876544195628885 0.7153671215485973 1.2733188521966372
| 14> H -1.3720874045398774 -0.20664486791221778 -1.6112163980175962
| 15> H -0.5511201183682433 1.138891851152909 -0.829577043816276
| 16> H -0.3683643603823027 -1.8279022590819265 0.023044661875391868
| 17> H 1.855819998606128 -1.4047659800525427 0.6250991099225408
| 18> H 2.8829008286365023 0.6447911164885634 -0.4888489125991002
| 19> H 2.3910214716448146 1.0122980617121708 1.1544215472383932
| 20> H 1.38901735054682 1.5534742528255598 -0.20285552676983656
| 21> *
| 22>
| 23>                          ****END OF INPUT****

CARTESIAN COORDINATES (ANGSTROEM)
---------------------------------
  C     -2.198229    0.314711    0.306341
  C     -1.003887    0.160617   -0.643534
  C      0.004069   -0.810732   -0.108888
  C      1.272783   -0.567872    0.239860
  C      2.007378    0.732863    0.165871
  H     -2.681624   -0.651531    0.487011
  H     -2.947662    0.993972   -0.112540
  H     -1.876544    0.715367    1.273319
  H     -1.372087   -0.206645   -1.611216
  H     -0.551120    1.138892   -0.829577
  H     -0.368364   -1.827902    0.023045
  H      1.855820   -1.404766    0.625099
  H      2.882901    0.644791   -0.488849
  H      2.391021    1.012298    1.154422
  H      1.389017    1.553474   -0.202856

 Total Charge           Charge          ....    0
 Multiplicity           Mult            ....    1
 Number of Electrons    NEL             ....   40
 Basis Dimension        Dim             ....  215

ORBITAL ENERGIES
----------------

  NO   OCC          E(Eh)            E(eV)
   0   2.0000     -12.043821      -327.7290
   1   2.0000     -12.042772      -327.7005
   2   2.0000     -12.038927      -327.5959
   3   2.0000     -12.038224      -327.5767
   4   2.0000     -12.034809      -327.4838
   5   2.0000      -1.318770       -35.8856
   6   2.0000      -1.256161       -34.1819
   7   2.0000      -1.182910       -32.1886
   8   2.0000      -1.104283       -30.0491
   9   2.0000      -0.989115       -26.9152
  10   2.0000      -0.918145       -24.9840
  11   2.0000      -0.885321       -24.0908
  12   2.0000      -0.855494       -23.2792
  13   2.0000      -0.830388       -22.5960
  14   2.0000      -0.822268       -22.3750
  15   2.0000      -0.811397       -22.0792
  16   2.0000      -0.799422       -21.7534
  17   2.0000      -0.769909       -20.9503
  18   2.0000      -0.759025       -20.6541
  19   2.0000      -0.637146       -17.3376
  20   0.0000      -0.192739        -5.2447
  21   0.0000      -0.031186        -0.8486
  22   0.0000      -0.004168        -0.1134
  23   0.0000       0.004347         0.1183
  24   0.0000       0.009830         0.2675

MULLIKEN ATOMIC CHARGES
-----------------------
   0 C :   -0.334889
   1 C :   -0.113530
   2 C :   -0.166048
   3 C :   -0.133487
   4 C :   -0.300720
   5 H :    0.104897
   6 H :    0.110528
   7 H :    0.109620
   8 H :    0.095272
   9 H :    0.082190
  10 H :    0.106531
  11 H :    0.106215
  12 H :    0.116572
  13 H :    0.115919
  14 H :    0.100930
Sum of atomic charges:    0.0000000

LOEWDIN ATOMIC CHARGES
----------------------
   0 C :   -0.300702
   1 C :   -0.275763
   2 C :   -0.186098
   3 C :   -0.205897
   4 C :   -0.291052
   5 H :    0.116130
   6 H :    0.114525
   7 H :    0.117294
   8 H :    0.137257
   9 H :    0.131001
  10 H :    0.139720
  11 H :    0.137423
  12 H :    0.124399
  13 H :    0.124136
  14 H :    0.117626

  Mayer bond orders larger than 0.100000
B(  0-C ,  1-C ) :   0.9698 B(  0-C ,  5-H ) :   0.9828 B(  0-C ,  6-H ) :   0.9795
B(  0-C ,  7-H ) :   0.9787 B(  1-C ,  2-C ) :   0.9600 B(  1-C ,  8-H ) :   0.9722
B(  1-C ,  9-H ) :   0.9840 B(  2-C ,  3-C ) :   1.9746 B(  2-C , 10-H ) :   0.9578
B(  3-C ,  4-C ) :   0.9565 B(  3-C , 11-H ) :   0.9639 B(  4-C , 12-H ) :   0.9713
B(  4-C , 13-H ) :   0.9716 B(  4-C , 14-H ) :   0.9897

FINAL SINGLE POINT ENERGY      -196.536603053843

DIPOLE MOMENT
-------------

Method             : SCF
Type of density    : Electron Density
Multiplicity       :   1
Irrep              :   0
Energy             :  -196.5462226381428366 Eh
Relativity type    :
Basis              : AO
                                X                 Y                 Z
Electronic contribution:      1.162589832      -1.756341290      -0.343343559
Nuclear contribution   :     -1.159115690       1.854729568       0.320176689
                        -----------------------------------------
Total Dipole Moment    :      0.003474142       0.098388278      -0.023166869
                        -----------------------------------------
Magnitude (a.u.)       :      0.101138651
Magnitude (Debye)      :      0.257074022

Rotational constants in cm-1:             0.364446             0.086925             0.079449
Rotational constants in MHz :         10925.815407          2605.957965          2381.808816

                             ****ORCA TERMINATED NORMALLY****
TOTAL RUN TIME: 0 days 0 hours 1 minutes 7 seconds 144 msec
