                         Program Version 6.0.0  -   RELEASE  -
|  1> ! wb97x-v def2-tzvp def2/J RIJCOSX DEFGRID2 scfconv7 GCP(DFT/TZ) printgap
|  2> %output
|  3>     printlevel normal
|  4> end
|  5> %cpcm
|  6>     smd true
|  7>     smdsolvent "water"
|  8> end
|  9> * xyz 0 1
| 10> C -2.1982291206921527 0.31471119971137423 0.30634066634141954
| 11> C -1.003886599035155 0.1606168288520936 -0.6435340309047757
| 12> C 0.0040689098022694365 -0.8107322533098779 -0.10888799239570127
| 13> C 1.2727834453524127 -0.5678717832349184 0.23986002513975685
| 14> C 2.0073783379910335 0.7328634513178435 0.1658712699244868
| 15> H -2.6816238309033524 -0.6515306621565974 0.4870110950010085
| 16> H -2.9476621163067622 0.9939717988328345 -0.11254015364498703
| 17> H -1.876544195628885 0.7153671215485973 1.2733188521966372
| 18> H -1.3720874045398774 -0.20664486791221778 -1.6112163980175962
| 19> H -0.5511201183682433 1.138891851152909 -0.829577043816276
| 20> H -0.3683643603823027 -1.8279022590819265 0.023044661875391868
| 21> H 1.855819998606128 -1.4047659800525427 0.6250991099225408
| 22> H 2.8829008286365023 0.6447911164885634 -0.4888489125991002
| 23> H 2.3910214716448146 1.0122980617121708 1.1544215472383932
| 24> H 1.38901735054682 1.5534742528255598 -0.20285552676983656
| 25> *
| 26>
| 27>                          ****END OF INPUT****

CARTESIAN COORDINATES (ANGSTROEM)
---------------------------------
  C     -2.198229    0.314711    0.306341
  C     -1.003887    0.160617   -0.643534
  C      0.004069   -0.810732   -0.108888
  C      1.272783   -0.567872    0.239860
  C      2.007378    0.732863    0.165871
  H     -2.681624   -0.651531    0.487011
  H     -2.947662    0.993972   -0.112540
  H     -1.876544    0.715367    1.273319
  H     -1.372087   -0.206645   -1.611216
  H     -0.551120    1.138892   -0.829577
  H     -0.368364   -1.827902    0.023045
  H      1.855820   -1.404766    0.625099
  H      2.882901    0.644791   -0.488849
  H      2.391021    1.012298    1.154422
  H      1.389017    1.553474   -0.202856

 Total Charge           Charge          ....    0
 Multiplicity           Mult            ....    1
 Number of Electrons    NEL             ....   40
 Basis Dimension        Dim             ....  215

ORBITAL ENERGIES
----------------

  NO   OCC          E(Eh)            E(eV)
   0   2.0000     -12.040114      -327.6282
   1   2.0000     -12.036876      -327.5401
   2   2.0000     -12.035435      -327.5008
   3   2.0000     -12.030536      -327.3675
   4   2.0000     -12.027761      -327.2920
   5   2.0000      -1.315466       -35.7956
   6   2.0000      -1.250399       -34.0251
   7   2.0000      -1.177596       -32.0440
   8   2.0000      -1.098645       -29.8957
   9   2.0000      -0.983872       -26.7725
  10   2.0000      -0.913575       -24.8596
  11   2.0000      -0.880134       -23.9497
  12   2.0000      -0.849040       -23.1036
  13   2.0000      -0.823981       -22.4217
  14   2.0000      -0.815443       -22.1893
  15   2.0000      -0.805268       -21.9125
  16   2.0000      -0.792467       -21.5641
  17   2.0000      -0.763655       -20.7801
  18   2.0000      -0.752559       -20.4782
  19   2.0000      -0.636142       -17.3103
  20   0.0000      -0.191294        -5.2054
  21   0.0000      -0.024693        -0.6719
  22   0.0000       0.006728         0.1831
  23   0.0000       0.010508         0.2859
  24   0.0000       0.016776         0.4565

MULLIKEN ATOMIC CHARGES
-----------------------
   0 C :   -0.385352
   1 C :   -0.124470
   2 C :   -0.231630
   3 C :   -0.181887
   4 C :   -0.345540
   5 H :    0.122706
   6 H :    0.128256
   7 H :    0.119923
   8 H :    0.109445
   9 H :    0.108034
  10 H :    0.142742
  11 H :    0.141264
  12 H :    0.134270
  13 H :    0.134220
  14 H :    0.128021
Sum of atomic charges:    0.0000000

LOEWDIN ATOMIC CHARGES
----------------------
   0 C :   -0.307089
   1 C :   -0.277779
   2 C :   -0.199978
   3 C :   -0.218937
   4 C :   -0.296329
   5 H :    0.119068
   6 H :    0.118061
   7 H :    0.117979
   8 H :    0.140692
   9 H :    0.136338
  10 H :    0.145205
  11 H :    0.142918
  12 H :    0.128462
  13 H :    0.128386
  14 H :    0.123002

  Mayer bond orders larger than 0.100000
B(  0-C ,  1-C ) :   0.9625 B(  0-C ,  5-H ) :   0.9805 B(  0-C ,  6-H ) :   0.9769
B(  0-C ,  7-H ) :   0.9766 B(  1-C ,  2-C ) :   0.9566 B(  1-C ,  8-H ) :   0.9662
B(  1-C ,  9-H ) :   0.9834 B(  2-C ,  3-C ) :   1.9473 B(  2-C , 10-H ) :   0.9593
B(  3-C ,  4-C ) :   0.9560 B(  3-C , 11-H ) :   0.9649 B(  4-C , 12-H ) :   0.9662
B(  4-C , 13-H ) :   0.9665 B(  4-C , 14-H ) :   0.9868

FINAL SINGLE POINT ENERGY      -196.535244321703

DIPOLE MOMENT
-------------

Method             : SCF
Type of density    : Electron Density
Multiplicity       :   1
Irrep              :   0
Energy             :  -196.5448639060032860 Eh
Relativity type    :
Basis              : AO
                                X                 Y                 Z
Electronic contribution:      1.156500533      -1.704128168      -0.364815074
Nuclear contribution   :     -1.159115690       1.854729568       0.320176689
                        -----------------------------------------
Total Dipole Moment    :     -0.002615157       0.150601400      -0.044638384
                        -----------------------------------------
Magnitude (a.u.)       :      0.157099351
Magnitude (Debye)      :      0.399314816

Rotational constants in cm-1:             0.364446             0.086925             0.079449
Rotational constants in MHz :         10925.815407          2605.957965          2381.808816

                             ****ORCA TERMINATED NORMALLY****
TOTAL RUN TIME: 0 days 0 hours 1 minutes 3 seconds 477 msec
