                         Program Version 6.0.0  -   RELEASE  -
|  1> ! pbe def2-sv(p) def2/J RI DEFGRID1 loosescf d4 GCP(DFT/SV(P)) printgap
|  2> %output
|  3>     printlevel normal
|  4> end
|  5> * xyz 0 1
|  6> C -2.5250410678 -0.9773070748 0.3509169231
|  7> C -1.0899839753 -0.4929360616 0.6087130659
|  8> H -0.9156073108 -0.4503388804 1.6944840515
|  9> C -0.8254546673 0.8995858465 0.0087155534
| 10> H -1.0349913565 0.8643188613 -1.0691197896
| 11> C 0.6500372905 1.2902013214 0.1981703106
| 12> H 0.8356011082 1.4569336712 1.2701030955
| 13> C 1.5829756241 0.1766053549 -0.2822229254
| 14> H 1.537155397 0.1453664053 -1.3817469809
| 15> C 1.1377909753 -1.1858127853 0.2935233455
| 16> H 1.3132295836 -1.1710669317 1.3831125065
| 17> O -0.2158430673 -1.4410607619 0.0195207601
| 18> O 1.8955106753 -2.2249517424 -0.2126908246
| 19> O 2.8866772694 0.4706775302 0.1487200585
| 20> O 0.945667828 2.4525835201 -0.5335726926
| 21> O -1.5910081318 1.9003275635 0.635773694
| 22> O -2.894818166 -0.8941844367 -1.0003859146
| 23> H -3.2218319007 -0.3463619137 0.9043718465
| 24> H -2.6071347355 -2.0057146016 0.7195815823
| 25> H 1.5798201247 -2.452660904 -1.1017763115
| 26> H 3.4689126501 -0.2693631654 -0.0845570525
| 27> H 0.3699947225 3.1650417246 -0.2164353034
| 28> H -2.5032993785 1.8588336029 0.3170214826
| 29> H -2.3643536449 -1.5241888264 -1.5075246214
| 30> *
| 31>
| 32>                          ****END OF INPUT****

CARTESIAN COORDINATES (ANGSTROEM)
---------------------------------
  C     -2.525041   -0.977307    0.350917
  C     -1.089984   -0.492936    0.608713
  H     -0.915607   -0.450339    1.694484
  C     -0.825455    0.899586    0.008716
  H     -1.034991    0.864319   -1.069120
  C      0.650037    1.290201    0.198170
  H      0.835601    1.456934    1.270103
  C      1.582976    0.176605   -0.282223
  H      1.537155    0.145366   -1.381747
  C      1.137791   -1.185813    0.293523
  H      1.313230   -1.171067    1.383113
  O     -0.215843   -1.441061    0.019521
  O      1.895511   -2.224952   -0.212691
  O      2.886677    0.470678    0.148720
  O      0.945668    2.452584   -0.533573
  O     -1.591008    1.900328    0.635774
  O     -2.894818   -0.894184   -1.000386
  H     -3.221832   -0.346362    0.904372
  H     -2.607135   -2.005715    0.719582
  H      1.579820   -2.452661   -1.101776
  H      3.468913   -0.269363   -0.084557
  H      0.369995    3.165042   -0.216435
  H     -2.503299    1.858834    0.317021
  H     -2.364354   -1.524189   -1.507525

 Total Charge           Charge          ....    0
 Multiplicity           Mult            ....    1
 Number of Electrons    NEL             ....   96
 Basis Dimension        Dim             ....  192

ORBITAL ENERGIES
----------------

  NO   OCC          E(Eh)            E(eV)
   0   2.0000     -18.781783      -511.0783
   1   2.0000     -18.770876      -510.7815
   2   2.0000     -18.766054      -510.6503
   3   2.0000     -18.762141      -510.5438
   4   2.0000     -18.745580      -510.0932
   5   2.0000     -18.740135      -509.9450
   6   2.0000      -9.990113      -271.8448
   7   2.0000      -9.948361      -270.7087
   8   2.0000      -9.944273      -270.5974
   9   2.0000      -9.941744      -270.5286
  10   2.0000      -9.938747      -270.4471
  11   2.0000      -9.938129      -270.4302
  12   2.0000      -0.993424       -27.0325
  13   2.0000      -0.948267       -25.8036
  14   2.0000      -0.940109       -25.5817
  15   2.0000      -0.928494       -25.2656
  16   2.0000      -0.921641       -25.0791
  17   2.0000      -0.909057       -24.7367
  18   2.0000      -0.703871       -19.1533
  19   2.0000      -0.692501       -18.8439
  20   2.0000      -0.624763       -17.0007
  21   2.0000      -0.590211       -16.0605
  22   2.0000      -0.561190       -15.2707
  23   2.0000      -0.530787       -14.4435
  24   2.0000      -0.500583       -13.6216
  25   2.0000      -0.492365       -13.3979
  26   2.0000      -0.479105       -13.0371
  27   2.0000      -0.475691       -12.9442
  28   2.0000      -0.449842       -12.2408
  29   2.0000      -0.440423       -11.9845
  30   2.0000      -0.420032       -11.4297
  31   2.0000      -0.392140       -10.6707
  32   2.0000      -0.387270       -10.5381
  33   2.0000      -0.381199       -10.3729
  34   2.0000      -0.360897        -9.8205
  35   2.0000      -0.354832        -9.6555
  36   2.0000      -0.333752        -9.0818
  37   2.0000      -0.321054        -8.7363
  38   2.0000      -0.302781        -8.2391
  39   2.0000      -0.294864        -8.0237
  40   2.0000      -0.287465        -7.8223
  41   2.0000      -0.276053        -7.5118
  42   2.0000      -0.262616        -7.1461
  43   2.0000      -0.245615        -6.6835
  44   2.0000      -0.234627        -6.3845
  45   2.0000      -0.225987        -6.1494
  46   2.0000      -0.218438        -5.9440
  47   2.0000      -0.200273        -5.4497
  48   0.0000       0.011465         0.3120
  49   0.0000       0.019326         0.5259
  50   0.0000       0.028735         0.7819
  51   0.0000       0.044827         1.2198
  52   0.0000       0.059230         1.6117

MULLIKEN ATOMIC CHARGES
-----------------------
   0 C :    0.066506
   1 C :   -0.008949
   2 H :    0.057326
   3 C :    0.035905
   4 H :    0.052925
   5 C :    0.090816
   6 H :    0.059062
   7 C :    0.057535
   8 H :    0.040596
   9 C :    0.174246
  10 H :    0.056110
  11 O :   -0.318014
  12 O :   -0.385105
  13 O :   -0.405520
  14 O :   -0.408536
  15 O :   -0.423161
  16 O :   -0.436284
  17 H :    0.081157
  18 H :    0.092672
  19 H :    0.302124
  20 H :    0.299120
  21 H :    0.301440
  22 H :    0.314651
  23 H :    0.303379
Sum of atomic charges:    0.0000000

LOEWDIN ATOMIC CHARGES
----------------------
   0 C :   -0.128724
   1 C :   -0.080739
   2 H :    0.108153
   3 C :   -0.082656
   4 H :    0.103959
   5 C :   -0.062677
   6 H :    0.108138
   7 C :   -0.084965
   8 H :    0.100636
   9 C :   -0.006446
  10 H :    0.099141
  11 O :   -0.159418
  12 O :   -0.293246
  13 O :   -0.312733
  14 O :   -0.315904
  15 O :   -0.317887
  16 O :   -0.332997
  17 H :    0.112931
  18 H :    0.108359
  19 H :    0.288160
  20 H :    0.283238
  21 H :    0.284894
  22 H :    0.293468
  23 H :    0.287314

  Mayer bond orders larger than 0.100000
B(  0-C ,  1-C ) :   1.0328 B(  0-C , 16-O ) :   1.0699 B(  0-C , 17-H ) :   0.9152
B(  0-C , 18-H ) :   0.9214 B(  1-C ,  2-H ) :   0.8676 B(  1-C ,  3-C ) :   0.9774
B(  1-C , 11-O ) :   0.9715 B(  3-C ,  4-H ) :   0.8666 B(  3-C ,  5-C ) :   1.0109
B(  3-C , 15-O ) :   1.0710 B(  5-C ,  6-H ) :   0.8770 B(  5-C ,  7-C ) :   1.0071
B(  5-C , 14-O ) :   1.1005 B(  7-C ,  8-H ) :   0.8613 B(  7-C ,  9-C ) :   0.9853
B(  7-C , 13-O ) :   1.0884 B(  9-C , 10-H ) :   0.8758 B(  9-C , 11-O ) :   1.0065
B(  9-C , 12-O ) :   1.1228 B( 12-O , 19-H ) :   0.8416 B( 13-O , 20-H ) :   0.8378
B( 14-O , 21-H ) :   0.8405 B( 15-O , 22-H ) :   0.8415 B( 16-O , 23-H ) :   0.8454

Dispersion correction           -0.023864989
FINAL SINGLE POINT ENERGY      -685.700337419879

DIPOLE MOMENT
-------------

Method             : SCF
Type of density    : Electron Density
Multiplicity       :   1
Irrep              :   0
Energy             :  -685.8298745376691841 Eh
Relativity type    :
Basis              : AO
                                X                 Y                 Z
Electronic contribution:      2.576942606       0.046548287      -1.131213040
Nuclear contribution   :     -3.308269661      -0.680212535       0.856201736
                        -----------------------------------------
Total Dipole Moment    :     -0.731327055      -0.633664248      -0.275011303
                        -----------------------------------------
Magnitude (a.u.)       :      1.005982534
Magnitude (Debye)      :      2.557004392

Rotational constants in cm-1:             0.039678             0.026650             0.017626
Rotational constants in MHz :          1189.514581           798.932286           528.423755

                             ****ORCA TERMINATED NORMALLY****
TOTAL RUN TIME: 0 days 0 hours 0 minutes 12 seconds 61 msec
