                         Program Version 6.0.0  -   RELEASE  -
|  1> ! pbe def2-sv(p) def2/J RI DEFGRID1 loosescf d4 GCP(DFT/SV(P)) printgap
|  2> %output
|  3>     printlevel normal
|  4> end
|  5> * xyz 0 1
|  6> C -2.2300229361 -0.8074222726 -0.2399290635
|  7> C -1.1796749117 -0.2889460032 0.7681424732
|  8> H -1.6899928796 -0.2885441607 1.7408404878
|  9> C -0.7104295088 1.1562125283 0.5051807594
| 10> H -1.5420220966 1.7120766485 0.0497643732
| 11> C 0.4840180406 1.2488393569 -0.4583995377
| 12> H 0.8841555029 2.2720502014 -0.372094825
| 13> C 1.596536335 0.2851669157 -0.0139351778
| 14> H 2.3585735615 0.2106743802 -0.7982007808
| 15> C 1.0396473624 -1.1393359223 0.1812807433
| 16> H 1.7786505539 -1.7207567083 0.7603892923
| 17> O -0.1049739654 -1.2016260297 0.989858777
| 18> O 0.8691680088 -1.6822600266 -1.0888952385
| 19> O 2.2561929738 0.7540319999 1.129849803
| 20> O 0.0163308779 1.0167600372 -1.7621457012
| 21> O -0.293990273 1.7783429529 1.7016390884
| 22> O -1.7772217726 -1.094852175 -1.5321315838
| 23> H -3.0425496248 -0.0655141165 -0.2716572212
| 24> H -2.6331117285 -1.7475390988 0.1463707013
| 25> H 0.3965973436 -2.5260825599 -1.0345701698
| 26> H 1.5925771778 1.0411349148 1.7814298126
| 27> H 0.7620314851 0.9760906898 -2.3774339299
| 28> H -1.0457100775 1.8921971293 2.3005189251
| 29> H -1.2296642294 -0.3526528745 -1.8533133264
| 30> *
| 31>
| 32>                          ****END OF INPUT****

CARTESIAN COORDINATES (ANGSTROEM)
---------------------------------
  C     -2.230023   -0.807422   -0.239929
  C     -1.179675   -0.288946    0.768142
  H     -1.689993   -0.288544    1.740840
  C     -0.710430    1.156213    0.505181
  H     -1.542022    1.712077    0.049764
  C      0.484018    1.248839   -0.458400
  H      0.884156    2.272050   -0.372095
  C      1.596536    0.285167   -0.013935
  H      2.358574    0.210674   -0.798201
  C      1.039647   -1.139336    0.181281
  H      1.778651   -1.720757    0.760389
  O     -0.104974   -1.201626    0.989859
  O      0.869168   -1.682260   -1.088895
  O      2.256193    0.754032    1.129850
  O      0.016331    1.016760   -1.762146
  O     -0.293990    1.778343    1.701639
  O     -1.777222   -1.094852   -1.532132
  H     -3.042550   -0.065514   -0.271657
  H     -2.633112   -1.747539    0.146371
  H      0.396597   -2.526083   -1.034570
  H      1.592577    1.041135    1.781430
  H      0.762031    0.976091   -2.377434
  H     -1.045710    1.892197    2.300519
  H     -1.229664   -0.352653   -1.853313

 Total Charge           Charge          ....    0
 Multiplicity           Mult            ....    1
 Number of Electrons    NEL             ....   96
 Basis Dimension        Dim             ....  192

ORBITAL ENERGIES
----------------

  NO   OCC          E(Eh)            E(eV)
   0   2.0000     -18.783659      -511.1293
   1   2.0000     -18.781424      -511.0685
   2   2.0000     -18.765260      -510.6287
   3   2.0000     -18.749445      -510.1983
   4   2.0000     -18.741524      -509.9828
   5   2.0000     -18.724613      -509.5226
   6   2.0000      -9.976808      -271.4828
   7   2.0000      -9.962228      -271.0860
   8   2.0000      -9.956709      -270.9358
   9   2.0000      -9.949845      -270.7490
  10   2.0000      -9.941133      -270.5120
  11   2.0000      -9.928511      -270.1685
  12   2.0000      -0.978500       -26.6263
  13   2.0000      -0.957143       -26.0452
  14   2.0000      -0.952258       -25.9123
  15   2.0000      -0.919655       -25.0251
  16   2.0000      -0.906889       -24.6777
  17   2.0000      -0.900265       -24.4975
  18   2.0000      -0.713110       -19.4047
  19   2.0000      -0.687887       -18.7184
  20   2.0000      -0.627985       -17.0883
  21   2.0000      -0.585439       -15.9306
  22   2.0000      -0.575767       -15.6674
  23   2.0000      -0.533975       -14.5302
  24   2.0000      -0.511330       -13.9140
  25   2.0000      -0.483396       -13.1539
  26   2.0000      -0.469030       -12.7630
  27   2.0000      -0.460068       -12.5191
  28   2.0000      -0.445570       -12.1246
  29   2.0000      -0.427308       -11.6276
  30   2.0000      -0.418030       -11.3752
  31   2.0000      -0.402148       -10.9430
  32   2.0000      -0.393176       -10.6989
  33   2.0000      -0.380969       -10.3667
  34   2.0000      -0.358516        -9.7557
  35   2.0000      -0.350609        -9.5405
  36   2.0000      -0.338413        -9.2087
  37   2.0000      -0.331301        -9.0152
  38   2.0000      -0.321425        -8.7464
  39   2.0000      -0.295532        -8.0418
  40   2.0000      -0.275024        -7.4838
  41   2.0000      -0.261090        -7.1046
  42   2.0000      -0.253120        -6.8877
  43   2.0000      -0.245473        -6.6797
  44   2.0000      -0.235622        -6.4116
  45   2.0000      -0.226657        -6.1676
  46   2.0000      -0.207518        -5.6469
  47   2.0000      -0.194002        -5.2791
  48   0.0000      -0.001444        -0.0393
  49   0.0000       0.011680         0.3178
  50   0.0000       0.046278         1.2593
  51   0.0000       0.054989         1.4963
  52   0.0000       0.061830         1.6825

MULLIKEN ATOMIC CHARGES
-----------------------
   0 C :    0.051663
   1 C :    0.053704
   2 H :    0.052689
   3 C :    0.002481
   4 H :    0.080575
   5 C :    0.051766
   6 H :    0.085015
   7 C :    0.033056
   8 H :    0.070837
   9 C :    0.206985
  10 H :    0.063677
  11 O :   -0.318302
  12 O :   -0.402556
  13 O :   -0.426177
  14 O :   -0.416074
  15 O :   -0.423932
  16 O :   -0.445332
  17 H :    0.057707
  18 H :    0.080740
  19 H :    0.299807
  20 H :    0.304790
  21 H :    0.323467
  22 H :    0.313825
  23 H :    0.299590
Sum of atomic charges:    0.0000000

LOEWDIN ATOMIC CHARGES
----------------------
   0 C :   -0.132940
   1 C :   -0.075758
   2 H :    0.115464
   3 C :   -0.069943
   4 H :    0.111836
   5 C :   -0.068873
   6 H :    0.111341
   7 C :   -0.083952
   8 H :    0.116262
   9 C :   -0.010041
  10 H :    0.096794
  11 O :   -0.146289
  12 O :   -0.314010
  13 O :   -0.315861
  14 O :   -0.294501
  15 O :   -0.307644
  16 O :   -0.346788
  17 H :    0.092172
  18 H :    0.111704
  19 H :    0.282125
  20 H :    0.274801
  21 H :    0.298954
  22 H :    0.293331
  23 H :    0.261817

  Mayer bond orders larger than 0.100000
B(  0-C ,  1-C ) :   1.0234 B(  0-C , 16-O ) :   1.1398 B(  0-C , 17-H ) :   0.9009
B(  0-C , 18-H ) :   0.9140 B(  1-C ,  2-H ) :   0.8822 B(  1-C ,  3-C ) :   0.9824
B(  1-C , 11-O ) :   0.9993 B(  3-C ,  4-H ) :   0.8960 B(  3-C ,  5-C ) :   1.0139
B(  3-C , 15-O ) :   1.0160 B(  5-C ,  6-H ) :   0.8984 B(  5-C ,  7-C ) :   0.9903
B(  5-C , 14-O ) :   1.0268 B(  7-C ,  8-H ) :   0.8919 B(  7-C ,  9-C ) :   0.9691
B(  7-C , 13-O ) :   1.0745 B(  9-C , 10-H ) :   0.9010 B(  9-C , 11-O ) :   1.0548
B(  9-C , 12-O ) :   1.1211 B( 12-O , 19-H ) :   0.8279 B( 13-O , 20-H ) :   0.8123
B( 14-O , 21-H ) :   0.8299 B( 14-O , 23-H ) :   0.1237 B( 15-O , 22-H ) :   0.8396
B( 16-O , 23-H ) :   0.7853

Dispersion correction           -0.026530679
FINAL SINGLE POINT ENERGY      -685.698357936885

DIPOLE MOMENT
-------------

Method             : SCF
Type of density    : Electron Density
Multiplicity       :   1
Irrep              :   0
Energy             :  -685.8315493482737111 Eh
Relativity type    :
Basis              : AO
                                X                 Y                 Z
Electronic contribution:      2.629948156      -0.653623195       0.247581320
Nuclear contribution   :     -3.185292884       1.310014454       0.059265759
                        -----------------------------------------
Total Dipole Moment    :     -0.555344728       0.656391260       0.306847079
                        -----------------------------------------
Magnitude (a.u.)       :      0.912914225
Magnitude (Debye)      :      2.320443552

Rotational constants in cm-1:             0.040942             0.031169             0.027051
Rotational constants in MHz :          1227.403162           934.411085           810.968826

                             ****ORCA TERMINATED NORMALLY****
TOTAL RUN TIME: 0 days 0 hours 0 minutes 12 seconds 487 msec
