                         Program Version 6.0.0  -   RELEASE  -
|  1> ! pbe def2-sv(p) def2/J RI DEFGRID1 loosescf d4 GCP(DFT/SV(P)) printgap
|  2> %output
|  3>     printlevel normal
|  4> end
|  5> * xyz 0 1
|  6> C -2.5793504453 0.9341060523 0.9750756384
|  7> C -1.2324979121 0.6105617517 0.3351216883
|  8> H -0.4313344849 0.9776364873 0.989143083
|  9> C -1.0644900782 1.2556372054 -1.0423003318
| 10> C 0.363004392 1.0900703179 -1.5808558428
| 11> C 1.0602709714 -0.1668580078 -1.023069974
| 12> H 1.771374985 -0.5234659312 -1.778143699
| 13> C 0.0014652904 -1.2580426821 -0.8345504881
| 14> C -1.0180123585 -0.878919042 0.2047896945
| 15> O -1.621722046 -1.7045863581 0.864826128
| 16> C 1.882065074 0.0822330095 0.2333966156
| 17> C 2.6240592642 1.1675865092 0.4014139614
| 18> C 1.9234387966 -1.0145993047 1.257371391
| 19> H -2.6920329417 0.3819365753 1.9050977911
| 20> H -2.657571535 1.9974521434 1.1823478786
| 21> H -3.3907834836 0.6444733261 0.3106815609
| 22> H -1.7855088874 0.8007205027 -1.7247187946
| 23> H -1.3104509744 2.31526984 -0.971832882
| 24> H 0.32491793 1.024277337 -2.6686998643
| 25> H 0.9459952394 1.9732114336 -1.332108809
| 26> H -0.5451707977 -1.3797147687 -1.7741455058
| 27> H 0.4308440762 -2.2294528873 -0.5904651784
| 28> H 3.2301095988 1.2965684482 1.2819422412
| 29> H 2.6797198899 1.966726334 -0.31629467
| 30> H 2.5701424014 -0.7344649467 2.0845313245
| 31> H 0.9337382909 -1.2328659661 1.6556144109
| 32> H 2.3127398199 -1.9295533556 0.812833732
| 33> *
| 34>
| 35>                          ****END OF INPUT****

CARTESIAN COORDINATES (ANGSTROEM)
---------------------------------
  C     -2.579350    0.934106    0.975076
  C     -1.232498    0.610562    0.335122
  H     -0.431334    0.977636    0.989143
  C     -1.064490    1.255637   -1.042300
  C      0.363004    1.090070   -1.580856
  C      1.060271   -0.166858   -1.023070
  H      1.771375   -0.523466   -1.778144
  C      0.001465   -1.258043   -0.834550
  C     -1.018012   -0.878919    0.204790
  O     -1.621722   -1.704586    0.864826
  C      1.882065    0.082233    0.233397
  C      2.624059    1.167587    0.401414
  C      1.923439   -1.014599    1.257371
  H     -2.692033    0.381937    1.905098
  H     -2.657572    1.997452    1.182348
  H     -3.390783    0.644473    0.310682
  H     -1.785509    0.800721   -1.724719
  H     -1.310451    2.315270   -0.971833
  H      0.324918    1.024277   -2.668700
  H      0.945995    1.973211   -1.332109
  H     -0.545171   -1.379715   -1.774146
  H      0.430844   -2.229453   -0.590465
  H      3.230110    1.296568    1.281942
  H      2.679720    1.966726   -0.316295
  H      2.570142   -0.734465    2.084531
  H      0.933738   -1.232866    1.655614
  H      2.312740   -1.929553    0.812834

 Total Charge           Charge          ....    0
 Multiplicity           Mult            ....    1
 Number of Electrons    NEL             ....   84
 Basis Dimension        Dim             ....  186

ORBITAL ENERGIES
----------------

  NO   OCC          E(Eh)            E(eV)
   0   2.0000     -18.739169      -509.9187
   1   2.0000      -9.970341      -271.3068
   2   2.0000      -9.910901      -269.6893
   3   2.0000      -9.906704      -269.5751
   4   2.0000      -9.899063      -269.3672
   5   2.0000      -9.895570      -269.2721
   6   2.0000      -9.893848      -269.2253
   7   2.0000      -9.892971      -269.2014
   8   2.0000      -9.884914      -268.9822
   9   2.0000      -9.876764      -268.7604
  10   2.0000      -9.875130      -268.7159
  11   2.0000      -0.934049       -25.4168
  12   2.0000      -0.776210       -21.1218
  13   2.0000      -0.725644       -19.7458
  14   2.0000      -0.685715       -18.6593
  15   2.0000      -0.662207       -18.0196
  16   2.0000      -0.619076       -16.8459
  17   2.0000      -0.602587       -16.3972
  18   2.0000      -0.557892       -15.1810
  19   2.0000      -0.532974       -14.5029
  20   2.0000      -0.475102       -12.9282
  21   2.0000      -0.465089       -12.6557
  22   2.0000      -0.439823       -11.9682
  23   2.0000      -0.429490       -11.6870
  24   2.0000      -0.417219       -11.3531
  25   2.0000      -0.396314       -10.7843
  26   2.0000      -0.382462       -10.4073
  27   2.0000      -0.378597       -10.3021
  28   2.0000      -0.375155       -10.2085
  29   2.0000      -0.361293        -9.8313
  30   2.0000      -0.354560        -9.6481
  31   2.0000      -0.338630        -9.2146
  32   2.0000      -0.336457        -9.1555
  33   2.0000      -0.328453        -8.9376
  34   2.0000      -0.320311        -8.7161
  35   2.0000      -0.315025        -8.5723
  36   2.0000      -0.303597        -8.2613
  37   2.0000      -0.292014        -7.9461
  38   2.0000      -0.282163        -7.6780
  39   2.0000      -0.273583        -7.4446
  40   2.0000      -0.220933        -6.0119
  41   2.0000      -0.192324        -5.2334
  42   0.0000      -0.052063        -1.4167
  43   0.0000      -0.022528        -0.6130
  44   0.0000       0.024699         0.6721
  45   0.0000       0.049583         1.3492
  46   0.0000       0.058409         1.5894

MULLIKEN ATOMIC CHARGES
-----------------------
   0 C :   -0.203492
   1 C :   -0.167787
   2 H :    0.107248
   3 C :   -0.149760
   4 C :   -0.091842
   5 C :   -0.142188
   6 H :    0.092552
   7 C :   -0.053411
   8 C :   -0.043966
   9 O :   -0.168159
  10 C :   -0.080053
  11 C :   -0.250375
  12 C :   -0.217321
  13 H :    0.114431
  14 H :    0.094664
  15 H :    0.094944
  16 H :    0.080770
  17 H :    0.089917
  18 H :    0.077894
  19 H :    0.087787
  20 H :    0.109749
  21 H :    0.093234
  22 H :    0.086944
  23 H :    0.094610
  24 H :    0.100231
  25 H :    0.130930
  26 H :    0.112447
Sum of atomic charges:   -0.0000000

LOEWDIN ATOMIC CHARGES
----------------------
   0 C :   -0.323461
   1 C :   -0.181156
   2 H :    0.146273
   3 C :   -0.213011
   4 C :   -0.213507
   5 C :   -0.132687
   6 H :    0.137338
   7 C :   -0.238455
   8 C :    0.049278
   9 O :   -0.131952
  10 C :   -0.057617
  11 C :   -0.270154
  12 C :   -0.324613
  13 H :    0.127031
  14 H :    0.118233
  15 H :    0.120404
  16 H :    0.116697
  17 H :    0.124057
  18 H :    0.119569
  19 H :    0.121116
  20 H :    0.146917
  21 H :    0.132537
  22 H :    0.119690
  23 H :    0.116161
  24 H :    0.126123
  25 H :    0.133658
  26 H :    0.131531

  Mayer bond orders larger than 0.100000
B(  0-C ,  1-C ) :   1.1275 B(  0-C , 13-H ) :   0.9393 B(  0-C , 14-H ) :   0.9467
B(  0-C , 15-H ) :   0.9513 B(  1-C ,  2-H ) :   0.8324 B(  1-C ,  3-C ) :   1.1215
B(  1-C ,  8-C ) :   0.9361 B(  3-C ,  4-C ) :   1.1432 B(  3-C , 16-H ) :   0.9051
B(  3-C , 17-H ) :   0.9156 B(  4-C ,  5-C ) :   1.0876 B(  4-C , 18-H ) :   0.9097
B(  4-C , 19-H ) :   0.9051 B(  5-C ,  6-H ) :   0.8640 B(  5-C ,  7-C ) :   1.1198
B(  5-C , 10-C ) :   0.9850 B(  7-C ,  8-C ) :   1.0362 B(  7-C , 20-H ) :   0.8638
B(  7-C , 21-H ) :   0.8738 B(  8-C ,  9-O ) :   2.1674 B( 10-C , 11-C ) :   2.0275
B( 10-C , 12-C ) :   1.1423 B( 11-C , 22-H ) :   0.9026 B( 11-C , 23-H ) :   0.9079
B( 12-C , 24-H ) :   0.9322 B( 12-C , 25-H ) :   0.9077 B( 12-C , 26-H ) :   0.9236

Dispersion correction           -0.029974999
FINAL SINGLE POINT ENERGY      -464.820470636963

DIPOLE MOMENT
-------------

Method             : SCF
Type of density    : Electron Density
Multiplicity       :   1
Irrep              :   0
Energy             :  -464.9064172517358884 Eh
Relativity type    :
Basis              : AO
                                X                 Y                 Z
Electronic contribution:     -1.699284814      -4.432606051       0.258231400
Nuclear contribution   :      2.215101267       4.992745673      -0.863627180
                        -----------------------------------------
Total Dipole Moment    :      0.515816453       0.560139622      -0.605395780
                        -----------------------------------------
Magnitude (a.u.)       :      0.972793431
Magnitude (Debye)      :      2.472644398

Rotational constants in cm-1:             0.050813             0.031588             0.026480
Rotational constants in MHz :          1523.340055           946.989743           793.855034

                             ****ORCA TERMINATED NORMALLY****
TOTAL RUN TIME: 0 days 0 hours 0 minutes 17 seconds 404 msec
