                         Program Version 6.0.0  -   RELEASE  -
|  1> ! pbe def2-sv(p) def2/J RI DEFGRID1 loosescf d4 GCP(DFT/SV(P)) printgap
|  2> %output
|  3>     printlevel normal
|  4> end
|  5> * xyz 0 1
|  6> C -2.1630361195 -0.8679061202 -0.2462722738
|  7> C -1.1581501892 -0.3180108029 0.7864319871
|  8> H -1.6845949977 -0.3174294386 1.7489174067
|  9> C -0.7231295424 1.1423060225 0.5322208917
| 10> H -1.5731329485 1.6851840088 0.1035332507
| 11> C 0.4673755652 1.270622005 -0.4356223191
| 12> H 0.8859677284 2.2772040509 -0.2818559035
| 13> C 1.5728641561 0.2666804072 -0.0609872003
| 14> H 2.3046566425 0.2113606934 -0.8809924745
| 15> C 1.030415323 -1.1679032679 0.1516865945
| 16> H 1.8004239311 -1.749691997 0.6814998759
| 17> O -0.0615556464 -1.200064423 1.0293977781
| 18> O 0.8253307861 -1.827958838 -1.0545599266
| 19> O 2.1654868865 0.764981885 1.1159667889
| 20> O 0.00348152 1.1285910331 -1.7530861516
| 21> O -0.4384627893 1.7936508507 1.7454359206
| 22> O -1.6880009666 -0.9822985196 -1.5667203333
| 23> H -3.055119267 -0.232139609 -0.2160578845
| 24> H -2.4378383859 -1.8812729359 0.0555965539
| 25> H -0.0815777342 -1.6326253229 -1.3980645545
| 26> H 2.9158367644 0.2120427138 1.3757100022
| 27> H 0.7146122477 1.3163915832 -2.3818700645
| 28> H 0.4097677783 1.4638449501 2.0858438684
| 29> H -1.3949070324 -0.1063841907 -1.8851458316
| 30> *
| 31>
| 32>                          ****END OF INPUT****

CARTESIAN COORDINATES (ANGSTROEM)
---------------------------------
  C     -2.163036   -0.867906   -0.246272
  C     -1.158150   -0.318011    0.786432
  H     -1.684595   -0.317429    1.748917
  C     -0.723130    1.142306    0.532221
  H     -1.573133    1.685184    0.103533
  C      0.467376    1.270622   -0.435622
  H      0.885968    2.277204   -0.281856
  C      1.572864    0.266680   -0.060987
  H      2.304657    0.211361   -0.880992
  C      1.030415   -1.167903    0.151687
  H      1.800424   -1.749692    0.681500
  O     -0.061556   -1.200064    1.029398
  O      0.825331   -1.827959   -1.054560
  O      2.165487    0.764982    1.115967
  O      0.003482    1.128591   -1.753086
  O     -0.438463    1.793651    1.745436
  O     -1.688001   -0.982299   -1.566720
  H     -3.055119   -0.232140   -0.216058
  H     -2.437838   -1.881273    0.055597
  H     -0.081578   -1.632625   -1.398065
  H      2.915837    0.212043    1.375710
  H      0.714612    1.316392   -2.381870
  H      0.409768    1.463845    2.085844
  H     -1.394907   -0.106384   -1.885146

 Total Charge           Charge          ....    0
 Multiplicity           Mult            ....    1
 Number of Electrons    NEL             ....   96
 Basis Dimension        Dim             ....  192

ORBITAL ENERGIES
----------------

  NO   OCC          E(Eh)            E(eV)
   0   2.0000     -18.792797      -511.3780
   1   2.0000     -18.778441      -510.9873
   2   2.0000     -18.765145      -510.6256
   3   2.0000     -18.763252      -510.5740
   4   2.0000     -18.743307      -510.0313
   5   2.0000     -18.728809      -509.6368
   6   2.0000      -9.980123      -271.5729
   7   2.0000      -9.960135      -271.0290
   8   2.0000      -9.951479      -270.7935
   9   2.0000      -9.950513      -270.7672
  10   2.0000      -9.944506      -270.6038
  11   2.0000      -9.939220      -270.4599
  12   2.0000      -0.979373       -26.6501
  13   2.0000      -0.961113       -26.1532
  14   2.0000      -0.949307       -25.8320
  15   2.0000      -0.933759       -25.4089
  16   2.0000      -0.923636       -25.1334
  17   2.0000      -0.890000       -24.2181
  18   2.0000      -0.708845       -19.2886
  19   2.0000      -0.692681       -18.8488
  20   2.0000      -0.627262       -17.0687
  21   2.0000      -0.597022       -16.2458
  22   2.0000      -0.580717       -15.8021
  23   2.0000      -0.531819       -14.4715
  24   2.0000      -0.498165       -13.5558
  25   2.0000      -0.490301       -13.3418
  26   2.0000      -0.479575       -13.0499
  27   2.0000      -0.464755       -12.6466
  28   2.0000      -0.442245       -12.0341
  29   2.0000      -0.436122       -11.8675
  30   2.0000      -0.427510       -11.6331
  31   2.0000      -0.420738       -11.4489
  32   2.0000      -0.395222       -10.7545
  33   2.0000      -0.380697       -10.3593
  34   2.0000      -0.371458       -10.1079
  35   2.0000      -0.352889        -9.6026
  36   2.0000      -0.333799        -9.0831
  37   2.0000      -0.324916        -8.8414
  38   2.0000      -0.306223        -8.3327
  39   2.0000      -0.294023        -8.0008
  40   2.0000      -0.284866        -7.7516
  41   2.0000      -0.276266        -7.5176
  42   2.0000      -0.270769        -7.3680
  43   2.0000      -0.250163        -6.8073
  44   2.0000      -0.247859        -6.7446
  45   2.0000      -0.228123        -6.2076
  46   2.0000      -0.203649        -5.5416
  47   2.0000      -0.201234        -5.4758
  48   0.0000      -0.004283        -0.1165
  49   0.0000       0.008293         0.2257
  50   0.0000       0.041422         1.1272
  51   0.0000       0.059408         1.6166
  52   0.0000       0.070599         1.9211

MULLIKEN ATOMIC CHARGES
-----------------------
   0 C :    0.034974
   1 C :    0.027054
   2 H :    0.082554
   3 C :    0.050486
   4 H :    0.075449
   5 C :    0.035771
   6 H :    0.086673
   7 C :    0.016789
   8 H :    0.061793
   9 C :    0.211507
  10 H :    0.045876
  11 O :   -0.307386
  12 O :   -0.425547
  13 O :   -0.424482
  14 O :   -0.424849
  15 O :   -0.427811
  16 O :   -0.447663
  17 H :    0.086726
  18 H :    0.101197
  19 H :    0.288008
  20 H :    0.313201
  21 H :    0.321310
  22 H :    0.304845
  23 H :    0.313527
Sum of atomic charges:   -0.0000000

LOEWDIN ATOMIC CHARGES
----------------------
   0 C :   -0.134908
   1 C :   -0.079630
   2 H :    0.128810
   3 C :   -0.063601
   4 H :    0.118437
   5 C :   -0.072353
   6 H :    0.113284
   7 C :   -0.098813
   8 H :    0.102043
   9 C :   -0.008668
  10 H :    0.097057
  11 O :   -0.142522
  12 O :   -0.341232
  13 O :   -0.310738
  14 O :   -0.301611
  15 O :   -0.317287
  16 O :   -0.326552
  17 H :    0.108945
  18 H :    0.121790
  19 H :    0.265744
  20 H :    0.293925
  21 H :    0.298788
  22 H :    0.276057
  23 H :    0.273032

  Mayer bond orders larger than 0.100000
B(  0-C ,  1-C ) :   1.0262 B(  0-C , 16-O ) :   1.0431 B(  0-C , 17-H ) :   0.9146
B(  0-C , 18-H ) :   0.9163 B(  1-C ,  2-H ) :   0.8801 B(  1-C ,  3-C ) :   0.9796
B(  1-C , 11-O ) :   1.0023 B(  3-C ,  4-H ) :   0.8952 B(  3-C ,  5-C ) :   1.0064
B(  3-C , 15-O ) :   1.0676 B(  5-C ,  6-H ) :   0.8976 B(  5-C ,  7-C ) :   0.9751
B(  5-C , 14-O ) :   1.0175 B(  7-C ,  8-H ) :   0.8934 B(  7-C ,  9-C ) :   0.9397
B(  7-C , 13-O ) :   1.0105 B(  9-C , 10-H ) :   0.9047 B(  9-C , 11-O ) :   1.0585
B(  9-C , 12-O ) :   1.1567 B( 12-O , 19-H ) :   0.7553 B( 13-O , 20-H ) :   0.8384
B( 14-O , 21-H ) :   0.8317 B( 14-O , 23-H ) :   0.1167 B( 15-O , 22-H ) :   0.8176
B( 16-O , 19-H ) :   0.1755 B( 16-O , 23-H ) :   0.7790

Dispersion correction           -0.026599113
FINAL SINGLE POINT ENERGY      -685.704754062790

DIPOLE MOMENT
-------------

Method             : SCF
Type of density    : Electron Density
Multiplicity       :   1
Irrep              :   0
Energy             :  -685.8401693310885321 Eh
Relativity type    :
Basis              : AO
                                X                 Y                 Z
Electronic contribution:      1.807557065      -0.483080954       0.614795759
Nuclear contribution   :     -1.110017967       1.164627984      -0.938659529
                        -----------------------------------------
Total Dipole Moment    :      0.697539098       0.681547030      -0.323863771
                        -----------------------------------------
Magnitude (a.u.)       :      1.027596657
Magnitude (Debye)      :      2.611943128

Rotational constants in cm-1:             0.039929             0.031412             0.027577
Rotational constants in MHz :          1197.044895           941.697978           826.742678

                             ****ORCA TERMINATED NORMALLY****
TOTAL RUN TIME: 0 days 0 hours 0 minutes 12 seconds 813 msec
