                         Program Version 6.0.0  -   RELEASE  -
|  1> ! wb97x-v def2-tzvp def2/J RIJCOSX DEFGRID2 scfconv7 GCP(DFT/TZ) printgap
|  2> %output
|  3>     printlevel normal
|  4> end
|  5> * xyz 0 1
|  6> C 1.7069368522380757 0.39156243949494624 0.6324506746568401
|  7> C 0.8977862210347217 0.3381895688028483 -0.6620416508460816
|  8> C -0.5691470308614156 -0.0436764963105771 -0.4923556082836002
|  9> H -1.0471676972394226 0.003613522836292284 -1.4827987535796348
| 10> C -1.3349904602466158 0.8554573740813831 0.46487195128642705
| 11> O -0.6047203293181609 -1.4187845511937982 -0.031735676005929435
| 12> H 2.7608918749140727 0.5885641081816122 0.41291007275397545
| 13> H 1.6535685814621046 -0.5550483201894948 1.1792438915565127
| 14> H 1.3561890396287655 1.1867873714340935 1.2974636633993692
| 15> H 1.3541403652057922 -0.3806595272302876 -1.353736710814024
| 16> H 0.9296632109609184 1.3143981918097956 -1.1600178523845466
| 17> H -0.9324579609355003 0.7845330047489123 1.4800772198687462
| 18> H -1.2766242795058016 1.8995961390564526 0.1391439935704524
| 19> H -2.3918255145864196 0.568774988132748 0.4939042383134417
| 20> H -1.5309748827946201 -1.6415358951195524 0.12652420068098155
| 21> *
| 22>
| 23>                          ****END OF INPUT****

CARTESIAN COORDINATES (ANGSTROEM)
---------------------------------
  C      1.706937    0.391562    0.632451
  C      0.897786    0.338190   -0.662042
  C     -0.569147   -0.043676   -0.492356
  H     -1.047168    0.003614   -1.482799
  C     -1.334990    0.855457    0.464872
  O     -0.604720   -1.418785   -0.031736
  H      2.760892    0.588564    0.412910
  H      1.653569   -0.555048    1.179244
  H      1.356189    1.186787    1.297464
  H      1.354140   -0.380660   -1.353737
  H      0.929663    1.314398   -1.160018
  H     -0.932458    0.784533    1.480077
  H     -1.276624    1.899596    0.139144
  H     -2.391826    0.568775    0.493904
  H     -1.530975   -1.641536    0.126524

 Total Charge           Charge          ....    0
 Multiplicity           Mult            ....    1
 Number of Electrons    NEL             ....   42
 Basis Dimension        Dim             ....  215

ORBITAL ENERGIES
----------------

  NO   OCC          E(Eh)            E(eV)
   0   2.0000     -21.664715      -589.5269
   1   2.0000     -12.095416      -329.1330
   2   2.0000     -12.039167      -327.6024
   3   2.0000     -12.038648      -327.5883
   4   2.0000     -12.028074      -327.3005
   5   2.0000      -1.662774       -45.2464
   6   2.0000      -1.303996       -35.4835
   7   2.0000      -1.225950       -33.3598
   8   2.0000      -1.145801       -31.1788
   9   2.0000      -1.073960       -29.2239
  10   2.0000      -1.008912       -27.4539
  11   2.0000      -0.938472       -25.5371
  12   2.0000      -0.928272       -25.2596
  13   2.0000      -0.866413       -23.5763
  14   2.0000      -0.858157       -23.3516
  15   2.0000      -0.829897       -22.5826
  16   2.0000      -0.818262       -22.2660
  17   2.0000      -0.813756       -22.1434
  18   2.0000      -0.774877       -21.0855
  19   2.0000      -0.764709       -20.8088
  20   2.0000      -0.759159       -20.6578
  21   0.0000      -0.141636        -3.8541
  22   0.0000      -0.048989        -1.3331
  23   0.0000      -0.018139        -0.4936
  24   0.0000      -0.008432        -0.2294
  25   0.0000      -0.002004        -0.0545

MULLIKEN ATOMIC CHARGES
-----------------------
   0 C :   -0.381688
   1 C :   -0.135614
   2 C :    0.128279
   3 H :    0.066815
   4 C :   -0.405399
   5 O :   -0.452850
   6 H :    0.113528
   7 H :    0.129824
   8 H :    0.106512
   9 H :    0.098901
  10 H :    0.089768
  11 H :    0.132856
  12 H :    0.108249
  13 H :    0.108699
  14 H :    0.292120
Sum of atomic charges:    0.0000000

LOEWDIN ATOMIC CHARGES
----------------------
   0 C :   -0.306537
   1 C :   -0.272370
   2 C :   -0.367264
   3 H :    0.129503
   4 C :   -0.293564
   5 O :   -0.041241
   6 H :    0.116444
   7 H :    0.122122
   8 H :    0.113502
   9 H :    0.138187
  10 H :    0.135192
  11 H :    0.122152
  12 H :    0.123809
  13 H :    0.115198
  14 H :    0.164867

  Mayer bond orders larger than 0.100000
B(  0-C ,  1-C ) :   0.9809 B(  0-C ,  6-H ) :   0.9811 B(  0-C ,  7-H ) :   0.9764
B(  0-C ,  8-H ) :   0.9817 B(  1-C ,  2-C ) :   0.9723 B(  1-C ,  9-H ) :   0.9730
B(  1-C , 10-H ) :   0.9715 B(  2-C ,  3-H ) :   0.9715 B(  2-C ,  4-C ) :   0.9666
B(  2-C ,  5-O ) :   1.0275 B(  4-C , 11-H ) :   0.9827 B(  4-C , 12-H ) :   0.9713
B(  4-C , 13-H ) :   0.9778 B(  5-O , 14-H ) :   0.9075

FINAL SINGLE POINT ENERGY      -233.680198866215

DIPOLE MOMENT
-------------

Method             : SCF
Type of density    : Electron Density
Multiplicity       :   1
Irrep              :   0
Energy             :  -233.6908393751151323 Eh
Relativity type    :
Basis              : AO
                                X                 Y                 Z
Electronic contribution:     -1.343348943      -3.151609072      -1.149885178
Nuclear contribution   :      0.860230034       3.563782712       1.068743150
                        -----------------------------------------
Total Dipole Moment    :     -0.483118910       0.412173640      -0.081142028
                        -----------------------------------------
Magnitude (a.u.)       :      0.640214823
Magnitude (Debye)      :      1.627296755

Rotational constants in cm-1:             0.214291             0.128643             0.105354
Rotational constants in MHz :          6424.296957          3856.622164          3158.422033

                             ****ORCA TERMINATED NORMALLY****
TOTAL RUN TIME: 0 days 0 hours 1 minutes 2 seconds 422 msec
