                         Program Version 6.0.0  -   RELEASE  -
|  1> ! wb97x-v def2-tzvp def2/J RIJCOSX DEFGRID2 scfconv7 GCP(DFT/TZ) printgap
|  2> %output
|  3>     printlevel normal
|  4> end
|  5> %cpcm
|  6>     smd true
|  7>     smdsolvent "water"
|  8> end
|  9> * xyz 0 1
| 10> C 1.7069368522380757 0.39156243949494624 0.6324506746568401
| 11> C 0.8977862210347217 0.3381895688028483 -0.6620416508460816
| 12> C -0.5691470308614156 -0.0436764963105771 -0.4923556082836002
| 13> H -1.0471676972394226 0.003613522836292284 -1.4827987535796348
| 14> C -1.3349904602466158 0.8554573740813831 0.46487195128642705
| 15> O -0.6047203293181609 -1.4187845511937982 -0.031735676005929435
| 16> H 2.7608918749140727 0.5885641081816122 0.41291007275397545
| 17> H 1.6535685814621046 -0.5550483201894948 1.1792438915565127
| 18> H 1.3561890396287655 1.1867873714340935 1.2974636633993692
| 19> H 1.3541403652057922 -0.3806595272302876 -1.353736710814024
| 20> H 0.9296632109609184 1.3143981918097956 -1.1600178523845466
| 21> H -0.9324579609355003 0.7845330047489123 1.4800772198687462
| 22> H -1.2766242795058016 1.8995961390564526 0.1391439935704524
| 23> H -2.3918255145864196 0.568774988132748 0.4939042383134417
| 24> H -1.5309748827946201 -1.6415358951195524 0.12652420068098155
| 25> *
| 26>
| 27>                          ****END OF INPUT****

CARTESIAN COORDINATES (ANGSTROEM)
---------------------------------
  C      1.706937    0.391562    0.632451
  C      0.897786    0.338190   -0.662042
  C     -0.569147   -0.043676   -0.492356
  H     -1.047168    0.003614   -1.482799
  C     -1.334990    0.855457    0.464872
  O     -0.604720   -1.418785   -0.031736
  H      2.760892    0.588564    0.412910
  H      1.653569   -0.555048    1.179244
  H      1.356189    1.186787    1.297464
  H      1.354140   -0.380660   -1.353737
  H      0.929663    1.314398   -1.160018
  H     -0.932458    0.784533    1.480077
  H     -1.276624    1.899596    0.139144
  H     -2.391826    0.568775    0.493904
  H     -1.530975   -1.641536    0.126524

 Total Charge           Charge          ....    0
 Multiplicity           Mult            ....    1
 Number of Electrons    NEL             ....   42
 Basis Dimension        Dim             ....  215

ORBITAL ENERGIES
----------------

  NO   OCC          E(Eh)            E(eV)
   0   2.0000     -21.668039      -589.6173
   1   2.0000     -12.089430      -328.9701
   2   2.0000     -12.033282      -327.4423
   3   2.0000     -12.026004      -327.2442
   4   2.0000     -12.024599      -327.2060
   5   2.0000      -1.666440       -45.3461
   6   2.0000      -1.298501       -35.3340
   7   2.0000      -1.219183       -33.1757
   8   2.0000      -1.140583       -31.0368
   9   2.0000      -1.072556       -29.1857
  10   2.0000      -1.009461       -27.4688
  11   2.0000      -0.940556       -25.5938
  12   2.0000      -0.927740       -25.2451
  13   2.0000      -0.862401       -23.4671
  14   2.0000      -0.854647       -23.2561
  15   2.0000      -0.825689       -22.4682
  16   2.0000      -0.806761       -21.9531
  17   2.0000      -0.805752       -21.9256
  18   2.0000      -0.770669       -20.9710
  19   2.0000      -0.757955       -20.6250
  20   2.0000      -0.753942       -20.5158
  21   0.0000      -0.137131        -3.7315
  22   0.0000      -0.029026        -0.7898
  23   0.0000      -0.010007        -0.2723
  24   0.0000      -0.001275        -0.0347
  25   0.0000       0.010906         0.2968

MULLIKEN ATOMIC CHARGES
-----------------------
   0 C :   -0.421079
   1 C :   -0.154369
   2 C :    0.129955
   3 H :    0.089363
   4 C :   -0.436350
   5 O :   -0.564314
   6 H :    0.132779
   7 H :    0.118500
   8 H :    0.129702
   9 H :    0.106975
  10 H :    0.112731
  11 H :    0.134888
  12 H :    0.128539
  13 H :    0.137767
  14 H :    0.354914
Sum of atomic charges:    0.0000000

LOEWDIN ATOMIC CHARGES
----------------------
   0 C :   -0.314465
   1 C :   -0.276710
   2 C :   -0.363228
   3 H :    0.136345
   4 C :   -0.293631
   5 O :   -0.082722
   6 H :    0.119699
   7 H :    0.116613
   8 H :    0.118624
   9 H :    0.137050
  10 H :    0.141963
  11 H :    0.122262
  12 H :    0.128958
  13 H :    0.122830
  14 H :    0.186411

  Mayer bond orders larger than 0.100000
B(  0-C ,  1-C ) :   0.9691 B(  0-C ,  6-H ) :   0.9788 B(  0-C ,  7-H ) :   0.9768
B(  0-C ,  8-H ) :   0.9782 B(  1-C ,  2-C ) :   0.9670 B(  1-C ,  9-H ) :   0.9749
B(  1-C , 10-H ) :   0.9690 B(  2-C ,  3-H ) :   0.9770 B(  2-C ,  4-C ) :   0.9821
B(  2-C ,  5-O ) :   0.9860 B(  4-C , 11-H ) :   0.9745 B(  4-C , 12-H ) :   0.9683
B(  4-C , 13-H ) :   0.9746 B(  5-O , 14-H ) :   0.8715

FINAL SINGLE POINT ENERGY      -233.687190242210

DIPOLE MOMENT
-------------

Method             : SCF
Type of density    : Electron Density
Multiplicity       :   1
Irrep              :   0
Energy             :  -233.6978307511100752 Eh
Relativity type    :
Basis              : AO
                                X                 Y                 Z
Electronic contribution:     -1.556019760      -2.930504061      -1.216329285
Nuclear contribution   :      0.860230034       3.563782712       1.068743150
                        -----------------------------------------
Total Dipole Moment    :     -0.695789726       0.633278650      -0.147586135
                        -----------------------------------------
Magnitude (a.u.)       :      0.952337576
Magnitude (Debye)      :      2.420649746

Rotational constants in cm-1:             0.214291             0.128643             0.105354
Rotational constants in MHz :          6424.296957          3856.622164          3158.422033

                             ****ORCA TERMINATED NORMALLY****
TOTAL RUN TIME: 0 days 0 hours 1 minutes 10 seconds 223 msec
