                         Program Version 6.0.0  -   RELEASE  -
|  1> ! pbe def2-sv(p) def2/J RI DEFGRID1 loosescf d4 GCP(DFT/SV(P)) printgap
|  2> %output
|  3>     printlevel normal
|  4> end
|  5> * xyz 0 1
|  6> C -2.0242766502 -1.4085012423 -0.1830245042
|  7> C -1.0330577506 -0.5001266027 0.5596773578
|  8> H -1.5199294989 -0.1818654217 1.4908806551
|  9> C -0.651610106 0.7421926898 -0.255713967
| 10> H -0.5467541326 0.4813110054 -1.3157836181
| 11> C 0.7111888994 1.2497464226 0.2453861375
| 12> H 0.6874541998 1.3497502648 1.343596957
| 13> C 1.7720580023 0.2090747002 -0.1270725944
| 14> H 1.9794831012 0.3005943541 -1.2034954964
| 15> C 1.226898048 -1.2116702014 0.1248732559
| 16> H 1.9958362153 -1.7635369863 0.6817156027
| 17> O 0.1159755171 -1.2279300905 0.9873368822
| 18> O 0.9456074983 -1.800319533 -1.1048328705
| 19> O 2.9518309522 0.3568532592 0.6185326198
| 20> O 1.0438076228 2.4844107684 -0.3380234454
| 21> O -1.6093291709 1.7656573622 -0.2164500992
| 22> O -3.2835772182 -0.7794472538 -0.1605700473
| 23> H -2.058706054 -2.3702605084 0.3463479088
| 24> H -1.6748481764 -1.5702681623 -1.2092188532
| 25> H 0.8727746312 -2.7622945844 -1.008850116
| 26> H 3.2932209649 1.253833378 0.4819623075
| 27> H 0.2150273696 2.9538792916 -0.5332422745
| 28> H -1.9590837652 1.8649407237 0.6808886949
| 29> H -3.9071191185 -1.2879910189 -0.6968899178
| 30> *
| 31>
| 32>                          ****END OF INPUT****

CARTESIAN COORDINATES (ANGSTROEM)
---------------------------------
  C     -2.024277   -1.408501   -0.183025
  C     -1.033058   -0.500127    0.559677
  H     -1.519929   -0.181865    1.490881
  C     -0.651610    0.742193   -0.255714
  H     -0.546754    0.481311   -1.315784
  C      0.711189    1.249746    0.245386
  H      0.687454    1.349750    1.343597
  C      1.772058    0.209075   -0.127073
  H      1.979483    0.300594   -1.203495
  C      1.226898   -1.211670    0.124873
  H      1.995836   -1.763537    0.681716
  O      0.115976   -1.227930    0.987337
  O      0.945607   -1.800320   -1.104833
  O      2.951831    0.356853    0.618533
  O      1.043808    2.484411   -0.338023
  O     -1.609329    1.765657   -0.216450
  O     -3.283577   -0.779447   -0.160570
  H     -2.058706   -2.370261    0.346348
  H     -1.674848   -1.570268   -1.209219
  H      0.872775   -2.762295   -1.008850
  H      3.293221    1.253833    0.481962
  H      0.215027    2.953879   -0.533242
  H     -1.959084    1.864941    0.680889
  H     -3.907119   -1.287991   -0.696890

 Total Charge           Charge          ....    0
 Multiplicity           Mult            ....    1
 Number of Electrons    NEL             ....   96
 Basis Dimension        Dim             ....  192

ORBITAL ENERGIES
----------------

  NO   OCC          E(Eh)            E(eV)
   0   2.0000     -18.768185      -510.7083
   1   2.0000     -18.767958      -510.7021
   2   2.0000     -18.762178      -510.5448
   3   2.0000     -18.751863      -510.2641
   4   2.0000     -18.745269      -510.0847
   5   2.0000     -18.741684      -509.9872
   6   2.0000      -9.984512      -271.6924
   7   2.0000      -9.947743      -270.6918
   8   2.0000      -9.942906      -270.5602
   9   2.0000      -9.933955      -270.3166
  10   2.0000      -9.931726      -270.2560
  11   2.0000      -9.931388      -270.2468
  12   2.0000      -0.981795       -26.7160
  13   2.0000      -0.947318       -25.7778
  14   2.0000      -0.928899       -25.2766
  15   2.0000      -0.924925       -25.1685
  16   2.0000      -0.914152       -24.8753
  17   2.0000      -0.908210       -24.7137
  18   2.0000      -0.702379       -19.1127
  19   2.0000      -0.691966       -18.8293
  20   2.0000      -0.619006       -16.8440
  21   2.0000      -0.584121       -15.8947
  22   2.0000      -0.559522       -15.2254
  23   2.0000      -0.519684       -14.1413
  24   2.0000      -0.513451       -13.9717
  25   2.0000      -0.483122       -13.1464
  26   2.0000      -0.475178       -12.9303
  27   2.0000      -0.463193       -12.6041
  28   2.0000      -0.437651       -11.9091
  29   2.0000      -0.418716       -11.3938
  30   2.0000      -0.403610       -10.9828
  31   2.0000      -0.402363       -10.9488
  32   2.0000      -0.388186       -10.5631
  33   2.0000      -0.375032       -10.2051
  34   2.0000      -0.361999        -9.8505
  35   2.0000      -0.354547        -9.6477
  36   2.0000      -0.332409        -9.0453
  37   2.0000      -0.307936        -8.3794
  38   2.0000      -0.295937        -8.0529
  39   2.0000      -0.294447        -8.0123
  40   2.0000      -0.286077        -7.7845
  41   2.0000      -0.265544        -7.2258
  42   2.0000      -0.249770        -6.7966
  43   2.0000      -0.245431        -6.6785
  44   2.0000      -0.230682        -6.2772
  45   2.0000      -0.217742        -5.9251
  46   2.0000      -0.210560        -5.7296
  47   2.0000      -0.201916        -5.4944
  48   0.0000       0.015411         0.4193
  49   0.0000       0.019272         0.5244
  50   0.0000       0.027216         0.7406
  51   0.0000       0.046266         1.2590
  52   0.0000       0.060684         1.6513

MULLIKEN ATOMIC CHARGES
-----------------------
   0 C :    0.049369
   1 C :    0.066597
   2 H :    0.062115
   3 C :   -0.016829
   4 H :    0.077089
   5 C :    0.053620
   6 H :    0.041591
   7 C :    0.092325
   8 H :    0.067968
   9 C :    0.157651
  10 H :    0.076750
  11 O :   -0.314635
  12 O :   -0.395059
  13 O :   -0.417877
  14 O :   -0.427143
  15 O :   -0.403215
  16 O :   -0.436833
  17 H :    0.068678
  18 H :    0.072403
  19 H :    0.307747
  20 H :    0.310516
  21 H :    0.300944
  22 H :    0.303011
  23 H :    0.303218
Sum of atomic charges:    0.0000000

LOEWDIN ATOMIC CHARGES
----------------------
   0 C :   -0.135335
   1 C :   -0.059996
   2 H :    0.114089
   3 C :   -0.082414
   4 H :    0.120590
   5 C :   -0.086034
   6 H :    0.098710
   7 C :   -0.073321
   8 H :    0.110406
   9 C :    0.000604
  10 H :    0.108015
  11 O :   -0.143472
  12 O :   -0.304895
  13 O :   -0.318327
  14 O :   -0.332434
  15 O :   -0.299413
  16 O :   -0.343823
  17 H :    0.093821
  18 H :    0.098018
  19 H :    0.289248
  20 H :    0.291747
  21 H :    0.279004
  22 H :    0.286539
  23 H :    0.288673

  Mayer bond orders larger than 0.100000
B(  0-C ,  1-C ) :   1.0688 B(  0-C , 16-O ) :   1.0925 B(  0-C , 17-H ) :   0.9127
B(  0-C , 18-H ) :   0.9044 B(  1-C ,  2-H ) :   0.8798 B(  1-C ,  3-C ) :   0.9898
B(  1-C , 11-O ) :   0.9907 B(  3-C ,  4-H ) :   0.8742 B(  3-C ,  5-C ) :   1.0131
B(  3-C , 15-O ) :   1.0456 B(  5-C ,  6-H ) :   0.8522 B(  5-C ,  7-C ) :   1.0369
B(  5-C , 14-O ) :   1.1053 B(  7-C ,  8-H ) :   0.8813 B(  7-C ,  9-C ) :   0.9873
B(  7-C , 13-O ) :   1.0876 B(  9-C , 10-H ) :   0.8931 B(  9-C , 11-O ) :   1.0680
B(  9-C , 12-O ) :   1.1106 B( 12-O , 19-H ) :   0.8382 B( 13-O , 20-H ) :   0.8441
B( 14-O , 21-H ) :   0.8188 B( 15-O , 22-H ) :   0.8412 B( 16-O , 23-H ) :   0.8492

Dispersion correction           -0.024478827
FINAL SINGLE POINT ENERGY      -685.690206349301

DIPOLE MOMENT
-------------

Method             : SCF
Type of density    : Electron Density
Multiplicity       :   1
Irrep              :   0
Energy             :  -685.8201487409718311 Eh
Relativity type    :
Basis              : AO
                                X                 Y                 Z
Electronic contribution:      1.771030176       0.988566104       0.745164649
Nuclear contribution   :     -2.458052232      -1.612983913      -0.887009355
                        -----------------------------------------
Total Dipole Moment    :     -0.687022056      -0.624417809      -0.141844706
                        -----------------------------------------
Magnitude (a.u.)       :      0.939157509
Magnitude (Debye)      :      2.387148678

Rotational constants in cm-1:             0.043632             0.026194             0.018562
Rotational constants in MHz :          1308.058753           785.286570           556.467472

                             ****ORCA TERMINATED NORMALLY****
TOTAL RUN TIME: 0 days 0 hours 0 minutes 12 seconds 196 msec
