                         Program Version 6.0.0  -   RELEASE  -
|  1> ! pbe def2-sv(p) def2/J RI DEFGRID1 loosescf d4 GCP(DFT/SV(P)) printgap
|  2> %output
|  3>     printlevel normal
|  4> end
|  5> * xyz 0 1
|  6> C -1.8443046159 -0.6146901488 -1.0946454349
|  7> C -1.2409020198 -0.5597689697 0.3272612971
|  8> H -2.0236520201 -0.893505911 1.0228143823
|  9> C -0.796669823 0.8563736521 0.7160478465
| 10> H -1.610744409 1.5534352011 0.473875021
| 11> C 0.433247316 1.3157211101 -0.0874280673
| 12> H 1.0024607373 1.994609954 0.5629848848
| 13> C 1.3552409773 0.1342179564 -0.4308211256
| 14> H 1.1095888339 -0.2352389787 -1.4404685849
| 15> C 1.116173295 -1.0121608887 0.5676495128
| 16> H 1.3127536199 -0.6427711699 1.5871193112
| 17> O -0.189699418 -1.5170685377 0.448015902
| 18> O 2.0012255951 -2.0572354513 0.3462519267
| 19> O 2.6912346326 0.5668027808 -0.388384653
| 20> O -0.0234741446 1.9828256562 -1.2376486178
| 21> O -0.4658838884 0.9486993061 2.0819465071
| 22> O -3.1480662077 -0.090031463 -1.1349283632
| 23> H -1.9281442232 -1.667094311 -1.3761215102
| 24> H -1.1933757833 -0.1002936238 -1.8059934745
| 25> H 1.6138713033 -2.6674870935 -0.3011998067
| 26> H 3.2652205021 -0.2094549625 -0.2883166974
| 27> H 0.7242039295 2.4164638588 -1.6731967319
| 28> H -1.2526871632 0.7859599828 2.6230674303
| 29> H -3.1105143711 0.8742217625 -1.1910143956
| 30> *
| 31>
| 32>                          ****END OF INPUT****

CARTESIAN COORDINATES (ANGSTROEM)
---------------------------------
  C     -1.844305   -0.614690   -1.094645
  C     -1.240902   -0.559769    0.327261
  H     -2.023652   -0.893506    1.022814
  C     -0.796670    0.856374    0.716048
  H     -1.610744    1.553435    0.473875
  C      0.433247    1.315721   -0.087428
  H      1.002461    1.994610    0.562985
  C      1.355241    0.134218   -0.430821
  H      1.109589   -0.235239   -1.440469
  C      1.116173   -1.012161    0.567650
  H      1.312754   -0.642771    1.587119
  O     -0.189699   -1.517069    0.448016
  O      2.001226   -2.057235    0.346252
  O      2.691235    0.566803   -0.388385
  O     -0.023474    1.982826   -1.237649
  O     -0.465884    0.948699    2.081947
  O     -3.148066   -0.090031   -1.134928
  H     -1.928144   -1.667094   -1.376122
  H     -1.193376   -0.100294   -1.805993
  H      1.613871   -2.667487   -0.301200
  H      3.265221   -0.209455   -0.288317
  H      0.724204    2.416464   -1.673197
  H     -1.252687    0.785960    2.623067
  H     -3.110514    0.874222   -1.191014

 Total Charge           Charge          ....    0
 Multiplicity           Mult            ....    1
 Number of Electrons    NEL             ....   96
 Basis Dimension        Dim             ....  192

ORBITAL ENERGIES
----------------

  NO   OCC          E(Eh)            E(eV)
   0   2.0000     -18.770495      -510.7711
   1   2.0000     -18.764294      -510.6024
   2   2.0000     -18.764043      -510.5956
   3   2.0000     -18.763342      -510.5765
   4   2.0000     -18.751396      -510.2514
   5   2.0000     -18.749129      -510.1897
   6   2.0000      -9.981451      -271.6091
   7   2.0000      -9.954184      -270.8671
   8   2.0000      -9.947105      -270.6745
   9   2.0000      -9.945560      -270.6324
  10   2.0000      -9.935531      -270.3595
  11   2.0000      -9.929758      -270.2025
  12   2.0000      -0.984544       -26.7908
  13   2.0000      -0.947772       -25.7902
  14   2.0000      -0.938567       -25.5397
  15   2.0000      -0.927551       -25.2400
  16   2.0000      -0.922494       -25.1023
  17   2.0000      -0.910187       -24.7675
  18   2.0000      -0.709219       -19.2988
  19   2.0000      -0.687033       -18.6951
  20   2.0000      -0.619405       -16.8549
  21   2.0000      -0.588368       -16.0103
  22   2.0000      -0.568739       -15.4762
  23   2.0000      -0.523358       -14.2413
  24   2.0000      -0.517801       -14.0901
  25   2.0000      -0.488956       -13.3052
  26   2.0000      -0.475587       -12.9414
  27   2.0000      -0.464380       -12.6364
  28   2.0000      -0.440381       -11.9834
  29   2.0000      -0.432861       -11.7787
  30   2.0000      -0.419917       -11.4265
  31   2.0000      -0.396286       -10.7835
  32   2.0000      -0.387749       -10.5512
  33   2.0000      -0.378413       -10.2971
  34   2.0000      -0.363287        -9.8855
  35   2.0000      -0.361522        -9.8375
  36   2.0000      -0.325572        -8.8593
  37   2.0000      -0.318348        -8.6627
  38   2.0000      -0.307821        -8.3762
  39   2.0000      -0.290288        -7.8991
  40   2.0000      -0.286962        -7.8086
  41   2.0000      -0.274926        -7.4811
  42   2.0000      -0.263020        -7.1571
  43   2.0000      -0.243178        -6.6172
  44   2.0000      -0.233463        -6.3529
  45   2.0000      -0.226097        -6.1524
  46   2.0000      -0.215246        -5.8572
  47   2.0000      -0.197155        -5.3648
  48   0.0000       0.012479         0.3396
  49   0.0000       0.019067         0.5188
  50   0.0000       0.030812         0.8384
  51   0.0000       0.039921         1.0863
  52   0.0000       0.062217         1.6930

MULLIKEN ATOMIC CHARGES
-----------------------
   0 C :    0.017432
   1 C :    0.051810
   2 H :    0.059044
   3 C :   -0.010843
   4 H :    0.058770
   5 C :    0.114516
   6 H :    0.079723
   7 C :    0.013158
   8 H :    0.032284
   9 C :    0.201729
  10 H :    0.068169
  11 O :   -0.320304
  12 O :   -0.393590
  13 O :   -0.424303
  14 O :   -0.419152
  15 O :   -0.409191
  16 O :   -0.435341
  17 H :    0.087682
  18 H :    0.099533
  19 H :    0.300701
  20 H :    0.302507
  21 H :    0.313509
  22 H :    0.306953
  23 H :    0.305204
Sum of atomic charges:   -0.0000000

LOEWDIN ATOMIC CHARGES
----------------------
   0 C :   -0.139908
   1 C :   -0.069267
   2 H :    0.108195
   3 C :   -0.070864
   4 H :    0.103707
   5 C :   -0.058066
   6 H :    0.120075
   7 C :   -0.102665
   8 H :    0.095941
   9 C :   -0.006337
  10 H :    0.102909
  11 O :   -0.152020
  12 O :   -0.301049
  13 O :   -0.326282
  14 O :   -0.318877
  15 O :   -0.310729
  16 O :   -0.333305
  17 H :    0.114738
  18 H :    0.105154
  19 H :    0.286016
  20 H :    0.282299
  21 H :    0.295299
  22 H :    0.290364
  23 H :    0.284674

  Mayer bond orders larger than 0.100000
B(  0-C ,  1-C ) :   1.0154 B(  0-C , 16-O ) :   1.0713 B(  0-C , 17-H ) :   0.9164
B(  0-C , 18-H ) :   0.9068 B(  1-C ,  2-H ) :   0.8821 B(  1-C ,  3-C ) :   1.0292
B(  1-C , 11-O ) :   0.9751 B(  3-C ,  4-H ) :   0.8836 B(  3-C ,  5-C ) :   1.0162
B(  3-C , 15-O ) :   1.0282 B(  5-C ,  6-H ) :   0.8593 B(  5-C ,  7-C ) :   1.0085
B(  5-C , 14-O ) :   1.0606 B(  7-C ,  8-H ) :   0.8343 B(  7-C ,  9-C ) :   1.0471
B(  7-C , 13-O ) :   1.0807 B(  9-C , 10-H ) :   0.8668 B(  9-C , 11-O ) :   1.0316
B(  9-C , 12-O ) :   1.1011 B( 12-O , 19-H ) :   0.8389 B( 13-O , 20-H ) :   0.8276
B( 14-O , 21-H ) :   0.8450 B( 15-O , 22-H ) :   0.8443 B( 16-O , 23-H ) :   0.8471

Dispersion correction           -0.024811937
FINAL SINGLE POINT ENERGY      -685.687849973179

DIPOLE MOMENT
-------------

Method             : SCF
Type of density    : Electron Density
Multiplicity       :   1
Irrep              :   0
Energy             :  -685.8179444731214289 Eh
Relativity type    :
Basis              : AO
                                X                 Y                 Z
Electronic contribution:      1.851425106      -0.814455448       1.436778998
Nuclear contribution   :     -1.948912062       1.131642663      -1.693050160
                        -----------------------------------------
Total Dipole Moment    :     -0.097486956       0.317187215      -0.256271162
                        -----------------------------------------
Magnitude (a.u.)       :      0.419268822
Magnitude (Debye)      :      1.065696652

Rotational constants in cm-1:             0.039939             0.025387             0.022048
Rotational constants in MHz :          1197.352639           761.071746           660.993538

                             ****ORCA TERMINATED NORMALLY****
TOTAL RUN TIME: 0 days 0 hours 0 minutes 11 seconds 962 msec
