                         Program Version 6.0.0  -   RELEASE  -
|  1> ! pbe def2-sv(p) def2/J RI DEFGRID1 loosescf d4 GCP(DFT/SV(P)) printgap
|  2> %output
|  3>     printlevel normal
|  4> end
|  5> * xyz 0 1
|  6> C -2.9050082936 -1.0373787469 0.3736317422
|  7> O -1.7316559852 -0.7212687893 -0.3778210706
|  8> C -1.0336427226 0.3460691126 0.0041366119
|  9> O -1.3669781436 1.0362660337 0.9452025647
| 10> C 0.1502861936 0.6337454343 -0.8972294871
| 11> C 0.8272597807 -0.6301141817 -1.4541151362
| 12> C 1.9888135601 -1.0820726396 -0.5603025228
| 13> C 1.7029353951 -0.7279028913 0.8941226003
| 14> C 1.7132317723 0.7927952633 1.0787336707
| 15> C 1.1666119329 1.5106049367 -0.1630359806
| 16> H -2.6435411758 -1.2211889363 1.4166809217
| 17> H -3.3172723211 -1.9286596781 -0.0886656206
| 18> H -3.6118521847 -0.2079889875 0.3278753044
| 19> H -0.279023677 1.2016437463 -1.7312647853
| 20> H 0.0852138779 -1.4237604402 -1.5345677171
| 21> H 1.2009490494 -0.422259436 -2.4567697553
| 22> H 2.1351747177 -2.1572830281 -0.6668193651
| 23> H 2.9133366502 -0.5894235886 -0.8645143741
| 24> H 0.7251624301 -1.1297096212 1.1724786409
| 25> H 2.4426569676 -1.1849447864 1.5526506381
| 26> H 1.1071813606 1.0536423123 1.9479642555
| 27> H 2.73084959 1.1363475381 1.2692109666
| 28> H 0.6967853529 2.4489210718 0.1331759753
| 29> H 1.976419342 1.7392926953 -0.8555448329
| 30> *
| 31>
| 32>                          ****END OF INPUT****

CARTESIAN COORDINATES (ANGSTROEM)
---------------------------------
  C     -2.905008   -1.037379    0.373632
  O     -1.731656   -0.721269   -0.377821
  C     -1.033643    0.346069    0.004137
  O     -1.366978    1.036266    0.945203
  C      0.150286    0.633745   -0.897229
  C      0.827260   -0.630114   -1.454115
  C      1.988814   -1.082073   -0.560303
  C      1.702935   -0.727903    0.894123
  C      1.713232    0.792795    1.078734
  C      1.166612    1.510605   -0.163036
  H     -2.643541   -1.221189    1.416681
  H     -3.317272   -1.928660   -0.088666
  H     -3.611852   -0.207989    0.327875
  H     -0.279024    1.201644   -1.731265
  H      0.085214   -1.423760   -1.534568
  H      1.200949   -0.422259   -2.456770
  H      2.135175   -2.157283   -0.666819
  H      2.913337   -0.589424   -0.864514
  H      0.725162   -1.129710    1.172479
  H      2.442657   -1.184945    1.552651
  H      1.107181    1.053642    1.947964
  H      2.730850    1.136348    1.269211
  H      0.696785    2.448921    0.133176
  H      1.976419    1.739293   -0.855545

 Total Charge           Charge          ....    0
 Multiplicity           Mult            ....    1
 Number of Electrons    NEL             ....   78
 Basis Dimension        Dim             ....  168

ORBITAL ENERGIES
----------------

  NO   OCC          E(Eh)            E(eV)
   0   2.0000     -18.798618      -511.5364
   1   2.0000     -18.734110      -509.7810
   2   2.0000     -10.003721      -272.2151
   3   2.0000      -9.941982      -270.5351
   4   2.0000      -9.904316      -269.5101
   5   2.0000      -9.883641      -268.9475
   6   2.0000      -9.881885      -268.8998
   7   2.0000      -9.881398      -268.8865
   8   2.0000      -9.880264      -268.8556
   9   2.0000      -9.876126      -268.7430
  10   2.0000      -1.006115       -27.3778
  11   2.0000      -0.909440       -24.7471
  12   2.0000      -0.760099       -20.6834
  13   2.0000      -0.688274       -18.7289
  14   2.0000      -0.662592       -18.0300
  15   2.0000      -0.650244       -17.6940
  16   2.0000      -0.566162       -15.4061
  17   2.0000      -0.542236       -14.7550
  18   2.0000      -0.508137       -13.8271
  19   2.0000      -0.477842       -13.0027
  20   2.0000      -0.460469       -12.5300
  21   2.0000      -0.441403       -12.0112
  22   2.0000      -0.422910       -11.5080
  23   2.0000      -0.418346       -11.3838
  24   2.0000      -0.394844       -10.7442
  25   2.0000      -0.383747       -10.4423
  26   2.0000      -0.364246        -9.9116
  27   2.0000      -0.355697        -9.6790
  28   2.0000      -0.334984        -9.1154
  29   2.0000      -0.329564        -8.9679
  30   2.0000      -0.326807        -8.8929
  31   2.0000      -0.320573        -8.7232
  32   2.0000      -0.309355        -8.4180
  33   2.0000      -0.300937        -8.1889
  34   2.0000      -0.271188        -7.3794
  35   2.0000      -0.261587        -7.1181
  36   2.0000      -0.259427        -7.0594
  37   2.0000      -0.257008        -6.9935
  38   2.0000      -0.214868        -5.8468
  39   0.0000      -0.021818        -0.5937
  40   0.0000       0.029896         0.8135
  41   0.0000       0.044851         1.2205
  42   0.0000       0.069331         1.8866
  43   0.0000       0.072426         1.9708

MULLIKEN ATOMIC CHARGES
-----------------------
   0 C :   -0.106221
   1 O :   -0.241118
   2 C :    0.140133
   3 O :   -0.203265
   4 C :   -0.229460
   5 C :   -0.113207
   6 C :   -0.151318
   7 C :   -0.166190
   8 C :   -0.171214
   9 C :   -0.077338
  10 H :    0.119164
  11 H :    0.120607
  12 H :    0.119082
  13 H :    0.102530
  14 H :    0.100204
  15 H :    0.076756
  16 H :    0.084532
  17 H :    0.075795
  18 H :    0.088657
  19 H :    0.086346
  20 H :    0.098234
  21 H :    0.078595
  22 H :    0.094861
  23 H :    0.073835
Sum of atomic charges:   -0.0000000

LOEWDIN ATOMIC CHARGES
----------------------
   0 C :   -0.202464
   1 O :   -0.070219
   2 C :    0.041023
   3 O :   -0.166311
   4 C :   -0.168144
   5 C :   -0.221141
   6 C :   -0.225937
   7 C :   -0.231440
   8 C :   -0.231469
   9 C :   -0.214307
  10 H :    0.119340
  11 H :    0.119945
  12 H :    0.119541
  13 H :    0.144418
  14 H :    0.121290
  15 H :    0.117866
  16 H :    0.118101
  17 H :    0.114047
  18 H :    0.115411
  19 H :    0.118443
  20 H :    0.123222
  21 H :    0.115669
  22 H :    0.126106
  23 H :    0.117011

  Mayer bond orders larger than 0.100000
B(  0-C ,  1-O ) :   0.9407 B(  0-C , 10-H ) :   0.9507 B(  0-C , 11-H ) :   0.9588
B(  0-C , 12-H ) :   0.9526 B(  1-O ,  2-C ) :   1.2082 B(  2-C ,  3-O ) :   2.0512
B(  2-C ,  4-C ) :   0.9468 B(  4-C ,  5-C ) :   1.0779 B(  4-C ,  9-C ) :   1.1475
B(  4-C , 13-H ) :   0.8605 B(  5-C ,  6-C ) :   1.1427 B(  5-C , 14-H ) :   0.9081
B(  5-C , 15-H ) :   0.9113 B(  6-C ,  7-C ) :   1.1815 B(  6-C , 16-H ) :   0.9206
B(  6-C , 17-H ) :   0.9084 B(  7-C ,  8-C ) :   1.1515 B(  7-C , 18-H ) :   0.9014
B(  7-C , 19-H ) :   0.9197 B(  8-C ,  9-C ) :   1.1417 B(  8-C , 20-H ) :   0.9126
B(  8-C , 21-H ) :   0.9187 B(  9-C , 22-H ) :   0.9071 B(  9-C , 23-H ) :   0.9036

Dispersion correction           -0.024054910
FINAL SINGLE POINT ENERGY      -462.696549456488

DIPOLE MOMENT
-------------

Method             : SCF
Type of density    : Electron Density
Multiplicity       :   1
Irrep              :   0
Energy             :  -462.7846965788231728 Eh
Relativity type    :
Basis              : AO
                                X                 Y                 Z
Electronic contribution:     -5.842647209       1.985621899      -0.050508185
Nuclear contribution   :      5.735082174      -2.514656759      -0.346317964
                        -----------------------------------------
Total Dipole Moment    :     -0.107565035      -0.529034860      -0.396826148
                        -----------------------------------------
Magnitude (a.u.)       :      0.670014262
Magnitude (Debye)      :      1.703040911

Rotational constants in cm-1:             0.071741             0.034373             0.030495
Rotational constants in MHz :          2150.750504          1030.487497           914.205196

                             ****ORCA TERMINATED NORMALLY****
TOTAL RUN TIME: 0 days 0 hours 0 minutes 11 seconds 301 msec
