                         Program Version 6.0.0  -   RELEASE  -
|  1> ! wb97x-v def2-tzvp def2/J RIJCOSX DEFGRID2 scfconv7 GCP(DFT/TZ) printgap
|  2> %output
|  3>     printlevel normal
|  4> end
|  5> * xyz 0 1
|  6> C -2.5730766233702322 -0.6864084863556262 -0.29967029503730996
|  7> C -1.2038125798246457 -0.2935402600740036 0.21492053451124474
|  8> H -1.2141709848082767 -0.25694519548319905 1.3164999930009695
|  9> C -0.7307619399190539 1.0569597590015347 -0.33501858357425157
| 10> H -0.7589673905641398 1.032914468403395 -1.4339603816742612
| 11> C 0.6965609285380254 1.3149058893104624 0.13071584760441124
| 12> H 0.6834266981544577 1.4398832346137622 1.225680558550218
| 13> C 1.6153922509488712 0.14971092057069812 -0.21231597060448945
| 14> H 1.7061569219127048 0.0642748923282643 -1.3067756576200964
| 15> C 1.020325541719103 -1.1476308890257112 0.3179960821032796
| 16> H 0.9566159738790901 -1.1262369006289825 1.4184075269016472
| 17> O -0.2918171495675956 -1.316539909283384 -0.22754484759030547
| 18> O 1.8103366276613693 -2.2175392033980468 -0.12531990212580937
| 19> O 2.901354016212714 0.3163350510968794 0.3885846783585399
| 20> O 1.2552522012326048 2.479521975579813 -0.4875307381109814
| 21> O -1.528903008845372 2.1372891302495427 0.16523020031599708
| 22> O -3.0427545034266124 -1.9027895623009758 0.29324577213515735
| 23> H -2.5381614124670198 -0.7735285983442584 -1.3954141445278851
| 24> H -3.2973099863242874 0.08859027049705992 -0.03426199141003773
| 25> H 1.6093657532856656 -2.98735344729642 0.42361547601617505
| 26> H 3.2362493006085757 1.1790157699034423 0.10839763903298553
| 27> H 0.754294468763442 3.242107784404622 -0.16876404542755374
| 28> H -2.3174480599365883 2.20971838230861 -0.38659234539238174
| 29> H -2.4251748904050614 -2.6008048202881295 0.038001844334676634
| 30> *
| 31>
| 32>                          ****END OF INPUT****

CARTESIAN COORDINATES (ANGSTROEM)
---------------------------------
  C     -2.573077   -0.686408   -0.299670
  C     -1.203813   -0.293540    0.214921
  H     -1.214171   -0.256945    1.316500
  C     -0.730762    1.056960   -0.335019
  H     -0.758967    1.032914   -1.433960
  C      0.696561    1.314906    0.130716
  H      0.683427    1.439883    1.225681
  C      1.615392    0.149711   -0.212316
  H      1.706157    0.064275   -1.306776
  C      1.020326   -1.147631    0.317996
  H      0.956616   -1.126237    1.418408
  O     -0.291817   -1.316540   -0.227545
  O      1.810337   -2.217539   -0.125320
  O      2.901354    0.316335    0.388585
  O      1.255252    2.479522   -0.487531
  O     -1.528903    2.137289    0.165230
  O     -3.042755   -1.902790    0.293246
  H     -2.538161   -0.773529   -1.395414
  H     -3.297310    0.088590   -0.034262
  H      1.609366   -2.987353    0.423615
  H      3.236249    1.179016    0.108398
  H      0.754294    3.242108   -0.168764
  H     -2.317448    2.209718   -0.386592
  H     -2.425175   -2.600805    0.038002

 Total Charge           Charge          ....    0
 Multiplicity           Mult            ....    1
 Number of Electrons    NEL             ....   96
 Basis Dimension        Dim             ....  444

ORBITAL ENERGIES
----------------

  NO   OCC          E(Eh)            E(eV)
   0   2.0000     -21.700611      -590.5036
   1   2.0000     -21.695146      -590.3549
   2   2.0000     -21.689436      -590.1995
   3   2.0000     -21.688714      -590.1799
   4   2.0000     -21.678672      -589.9067
   5   2.0000     -21.674381      -589.7899
   6   2.0000     -12.159684      -330.8818
   7   2.0000     -12.118041      -329.7487
   8   2.0000     -12.113878      -329.6354
   9   2.0000     -12.112923      -329.6094
  10   2.0000     -12.106729      -329.4408
  11   2.0000     -12.106658      -329.4389
  12   2.0000      -1.724675       -46.9308
  13   2.0000      -1.703690       -46.3598
  14   2.0000      -1.690973       -46.0137
  15   2.0000      -1.683853       -45.8200
  16   2.0000      -1.676958       -45.6323
  17   2.0000      -1.675590       -45.5951
  18   2.0000      -1.344067       -36.5739
  19   2.0000      -1.327293       -36.1175
  20   2.0000      -1.244047       -33.8522
  21   2.0000      -1.202915       -32.7330
  22   2.0000      -1.172036       -31.8927
  23   2.0000      -1.120999       -30.5039
  24   2.0000      -1.093986       -29.7689
  25   2.0000      -1.070990       -29.1431
  26   2.0000      -1.062060       -28.9001
  27   2.0000      -1.042447       -28.3664
  28   2.0000      -1.040865       -28.3234
  29   2.0000      -1.020913       -27.7805
  30   2.0000      -1.004971       -27.3467
  31   2.0000      -0.983896       -26.7732
  32   2.0000      -0.983622       -26.7657
  33   2.0000      -0.970644       -26.4126
  34   2.0000      -0.962578       -26.1931
  35   2.0000      -0.956288       -26.0219
  36   2.0000      -0.943740       -25.6805
  37   2.0000      -0.934165       -25.4199
  38   2.0000      -0.925101       -25.1733
  39   2.0000      -0.908696       -24.7269
  40   2.0000      -0.904595       -24.6153
  41   2.0000      -0.888614       -24.1804
  42   2.0000      -0.853857       -23.2346
  43   2.0000      -0.837727       -22.7957
  44   2.0000      -0.827207       -22.5095
  45   2.0000      -0.815941       -22.2029
  46   2.0000      -0.797680       -21.7060
  47   2.0000      -0.777401       -21.1542
  48   0.0000      -0.246012        -6.6943
  49   0.0000      -0.197619        -5.3775
  50   0.0000      -0.179703        -4.8900
  51   0.0000      -0.163169        -4.4401
  52   0.0000      -0.128190        -3.4882

MULLIKEN ATOMIC CHARGES
-----------------------
   0 C :   -0.025747
   1 C :    0.027853
   2 H :    0.084508
   3 C :    0.008624
   4 H :    0.095868
   5 C :    0.044784
   6 H :    0.092390
   7 C :    0.121237
   8 H :    0.081025
   9 C :    0.091098
  10 H :    0.069481
  11 O :   -0.279882
  12 O :   -0.384334
  13 O :   -0.429046
  14 O :   -0.458532
  15 O :   -0.445267
  16 O :   -0.449936
  17 H :    0.101237
  18 H :    0.088377
  19 H :    0.309120
  20 H :    0.314162
  21 H :    0.318468
  22 H :    0.314167
  23 H :    0.310345
Sum of atomic charges:    0.0000000

LOEWDIN ATOMIC CHARGES
----------------------
   0 C :   -0.314219
   1 C :   -0.307731
   2 H :    0.144177
   3 C :   -0.306694
   4 H :    0.143564
   5 C :   -0.313546
   6 H :    0.146198
   7 C :   -0.304122
   8 H :    0.147232
   9 C :   -0.403808
  10 H :    0.124401
  11 O :    0.179845
  12 O :    0.026268
  13 O :   -0.006927
  14 O :   -0.017780
  15 O :   -0.012263
  16 O :   -0.047824
  17 H :    0.122044
  18 H :    0.127676
  19 H :    0.176904
  20 H :    0.176044
  21 H :    0.176658
  22 H :    0.172173
  23 H :    0.171728

  Mayer bond orders larger than 0.100000
B(  0-C ,  1-C ) :   0.9515 B(  0-C , 16-O ) :   1.0322 B(  0-C , 17-H ) :   0.9754
B(  0-C , 18-H ) :   0.9692 B(  1-C ,  2-H ) :   0.9627 B(  1-C ,  3-C ) :   0.9147
B(  1-C , 11-O ) :   0.9673 B(  3-C ,  4-H ) :   0.9602 B(  3-C ,  5-C ) :   0.9405
B(  3-C , 15-O ) :   1.0959 B(  5-C ,  6-H ) :   0.9762 B(  5-C ,  7-C ) :   0.9628
B(  5-C , 14-O ) :   1.0633 B(  7-C ,  8-H ) :   0.9677 B(  7-C ,  9-C ) :   0.9388
B(  7-C , 13-O ) :   1.1189 B(  9-C , 10-H ) :   0.9785 B(  9-C , 11-O ) :   1.0088
B(  9-C , 12-O ) :   1.2538 B( 12-O , 19-H ) :   0.8953 B( 13-O , 20-H ) :   0.8866
B( 14-O , 21-H ) :   0.8877 B( 15-O , 22-H ) :   0.8973 B( 16-O , 23-H ) :   0.8919

FINAL SINGLE POINT ENERGY      -687.246725109315

DIPOLE MOMENT
-------------

Method             : SCF
Type of density    : Electron Density
Multiplicity       :   1
Irrep              :   0
Energy             :  -687.2654573056149729 Eh
Relativity type    :
Basis              : AO
                                X                 Y                 Z
Electronic contribution:      2.747110600      -1.017074634      -0.008468215
Nuclear contribution   :     -3.359814585       1.524292536      -0.038606656
                        -----------------------------------------
Total Dipole Moment    :     -0.612703985       0.507217902      -0.047074871
                        -----------------------------------------
Magnitude (a.u.)       :      0.796801241
Magnitude (Debye)      :      2.025307800

Rotational constants in cm-1:             0.038801             0.025986             0.016297
Rotational constants in MHz :          1163.214099           779.033386           488.586251

                             ****ORCA TERMINATED NORMALLY****
TOTAL RUN TIME: 0 days 0 hours 4 minutes 46 seconds 833 msec
