                         Program Version 6.0.0  -   RELEASE  -
|  1> ! wb97x-v def2-tzvp def2/J RIJCOSX DEFGRID2 scfconv7 GCP(DFT/TZ) printgap
|  2> %output
|  3>     printlevel normal
|  4> end
|  5> %cpcm
|  6>     smd true
|  7>     smdsolvent "water"
|  8> end
|  9> * xyz 0 1
| 10> C -2.5730766233702322 -0.6864084863556262 -0.29967029503730996
| 11> C -1.2038125798246457 -0.2935402600740036 0.21492053451124474
| 12> H -1.2141709848082767 -0.25694519548319905 1.3164999930009695
| 13> C -0.7307619399190539 1.0569597590015347 -0.33501858357425157
| 14> H -0.7589673905641398 1.032914468403395 -1.4339603816742612
| 15> C 0.6965609285380254 1.3149058893104624 0.13071584760441124
| 16> H 0.6834266981544577 1.4398832346137622 1.225680558550218
| 17> C 1.6153922509488712 0.14971092057069812 -0.21231597060448945
| 18> H 1.7061569219127048 0.0642748923282643 -1.3067756576200964
| 19> C 1.020325541719103 -1.1476308890257112 0.3179960821032796
| 20> H 0.9566159738790901 -1.1262369006289825 1.4184075269016472
| 21> O -0.2918171495675956 -1.316539909283384 -0.22754484759030547
| 22> O 1.8103366276613693 -2.2175392033980468 -0.12531990212580937
| 23> O 2.901354016212714 0.3163350510968794 0.3885846783585399
| 24> O 1.2552522012326048 2.479521975579813 -0.4875307381109814
| 25> O -1.528903008845372 2.1372891302495427 0.16523020031599708
| 26> O -3.0427545034266124 -1.9027895623009758 0.29324577213515735
| 27> H -2.5381614124670198 -0.7735285983442584 -1.3954141445278851
| 28> H -3.2973099863242874 0.08859027049705992 -0.03426199141003773
| 29> H 1.6093657532856656 -2.98735344729642 0.42361547601617505
| 30> H 3.2362493006085757 1.1790157699034423 0.10839763903298553
| 31> H 0.754294468763442 3.242107784404622 -0.16876404542755374
| 32> H -2.3174480599365883 2.20971838230861 -0.38659234539238174
| 33> H -2.4251748904050614 -2.6008048202881295 0.038001844334676634
| 34> *
| 35>
| 36>                          ****END OF INPUT****

CARTESIAN COORDINATES (ANGSTROEM)
---------------------------------
  C     -2.573077   -0.686408   -0.299670
  C     -1.203813   -0.293540    0.214921
  H     -1.214171   -0.256945    1.316500
  C     -0.730762    1.056960   -0.335019
  H     -0.758967    1.032914   -1.433960
  C      0.696561    1.314906    0.130716
  H      0.683427    1.439883    1.225681
  C      1.615392    0.149711   -0.212316
  H      1.706157    0.064275   -1.306776
  C      1.020326   -1.147631    0.317996
  H      0.956616   -1.126237    1.418408
  O     -0.291817   -1.316540   -0.227545
  O      1.810337   -2.217539   -0.125320
  O      2.901354    0.316335    0.388585
  O      1.255252    2.479522   -0.487531
  O     -1.528903    2.137289    0.165230
  O     -3.042755   -1.902790    0.293246
  H     -2.538161   -0.773529   -1.395414
  H     -3.297310    0.088590   -0.034262
  H      1.609366   -2.987353    0.423615
  H      3.236249    1.179016    0.108398
  H      0.754294    3.242108   -0.168764
  H     -2.317448    2.209718   -0.386592
  H     -2.425175   -2.600805    0.038002

 Total Charge           Charge          ....    0
 Multiplicity           Mult            ....    1
 Number of Electrons    NEL             ....   96
 Basis Dimension        Dim             ....  444

ORBITAL ENERGIES
----------------

  NO   OCC          E(Eh)            E(eV)
   0   2.0000     -21.691478      -590.2551
   1   2.0000     -21.691050      -590.2435
   2   2.0000     -21.683940      -590.0500
   3   2.0000     -21.682128      -590.0007
   4   2.0000     -21.681943      -589.9957
   5   2.0000     -21.677597      -589.8774
   6   2.0000     -12.153397      -330.7108
   7   2.0000     -12.103842      -329.3623
   8   2.0000     -12.103265      -329.3466
   9   2.0000     -12.102129      -329.3157
  10   2.0000     -12.101162      -329.2894
  11   2.0000     -12.091735      -329.0328
  12   2.0000      -1.723414       -46.8965
  13   2.0000      -1.691088       -46.0168
  14   2.0000      -1.686480       -45.8915
  15   2.0000      -1.681794       -45.7639
  16   2.0000      -1.678775       -45.6818
  17   2.0000      -1.675891       -45.6033
  18   2.0000      -1.333407       -36.2839
  19   2.0000      -1.320914       -35.9439
  20   2.0000      -1.235639       -33.6234
  21   2.0000      -1.195548       -32.5325
  22   2.0000      -1.166754       -31.7490
  23   2.0000      -1.116761       -30.3886
  24   2.0000      -1.090475       -29.6733
  25   2.0000      -1.061483       -28.8844
  26   2.0000      -1.055882       -28.7320
  27   2.0000      -1.039610       -28.2892
  28   2.0000      -1.036120       -28.1943
  29   2.0000      -1.015349       -27.6291
  30   2.0000      -1.006413       -27.3859
  31   2.0000      -0.979944       -26.6656
  32   2.0000      -0.977830       -26.6081
  33   2.0000      -0.969328       -26.3767
  34   2.0000      -0.962257       -26.1843
  35   2.0000      -0.953398       -25.9433
  36   2.0000      -0.939197       -25.5568
  37   2.0000      -0.935190       -25.4478
  38   2.0000      -0.923522       -25.1303
  39   2.0000      -0.903245       -24.5785
  40   2.0000      -0.899210       -24.4688
  41   2.0000      -0.888658       -24.1816
  42   2.0000      -0.846535       -23.0354
  43   2.0000      -0.829561       -22.5735
  44   2.0000      -0.816555       -22.2196
  45   2.0000      -0.806574       -21.9480
  46   2.0000      -0.789372       -21.4799
  47   2.0000      -0.766213       -20.8497
  48   0.0000      -0.236458        -6.4343
  49   0.0000      -0.190704        -5.1893
  50   0.0000      -0.173373        -4.7177
  51   0.0000      -0.151920        -4.1340
  52   0.0000      -0.117652        -3.2015

MULLIKEN ATOMIC CHARGES
-----------------------
   0 C :   -0.017145
   1 C :    0.017424
   2 H :    0.103293
   3 C :    0.019182
   4 H :    0.115508
   5 C :    0.091521
   6 H :    0.106631
   7 C :    0.119656
   8 H :    0.097991
   9 C :    0.109787
  10 H :    0.108641
  11 O :   -0.330921
  12 O :   -0.487487
  13 O :   -0.523811
  14 O :   -0.531816
  15 O :   -0.530155
  16 O :   -0.549089
  17 H :    0.120602
  18 H :    0.129257
  19 H :    0.375895
  20 H :    0.361456
  21 H :    0.362876
  22 H :    0.372706
  23 H :    0.357998
Sum of atomic charges:    0.0000000

LOEWDIN ATOMIC CHARGES
----------------------
   0 C :   -0.308202
   1 C :   -0.301008
   2 H :    0.151589
   3 C :   -0.296588
   4 H :    0.152878
   5 C :   -0.307674
   6 H :    0.153931
   7 C :   -0.307423
   8 H :    0.150785
   9 C :   -0.400988
  10 H :    0.138761
  11 O :    0.162068
  12 O :   -0.011986
  13 O :   -0.043835
  14 O :   -0.042930
  15 O :   -0.035953
  16 O :   -0.087959
  17 H :    0.129778
  18 H :    0.138384
  19 H :    0.201049
  20 H :    0.191454
  21 H :    0.191908
  22 H :    0.195106
  23 H :    0.186855

  Mayer bond orders larger than 0.100000
B(  0-C ,  1-C ) :   0.9654 B(  0-C , 16-O ) :   0.9829 B(  0-C , 17-H ) :   0.9724
B(  0-C , 18-H ) :   0.9644 B(  1-C ,  2-H ) :   0.9530 B(  1-C ,  3-C ) :   0.9603
B(  1-C , 11-O ) :   0.9410 B(  3-C ,  4-H ) :   0.9598 B(  3-C ,  5-C ) :   0.9609
B(  3-C , 15-O ) :   1.0651 B(  5-C ,  6-H ) :   0.9586 B(  5-C ,  7-C ) :   0.9877
B(  5-C , 14-O ) :   1.0370 B(  7-C ,  8-H ) :   0.9538 B(  7-C ,  9-C ) :   0.9553
B(  7-C , 13-O ) :   1.0638 B(  9-C , 10-H ) :   0.9797 B(  9-C , 11-O ) :   1.0131
B(  9-C , 12-O ) :   1.1992 B( 12-O , 19-H ) :   0.8539 B( 13-O , 20-H ) :   0.8575
B( 14-O , 21-H ) :   0.8589 B( 15-O , 22-H ) :   0.8606 B( 16-O , 23-H ) :   0.8636

FINAL SINGLE POINT ENERGY      -687.287608305867

DIPOLE MOMENT
-------------

Method             : SCF
Type of density    : Electron Density
Multiplicity       :   1
Irrep              :   0
Energy             :  -687.3063405021666767 Eh
Relativity type    :
Basis              : AO
                                X                 Y                 Z
Electronic contribution:      2.387983459      -0.775301285       0.022253541
Nuclear contribution   :     -3.359814585       1.524292536      -0.038606656
                        -----------------------------------------
Total Dipole Moment    :     -0.971831127       0.748991252      -0.016353116
                        -----------------------------------------
Magnitude (a.u.)       :      1.227074186
Magnitude (Debye)      :      3.118974712

Rotational constants in cm-1:             0.038801             0.025986             0.016297
Rotational constants in MHz :          1163.214099           779.033386           488.586251

                             ****ORCA TERMINATED NORMALLY****
TOTAL RUN TIME: 0 days 0 hours 5 minutes 25 seconds 823 msec
