                         Program Version 6.0.0  -   RELEASE  -
|  1> ! pbe def2-sv(p) def2/J RI DEFGRID1 loosescf d4 GCP(DFT/SV(P)) printgap
|  2> %output
|  3>     printlevel normal
|  4> end
|  5> * xyz 0 1
|  6> C -2.3081158543 -0.9567323368 0.7294338092
|  7> C -0.8661605889 -0.411728373 0.78963562
|  8> H -0.678294469 -0.0452865522 1.8123120168
|  9> C -0.6309919604 0.7308139545 -0.2072987091
| 10> H -0.6712861867 0.3335351492 -1.2269516464
| 11> C 0.7683973404 1.3077162261 0.0379755284
| 12> H 0.7421961465 1.8665927544 0.9912957292
| 13> C 1.8105103735 0.1782891041 0.1920830607
| 14> H 2.602064571 0.3611195408 -0.5454793146
| 15> C 1.2156733113 -1.1986012964 -0.1432706978
| 16> H 1.9268580204 -1.9662569499 0.2003792468
| 17> O 0.0332971796 -1.4918250795 0.5486560976
| 18> O 1.0426434677 -1.2635958022 -1.5259195064
| 19> O 2.3211245686 0.1034724269 1.4985276334
| 20> O 1.1805878805 2.1610212587 -1.0000528225
| 21> O -1.6244843897 1.7231039656 -0.1367965293
| 22> O -2.8290084944 -1.069686068 -0.5689092036
| 23> H -2.9518872536 -0.3227642144 1.3488023587
| 24> H -2.2952546581 -1.9666799666 1.1432035449
| 25> H 0.7115192441 -2.1416342077 -1.7714841418
| 26> H 2.9496533299 0.8257184559 1.6448391347
| 27> H 0.4276857505 2.7036126142 -1.2808650174
| 28> H -1.6261672372 2.1273905903 0.7436813062
| 29> H -2.980645943 -0.1809314999 -0.9234983609
| 30> *
| 31>
| 32>                          ****END OF INPUT****

CARTESIAN COORDINATES (ANGSTROEM)
---------------------------------
  C     -2.308116   -0.956732    0.729434
  C     -0.866161   -0.411728    0.789636
  H     -0.678294   -0.045287    1.812312
  C     -0.630992    0.730814   -0.207299
  H     -0.671286    0.333535   -1.226952
  C      0.768397    1.307716    0.037976
  H      0.742196    1.866593    0.991296
  C      1.810510    0.178289    0.192083
  H      2.602065    0.361120   -0.545479
  C      1.215673   -1.198601   -0.143271
  H      1.926858   -1.966257    0.200379
  O      0.033297   -1.491825    0.548656
  O      1.042643   -1.263596   -1.525920
  O      2.321125    0.103472    1.498528
  O      1.180588    2.161021   -1.000053
  O     -1.624484    1.723104   -0.136797
  O     -2.829008   -1.069686   -0.568909
  H     -2.951887   -0.322764    1.348802
  H     -2.295255   -1.966680    1.143204
  H      0.711519   -2.141634   -1.771484
  H      2.949653    0.825718    1.644839
  H      0.427686    2.703613   -1.280865
  H     -1.626167    2.127391    0.743681
  H     -2.980646   -0.180931   -0.923498

 Total Charge           Charge          ....    0
 Multiplicity           Mult            ....    1
 Number of Electrons    NEL             ....   96
 Basis Dimension        Dim             ....  192

ORBITAL ENERGIES
----------------

  NO   OCC          E(Eh)            E(eV)
   0   2.0000     -18.775356      -510.9034
   1   2.0000     -18.761952      -510.5387
   2   2.0000     -18.757649      -510.4216
   3   2.0000     -18.757559      -510.4191
   4   2.0000     -18.749700      -510.2053
   5   2.0000     -18.742505      -510.0095
   6   2.0000      -9.982010      -271.6243
   7   2.0000      -9.943725      -270.5825
   8   2.0000      -9.943510      -270.5767
   9   2.0000      -9.943403      -270.5738
  10   2.0000      -9.941737      -270.5284
  11   2.0000      -9.929094      -270.1844
  12   2.0000      -0.976971       -26.5847
  13   2.0000      -0.954213       -25.9654
  14   2.0000      -0.935709       -25.4619
  15   2.0000      -0.922791       -25.1104
  16   2.0000      -0.918404       -24.9910
  17   2.0000      -0.905414       -24.6376
  18   2.0000      -0.704628       -19.1739
  19   2.0000      -0.689196       -18.7540
  20   2.0000      -0.621935       -16.9237
  21   2.0000      -0.590118       -16.0579
  22   2.0000      -0.559819       -15.2335
  23   2.0000      -0.523639       -14.2489
  24   2.0000      -0.515962       -14.0400
  25   2.0000      -0.491721       -13.3804
  26   2.0000      -0.469196       -12.7675
  27   2.0000      -0.445418       -12.1204
  28   2.0000      -0.440188       -11.9781
  29   2.0000      -0.437178       -11.8962
  30   2.0000      -0.418792       -11.3959
  31   2.0000      -0.395519       -10.7626
  32   2.0000      -0.384264       -10.4564
  33   2.0000      -0.369428       -10.0527
  34   2.0000      -0.361658        -9.8412
  35   2.0000      -0.356185        -9.6923
  36   2.0000      -0.342082        -9.3085
  37   2.0000      -0.308167        -8.3856
  38   2.0000      -0.303737        -8.2651
  39   2.0000      -0.295478        -8.0404
  40   2.0000      -0.278453        -7.5771
  41   2.0000      -0.270158        -7.3514
  42   2.0000      -0.248945        -6.7741
  43   2.0000      -0.245030        -6.6676
  44   2.0000      -0.228167        -6.2087
  45   2.0000      -0.221487        -6.0270
  46   2.0000      -0.211495        -5.7551
  47   2.0000      -0.208101        -5.6627
  48   0.0000       0.003538         0.0963
  49   0.0000       0.022207         0.6043
  50   0.0000       0.038136         1.0377
  51   0.0000       0.046573         1.2673
  52   0.0000       0.048034         1.3071

MULLIKEN ATOMIC CHARGES
-----------------------
   0 C :    0.081115
   1 C :    0.021224
   2 H :    0.049815
   3 C :    0.009462
   4 H :    0.079713
   5 C :    0.068573
   6 H :    0.023872
   7 C :    0.056302
   8 H :    0.084924
   9 C :    0.156973
  10 H :    0.067217
  11 O :   -0.308200
  12 O :   -0.386910
  13 O :   -0.418719
  14 O :   -0.410409
  15 O :   -0.417880
  16 O :   -0.438305
  17 H :    0.059927
  18 H :    0.094940
  19 H :    0.307374
  20 H :    0.308491
  21 H :    0.300866
  22 H :    0.302293
  23 H :    0.307342
Sum of atomic charges:    0.0000000

LOEWDIN ATOMIC CHARGES
----------------------
   0 C :   -0.125633
   1 C :   -0.071542
   2 H :    0.101953
   3 C :   -0.105357
   4 H :    0.123932
   5 C :   -0.073749
   6 H :    0.089548
   7 C :   -0.073848
   8 H :    0.121174
   9 C :   -0.001383
  10 H :    0.101529
  11 O :   -0.142967
  12 O :   -0.309882
  13 O :   -0.315287
  14 O :   -0.320392
  15 O :   -0.312493
  16 O :   -0.333944
  17 H :    0.093910
  18 H :    0.122009
  19 H :    0.289062
  20 H :    0.291754
  21 H :    0.282853
  22 H :    0.285857
  23 H :    0.282896

  Mayer bond orders larger than 0.100000
B(  0-C ,  1-C ) :   0.9988 B(  0-C , 16-O ) :   1.1023 B(  0-C , 17-H ) :   0.9141
B(  0-C , 18-H ) :   0.9209 B(  1-C ,  2-H ) :   0.8790 B(  1-C ,  3-C ) :   1.0276
B(  1-C , 11-O ) :   0.9829 B(  3-C ,  4-H ) :   0.7956 B(  3-C ,  5-C ) :   1.1198
B(  3-C , 15-O ) :   0.9973 B(  5-C ,  6-H ) :   0.8630 B(  5-C ,  7-C ) :   0.9576
B(  5-C , 14-O ) :   1.0966 B(  7-C ,  8-H ) :   0.8676 B(  7-C ,  9-C ) :   1.0543
B(  7-C , 13-O ) :   1.0654 B(  9-C , 10-H ) :   0.8934 B(  9-C , 11-O ) :   1.0684
B(  9-C , 12-O ) :   1.1316 B( 12-O , 19-H ) :   0.8388 B( 13-O , 20-H ) :   0.8485
B( 14-O , 21-H ) :   0.8380 B( 15-O , 22-H ) :   0.8437 B( 16-O , 23-H ) :   0.8366

Dispersion correction           -0.024782411
FINAL SINGLE POINT ENERGY      -685.690210080558

DIPOLE MOMENT
-------------

Method             : SCF
Type of density    : Electron Density
Multiplicity       :   1
Irrep              :   0
Energy             :  -685.8200981761697221 Eh
Relativity type    :
Basis              : AO
                                X                 Y                 Z
Electronic contribution:      1.794615078      -0.621069205      -1.462100829
Nuclear contribution   :     -1.727732299       1.498240396       1.986604026
                        -----------------------------------------
Total Dipole Moment    :      0.066882780       0.877171191       0.524503198
                        -----------------------------------------
Magnitude (a.u.)       :      1.024210041
Magnitude (Debye)      :      2.603335034

Rotational constants in cm-1:             0.041356             0.026814             0.021697
Rotational constants in MHz :          1239.819679           803.850601           650.464578

                             ****ORCA TERMINATED NORMALLY****
TOTAL RUN TIME: 0 days 0 hours 0 minutes 12 seconds 163 msec
