                         Program Version 6.0.0  -   RELEASE  -
|  1> ! pbe def2-sv(p) def2/J RI DEFGRID1 loosescf d4 GCP(DFT/SV(P)) printgap
|  2> %output
|  3>     printlevel normal
|  4> end
|  5> * xyz 0 1
|  6> C -1.5842522351 0.898614767 -0.2868070988
|  7> C -1.3310322951 -0.4899866981 0.2849733994
|  8> C 0.0799649539 -0.9913717697 0.4060718239
|  9> C 1.266005201 -0.4728188697 0.1214578274
| 10> C 1.6585895469 0.8529105717 -0.4456523372
| 11> H -2.6572404319 1.0804036898 -0.3175550407
| 12> H -1.2005640238 0.9787808265 -1.300420249
| 13> H -1.1326812191 1.6661244971 0.3362688607
| 14> H -1.7723280965 -0.540450054 1.2866429755
| 15> H -1.8724943996 -1.2210321567 -0.3258210828
| 16> H 0.0879927929 -1.9970685701 0.8166330436
| 17> H 2.1265148291 -1.1035780599 0.322620553
| 18> H 2.3676557907 1.3341466025 0.2279636697
| 19> H 0.8213268068 1.518339153 -0.6027918461
| 20> H 2.1680049148 0.6991581952 -1.3973496428
| 21> *
| 22>
| 23>                          ****END OF INPUT****

CARTESIAN COORDINATES (ANGSTROEM)
---------------------------------
  C     -1.584252    0.898615   -0.286807
  C     -1.331032   -0.489987    0.284973
  C      0.079965   -0.991372    0.406072
  C      1.266005   -0.472819    0.121458
  C      1.658590    0.852911   -0.445652
  H     -2.657240    1.080404   -0.317555
  H     -1.200564    0.978781   -1.300420
  H     -1.132681    1.666124    0.336269
  H     -1.772328   -0.540450    1.286643
  H     -1.872494   -1.221032   -0.325821
  H      0.087993   -1.997069    0.816633
  H      2.126515   -1.103578    0.322621
  H      2.367656    1.334147    0.227964
  H      0.821327    1.518339   -0.602792
  H      2.168005    0.699158   -1.397350

 Total Charge           Charge          ....    0
 Multiplicity           Mult            ....    1
 Number of Electrons    NEL             ....   40
 Basis Dimension        Dim             ....   90

ORBITAL ENERGIES
----------------

  NO   OCC          E(Eh)            E(eV)
   0   2.0000      -9.888536      -269.0808
   1   2.0000      -9.880330      -268.8575
   2   2.0000      -9.879752      -268.8417
   3   2.0000      -9.874249      -268.6920
   4   2.0000      -9.874078      -268.6873
   5   2.0000      -0.719406       -19.5760
   6   2.0000      -0.670664       -18.2497
   7   2.0000      -0.614341       -16.7171
   8   2.0000      -0.549982       -14.9658
   9   2.0000      -0.458772       -12.4838
  10   2.0000      -0.418603       -11.3908
  11   2.0000      -0.401597       -10.9280
  12   2.0000      -0.371253       -10.1023
  13   2.0000      -0.361851        -9.8465
  14   2.0000      -0.343428        -9.3452
  15   2.0000      -0.337819        -9.1925
  16   2.0000      -0.312392        -8.5006
  17   2.0000      -0.292679        -7.9642
  18   2.0000      -0.272658        -7.4194
  19   2.0000      -0.207440        -5.6447
  20   0.0000       0.003096         0.0843
  21   0.0000       0.037980         1.0335
  22   0.0000       0.068989         1.8773
  23   0.0000       0.071351         1.9416
  24   0.0000       0.096920         2.6373

MULLIKEN ATOMIC CHARGES
-----------------------
   0 C :   -0.285593
   1 C :   -0.136596
   2 C :   -0.143085
   3 C :   -0.167857
   4 C :   -0.221938
   5 H :    0.097513
   6 H :    0.116456
   7 H :    0.118318
   8 H :    0.094180
   9 H :    0.093775
  10 H :    0.061034
  11 H :    0.061206
  12 H :    0.105220
  13 H :    0.100002
  14 H :    0.107365
Sum of atomic charges:   -0.0000000

LOEWDIN ATOMIC CHARGES
----------------------
   0 C :   -0.343994
   1 C :   -0.232119
   2 C :   -0.155227
   3 C :   -0.158898
   4 C :   -0.342439
   5 H :    0.120240
   6 H :    0.120624
   7 H :    0.120456
   8 H :    0.126781
   9 H :    0.126739
  10 H :    0.118666
  11 H :    0.118378
  12 H :    0.128137
  13 H :    0.123597
  14 H :    0.129059

  Mayer bond orders larger than 0.100000
B(  0-C ,  1-C ) :   1.1696 B(  0-C ,  5-H ) :   0.9425 B(  0-C ,  6-H ) :   0.9457
B(  0-C ,  7-H ) :   0.9434 B(  1-C ,  2-C ) :   1.0852 B(  1-C ,  8-H ) :   0.9079
B(  1-C ,  9-H ) :   0.9082 B(  2-C ,  3-C ) :   2.0370 B(  2-C , 10-H ) :   0.9120
B(  3-C ,  4-C ) :   1.1159 B(  3-C , 11-H ) :   0.9134 B(  4-C , 12-H ) :   0.9333
B(  4-C , 13-H ) :   0.9360 B(  4-C , 14-H ) :   0.9325

Dispersion correction           -0.010116851
FINAL SINGLE POINT ENERGY      -196.026071142213

DIPOLE MOMENT
-------------

Method             : SCF
Type of density    : Electron Density
Multiplicity       :   1
Irrep              :   0
Energy             :  -196.0741041277662191 Eh
Relativity type    :
Basis              : AO
                                X                 Y                 Z
Electronic contribution:      0.916601805      -2.203260424       0.870209212
Nuclear contribution   :     -0.998039025       2.265519062      -0.894836152
                        -----------------------------------------
Total Dipole Moment    :     -0.081437219       0.062258638      -0.024626940
                        -----------------------------------------
Magnitude (a.u.)       :      0.105426016
Magnitude (Debye)      :      0.267971636

Rotational constants in cm-1:             0.258270             0.119397             0.085541
Rotational constants in MHz :          7742.740499          3579.445643          2564.465047

                             ****ORCA TERMINATED NORMALLY****
TOTAL RUN TIME: 0 days 0 hours 0 minutes 6 seconds 174 msec
