                         Program Version 6.0.0  -   RELEASE  -
|  1> ! r2scan-3c def2/J RI DEFGRID2 scfconv6 printgap
|  2> %output
|  3>     printlevel normal
|  4> end
|  5> * xyz 0 1
|  6> C 2.5003789729 5.37452e-05 -0.0711151439
|  7> C 1.0148521705 -3.9977e-05 0.327464657
|  8> C 0.2972383921 1.2473667955 -0.1938470907
|  9> C -1.1706226223 1.2516757261 0.2240337716
| 10> C -1.8764535765 2.98827e-05 -0.2881862869
| 11> C -1.1707237573 -1.2516602986 0.2240444529
| 12> C 0.2971460489 -1.2474410499 -0.1938692082
| 13> H 3.1436734021 0.009606617 0.8045225718
| 14> H 2.7445553379 -0.8832578979 -0.6559618468
| 15> H 2.7403008095 0.8738280605 -0.6718097959
| 16> H 0.9365094765 5.73075e-05 1.4203052669
| 17> H 0.7917313774 2.1426041808 0.1899015184
| 18> H 0.3625260137 1.2678210366 -1.2844809175
| 19> H -1.2357972435 1.282953993 1.3143083799
| 20> H -1.6641886826 2.1441681533 -0.1662106038
| 21> H -2.9189579558 2.7352e-06 0.0364861493
| 22> H -1.865047829 3.07599e-05 -1.3805484434
| 23> H -1.235832496 -1.2828455739 1.3143489797
| 24> H -1.6643280131 -2.1441521227 -0.1661681181
| 25> H 0.7914402311 -2.1428092995 0.1898681815
| 26> H 0.3626332386 -1.2678270981 -1.2844914725
| 27> *
| 28>
| 29>                          ****END OF INPUT****

CARTESIAN COORDINATES (ANGSTROEM)
---------------------------------
  C      2.500379    0.000054   -0.071115
  C      1.014852   -0.000040    0.327465
  C      0.297238    1.247367   -0.193847
  C     -1.170623    1.251676    0.224034
  C     -1.876454    0.000030   -0.288186
  C     -1.170724   -1.251660    0.224044
  C      0.297146   -1.247441   -0.193869
  H      3.143673    0.009607    0.804523
  H      2.744555   -0.883258   -0.655962
  H      2.740301    0.873828   -0.671810
  H      0.936509    0.000057    1.420305
  H      0.791731    2.142604    0.189902
  H      0.362526    1.267821   -1.284481
  H     -1.235797    1.282954    1.314308
  H     -1.664189    2.144168   -0.166211
  H     -2.918958    0.000003    0.036486
  H     -1.865048    0.000031   -1.380548
  H     -1.235832   -1.282846    1.314349
  H     -1.664328   -2.144152   -0.166168
  H      0.791440   -2.142809    0.189868
  H      0.362633   -1.267827   -1.284491

 Total Charge           Charge          ....    0
 Multiplicity           Mult            ....    1
 Number of Electrons    NEL             ....   56
 Basis Dimension        Dim             ....  203

ORBITAL ENERGIES
----------------

  NO   OCC          E(Eh)            E(eV)
   0   2.0000     -10.026504      -272.8350
   1   2.0000     -10.018401      -272.6145
   2   2.0000     -10.018259      -272.6107
   3   2.0000     -10.018193      -272.6089
   4   2.0000     -10.017490      -272.5898
   5   2.0000     -10.017479      -272.5895
   6   2.0000     -10.010724      -272.4056
   7   2.0000      -0.799488       -21.7552
   8   2.0000      -0.725896       -19.7526
   9   2.0000      -0.703401       -19.1405
  10   2.0000      -0.637657       -17.3515
  11   2.0000      -0.570403       -15.5215
  12   2.0000      -0.547015       -14.8850
  13   2.0000      -0.517394       -14.0790
  14   2.0000      -0.438654       -11.9364
  15   2.0000      -0.414141       -11.2693
  16   2.0000      -0.405503       -11.0343
  17   2.0000      -0.398421       -10.8416
  18   2.0000      -0.378409       -10.2970
  19   2.0000      -0.352815        -9.6006
  20   2.0000      -0.341615        -9.2958
  21   2.0000      -0.332844        -9.0572
  22   2.0000      -0.311367        -8.4727
  23   2.0000      -0.308014        -8.3815
  24   2.0000      -0.296896        -8.0790
  25   2.0000      -0.282851        -7.6968
  26   2.0000      -0.260814        -7.0971
  27   2.0000      -0.257979        -7.0200
  28   0.0000       0.087806         2.3893
  29   0.0000       0.105475         2.8701
  30   0.0000       0.115781         3.1506
  31   0.0000       0.118385         3.2214
  32   0.0000       0.127888         3.4800

MULLIKEN ATOMIC CHARGES
-----------------------
   0 C :   -0.560511
   1 C :    0.054973
   2 C :   -0.358909
   3 C :   -0.286513
   4 C :   -0.279142
   5 C :   -0.286498
   6 C :   -0.358693
   7 H :    0.150358
   8 H :    0.157398
   9 H :    0.157567
  10 H :    0.155718
  11 H :    0.148514
  12 H :    0.150727
  13 H :    0.141689
  14 H :    0.144798
  15 H :    0.143954
  16 H :    0.138978
  17 H :    0.141707
  18 H :    0.144783
  19 H :    0.148437
  20 H :    0.150664
Sum of atomic charges:   -0.0000000

LOEWDIN ATOMIC CHARGES
----------------------
   0 C :   -0.417667
   1 C :   -0.236637
   2 C :   -0.302504
   3 C :   -0.304953
   4 C :   -0.306097
   5 C :   -0.304943
   6 C :   -0.302540
   7 H :    0.154551
   8 H :    0.156713
   9 H :    0.156734
  10 H :    0.156377
  11 H :    0.156576
  12 H :    0.156555
  13 H :    0.154355
  14 H :    0.154054
  15 H :    0.154133
  16 H :    0.153758
  17 H :    0.154361
  18 H :    0.154055
  19 H :    0.156523
  20 H :    0.156595

  Mayer bond orders larger than 0.100000
B(  0-C ,  1-C ) :   0.7954 B(  0-C ,  7-H ) :   0.9785 B(  0-C ,  8-H ) :   0.9924
B(  0-C ,  9-H ) :   0.9924 B(  1-C ,  2-C ) :   0.9078 B(  1-C ,  6-C ) :   0.9083
B(  1-C , 10-H ) :   0.9646 B(  2-C ,  3-C ) :   0.9073 B(  2-C , 11-H ) :   0.9437
B(  2-C , 12-H ) :   1.0037 B(  3-C ,  4-C ) :   0.9251 B(  3-C , 13-H ) :   0.9914
B(  3-C , 14-H ) :   0.9450 B(  4-C ,  5-C ) :   0.9253 B(  4-C , 15-H ) :   0.9448
B(  4-C , 16-H ) :   0.9912 B(  5-C ,  6-C ) :   0.9073 B(  5-C , 17-H ) :   0.9914
B(  5-C , 18-H ) :   0.9449 B(  6-C , 19-H ) :   0.9437 B(  6-C , 20-H ) :   1.0037

Dispersion correction           -0.006045881
FINAL SINGLE POINT ENERGY      -275.089384491861

DIPOLE MOMENT
-------------

Method             : SCF
Type of density    : Electron Density
Multiplicity       :   1
Irrep              :   0
Energy             :  -275.0923550742872976 Eh
Relativity type    :
Basis              : AO
                                X                 Y                 Z
Electronic contribution:     -1.234411338      -0.000056982       0.351957841
Nuclear contribution   :      1.209496365       0.000169668      -0.318909903
                        -----------------------------------------
Total Dipole Moment    :     -0.024914972       0.000112686       0.033047938
                        -----------------------------------------
Magnitude (a.u.)       :      0.041387616
Magnitude (Debye)      :      0.105198959

Rotational constants in cm-1:             0.142209             0.073301             0.053560
Rotational constants in MHz :          4263.329268          2197.498029          1605.690855

                             ****ORCA TERMINATED NORMALLY****
TOTAL RUN TIME: 0 days 0 hours 0 minutes 22 seconds 2 msec
