                         Program Version 6.0.0  -   RELEASE  -
|  1> ! r2scan-3c def2/J RI DEFGRID2 scfconv6 printgap
|  2> %output
|  3>     printlevel normal
|  4> end
|  5> %cpcm
|  6>     smd true
|  7>     smdsolvent "water"
|  8> end
|  9> * xyz 0 1
| 10> C 2.5003789729 5.37452e-05 -0.0711151439
| 11> C 1.0148521705 -3.9977e-05 0.327464657
| 12> C 0.2972383921 1.2473667955 -0.1938470907
| 13> C -1.1706226223 1.2516757261 0.2240337716
| 14> C -1.8764535765 2.98827e-05 -0.2881862869
| 15> C -1.1707237573 -1.2516602986 0.2240444529
| 16> C 0.2971460489 -1.2474410499 -0.1938692082
| 17> H 3.1436734021 0.009606617 0.8045225718
| 18> H 2.7445553379 -0.8832578979 -0.6559618468
| 19> H 2.7403008095 0.8738280605 -0.6718097959
| 20> H 0.9365094765 5.73075e-05 1.4203052669
| 21> H 0.7917313774 2.1426041808 0.1899015184
| 22> H 0.3625260137 1.2678210366 -1.2844809175
| 23> H -1.2357972435 1.282953993 1.3143083799
| 24> H -1.6641886826 2.1441681533 -0.1662106038
| 25> H -2.9189579558 2.7352e-06 0.0364861493
| 26> H -1.865047829 3.07599e-05 -1.3805484434
| 27> H -1.235832496 -1.2828455739 1.3143489797
| 28> H -1.6643280131 -2.1441521227 -0.1661681181
| 29> H 0.7914402311 -2.1428092995 0.1898681815
| 30> H 0.3626332386 -1.2678270981 -1.2844914725
| 31> *
| 32>
| 33>                          ****END OF INPUT****

CARTESIAN COORDINATES (ANGSTROEM)
---------------------------------
  C      2.500379    0.000054   -0.071115
  C      1.014852   -0.000040    0.327465
  C      0.297238    1.247367   -0.193847
  C     -1.170623    1.251676    0.224034
  C     -1.876454    0.000030   -0.288186
  C     -1.170724   -1.251660    0.224044
  C      0.297146   -1.247441   -0.193869
  H      3.143673    0.009607    0.804523
  H      2.744555   -0.883258   -0.655962
  H      2.740301    0.873828   -0.671810
  H      0.936509    0.000057    1.420305
  H      0.791731    2.142604    0.189902
  H      0.362526    1.267821   -1.284481
  H     -1.235797    1.282954    1.314308
  H     -1.664189    2.144168   -0.166211
  H     -2.918958    0.000003    0.036486
  H     -1.865048    0.000031   -1.380548
  H     -1.235832   -1.282846    1.314349
  H     -1.664328   -2.144152   -0.166168
  H      0.791440   -2.142809    0.189868
  H      0.362633   -1.267827   -1.284491

 Total Charge           Charge          ....    0
 Multiplicity           Mult            ....    1
 Number of Electrons    NEL             ....   56
 Basis Dimension        Dim             ....  203

ORBITAL ENERGIES
----------------

  NO   OCC          E(Eh)            E(eV)
   0   2.0000     -10.019267      -272.6381
   1   2.0000     -10.011376      -272.4234
   2   2.0000     -10.011184      -272.4182
   3   2.0000     -10.011132      -272.4168
   4   2.0000     -10.010080      -272.3881
   5   2.0000     -10.010069      -272.3878
   6   2.0000     -10.004363      -272.2326
   7   2.0000      -0.792421       -21.5629
   8   2.0000      -0.719262       -19.5721
   9   2.0000      -0.696506       -18.9529
  10   2.0000      -0.631434       -17.1822
  11   2.0000      -0.563596       -15.3362
  12   2.0000      -0.540474       -14.7070
  13   2.0000      -0.510043       -13.8790
  14   2.0000      -0.431900       -11.7526
  15   2.0000      -0.407112       -11.0781
  16   2.0000      -0.398279       -10.8377
  17   2.0000      -0.391662       -10.6577
  18   2.0000      -0.372102       -10.1254
  19   2.0000      -0.346179        -9.4200
  20   2.0000      -0.334721        -9.1082
  21   2.0000      -0.326178        -8.8758
  22   2.0000      -0.304895        -8.2966
  23   2.0000      -0.300624        -8.1804
  24   2.0000      -0.289665        -7.8822
  25   2.0000      -0.275027        -7.4839
  26   2.0000      -0.254028        -6.9125
  27   2.0000      -0.251063        -6.8318
  28   0.0000       0.094991         2.5848
  29   0.0000       0.111925         3.0456
  30   0.0000       0.123359         3.3568
  31   0.0000       0.125120         3.4047
  32   0.0000       0.133744         3.6394

MULLIKEN ATOMIC CHARGES
-----------------------
   0 C :   -0.600531
   1 C :    0.057062
   2 C :   -0.369738
   3 C :   -0.302352
   4 C :   -0.293205
   5 C :   -0.302320
   6 C :   -0.369542
   7 H :    0.161594
   8 H :    0.165907
   9 H :    0.166077
  10 H :    0.164619
  11 H :    0.154191
  12 H :    0.157983
  13 H :    0.149790
  14 H :    0.150788
  15 H :    0.149942
  16 H :    0.147106
  17 H :    0.149808
  18 H :    0.150778
  19 H :    0.154178
  20 H :    0.157866
Sum of atomic charges:   -0.0000000

LOEWDIN ATOMIC CHARGES
----------------------
   0 C :   -0.426453
   1 C :   -0.236150
   2 C :   -0.305032
   3 C :   -0.308625
   4 C :   -0.309622
   5 C :   -0.308617
   6 C :   -0.305071
   7 H :    0.157046
   8 H :    0.158441
   9 H :    0.158459
  10 H :    0.158925
  11 H :    0.157667
  12 H :    0.158593
  13 H :    0.156433
  14 H :    0.155112
  15 H :    0.155178
  16 H :    0.155918
  17 H :    0.156440
  18 H :    0.155114
  19 H :    0.157632
  20 H :    0.158612

  Mayer bond orders larger than 0.100000
B(  0-C ,  1-C ) :   0.7854 B(  0-C ,  7-H ) :   0.9764 B(  0-C ,  8-H ) :   0.9904
B(  0-C ,  9-H ) :   0.9904 B(  1-C ,  2-C ) :   0.9083 B(  1-C ,  6-C ) :   0.9087
B(  1-C , 10-H ) :   0.9646 B(  2-C ,  3-C ) :   0.9058 B(  2-C , 11-H ) :   0.9430
B(  2-C , 12-H ) :   1.0014 B(  3-C ,  4-C ) :   0.9229 B(  3-C , 13-H ) :   0.9900
B(  3-C , 14-H ) :   0.9449 B(  4-C ,  5-C ) :   0.9230 B(  4-C , 15-H ) :   0.9441
B(  4-C , 16-H ) :   0.9894 B(  5-C ,  6-C ) :   0.9057 B(  5-C , 17-H ) :   0.9900
B(  5-C , 18-H ) :   0.9449 B(  6-C , 19-H ) :   0.9430 B(  6-C , 20-H ) :   1.0014

Dispersion correction           -0.006045881
FINAL SINGLE POINT ENERGY      -275.086850907886

DIPOLE MOMENT
-------------

Method             : SCF
Type of density    : Electron Density
Multiplicity       :   1
Irrep              :   0
Energy             :  -275.0898214903120333 Eh
Relativity type    :
Basis              : AO
                                X                 Y                 Z
Electronic contribution:     -1.233377170      -0.000078045       0.360166454
Nuclear contribution   :      1.209496365       0.000169668      -0.318909903
                        -----------------------------------------
Total Dipole Moment    :     -0.023880805       0.000091623       0.041256551
                        -----------------------------------------
Magnitude (a.u.)       :      0.047669741
Magnitude (Debye)      :      0.121166852

Rotational constants in cm-1:             0.142209             0.073301             0.053560
Rotational constants in MHz :          4263.329268          2197.498029          1605.690855

                             ****ORCA TERMINATED NORMALLY****
TOTAL RUN TIME: 0 days 0 hours 0 minutes 25 seconds 215 msec
