                         Program Version 6.0.0  -   RELEASE  -
|  1> ! r2scan-3c def2/J RI DEFGRID2 scfconv6 printgap
|  2> %output
|  3>     printlevel normal
|  4> end
|  5> * xyz 0 1
|  6> C -3.0363738591 0.697206527 0.6378225683
|  7> O -1.8440152641 0.7247523167 -0.1491713234
|  8> C -1.0696883137 -0.3564835664 -0.1221290368
|  9> O -1.3438364181 -1.3383069771 0.5360033973
| 10> C 0.1306957828 -0.2231181309 -1.0369451182
| 11> C 1.1660995818 -1.3126149305 -0.7480981236
| 12> C 1.8484941097 -1.0809396808 0.5979864581
| 13> C 2.4820084149 0.3057095064 0.6542817169
| 14> C 1.4279251205 1.3801856152 0.4054237566
| 15> C 0.7650617869 1.1696402878 -0.9526586103
| 16> H -2.793080128 0.4849627598 1.6798858143
| 17> H -3.7093467413 -0.0772730591 0.2675430539
| 18> H -3.4796566613 1.6822995077 0.5323676584
| 19> H -0.2690538356 -0.3657924713 -2.0485636216
| 20> H 0.6737521568 -2.2866258096 -0.7455159423
| 21> H 1.9136291026 -1.3041287851 -1.5425545352
| 22> H 1.1070388778 -1.1794084051 1.3940743558
| 23> H 2.6091687051 -1.8472101568 0.7563662725
| 24> H 2.9488088537 0.4596448218 1.6286865575
| 25> H 3.2602964478 0.3794673206 -0.1081571721
| 26> H 0.670342981 1.3337732718 1.1919126366
| 27> H 1.886657253 2.3696870781 0.4400523647
| 28> H 0.0045663148 1.9312847906 -1.1246210328
| 29> H 1.5189604814 1.2520440681 -1.7371693693
| 30> *
| 31>
| 32>                          ****END OF INPUT****

CARTESIAN COORDINATES (ANGSTROEM)
---------------------------------
  C     -3.036374    0.697207    0.637823
  O     -1.844015    0.724752   -0.149171
  C     -1.069688   -0.356484   -0.122129
  O     -1.343836   -1.338307    0.536003
  C      0.130696   -0.223118   -1.036945
  C      1.166100   -1.312615   -0.748098
  C      1.848494   -1.080940    0.597986
  C      2.482008    0.305710    0.654282
  C      1.427925    1.380186    0.405424
  C      0.765062    1.169640   -0.952659
  H     -2.793080    0.484963    1.679886
  H     -3.709347   -0.077273    0.267543
  H     -3.479657    1.682300    0.532368
  H     -0.269054   -0.365792   -2.048564
  H      0.673752   -2.286626   -0.745516
  H      1.913629   -1.304129   -1.542555
  H      1.107039   -1.179408    1.394074
  H      2.609169   -1.847210    0.756366
  H      2.948809    0.459645    1.628687
  H      3.260296    0.379467   -0.108157
  H      0.670343    1.333773    1.191913
  H      1.886657    2.369687    0.440052
  H      0.004566    1.931285   -1.124621
  H      1.518960    1.252044   -1.737169

 Total Charge           Charge          ....    0
 Multiplicity           Mult            ....    1
 Number of Electrons    NEL             ....   78
 Basis Dimension        Dim             ....  270

ORBITAL ENERGIES
----------------

  NO   OCC          E(Eh)            E(eV)
   0   2.0000     -18.999101      -516.9918
   1   2.0000     -18.930210      -515.1172
   2   2.0000     -10.151370      -276.2328
   3   2.0000     -10.087167      -274.4858
   4   2.0000     -10.047031      -273.3936
   5   2.0000     -10.028493      -272.8892
   6   2.0000     -10.024118      -272.7701
   7   2.0000     -10.023658      -272.7576
   8   2.0000     -10.020557      -272.6732
   9   2.0000     -10.017431      -272.5881
  10   2.0000      -1.073981       -29.2245
  11   2.0000      -0.976666       -26.5764
  12   2.0000      -0.807286       -21.9674
  13   2.0000      -0.733229       -19.9522
  14   2.0000      -0.709414       -19.3041
  15   2.0000      -0.689811       -18.7707
  16   2.0000      -0.595286       -16.1986
  17   2.0000      -0.574498       -15.6329
  18   2.0000      -0.544717       -14.8225
  19   2.0000      -0.516296       -14.0491
  20   2.0000      -0.466989       -12.7074
  21   2.0000      -0.456304       -12.4167
  22   2.0000      -0.443481       -12.0677
  23   2.0000      -0.437010       -11.8916
  24   2.0000      -0.411066       -11.1857
  25   2.0000      -0.405630       -11.0378
  26   2.0000      -0.395126       -10.7519
  27   2.0000      -0.370497       -10.0817
  28   2.0000      -0.348349        -9.4791
  29   2.0000      -0.345753        -9.4084
  30   2.0000      -0.340713        -9.2713
  31   2.0000      -0.338019        -9.1980
  32   2.0000      -0.317649        -8.6437
  33   2.0000      -0.312451        -8.5022
  34   2.0000      -0.291860        -7.9419
  35   2.0000      -0.275242        -7.4897
  36   2.0000      -0.268830        -7.3152
  37   2.0000      -0.267448        -7.2776
  38   2.0000      -0.234514        -6.3815
  39   0.0000      -0.017796        -0.4843
  40   0.0000       0.061364         1.6698
  41   0.0000       0.086176         2.3450
  42   0.0000       0.100997         2.7483
  43   0.0000       0.112952         3.0736

MULLIKEN ATOMIC CHARGES
-----------------------
   0 C :   -0.297433
   1 O :   -0.163963
   2 C :    0.188654
   3 O :   -0.409855
   4 C :    0.084982
   5 C :   -0.338300
   6 C :   -0.314087
   7 C :   -0.315059
   8 C :   -0.274241
   9 C :   -0.342773
  10 H :    0.163530
  11 H :    0.159555
  12 H :    0.150563
  13 H :    0.163788
  14 H :    0.161763
  15 H :    0.155980
  16 H :    0.175940
  17 H :    0.146956
  18 H :    0.148393
  19 H :    0.142040
  20 H :    0.147651
  21 H :    0.150184
  22 H :    0.164249
  23 H :    0.151483
Sum of atomic charges:    0.0000000

LOEWDIN ATOMIC CHARGES
----------------------
   0 C :   -0.043812
   1 O :   -0.612460
   2 C :    0.358987
   3 O :   -0.432094
   4 C :   -0.153673
   5 C :   -0.278076
   6 C :   -0.295766
   7 C :   -0.302410
   8 C :   -0.294631
   9 C :   -0.274661
  10 H :    0.177933
  11 H :    0.175891
  12 H :    0.175780
  13 H :    0.186751
  14 H :    0.174169
  15 H :    0.158198
  16 H :    0.168896
  17 H :    0.155477
  18 H :    0.154751
  19 H :    0.153646
  20 H :    0.159046
  21 H :    0.156073
  22 H :    0.173266
  23 H :    0.158717

  Mayer bond orders larger than 0.100000
B(  0-C ,  1-O ) :   0.8504 B(  0-C , 10-H ) :   0.9632 B(  0-C , 11-H ) :   0.9623
B(  0-C , 12-H ) :   0.9703 B(  1-O ,  2-C ) :   1.0748 B(  2-C ,  3-O ) :   1.8492
B(  2-C ,  4-C ) :   0.9459 B(  4-C ,  5-C ) :   0.9441 B(  4-C ,  9-C ) :   0.8974
B(  4-C , 13-H ) :   0.8880 B(  5-C ,  6-C ) :   0.9067 B(  5-C , 14-H ) :   0.9378
B(  5-C , 15-H ) :   0.9914 B(  6-C ,  7-C ) :   0.9060 B(  6-C , 16-H ) :   0.9849
B(  6-C , 17-H ) :   0.9387 B(  7-C ,  8-C ) :   0.9177 B(  7-C , 18-H ) :   0.9462
B(  7-C , 19-H ) :   1.0017 B(  8-C ,  9-C ) :   0.9117 B(  8-C , 20-H ) :   0.9821
B(  8-C , 21-H ) :   0.9390 B(  9-C , 22-H ) :   0.9411 B(  9-C , 23-H ) :   0.9838

Dispersion correction           -0.007930306
FINAL SINGLE POINT ENERGY      -463.636267404523

DIPOLE MOMENT
-------------

Method             : SCF
Type of density    : Electron Density
Multiplicity       :   1
Irrep              :   0
Energy             :  -463.6415728298023851 Eh
Relativity type    :
Basis              : AO
                                X                 Y                 Z
Electronic contribution:     -5.965761742      -1.964778173      -0.812425766
Nuclear contribution   :      5.902670612       2.648472738       0.553912975
                        -----------------------------------------
Total Dipole Moment    :     -0.063091130       0.683694565      -0.258512791
                        -----------------------------------------
Magnitude (a.u.)       :      0.733653605
Magnitude (Debye)      :      1.864799265

Rotational constants in cm-1:             0.076586             0.032566             0.028475
Rotational constants in MHz :          2295.983923           976.294696           853.672840

                             ****ORCA TERMINATED NORMALLY****
TOTAL RUN TIME: 0 days 0 hours 0 minutes 33 seconds 390 msec
