                         Program Version 6.0.0  -   RELEASE  -
|  1> ! r2scan-3c def2/J RI DEFGRID2 scfconv6 printgap
|  2> %output
|  3>     printlevel normal
|  4> end
|  5> %cpcm
|  6>     smd true
|  7>     smdsolvent "water"
|  8> end
|  9> * xyz 0 1
| 10> C -3.0363738591 0.697206527 0.6378225683
| 11> O -1.8440152641 0.7247523167 -0.1491713234
| 12> C -1.0696883137 -0.3564835664 -0.1221290368
| 13> O -1.3438364181 -1.3383069771 0.5360033973
| 14> C 0.1306957828 -0.2231181309 -1.0369451182
| 15> C 1.1660995818 -1.3126149305 -0.7480981236
| 16> C 1.8484941097 -1.0809396808 0.5979864581
| 17> C 2.4820084149 0.3057095064 0.6542817169
| 18> C 1.4279251205 1.3801856152 0.4054237566
| 19> C 0.7650617869 1.1696402878 -0.9526586103
| 20> H -2.793080128 0.4849627598 1.6798858143
| 21> H -3.7093467413 -0.0772730591 0.2675430539
| 22> H -3.4796566613 1.6822995077 0.5323676584
| 23> H -0.2690538356 -0.3657924713 -2.0485636216
| 24> H 0.6737521568 -2.2866258096 -0.7455159423
| 25> H 1.9136291026 -1.3041287851 -1.5425545352
| 26> H 1.1070388778 -1.1794084051 1.3940743558
| 27> H 2.6091687051 -1.8472101568 0.7563662725
| 28> H 2.9488088537 0.4596448218 1.6286865575
| 29> H 3.2602964478 0.3794673206 -0.1081571721
| 30> H 0.670342981 1.3337732718 1.1919126366
| 31> H 1.886657253 2.3696870781 0.4400523647
| 32> H 0.0045663148 1.9312847906 -1.1246210328
| 33> H 1.5189604814 1.2520440681 -1.7371693693
| 34> *
| 35>
| 36>                          ****END OF INPUT****

CARTESIAN COORDINATES (ANGSTROEM)
---------------------------------
  C     -3.036374    0.697207    0.637823
  O     -1.844015    0.724752   -0.149171
  C     -1.069688   -0.356484   -0.122129
  O     -1.343836   -1.338307    0.536003
  C      0.130696   -0.223118   -1.036945
  C      1.166100   -1.312615   -0.748098
  C      1.848494   -1.080940    0.597986
  C      2.482008    0.305710    0.654282
  C      1.427925    1.380186    0.405424
  C      0.765062    1.169640   -0.952659
  H     -2.793080    0.484963    1.679886
  H     -3.709347   -0.077273    0.267543
  H     -3.479657    1.682300    0.532368
  H     -0.269054   -0.365792   -2.048564
  H      0.673752   -2.286626   -0.745516
  H      1.913629   -1.304129   -1.542555
  H      1.107039   -1.179408    1.394074
  H      2.609169   -1.847210    0.756366
  H      2.948809    0.459645    1.628687
  H      3.260296    0.379467   -0.108157
  H      0.670343    1.333773    1.191913
  H      1.886657    2.369687    0.440052
  H      0.004566    1.931285   -1.124621
  H      1.518960    1.252044   -1.737169

 Total Charge           Charge          ....    0
 Multiplicity           Mult            ....    1
 Number of Electrons    NEL             ....   78
 Basis Dimension        Dim             ....  270

ORBITAL ENERGIES
----------------

  NO   OCC          E(Eh)            E(eV)
   0   2.0000     -19.002927      -517.0959
   1   2.0000     -18.943746      -515.4855
   2   2.0000     -10.160307      -276.4760
   3   2.0000     -10.076262      -274.1890
   4   2.0000     -10.042545      -273.2715
   5   2.0000     -10.021518      -272.6994
   6   2.0000     -10.019880      -272.6548
   7   2.0000     -10.016428      -272.5609
   8   2.0000     -10.014454      -272.5071
   9   2.0000     -10.013924      -272.4927
  10   2.0000      -1.079373       -29.3712
  11   2.0000      -0.988052       -26.8863
  12   2.0000      -0.802625       -21.8405
  13   2.0000      -0.729119       -19.8403
  14   2.0000      -0.704465       -19.1695
  15   2.0000      -0.683866       -18.6089
  16   2.0000      -0.590597       -16.0710
  17   2.0000      -0.569280       -15.4909
  18   2.0000      -0.540135       -14.6978
  19   2.0000      -0.514882       -14.0107
  20   2.0000      -0.465018       -12.6538
  21   2.0000      -0.453801       -12.3486
  22   2.0000      -0.452226       -12.3057
  23   2.0000      -0.435540       -11.8516
  24   2.0000      -0.405796       -11.0423
  25   2.0000      -0.402955       -10.9650
  26   2.0000      -0.389948       -10.6110
  27   2.0000      -0.368767       -10.0347
  28   2.0000      -0.343803        -9.3554
  29   2.0000      -0.341423        -9.2906
  30   2.0000      -0.336581        -9.1588
  31   2.0000      -0.335199        -9.1212
  32   2.0000      -0.318531        -8.6677
  33   2.0000      -0.306201        -8.3321
  34   2.0000      -0.287587        -7.8256
  35   2.0000      -0.280620        -7.6360
  36   2.0000      -0.263553        -7.1717
  37   2.0000      -0.262598        -7.1456
  38   2.0000      -0.247354        -6.7309
  39   0.0000      -0.024228        -0.6593
  40   0.0000       0.066451         1.8082
  41   0.0000       0.093578         2.5464
  42   0.0000       0.110089         2.9957
  43   0.0000       0.120224         3.2715

MULLIKEN ATOMIC CHARGES
-----------------------
   0 C :   -0.332785
   1 O :   -0.179369
   2 C :    0.228465
   3 O :   -0.489679
   4 C :    0.093281
   5 C :   -0.374370
   6 C :   -0.316691
   7 C :   -0.327183
   8 C :   -0.291746
   9 C :   -0.356162
  10 H :    0.177849
  11 H :    0.177891
  12 H :    0.178189
  13 H :    0.194972
  14 H :    0.159815
  15 H :    0.174371
  16 H :    0.164679
  17 H :    0.157147
  18 H :    0.156350
  19 H :    0.154064
  20 H :    0.156503
  21 H :    0.160219
  22 H :    0.165764
  23 H :    0.168425
Sum of atomic charges:    0.0000000

LOEWDIN ATOMIC CHARGES
----------------------
   0 C :   -0.041780
   1 O :   -0.613813
   2 C :    0.369640
   3 O :   -0.490248
   4 C :   -0.150888
   5 C :   -0.280280
   6 C :   -0.300041
   7 C :   -0.303795
   8 C :   -0.297362
   9 C :   -0.273494
  10 H :    0.182724
  11 H :    0.181666
  12 H :    0.187810
  13 H :    0.198666
  14 H :    0.169670
  15 H :    0.166058
  16 H :    0.163916
  17 H :    0.158048
  18 H :    0.156704
  19 H :    0.158054
  20 H :    0.161096
  21 H :    0.159317
  22 H :    0.172888
  23 H :    0.165446

  Mayer bond orders larger than 0.100000
B(  0-C ,  1-O ) :   0.8306 B(  0-C , 10-H ) :   0.9582 B(  0-C , 11-H ) :   0.9570
B(  0-C , 12-H ) :   0.9603 B(  1-O ,  2-C ) :   1.0980 B(  2-C ,  3-O ) :   1.7897
B(  2-C ,  4-C ) :   0.9510 B(  4-C ,  5-C ) :   0.9140 B(  4-C ,  9-C ) :   0.8823
B(  4-C , 13-H ) :   0.8802 B(  5-C ,  6-C ) :   0.9103 B(  5-C , 14-H ) :   0.9513
B(  5-C , 15-H ) :   0.9813 B(  6-C ,  7-C ) :   0.9073 B(  6-C , 16-H ) :   0.9854
B(  6-C , 17-H ) :   0.9384 B(  7-C ,  8-C ) :   0.9161 B(  7-C , 18-H ) :   0.9460
B(  7-C , 19-H ) :   0.9976 B(  8-C ,  9-C ) :   0.9113 B(  8-C , 20-H ) :   0.9815
B(  8-C , 21-H ) :   0.9377 B(  9-C , 22-H ) :   0.9434 B(  9-C , 23-H ) :   0.9781

Dispersion correction           -0.007930306
FINAL SINGLE POINT ENERGY      -463.641009100834

DIPOLE MOMENT
-------------

Method             : SCF
Type of density    : Electron Density
Multiplicity       :   1
Irrep              :   0
Energy             :  -463.6463145261137129 Eh
Relativity type    :
Basis              : AO
                                X                 Y                 Z
Electronic contribution:     -5.899576129      -1.634017658      -1.022977686
Nuclear contribution   :      5.902670612       2.648472738       0.553912975
                        -----------------------------------------
Total Dipole Moment    :      0.003094483       1.014455080      -0.469064711
                        -----------------------------------------
Magnitude (a.u.)       :      1.117653966
Magnitude (Debye)      :      2.840850615

Rotational constants in cm-1:             0.076586             0.032566             0.028475
Rotational constants in MHz :          2295.983923           976.294696           853.672840

                             ****ORCA TERMINATED NORMALLY****
TOTAL RUN TIME: 0 days 0 hours 0 minutes 44 seconds 761 msec
