                         Program Version 6.0.0  -   RELEASE  -
|  1> ! r2scan-3c def2/J RI DEFGRID2 scfconv6 printgap
|  2> %output
|  3>     printlevel normal
|  4> end
|  5> %cpcm
|  6>     smd true
|  7>     smdsolvent "water"
|  8> end
|  9> * xyz 0 1
| 10> C -1.8539872165 1.048e-06 -0.0054017261
| 11> C -1.153617633 -1.1955686363 -0.0012113053
| 12> C 0.2266503426 -1.2004907891 0.0084477458
| 13> C 0.9423028082 -7.901e-07 0.0118349678
| 14> C 0.2266532792 1.2004916585 0.0084381169
| 15> C -1.1536215422 1.1955675604 -0.0011998997
| 16> N 2.3159439984 -1.7869e-06 -0.0511889406
| 17> H -2.9335042329 1.2944e-06 -0.0104824332
| 18> H -1.6895172842 -2.1339379128 -0.0023350274
| 19> H 0.7655563367 -2.1371632733 0.01187125
| 20> H 0.7655570179 2.137163985 0.0119173345
| 21> H -1.6895161056 2.1339318057 -0.0023621577
| 22> H 2.7768434583 -0.8501353906 0.2268378492
| 23> H 2.7768392203 0.8501637113 0.2267520185
| 24> *
| 25>
| 26>                          ****END OF INPUT****

CARTESIAN COORDINATES (ANGSTROEM)
---------------------------------
  C     -1.853987    0.000001   -0.005402
  C     -1.153618   -1.195569   -0.001211
  C      0.226650   -1.200491    0.008448
  C      0.942303   -0.000001    0.011835
  C      0.226653    1.200492    0.008438
  C     -1.153622    1.195568   -0.001200
  N      2.315944   -0.000002   -0.051189
  H     -2.933504    0.000001   -0.010482
  H     -1.689517   -2.133938   -0.002335
  H      0.765556   -2.137163    0.011871
  H      0.765557    2.137164    0.011917
  H     -1.689516    2.133932   -0.002362
  H      2.776843   -0.850135    0.226838
  H      2.776839    0.850164    0.226752

 Total Charge           Charge          ....    0
 Multiplicity           Mult            ....    1
 Number of Electrons    NEL             ....   50
 Basis Dimension        Dim             ....  173

ORBITAL ENERGIES
----------------

  NO   OCC          E(Eh)            E(eV)
   0   2.0000     -14.156482      -385.2175
   1   2.0000     -10.072339      -274.0823
   2   2.0000     -10.029193      -272.9082
   3   2.0000     -10.029190      -272.9081
   4   2.0000     -10.023105      -272.7426
   5   2.0000     -10.023100      -272.7424
   6   2.0000     -10.018041      -272.6048
   7   2.0000      -0.884653       -24.0726
   8   2.0000      -0.804710       -21.8973
   9   2.0000      -0.712055       -19.3760
  10   2.0000      -0.690633       -18.7931
  11   2.0000      -0.577597       -15.7172
  12   2.0000      -0.563395       -15.3308
  13   2.0000      -0.491032       -13.3617
  14   2.0000      -0.471889       -12.8407
  15   2.0000      -0.440648       -11.9907
  16   2.0000      -0.395789       -10.7700
  17   2.0000      -0.392072       -10.6688
  18   2.0000      -0.381539       -10.3822
  19   2.0000      -0.361629        -9.8404
  20   2.0000      -0.320968        -8.7340
  21   2.0000      -0.302386        -8.2283
  22   2.0000      -0.288783        -7.8582
  23   2.0000      -0.236441        -6.4339
  24   2.0000      -0.184026        -5.0076
  25   0.0000      -0.029534        -0.8037
  26   0.0000      -0.010604        -0.2885
  27   0.0000       0.089790         2.4433
  28   0.0000       0.103858         2.8261
  29   0.0000       0.128010         3.4833

MULLIKEN ATOMIC CHARGES
-----------------------
   0 C :   -0.262728
   1 C :   -0.150927
   2 C :   -0.393723
   3 C :    0.433042
   4 C :   -0.393725
   5 C :   -0.150927
   6 N :   -0.583410
   7 H :    0.175427
   8 H :    0.177539
   9 H :    0.177038
  10 H :    0.177038
  11 H :    0.177539
  12 H :    0.308909
  13 H :    0.308909
Sum of atomic charges:   -0.0000000

LOEWDIN ATOMIC CHARGES
----------------------
   0 C :   -0.230063
   1 C :   -0.171904
   2 C :   -0.179451
   3 C :    0.113779
   4 C :   -0.179451
   5 C :   -0.171903
   6 N :   -0.598993
   7 H :    0.173195
   8 H :    0.176369
   9 H :    0.181085
  10 H :    0.181084
  11 H :    0.176368
  12 H :    0.264942
  13 H :    0.264942

  Mayer bond orders larger than 0.100000
B(  0-C ,  1-C ) :   1.3733 B(  0-C ,  5-C ) :   1.3733 B(  0-C ,  7-H ) :   0.9620
B(  1-C ,  2-C ) :   1.3963 B(  1-C ,  8-H ) :   0.9536 B(  2-C ,  3-C ) :   1.3115
B(  2-C ,  9-H ) :   0.9617 B(  3-C ,  4-C ) :   1.3115 B(  3-C ,  6-N ) :   0.9691
B(  4-C ,  5-C ) :   1.3963 B(  4-C , 10-H ) :   0.9617 B(  5-C , 11-H ) :   0.9536
B(  6-N , 12-H ) :   0.9027 B(  6-N , 13-H ) :   0.9027

Dispersion correction           -0.004172015
FINAL SINGLE POINT ENERGY      -287.536255430321

DIPOLE MOMENT
-------------

Method             : SCF
Type of density    : Electron Density
Multiplicity       :   1
Irrep              :   0
Energy             :  -287.5375786723623719 Eh
Relativity type    :
Basis              : AO
                                X                 Y                 Z
Electronic contribution:      0.200689616      -0.000004941      -0.026186010
Nuclear contribution   :      0.737267538       0.000022712       0.433340916
                        -----------------------------------------
Total Dipole Moment    :      0.937957154       0.000017771       0.407154905
                        -----------------------------------------
Magnitude (a.u.)       :      1.022515888
Magnitude (Debye)      :      2.599028838

Rotational constants in cm-1:             0.189526             0.087992             0.060155
Rotational constants in MHz :          5681.834379          2637.935724          1803.388754

                             ****ORCA TERMINATED NORMALLY****
TOTAL RUN TIME: 0 days 0 hours 0 minutes 18 seconds 710 msec
