                         Program Version 6.0.0  -   RELEASE  -
|  1> ! wb97x-v def2-tzvp def2/J RIJCOSX DEFGRID2 scfconv7 GCP(DFT/TZ) printgap
|  2> %output
|  3>     printlevel normal
|  4> end
|  5> * xyz 0 1
|  6> C -1.038428319077966 0.776806166279617 -0.09446932401108085
|  7> C -1.036153852901573 -0.775951662549454 -0.111222432813019
|  8> C 0.41556513836540865 -1.15197942710609 0.20425903019651828
|  9> N 1.1835662594465268 -0.0033310777479328858 -0.3222567525039597
| 10> C 0.420843230105625 1.1542638462975505 0.19374397241615557
| 11> H -1.7104290407684168 1.1860663433354954 0.6640375845219872
| 12> H -1.3543209706410095 1.1708245361808465 -1.0644428813337743
| 13> H -1.7283062117215968 -1.2060490498064087 0.6170038827681542
| 14> H -1.319834634798475 -1.1481503930958694 -1.0997904909086997
| 15> H 0.5453567195717424 -1.2630745931409553 1.2939048310120251
| 16> H 0.7295396123582492 -2.086863749165094 -0.2699371957191602
| 17> H 2.1089011599448018 -0.0030252107973608995 0.09767167841167097
| 18> H 0.5660844116683631 1.2842158439892128 1.2790627787396172
| 19> H 0.7294056173222179 2.080581477823635 -0.30044247494841564
| 20> *
| 21>
| 22>                          ****END OF INPUT****

CARTESIAN COORDINATES (ANGSTROEM)
---------------------------------
  C     -1.038428    0.776806   -0.094469
  C     -1.036154   -0.775952   -0.111222
  C      0.415565   -1.151979    0.204259
  N      1.183566   -0.003331   -0.322257
  C      0.420843    1.154264    0.193744
  H     -1.710429    1.186066    0.664038
  H     -1.354321    1.170825   -1.064443
  H     -1.728306   -1.206049    0.617004
  H     -1.319835   -1.148150   -1.099790
  H      0.545357   -1.263075    1.293905
  H      0.729540   -2.086864   -0.269937
  H      2.108901   -0.003025    0.097672
  H      0.566084    1.284216    1.279063
  H      0.729406    2.080581   -0.300442

 Total Charge           Charge          ....    0
 Multiplicity           Mult            ....    1
 Number of Electrons    NEL             ....   40
 Basis Dimension        Dim             ....  209

ORBITAL ENERGIES
----------------

  NO   OCC          E(Eh)            E(eV)
   0   2.0000     -16.506822      -449.1735
   1   2.0000     -12.062227      -328.2299
   2   2.0000     -12.061879      -328.2204
   3   2.0000     -12.039274      -327.6053
   4   2.0000     -12.038150      -327.5747
   5   2.0000      -1.469271       -39.9809
   6   2.0000      -1.273872       -34.6638
   7   2.0000      -1.225591       -33.3500
   8   2.0000      -1.080683       -29.4069
   9   2.0000      -1.054370       -28.6909
  10   2.0000      -0.970822       -26.4174
  11   2.0000      -0.912591       -24.8329
  12   2.0000      -0.884297       -24.0630
  13   2.0000      -0.835645       -22.7390
  14   2.0000      -0.833100       -22.6698
  15   2.0000      -0.818091       -22.2614
  16   2.0000      -0.792593       -21.5675
  17   2.0000      -0.788040       -21.4437
  18   2.0000      -0.747104       -20.3297
  19   2.0000      -0.701359       -19.0849
  20   0.0000      -0.079821        -2.1720
  21   0.0000      -0.074589        -2.0297
  22   0.0000      -0.027526        -0.7490
  23   0.0000      -0.019225        -0.5231
  24   0.0000      -0.012040        -0.3276

MULLIKEN ATOMIC CHARGES
-----------------------
   0 C :   -0.168604
   1 C :   -0.173410
   2 C :   -0.116049
   3 N :   -0.320184
   4 C :   -0.122809
   5 H :    0.089048
   6 H :    0.091933
   7 H :    0.089425
   8 H :    0.091860
   9 H :    0.080950
  10 H :    0.096508
  11 H :    0.182577
  12 H :    0.082090
  13 H :    0.096667
Sum of atomic charges:   -0.0000000

LOEWDIN ATOMIC CHARGES
----------------------
   0 C :   -0.250226
   1 C :   -0.251106
   2 C :   -0.299930
   3 N :   -0.030641
   4 C :   -0.298931
   5 H :    0.126284
   6 H :    0.129729
   7 H :    0.126182
   8 H :    0.130218
   9 H :    0.111533
  10 H :    0.120022
  11 H :    0.155662
  12 H :    0.111339
  13 H :    0.119865

  Mayer bond orders larger than 0.100000
B(  0-C ,  1-C ) :   0.9998 B(  0-C ,  4-C ) :   1.0174 B(  0-C ,  5-H ) :   0.9710
B(  0-C ,  6-H ) :   0.9716 B(  1-C ,  2-C ) :   1.0186 B(  1-C ,  7-H ) :   0.9713
B(  1-C ,  8-H ) :   0.9704 B(  2-C ,  3-N ) :   1.0016 B(  2-C ,  9-H ) :   0.9828
B(  2-C , 10-H ) :   0.9662 B(  3-N ,  4-C ) :   1.0088 B(  3-N , 11-H ) :   0.9402
B(  4-C , 12-H ) :   0.9842 B(  4-C , 13-H ) :   0.9658

FINAL SINGLE POINT ENERGY      -212.593039676775

DIPOLE MOMENT
-------------

Method             : SCF
Type of density    : Electron Density
Multiplicity       :   1
Irrep              :   0
Energy             :  -212.6025208063752530 Eh
Relativity type    :
Basis              : AO
                                X                 Y                 Z
Electronic contribution:      1.332113598      -0.011211094      -0.792385164
Nuclear contribution   :     -1.369512647       0.012933556       1.256136149
                        -----------------------------------------
Total Dipole Moment    :     -0.037399049       0.001722462       0.463750985
                        -----------------------------------------
Magnitude (a.u.)       :      0.465259747
Magnitude (Debye)      :      1.182596293

Rotational constants in cm-1:             0.229775             0.225486             0.130199
Rotational constants in MHz :          6888.487599          6759.885931          3903.266746

                             ****ORCA TERMINATED NORMALLY****
TOTAL RUN TIME: 0 days 0 hours 1 minutes 4 seconds 847 msec
