                         Program Version 6.0.0  -   RELEASE  -
|  1> ! wb97x-v def2-tzvp def2/J RIJCOSX DEFGRID2 scfconv7 GCP(DFT/TZ) printgap
|  2> %output
|  3>     printlevel normal
|  4> end
|  5> %cpcm
|  6>     smd true
|  7>     smdsolvent "water"
|  8> end
|  9> * xyz 0 1
| 10> C -1.038428319077966 0.776806166279617 -0.09446932401108085
| 11> C -1.036153852901573 -0.775951662549454 -0.111222432813019
| 12> C 0.41556513836540865 -1.15197942710609 0.20425903019651828
| 13> N 1.1835662594465268 -0.0033310777479328858 -0.3222567525039597
| 14> C 0.420843230105625 1.1542638462975505 0.19374397241615557
| 15> H -1.7104290407684168 1.1860663433354954 0.6640375845219872
| 16> H -1.3543209706410095 1.1708245361808465 -1.0644428813337743
| 17> H -1.7283062117215968 -1.2060490498064087 0.6170038827681542
| 18> H -1.319834634798475 -1.1481503930958694 -1.0997904909086997
| 19> H 0.5453567195717424 -1.2630745931409553 1.2939048310120251
| 20> H 0.7295396123582492 -2.086863749165094 -0.2699371957191602
| 21> H 2.1089011599448018 -0.0030252107973608995 0.09767167841167097
| 22> H 0.5660844116683631 1.2842158439892128 1.2790627787396172
| 23> H 0.7294056173222179 2.080581477823635 -0.30044247494841564
| 24> *
| 25>
| 26>                          ****END OF INPUT****

CARTESIAN COORDINATES (ANGSTROEM)
---------------------------------
  C     -1.038428    0.776806   -0.094469
  C     -1.036154   -0.775952   -0.111222
  C      0.415565   -1.151979    0.204259
  N      1.183566   -0.003331   -0.322257
  C      0.420843    1.154264    0.193744
  H     -1.710429    1.186066    0.664038
  H     -1.354321    1.170825   -1.064443
  H     -1.728306   -1.206049    0.617004
  H     -1.319835   -1.148150   -1.099790
  H      0.545357   -1.263075    1.293905
  H      0.729540   -2.086864   -0.269937
  H      2.108901   -0.003025    0.097672
  H      0.566084    1.284216    1.279063
  H      0.729406    2.080581   -0.300442

 Total Charge           Charge          ....    0
 Multiplicity           Mult            ....    1
 Number of Electrons    NEL             ....   40
 Basis Dimension        Dim             ....  209

ORBITAL ENERGIES
----------------

  NO   OCC          E(Eh)            E(eV)
   0   2.0000     -16.503939      -449.0950
   1   2.0000     -12.054902      -328.0305
   2   2.0000     -12.054557      -328.0212
   3   2.0000     -12.031609      -327.3967
   4   2.0000     -12.030496      -327.3664
   5   2.0000      -1.464961       -39.8636
   6   2.0000      -1.267382       -34.4872
   7   2.0000      -1.219137       -33.1744
   8   2.0000      -1.074128       -29.2285
   9   2.0000      -1.047802       -28.5122
  10   2.0000      -0.965274       -26.2664
  11   2.0000      -0.906498       -24.6671
  12   2.0000      -0.878569       -23.9071
  13   2.0000      -0.829496       -22.5717
  14   2.0000      -0.826830       -22.4992
  15   2.0000      -0.811250       -22.0752
  16   2.0000      -0.785465       -21.3736
  17   2.0000      -0.781111       -21.2551
  18   2.0000      -0.739538       -20.1238
  19   2.0000      -0.698917       -19.0185
  20   0.0000      -0.073195        -1.9917
  21   0.0000      -0.069275        -1.8851
  22   0.0000      -0.016665        -0.4535
  23   0.0000      -0.011634        -0.3166
  24   0.0000      -0.004685        -0.1275

MULLIKEN ATOMIC CHARGES
-----------------------
   0 C :   -0.192925
   1 C :   -0.198715
   2 C :   -0.139820
   3 N :   -0.398629
   4 C :   -0.146436
   5 H :    0.107127
   6 H :    0.104331
   7 H :    0.107691
   8 H :    0.103828
   9 H :    0.098050
  10 H :    0.115083
  11 H :    0.226235
  12 H :    0.099138
  13 H :    0.115042
Sum of atomic charges:    0.0000000

LOEWDIN ATOMIC CHARGES
----------------------
   0 C :   -0.254833
   1 C :   -0.255826
   2 C :   -0.301551
   3 N :   -0.054913
   4 C :   -0.300583
   5 H :    0.130391
   6 H :    0.130303
   7 H :    0.130320
   8 H :    0.130552
   9 H :    0.117864
  10 H :    0.121863
  11 H :    0.167103
  12 H :    0.117681
  13 H :    0.121629

  Mayer bond orders larger than 0.100000
B(  0-C ,  1-C ) :   0.9895 B(  0-C ,  4-C ) :   1.0113 B(  0-C ,  5-H ) :   0.9684
B(  0-C ,  6-H ) :   0.9735 B(  1-C ,  2-C ) :   1.0120 B(  1-C ,  7-H ) :   0.9687
B(  1-C ,  8-H ) :   0.9729 B(  2-C ,  3-N ) :   0.9938 B(  2-C ,  9-H ) :   0.9828
B(  2-C , 10-H ) :   0.9680 B(  3-N ,  4-C ) :   1.0000 B(  3-N , 11-H ) :   0.9286
B(  4-C , 12-H ) :   0.9845 B(  4-C , 13-H ) :   0.9675

FINAL SINGLE POINT ENERGY      -212.600951851266

DIPOLE MOMENT
-------------

Method             : SCF
Type of density    : Electron Density
Multiplicity       :   1
Irrep              :   0
Energy             :  -212.6104329808658520 Eh
Relativity type    :
Basis              : AO
                                X                 Y                 Z
Electronic contribution:      1.326955431      -0.010318719      -0.565926190
Nuclear contribution   :     -1.369512647       0.012933556       1.256136149
                        -----------------------------------------
Total Dipole Moment    :     -0.042557216       0.002614838       0.690209960
                        -----------------------------------------
Magnitude (a.u.)       :      0.691525663
Magnitude (Debye)      :      1.757718547

Rotational constants in cm-1:             0.229775             0.225486             0.130199
Rotational constants in MHz :          6888.487599          6759.885931          3903.266746

                             ****ORCA TERMINATED NORMALLY****
TOTAL RUN TIME: 0 days 0 hours 1 minutes 8 seconds 658 msec
