                         Program Version 6.0.0  -   RELEASE  -
|  1> ! pbe def2-sv(p) def2/J RI DEFGRID1 loosescf d4 GCP(DFT/SV(P)) printgap
|  2> %output
|  3>     printlevel normal
|  4> end
|  5> * xyz 0 1
|  6> C -2.4847834665 -1.0723735821 -0.5076961547
|  7> C -1.7149424242 0.0878149618 0.0445743971
|  8> O -2.2637174853 1.0889656427 0.470575133
|  9> C -0.2271078659 0.0021313672 0.0174247336
| 10> C 0.5079316858 1.1589990535 -0.2377076961
| 11> C 1.8905682803 1.0775463123 -0.259121091
| 12> N 2.5560006036 -0.0430223853 -0.0271304988
| 13> C 1.8583312777 -1.1357850671 0.2392024394
| 14> C 0.4727843762 -1.1757913858 0.2683554969
| 15> H -2.9387572142 -0.7487168117 -1.4437183733
| 16> H -3.2977564716 -1.3244557844 0.1694264868
| 17> H -1.8588482013 -1.9353727703 -0.6988783988
| 18> H -0.0045407067 2.0906612672 -0.4190318034
| 19> H 2.4977509399 1.9480949525 -0.4644508072
| 20> H 2.4437524749 -2.0233026187 0.4347801134
| 21> H -0.0358780481 -2.0938028552 0.512406391
| 22> *
| 23>
| 24>                          ****END OF INPUT****

CARTESIAN COORDINATES (ANGSTROEM)
---------------------------------
  C     -2.484783   -1.072374   -0.507696
  C     -1.714942    0.087815    0.044574
  O     -2.263717    1.088966    0.470575
  C     -0.227108    0.002131    0.017425
  C      0.507932    1.158999   -0.237708
  C      1.890568    1.077546   -0.259121
  N      2.556001   -0.043022   -0.027130
  C      1.858331   -1.135785    0.239202
  C      0.472784   -1.175791    0.268355
  H     -2.938757   -0.748717   -1.443718
  H     -3.297756   -1.324456    0.169426
  H     -1.858848   -1.935373   -0.698878
  H     -0.004541    2.090661   -0.419032
  H      2.497751    1.948095   -0.464451
  H      2.443752   -2.023303    0.434780
  H     -0.035878   -2.093803    0.512406

 Total Charge           Charge          ....    0
 Multiplicity           Mult            ....    1
 Number of Electrons    NEL             ....   64
 Basis Dimension        Dim             ....  140

ORBITAL ENERGIES
----------------

  NO   OCC          E(Eh)            E(eV)
   0   2.0000     -18.753448      -510.3073
   1   2.0000     -13.994112      -380.7991
   2   2.0000      -9.989587      -271.8305
   3   2.0000      -9.935169      -270.3497
   4   2.0000      -9.933026      -270.2914
   5   2.0000      -9.927716      -270.1469
   6   2.0000      -9.919324      -269.9185
   7   2.0000      -9.913410      -269.7576
   8   2.0000      -9.899610      -269.3821
   9   2.0000      -0.949532       -25.8381
  10   2.0000      -0.870920       -23.6990
  11   2.0000      -0.750143       -20.4124
  12   2.0000      -0.699585       -19.0367
  13   2.0000      -0.681824       -18.5534
  14   2.0000      -0.593376       -16.1466
  15   2.0000      -0.581274       -15.8173
  16   2.0000      -0.516313       -14.0496
  17   2.0000      -0.458743       -12.4830
  18   2.0000      -0.452493       -12.3130
  19   2.0000      -0.425008       -11.5651
  20   2.0000      -0.411639       -11.2013
  21   2.0000      -0.403954       -10.9921
  22   2.0000      -0.394522       -10.7355
  23   2.0000      -0.386027       -10.5043
  24   2.0000      -0.372047       -10.1239
  25   2.0000      -0.352934        -9.6038
  26   2.0000      -0.335070        -9.1177
  27   2.0000      -0.323122        -8.7926
  28   2.0000      -0.272214        -7.4073
  29   2.0000      -0.254360        -6.9215
  30   2.0000      -0.219586        -5.9752
  31   2.0000      -0.209293        -5.6952
  32   0.0000      -0.101970        -2.7747
  33   0.0000      -0.057951        -1.5769
  34   0.0000      -0.026395        -0.7182
  35   0.0000       0.036773         1.0006
  36   0.0000       0.065863         1.7922

MULLIKEN ATOMIC CHARGES
-----------------------
   0 C :   -0.256339
   1 C :    0.016471
   2 O :   -0.161200
   3 C :    0.082455
   4 C :   -0.094859
   5 C :   -0.047028
   6 N :   -0.053314
   7 C :   -0.051795
   8 C :   -0.111589
   9 H :    0.140462
  10 H :    0.131812
  11 H :    0.119077
  12 H :    0.070689
  13 H :    0.076080
  14 H :    0.073635
  15 H :    0.065444
Sum of atomic charges:    0.0000000

LOEWDIN ATOMIC CHARGES
----------------------
   0 C :   -0.360050
   1 C :    0.052076
   2 O :   -0.121188
   3 C :   -0.051499
   4 C :   -0.108879
   5 C :   -0.075318
   6 N :   -0.066334
   7 C :   -0.076006
   8 C :   -0.129663
   9 H :    0.156329
  10 H :    0.147773
  11 H :    0.129147
  12 H :    0.136789
  13 H :    0.118548
  14 H :    0.117653
  15 H :    0.130623

  Mayer bond orders larger than 0.100000
B(  0-C ,  1-C ) :   1.0806 B(  0-C ,  9-H ) :   0.9177 B(  0-C , 10-H ) :   0.9228
B(  0-C , 11-H ) :   0.9302 B(  1-C ,  2-O ) :   2.1652 B(  1-C ,  3-C ) :   0.9233
B(  3-C ,  4-C ) :   1.4063 B(  3-C ,  8-C ) :   1.3814 B(  4-C ,  5-C ) :   1.3627
B(  4-C , 12-H ) :   0.9440 B(  5-C ,  6-N ) :   1.5336 B(  5-C , 13-H ) :   0.9528
B(  6-N ,  7-C ) :   1.5537 B(  7-C ,  8-C ) :   1.3759 B(  7-C , 14-H ) :   0.9512
B(  8-C , 15-H ) :   0.9378

Dispersion correction           -0.016399798
FINAL SINGLE POINT ENERGY      -400.080387670544

DIPOLE MOMENT
-------------

Method             : SCF
Type of density    : Electron Density
Multiplicity       :   1
Irrep              :   0
Energy             :  -400.1255249846025777 Eh
Relativity type    :
Basis              : AO
                                X                 Y                 Z
Electronic contribution:      2.701779651       3.068196766       1.412795909
Nuclear contribution   :     -3.016284499      -3.818306993      -1.784583060
                        -----------------------------------------
Total Dipole Moment    :     -0.314504849      -0.750110227      -0.371787151
                        -----------------------------------------
Magnitude (a.u.)       :      0.894317806
Magnitude (Debye)      :      2.273175211

Rotational constants in cm-1:             0.128537             0.039906             0.031975
Rotational constants in MHz :          3853.451979          1196.341281           958.571573

                             ****ORCA TERMINATED NORMALLY****
TOTAL RUN TIME: 0 days 0 hours 0 minutes 10 seconds 60 msec
