                         Program Version 6.0.0  -   RELEASE  -
|  1> ! pbe def2-sv(p) def2/J RI DEFGRID1 loosescf d4 GCP(DFT/SV(P)) printgap
|  2> %output
|  3>     printlevel normal
|  4> end
|  5> * xyz 0 1
|  6> C -2.5370834208 0.4654525267 -0.4503808557
|  7> C -1.3955280889 -0.1816917593 0.3115356255
|  8> O -0.1763283213 0.4971840424 -0.0325188207
|  9> C 0.9704994163 -0.1613934963 0.0651017351
| 10> O 1.0482746788 -1.3168407168 0.4327853543
| 11> C 2.1362097588 0.6977658871 -0.3219047337
| 12> H -2.3792648788 0.3652214111 -1.5204381841
| 13> H -3.4691873152 -0.0194405588 -0.1798554423
| 14> H -2.5954531727 1.5209870426 -0.202121962
| 15> H -1.2847245797 -1.2421598474 0.0626324678
| 16> H -1.536913554 -0.0909640068 1.3931466559
| 17> H 2.6086944911 1.0647192195 0.5867965856
| 18> H 1.7950421415 1.5392312182 -0.914963619
| 19> H 2.862635266 0.1003103914 -0.864181691
| 20> *
| 21>
| 22>                          ****END OF INPUT****

CARTESIAN COORDINATES (ANGSTROEM)
---------------------------------
  C     -2.537083    0.465453   -0.450381
  C     -1.395528   -0.181692    0.311536
  O     -0.176328    0.497184   -0.032519
  C      0.970499   -0.161393    0.065102
  O      1.048275   -1.316841    0.432785
  C      2.136210    0.697766   -0.321905
  H     -2.379265    0.365221   -1.520438
  H     -3.469187   -0.019441   -0.179855
  H     -2.595453    1.520987   -0.202122
  H     -1.284725   -1.242160    0.062632
  H     -1.536914   -0.090964    1.393147
  H      2.608694    1.064719    0.586797
  H      1.795042    1.539231   -0.914964
  H      2.862635    0.100310   -0.864182

 Total Charge           Charge          ....    0
 Multiplicity           Mult            ....    1
 Number of Electrons    NEL             ....   48
 Basis Dimension        Dim             ....  100

ORBITAL ENERGIES
----------------

  NO   OCC          E(Eh)            E(eV)
   0   2.0000     -18.796645      -511.4827
   1   2.0000     -18.730343      -509.6785
   2   2.0000     -10.003827      -272.2180
   3   2.0000      -9.944661      -270.6080
   4   2.0000      -9.890665      -269.1387
   5   2.0000      -9.888600      -269.0825
   6   2.0000      -1.002627       -27.2829
   7   2.0000      -0.905686       -24.6450
   8   2.0000      -0.713092       -19.4042
   9   2.0000      -0.663264       -18.0483
  10   2.0000      -0.579841       -15.7783
  11   2.0000      -0.506485       -13.7822
  12   2.0000      -0.447016       -12.1639
  13   2.0000      -0.430946       -11.7266
  14   2.0000      -0.409891       -11.1537
  15   2.0000      -0.396678       -10.7941
  16   2.0000      -0.367561       -10.0018
  17   2.0000      -0.354602        -9.6492
  18   2.0000      -0.351839        -9.5740
  19   2.0000      -0.339309        -9.2331
  20   2.0000      -0.313442        -8.5292
  21   2.0000      -0.293925        -7.9981
  22   2.0000      -0.254408        -6.9228
  23   2.0000      -0.215473        -5.8633
  24   0.0000      -0.016842        -0.4583
  25   0.0000       0.043212         1.1759
  26   0.0000       0.059137         1.6092
  27   0.0000       0.084195         2.2911
  28   0.0000       0.094196         2.5632

MULLIKEN ATOMIC CHARGES
-----------------------
   0 C :   -0.279792
   1 C :   -0.028547
   2 O :   -0.242200
   3 C :    0.079340
   4 O :   -0.215939
   5 C :   -0.251630
   6 H :    0.114171
   7 H :    0.111294
   8 H :    0.113836
   9 H :    0.113008
  10 H :    0.103062
  11 H :    0.136440
  12 H :    0.117582
  13 H :    0.129375
Sum of atomic charges:    0.0000000

LOEWDIN ATOMIC CHARGES
----------------------
   0 C :   -0.350961
   1 C :   -0.111096
   2 O :   -0.073497
   3 C :    0.027429
   4 O :   -0.176216
   5 C :   -0.359939
   6 H :    0.126062
   7 H :    0.129939
   8 H :    0.125689
   9 H :    0.118726
  10 H :    0.115471
  11 H :    0.149758
  12 H :    0.134801
  13 H :    0.143835

  Mayer bond orders larger than 0.100000
B(  0-C ,  1-C ) :   1.1557 B(  0-C ,  6-H ) :   0.9524 B(  0-C ,  7-H ) :   0.9449
B(  0-C ,  8-H ) :   0.9487 B(  1-C ,  2-O ) :   0.9126 B(  1-C ,  9-H ) :   0.9185
B(  1-C , 10-H ) :   0.9360 B(  2-O ,  3-C ) :   1.2090 B(  3-C ,  4-O ) :   2.0561
B(  3-C ,  5-C ) :   1.0827 B(  5-C , 11-H ) :   0.9269 B(  5-C , 12-H ) :   0.9370
B(  5-C , 13-H ) :   0.9362

Dispersion correction           -0.008739522
FINAL SINGLE POINT ENERGY      -307.030895960451

DIPOLE MOMENT
-------------

Method             : SCF
Type of density    : Electron Density
Multiplicity       :   1
Irrep              :   0
Energy             :  -307.0853390784144494 Eh
Relativity type    :
Basis              : AO
                                X                 Y                 Z
Electronic contribution:      3.345883964      -2.368683261       1.368615993
Nuclear contribution   :     -3.738963893       3.025540525      -1.531706488
                        -----------------------------------------
Total Dipole Moment    :     -0.393079930       0.656857264      -0.163090495
                        -----------------------------------------
Magnitude (a.u.)       :      0.782669666
Magnitude (Debye)      :      1.989388192

Rotational constants in cm-1:             0.276959             0.070042             0.058606
Rotational constants in MHz :          8303.018555          2099.815648          1756.958968

                             ****ORCA TERMINATED NORMALLY****
TOTAL RUN TIME: 0 days 0 hours 0 minutes 6 seconds 413 msec
