                         Program Version 6.0.0  -   RELEASE  -
|  1> ! pbe def2-sv(p) def2/J RI DEFGRID1 loosescf d4 GCP(DFT/SV(P)) printgap
|  2> %output
|  3>     printlevel normal
|  4> end
|  5> * xyz 0 1
|  6> C -2.634590773 0.869184273 1.4132485737
|  7> C -1.5960752259 0.4699510684 0.4166111059
|  8> C -0.8356491774 1.3120428216 -0.2700940226
|  9> C 0.1618018123 0.7866750711 -1.2512760828
| 10> C 0.9812272554 -0.3890997772 -0.6742996978
| 11> H 1.3452002302 -0.9767963581 -1.5219761529
| 12> C 0.1271827903 -1.3060655174 0.2295541607
| 13> C -1.3795764462 -1.0049238646 0.1735246087
| 14> H -1.8814251541 -1.5893957917 0.9626019169
| 15> O -1.9583867627 -1.3419341486 -1.0793085687
| 16> C 2.1896422524 0.1044784336 0.0868139085
| 17> C 3.3963407214 -0.3807374397 -0.1626491857
| 18> C 1.9641533196 1.1579339933 1.1281231766
| 19> H -3.607125938 0.4844380065 1.1088383989
| 20> H -2.6916198419 1.9509685542 1.4951283519
| 21> H -2.4011022084 0.4506739853 2.3921212688
| 22> H -0.9329081039 2.3811163227 -0.1526834058
| 23> H -0.3842507694 0.4207996996 -2.1247371682
| 24> H 0.8398042326 1.5715398728 -1.5872252705
| 25> H 0.2958667346 -2.3495192603 -0.0427855432
| 26> H 0.4371891554 -1.1909087485 1.2693224075
| 27> H -1.7715427938 -2.2709639589 -1.2701614067
| 28> H 4.266284202 -0.0511944017 0.3803933544
| 29> H 3.5672487973 -1.1270332835 -0.9203468581
| 30> H 1.1036243267 0.9174277243 1.7478588442
| 31> H 2.8414832279 1.2655916927 1.7603091975
| 32> H 1.7646379294 2.1164890463 0.6521919988
| 33> *
| 34>
| 35>                          ****END OF INPUT****

CARTESIAN COORDINATES (ANGSTROEM)
---------------------------------
  C     -2.634591    0.869184    1.413249
  C     -1.596075    0.469951    0.416611
  C     -0.835649    1.312043   -0.270094
  C      0.161802    0.786675   -1.251276
  C      0.981227   -0.389100   -0.674300
  H      1.345200   -0.976796   -1.521976
  C      0.127183   -1.306066    0.229554
  C     -1.379576   -1.004924    0.173525
  H     -1.881425   -1.589396    0.962602
  O     -1.958387   -1.341934   -1.079309
  C      2.189642    0.104478    0.086814
  C      3.396341   -0.380737   -0.162649
  C      1.964153    1.157934    1.128123
  H     -3.607126    0.484438    1.108838
  H     -2.691620    1.950969    1.495128
  H     -2.401102    0.450674    2.392121
  H     -0.932908    2.381116   -0.152683
  H     -0.384251    0.420800   -2.124737
  H      0.839804    1.571540   -1.587225
  H      0.295867   -2.349519   -0.042786
  H      0.437189   -1.190909    1.269322
  H     -1.771543   -2.270964   -1.270161
  H      4.266284   -0.051194    0.380393
  H      3.567249   -1.127033   -0.920347
  H      1.103624    0.917428    1.747859
  H      2.841483    1.265592    1.760309
  H      1.764638    2.116489    0.652192

 Total Charge           Charge          ....    0
 Multiplicity           Mult            ....    1
 Number of Electrons    NEL             ....   84
 Basis Dimension        Dim             ....  186

ORBITAL ENERGIES
----------------

  NO   OCC          E(Eh)            E(eV)
   0   2.0000     -18.742162      -510.0002
   1   2.0000      -9.937970      -270.4259
   2   2.0000      -9.897137      -269.3148
   3   2.0000      -9.895783      -269.2779
   4   2.0000      -9.888472      -269.0790
   5   2.0000      -9.886458      -269.0242
   6   2.0000      -9.881107      -268.8786
   7   2.0000      -9.878751      -268.8145
   8   2.0000      -9.878521      -268.8082
   9   2.0000      -9.876741      -268.7598
  10   2.0000      -9.864489      -268.4264
  11   2.0000      -0.919712       -25.0266
  12   2.0000      -0.762601       -20.7514
  13   2.0000      -0.719675       -19.5834
  14   2.0000      -0.672266       -18.2933
  15   2.0000      -0.659376       -17.9425
  16   2.0000      -0.615840       -16.7579
  17   2.0000      -0.602630       -16.3984
  18   2.0000      -0.555680       -15.1208
  19   2.0000      -0.531994       -14.4763
  20   2.0000      -0.473961       -12.8971
  21   2.0000      -0.460399       -12.5281
  22   2.0000      -0.444190       -12.0870
  23   2.0000      -0.423777       -11.5316
  24   2.0000      -0.413749       -11.2587
  25   2.0000      -0.391036       -10.6406
  26   2.0000      -0.385931       -10.5017
  27   2.0000      -0.374923       -10.2022
  28   2.0000      -0.366930        -9.9847
  29   2.0000      -0.356113        -9.6903
  30   2.0000      -0.351031        -9.5520
  31   2.0000      -0.340037        -9.2529
  32   2.0000      -0.331845        -9.0300
  33   2.0000      -0.321420        -8.7463
  34   2.0000      -0.318119        -8.6565
  35   2.0000      -0.305845        -8.3225
  36   2.0000      -0.285345        -7.7646
  37   2.0000      -0.274414        -7.4672
  38   2.0000      -0.257369        -7.0034
  39   2.0000      -0.220620        -6.0034
  40   2.0000      -0.209540        -5.7019
  41   2.0000      -0.202851        -5.5198
  42   0.0000      -0.019405        -0.5280
  43   0.0000      -0.003577        -0.0973
  44   0.0000       0.021828         0.5940
  45   0.0000       0.044920         1.2223
  46   0.0000       0.057953         1.5770

MULLIKEN ATOMIC CHARGES
-----------------------
   0 C :   -0.208720
   1 C :   -0.023344
   2 C :   -0.252969
   3 C :    0.029187
   4 C :   -0.127596
   5 H :    0.049644
   6 C :   -0.085569
   7 C :    0.058520
   8 H :    0.039893
   9 O :   -0.424142
  10 C :   -0.088315
  11 C :   -0.233950
  12 C :   -0.190828
  13 H :    0.116237
  14 H :    0.096072
  15 H :    0.102983
  16 H :    0.041005
  17 H :    0.093772
  18 H :    0.085391
  19 H :    0.064405
  20 H :    0.089380
  21 H :    0.292586
  22 H :    0.078005
  23 H :    0.080327
  24 H :    0.109790
  25 H :    0.098407
  26 H :    0.109829
Sum of atomic charges:   -0.0000000

LOEWDIN ATOMIC CHARGES
----------------------
   0 C :   -0.321630
   1 C :   -0.072640
   2 C :   -0.135404
   3 C :   -0.215151
   4 C :   -0.121395
   5 H :    0.120038
   6 C :   -0.218745
   7 C :   -0.038774
   8 H :    0.095334
   9 O :   -0.329338
  10 C :   -0.048851
  11 C :   -0.270635
  12 C :   -0.323738
  13 H :    0.131481
  14 H :    0.122964
  15 H :    0.124422
  16 H :    0.115403
  17 H :    0.135860
  18 H :    0.120095
  19 H :    0.115056
  20 H :    0.125659
  21 H :    0.279813
  22 H :    0.114619
  23 H :    0.114765
  24 H :    0.125701
  25 H :    0.124032
  26 H :    0.131059

  Mayer bond orders larger than 0.100000
B(  0-C ,  1-C ) :   1.1502 B(  0-C , 13-H ) :   0.9280 B(  0-C , 14-H ) :   0.9442
B(  0-C , 15-H ) :   0.9276 B(  1-C ,  2-C ) :   1.8797 B(  1-C ,  7-C ) :   0.9980
B(  2-C ,  3-C ) :   1.0792 B(  2-C , 16-H ) :   0.9419 B(  3-C ,  4-C ) :   1.0967
B(  3-C , 17-H ) :   0.8508 B(  3-C , 18-H ) :   0.9151 B(  4-C ,  5-H ) :   0.8674
B(  4-C ,  6-C ) :   1.0555 B(  4-C , 10-C ) :   1.0228 B(  6-C ,  7-C ) :   1.0875
B(  6-C , 19-H ) :   0.8940 B(  6-C , 20-H ) :   0.9001 B(  7-C ,  8-H ) :   0.8950
B(  7-C ,  9-O ) :   1.0399 B(  9-O , 21-H ) :   0.8505 B( 10-C , 11-C ) :   2.0312
B( 10-C , 12-C ) :   1.1367 B( 11-C , 22-H ) :   0.9077 B( 11-C , 23-H ) :   0.9084
B( 12-C , 24-H ) :   0.9152 B( 12-C , 25-H ) :   0.9344 B( 12-C , 26-H ) :   0.9162

Dispersion correction           -0.029650644
FINAL SINGLE POINT ENERGY      -464.784410291358

DIPOLE MOMENT
-------------

Method             : SCF
Type of density    : Electron Density
Multiplicity       :   1
Irrep              :   0
Energy             :  -464.8728359642689156 Eh
Relativity type    :
Basis              : AO
                                X                 Y                 Z
Electronic contribution:     -2.563582780      -2.220743750      -3.603489832
Nuclear contribution   :      2.589723867       1.859467038       3.876307388
                        -----------------------------------------
Total Dipole Moment    :      0.026141087      -0.361276712       0.272817556
                        -----------------------------------------
Magnitude (a.u.)       :      0.453468453
Magnitude (Debye)      :      1.152625208

Rotational constants in cm-1:             0.061640             0.026836             0.023059
Rotational constants in MHz :          1847.931684           804.532517           691.295368

                             ****ORCA TERMINATED NORMALLY****
TOTAL RUN TIME: 0 days 0 hours 0 minutes 12 seconds 812 msec
