                         Program Version 6.0.0  -   RELEASE  -
|  1> ! pbe def2-sv(p) def2/J RI DEFGRID1 loosescf d4 GCP(DFT/SV(P)) printgap
|  2> %output
|  3>     printlevel normal
|  4> end
|  5> * xyz 0 1
|  6> C -2.770248978 -0.7793756095 2.56841e-05
|  7> O -1.7987642373 0.246615438 -1.20392e-05
|  8> C -0.4782820971 -0.1106194653 -9.1972e-06
|  9> C -0.0002490391 -1.4108283953 -1.14415e-05
| 10> C 1.3654346462 -1.6594560737 -3.266e-06
| 11> C 2.2630603757 -0.6126192091 6.629e-06
| 12> C 1.7972400205 0.6939300156 6.5116e-06
| 13> C 0.4392241073 0.9578425399 -2.005e-06
| 14> O -0.0648737576 2.2238294252 -3.5785e-06
| 15> H -3.7279129719 -0.2637987549 5.33971e-05
| 16> H -2.687683078 -1.4023961409 0.8948893357
| 17> H -2.6877417614 -1.4024064355 -0.8948364053
| 18> H -0.6862562224 -2.241867887 -1.88941e-05
| 19> H 1.7158346471 -2.6795511246 -5.258e-06
| 20> H 3.3248625659 -0.8010927075 1.19436e-05
| 21> H 2.4968657488 1.5167519392 1.01128e-05
| 22> H 0.6587810878 2.8691733068 -1.02229e-05
| 23> *
| 24>
| 25>                          ****END OF INPUT****

CARTESIAN COORDINATES (ANGSTROEM)
---------------------------------
  C     -2.770249   -0.779376    0.000026
  O     -1.798764    0.246615   -0.000012
  C     -0.478282   -0.110619   -0.000009
  C     -0.000249   -1.410828   -0.000011
  C      1.365435   -1.659456   -0.000003
  C      2.263060   -0.612619    0.000007
  C      1.797240    0.693930    0.000007
  C      0.439224    0.957843   -0.000002
  O     -0.064874    2.223829   -0.000004
  H     -3.727913   -0.263799    0.000053
  H     -2.687683   -1.402396    0.894889
  H     -2.687742   -1.402406   -0.894836
  H     -0.686256   -2.241868   -0.000019
  H      1.715835   -2.679551   -0.000005
  H      3.324863   -0.801093    0.000012
  H      2.496866    1.516752    0.000010
  H      0.658781    2.869173   -0.000010

 Total Charge           Charge          ....    0
 Multiplicity           Mult            ....    1
 Number of Electrons    NEL             ....   66
 Basis Dimension        Dim             ....  142

ORBITAL ENERGIES
----------------

  NO   OCC          E(Eh)            E(eV)
   0   2.0000     -18.780396      -511.0405
   1   2.0000     -18.777806      -510.9701
   2   2.0000      -9.946530      -270.6588
   3   2.0000      -9.943954      -270.5887
   4   2.0000      -9.936820      -270.3946
   5   2.0000      -9.887500      -269.0525
   6   2.0000      -9.886560      -269.0270
   7   2.0000      -9.883404      -268.9411
   8   2.0000      -9.882291      -268.9108
   9   2.0000      -0.968737       -26.3607
  10   2.0000      -0.949571       -25.8391
  11   2.0000      -0.765961       -20.8429
  12   2.0000      -0.679502       -18.4902
  13   2.0000      -0.663617       -18.0579
  14   2.0000      -0.620020       -16.8716
  15   2.0000      -0.563162       -15.3244
  16   2.0000      -0.527258       -14.3474
  17   2.0000      -0.495678       -13.4881
  18   2.0000      -0.467188       -12.7128
  19   2.0000      -0.434383       -11.8202
  20   2.0000      -0.416975       -11.3465
  21   2.0000      -0.410897       -11.1811
  22   2.0000      -0.388985       -10.5848
  23   2.0000      -0.375108       -10.2072
  24   2.0000      -0.361374        -9.8335
  25   2.0000      -0.342020        -9.3068
  26   2.0000      -0.321305        -8.7432
  27   2.0000      -0.298795        -8.1306
  28   2.0000      -0.296162        -8.0590
  29   2.0000      -0.276780        -7.5316
  30   2.0000      -0.276540        -7.5250
  31   2.0000      -0.209921        -5.7122
  32   2.0000      -0.175133        -4.7656
  33   0.0000      -0.020684        -0.5629
  34   0.0000      -0.011742        -0.3195
  35   0.0000       0.025616         0.6971
  36   0.0000       0.042240         1.1494
  37   0.0000       0.056235         1.5302

MULLIKEN ATOMIC CHARGES
-----------------------
   0 C :   -0.112793
   1 O :   -0.264418
   2 C :    0.210584
   3 C :   -0.220745
   4 C :   -0.047320
   5 C :   -0.048339
   6 C :   -0.193132
   7 C :    0.193244
   8 O :   -0.327982
   9 H :    0.125493
  10 H :    0.108990
  11 H :    0.108990
  12 H :    0.037163
  13 H :    0.045224
  14 H :    0.045643
  15 H :    0.022964
  16 H :    0.316433
Sum of atomic charges:   -0.0000000

LOEWDIN ATOMIC CHARGES
----------------------
   0 C :   -0.201167
   1 O :   -0.087752
   2 C :    0.012900
   3 C :   -0.172288
   4 C :   -0.142008
   5 C :   -0.139650
   6 C :   -0.176600
   7 C :    0.009134
   8 O :   -0.230136
   9 H :    0.122445
  10 H :    0.108199
  11 H :    0.108198
  12 H :    0.127023
  13 H :    0.121767
  14 H :    0.122039
  15 H :    0.120230
  16 H :    0.297664

  Mayer bond orders larger than 0.100000
B(  0-C ,  1-O ) :   0.9928 B(  0-C ,  9-H ) :   0.9589 B(  0-C , 10-H ) :   0.9413
B(  0-C , 11-H ) :   0.9413 B(  1-O ,  2-C ) :   1.1662 B(  2-C ,  3-C ) :   1.3406
B(  2-C ,  7-C ) :   1.3343 B(  3-C ,  4-C ) :   1.3134 B(  3-C , 12-H ) :   0.9691
B(  4-C ,  5-C ) :   1.3941 B(  4-C , 13-H ) :   0.9672 B(  5-C ,  6-C ) :   1.3205
B(  5-C , 14-H ) :   0.9665 B(  6-C ,  7-C ) :   1.3639 B(  6-C , 15-H ) :   0.9647
B(  7-C ,  8-O ) :   1.2149 B(  8-O , 16-H ) :   0.8414

Dispersion correction           -0.016731908
FINAL SINGLE POINT ENERGY      -421.088271141970

DIPOLE MOMENT
-------------

Method             : SCF
Type of density    : Electron Density
Multiplicity       :   1
Irrep              :   0
Energy             :  -421.1464389338294154 Eh
Relativity type    :
Basis              : AO
                                X                 Y                 Z
Electronic contribution:      1.585849079       4.036547461      -0.000076909
Nuclear contribution   :     -1.522347035      -4.096220444       0.000087965
                        -----------------------------------------
Total Dipole Moment    :      0.063502044      -0.059672983       0.000011056
                        -----------------------------------------
Magnitude (a.u.)       :      0.087139971
Magnitude (Debye)      :      0.221492204

Rotational constants in cm-1:             0.086440             0.052143             0.032728
Rotational constants in MHz :          2591.409106          1563.202100           981.147988

                             ****ORCA TERMINATED NORMALLY****
TOTAL RUN TIME: 0 days 0 hours 0 minutes 9 seconds 115 msec
