                         Program Version 6.0.0  -   RELEASE  -
|  1> ! wb97x-v def2-tzvp def2/J RIJCOSX DEFGRID2 scfconv7 GCP(DFT/TZ) printgap
|  2> %output
|  3>     printlevel normal
|  4> end
|  5> * xyz 0 1
|  6> C -3.5505720341015863 -0.29819114728218077 -0.0002315937417195679
|  7> C -2.8745033206541777 -1.528867846911547 0.00024000578914583118
|  8> C -1.4940406109286901 -1.5709089908457892 0.000416362215323333
|  9> C -0.725851760669925 -0.38708190852719093 0.00012463203874209017
| 10> C -1.4170609087076518 0.8595652298410632 -0.00013577771638619704
| 11> C -2.8284598979010576 0.8756997751607154 -0.00036652015399437667
| 12> C -0.6793667405820178 2.0841862971159646 -9.282049112672566e-05
| 13> C 0.6793544825567632 2.0841892074953505 0.00013191489143941728
| 14> C 1.4170532748069105 0.8595711290584577 0.00014444078751563587
| 15> C 0.7258490942901771 -0.3870783232198764 6.814292373652942e-05
| 16> C 1.4940418078323099 -1.5709032596516792 -0.00018275243439645563
| 17> C 2.8745041175738684 -1.5288582101984518 -0.0002887605036988084
| 18> C 3.55056812533177 -0.2981786711256508 -0.00012245837221197073
| 19> C 2.8284522350942014 0.8757098557023892 9.650715936724233e-05
| 20> H -4.635636659033072 -0.2741029588896634 -0.00043477267210397956
| 21> H -3.439459120608066 -2.455731448912507 0.00047643497373561186
| 22> H -1.0051286876210508 -2.5379751963366877 0.000835034545631684
| 23> H -3.336034977209287 1.8363072311153696 -0.0006505020821745701
| 24> H -1.2343598293789981 3.018058023410084 -0.00019829796448901483
| 25> H 1.234342647021924 3.018063702708833 0.0002388750963638375
| 26> H 1.005130149623752 -2.5379696696020786 -0.0003967761374777759
| 27> H 3.439463366122637 -2.455719740984743 -0.0005294984744086028
| 28> H 4.635632662342543 -0.27408593226827815 -0.00019536965006532588
| 29> H 3.336025621653277 1.836318101022513 0.0001730592996806712
| 30> *
| 31>
| 32>                          ****END OF INPUT****

CARTESIAN COORDINATES (ANGSTROEM)
---------------------------------
  C     -3.550572   -0.298191   -0.000232
  C     -2.874503   -1.528868    0.000240
  C     -1.494041   -1.570909    0.000416
  C     -0.725852   -0.387082    0.000125
  C     -1.417061    0.859565   -0.000136
  C     -2.828460    0.875700   -0.000367
  C     -0.679367    2.084186   -0.000093
  C      0.679354    2.084189    0.000132
  C      1.417053    0.859571    0.000144
  C      0.725849   -0.387078    0.000068
  C      1.494042   -1.570903   -0.000183
  C      2.874504   -1.528858   -0.000289
  C      3.550568   -0.298179   -0.000122
  C      2.828452    0.875710    0.000097
  H     -4.635637   -0.274103   -0.000435
  H     -3.439459   -2.455731    0.000476
  H     -1.005129   -2.537975    0.000835
  H     -3.336035    1.836307   -0.000651
  H     -1.234360    3.018058   -0.000198
  H      1.234343    3.018064    0.000239
  H      1.005130   -2.537970   -0.000397
  H      3.439463   -2.455720   -0.000529
  H      4.635633   -0.274086   -0.000195
  H      3.336026    1.836318    0.000173

 Total Charge           Charge          ....    0
 Multiplicity           Mult            ....    1
 Number of Electrons    NEL             ....   94
 Basis Dimension        Dim             ....  494

ORBITAL ENERGIES
----------------

  NO   OCC          E(Eh)            E(eV)
   0   2.0000     -12.067861      -328.3832
   1   2.0000     -12.066441      -328.3446
   2   2.0000     -12.063387      -328.2615
   3   2.0000     -12.063340      -328.2602
   4   2.0000     -12.055981      -328.0599
   5   2.0000     -12.055709      -328.0525
   6   2.0000     -12.055667      -328.0514
   7   2.0000     -12.055210      -328.0389
   8   2.0000     -12.055195      -328.0385
   9   2.0000     -12.054005      -328.0061
  10   2.0000     -12.053731      -327.9987
  11   2.0000     -12.053504      -327.9925
  12   2.0000     -12.052344      -327.9609
  13   2.0000     -12.052298      -327.9597
  14   2.0000      -1.411806       -38.4172
  15   2.0000      -1.378832       -37.5199
  16   2.0000      -1.338268       -36.4161
  17   2.0000      -1.306441       -35.5501
  18   2.0000      -1.287571       -35.0366
  19   2.0000      -1.256996       -34.2046
  20   2.0000      -1.248927       -33.9850
  21   2.0000      -1.143268       -31.1099
  22   2.0000      -1.139837       -31.0166
  23   2.0000      -1.114886       -30.3376
  24   2.0000      -1.086163       -29.5560
  25   2.0000      -1.031462       -28.0675
  26   2.0000      -0.997106       -27.1326
  27   2.0000      -0.981870       -26.7180
  28   2.0000      -0.962964       -26.2036
  29   2.0000      -0.939334       -25.5606
  30   2.0000      -0.934316       -25.4240
  31   2.0000      -0.901936       -24.5429
  32   2.0000      -0.890992       -24.2451
  33   2.0000      -0.890353       -24.2277
  34   2.0000      -0.888674       -24.1821
  35   2.0000      -0.856576       -23.3086
  36   2.0000      -0.834756       -22.7149
  37   2.0000      -0.833085       -22.6694
  38   2.0000      -0.811866       -22.0920
  39   2.0000      -0.809623       -22.0310
  40   2.0000      -0.797057       -21.6890
  41   2.0000      -0.765212       -20.8225
  42   2.0000      -0.714412       -19.4401
  43   2.0000      -0.679033       -18.4774
  44   2.0000      -0.654677       -17.8147
  45   2.0000      -0.611360       -16.6360
  46   2.0000      -0.596518       -16.2321
  47   0.0000      -0.290076        -7.8934
  48   0.0000      -0.282058        -7.6752
  49   0.0000      -0.232533        -6.3275
  50   0.0000      -0.203152        -5.5280
  51   0.0000      -0.152401        -4.1470

MULLIKEN ATOMIC CHARGES
-----------------------
   0 C :   -0.125666
   1 C :   -0.104950
   2 C :   -0.234989
   3 C :    0.140352
   4 C :    0.153484
   5 C :   -0.172497
   6 C :   -0.218779
   7 C :   -0.218858
   8 C :    0.153830
   9 C :    0.139795
  10 C :   -0.234179
  11 C :   -0.105160
  12 C :   -0.125488
  13 C :   -0.173087
  14 H :    0.117513
  15 H :    0.117277
  16 H :    0.103046
  17 H :    0.114187
  18 H :    0.111101
  19 H :    0.111072
  20 H :    0.103080
  21 H :    0.117210
  22 H :    0.117532
  23 H :    0.114174
Sum of atomic charges:   -0.0000000

LOEWDIN ATOMIC CHARGES
----------------------
   0 C :   -0.140090
   1 C :   -0.139014
   2 C :   -0.096544
   3 C :   -0.050533
   4 C :   -0.091161
   5 C :   -0.100335
   6 C :   -0.101876
   7 C :   -0.101877
   8 C :   -0.091161
   9 C :   -0.050535
  10 C :   -0.096542
  11 C :   -0.139014
  12 C :   -0.140090
  13 C :   -0.100336
  14 H :    0.142078
  15 H :    0.142209
  16 H :    0.143461
  17 H :    0.145373
  18 H :    0.146433
  19 H :    0.146434
  20 H :    0.143460
  21 H :    0.142208
  22 H :    0.142079
  23 H :    0.145373

  Mayer bond orders larger than 0.100000
B(  0-C ,  1-C ) :   1.3167 B(  0-C ,  5-C ) :   1.5128 B(  0-C , 14-H ) :   0.9766
B(  1-C ,  2-C ) :   1.5436 B(  1-C , 15-H ) :   0.9752 B(  2-C ,  3-C ) :   1.2913
B(  2-C , 16-H ) :   0.9722 B(  3-C ,  4-C ) :   1.3258 B(  3-C ,  9-C ) :   1.0398
B(  4-C ,  5-C ) :   1.2731 B(  4-C ,  6-C ) :   1.1108 B(  5-C , 17-H ) :   0.9808
B(  6-C ,  7-C ) :   1.6782 B(  6-C , 18-H ) :   0.9899 B(  7-C ,  8-C ) :   1.1108
B(  7-C , 19-H ) :   0.9901 B(  8-C ,  9-C ) :   1.3261 B(  8-C , 13-C ) :   1.2726
B(  9-C , 10-C ) :   1.2922 B( 10-C , 11-C ) :   1.5434 B( 10-C , 20-H ) :   0.9717
B( 11-C , 12-C ) :   1.3167 B( 11-C , 21-H ) :   0.9753 B( 12-C , 13-C ) :   1.5127
B( 12-C , 22-H ) :   0.9767 B( 13-C , 23-H ) :   0.9811

FINAL SINGLE POINT ENERGY      -539.557673664752

DIPOLE MOMENT
-------------

Method             : SCF
Type of density    : Electron Density
Multiplicity       :   1
Irrep              :   0
Energy             :  -539.5694789569520253 Eh
Relativity type    :
Basis              : AO
                                X                 Y                 Z
Electronic contribution:      0.000003223       0.769748806       0.000401042
Nuclear contribution   :     -0.000001658      -0.775379898      -0.000477876
                        -----------------------------------------
Total Dipole Moment    :      0.000001565      -0.005631092      -0.000076833
                        -----------------------------------------
Magnitude (a.u.)       :      0.005631616
Magnitude (Debye)      :      0.014314431

Rotational constants in cm-1:             0.054007             0.018447             0.013751
Rotational constants in MHz :          1619.085409           553.040580           412.232049

                             ****ORCA TERMINATED NORMALLY****
TOTAL RUN TIME: 0 days 0 hours 6 minutes 23 seconds 927 msec
