                         Program Version 6.0.0  -   RELEASE  -
|  1> ! wb97x-v def2-tzvp def2/J RIJCOSX DEFGRID2 scfconv7 GCP(DFT/TZ) printgap
|  2> %output
|  3>     printlevel normal
|  4> end
|  5> %cpcm
|  6>     smd true
|  7>     smdsolvent "water"
|  8> end
|  9> * xyz 0 1
| 10> C -3.5505720341015863 -0.29819114728218077 -0.0002315937417195679
| 11> C -2.8745033206541777 -1.528867846911547 0.00024000578914583118
| 12> C -1.4940406109286901 -1.5709089908457892 0.000416362215323333
| 13> C -0.725851760669925 -0.38708190852719093 0.00012463203874209017
| 14> C -1.4170609087076518 0.8595652298410632 -0.00013577771638619704
| 15> C -2.8284598979010576 0.8756997751607154 -0.00036652015399437667
| 16> C -0.6793667405820178 2.0841862971159646 -9.282049112672566e-05
| 17> C 0.6793544825567632 2.0841892074953505 0.00013191489143941728
| 18> C 1.4170532748069105 0.8595711290584577 0.00014444078751563587
| 19> C 0.7258490942901771 -0.3870783232198764 6.814292373652942e-05
| 20> C 1.4940418078323099 -1.5709032596516792 -0.00018275243439645563
| 21> C 2.8745041175738684 -1.5288582101984518 -0.0002887605036988084
| 22> C 3.55056812533177 -0.2981786711256508 -0.00012245837221197073
| 23> C 2.8284522350942014 0.8757098557023892 9.650715936724233e-05
| 24> H -4.635636659033072 -0.2741029588896634 -0.00043477267210397956
| 25> H -3.439459120608066 -2.455731448912507 0.00047643497373561186
| 26> H -1.0051286876210508 -2.5379751963366877 0.000835034545631684
| 27> H -3.336034977209287 1.8363072311153696 -0.0006505020821745701
| 28> H -1.2343598293789981 3.018058023410084 -0.00019829796448901483
| 29> H 1.234342647021924 3.018063702708833 0.0002388750963638375
| 30> H 1.005130149623752 -2.5379696696020786 -0.0003967761374777759
| 31> H 3.439463366122637 -2.455719740984743 -0.0005294984744086028
| 32> H 4.635632662342543 -0.27408593226827815 -0.00019536965006532588
| 33> H 3.336025621653277 1.836318101022513 0.0001730592996806712
| 34> *
| 35>
| 36>                          ****END OF INPUT****

CARTESIAN COORDINATES (ANGSTROEM)
---------------------------------
  C     -3.550572   -0.298191   -0.000232
  C     -2.874503   -1.528868    0.000240
  C     -1.494041   -1.570909    0.000416
  C     -0.725852   -0.387082    0.000125
  C     -1.417061    0.859565   -0.000136
  C     -2.828460    0.875700   -0.000367
  C     -0.679367    2.084186   -0.000093
  C      0.679354    2.084189    0.000132
  C      1.417053    0.859571    0.000144
  C      0.725849   -0.387078    0.000068
  C      1.494042   -1.570903   -0.000183
  C      2.874504   -1.528858   -0.000289
  C      3.550568   -0.298179   -0.000122
  C      2.828452    0.875710    0.000097
  H     -4.635637   -0.274103   -0.000435
  H     -3.439459   -2.455731    0.000476
  H     -1.005129   -2.537975    0.000835
  H     -3.336035    1.836307   -0.000651
  H     -1.234360    3.018058   -0.000198
  H      1.234343    3.018064    0.000239
  H      1.005130   -2.537970   -0.000397
  H      3.439463   -2.455720   -0.000529
  H      4.635633   -0.274086   -0.000195
  H      3.336026    1.836318    0.000173

 Total Charge           Charge          ....    0
 Multiplicity           Mult            ....    1
 Number of Electrons    NEL             ....   94
 Basis Dimension        Dim             ....  494

ORBITAL ENERGIES
----------------

  NO   OCC          E(Eh)            E(eV)
   0   2.0000     -12.068146      -328.3909
   1   2.0000     -12.066673      -328.3509
   2   2.0000     -12.063168      -328.2555
   3   2.0000     -12.063156      -328.2552
   4   2.0000     -12.052751      -327.9720
   5   2.0000     -12.052430      -327.9633
   6   2.0000     -12.052365      -327.9615
   7   2.0000     -12.051962      -327.9505
   8   2.0000     -12.051925      -327.9496
   9   2.0000     -12.050742      -327.9174
  10   2.0000     -12.050454      -327.9095
  11   2.0000     -12.050273      -327.9046
  12   2.0000     -12.048981      -327.8694
  13   2.0000     -12.048954      -327.8687
  14   2.0000      -1.411917       -38.4202
  15   2.0000      -1.378157       -37.5016
  16   2.0000      -1.336903       -36.3790
  17   2.0000      -1.305533       -35.5254
  18   2.0000      -1.286201       -34.9993
  19   2.0000      -1.255769       -34.1712
  20   2.0000      -1.247222       -33.9386
  21   2.0000      -1.141509       -31.0620
  22   2.0000      -1.137830       -30.9619
  23   2.0000      -1.112767       -30.2799
  24   2.0000      -1.083782       -29.4912
  25   2.0000      -1.028558       -27.9885
  26   2.0000      -0.994974       -27.0746
  27   2.0000      -0.979644       -26.6575
  28   2.0000      -0.959798       -26.1174
  29   2.0000      -0.937681       -25.5156
  30   2.0000      -0.929825       -25.3018
  31   2.0000      -0.898747       -24.4561
  32   2.0000      -0.885893       -24.1064
  33   2.0000      -0.885687       -24.1008
  34   2.0000      -0.884126       -24.0583
  35   2.0000      -0.851613       -23.1736
  36   2.0000      -0.830336       -22.5946
  37   2.0000      -0.828658       -22.5489
  38   2.0000      -0.811173       -22.0731
  39   2.0000      -0.807818       -21.9818
  40   2.0000      -0.792940       -21.5770
  41   2.0000      -0.765816       -20.8389
  42   2.0000      -0.714209       -19.4346
  43   2.0000      -0.679563       -18.4918
  44   2.0000      -0.654788       -17.8177
  45   2.0000      -0.611788       -16.6476
  46   2.0000      -0.596206       -16.2236
  47   0.0000      -0.289614        -7.8808
  48   0.0000      -0.282321        -7.6823
  49   0.0000      -0.232336        -6.3222
  50   0.0000      -0.203181        -5.5288
  51   0.0000      -0.151302        -4.1171

MULLIKEN ATOMIC CHARGES
-----------------------
   0 C :   -0.164344
   1 C :   -0.146304
   2 C :   -0.278525
   3 C :    0.127464
   4 C :    0.132229
   5 C :   -0.211689
   6 C :   -0.257312
   7 C :   -0.257368
   8 C :    0.132529
   9 C :    0.126860
  10 C :   -0.277708
  11 C :   -0.146499
  12 C :   -0.164185
  13 C :   -0.212241
  14 H :    0.161528
  15 H :    0.162026
  16 H :    0.155708
  17 H :    0.161175
  18 H :    0.158140
  19 H :    0.158114
  20 H :    0.155737
  21 H :    0.161957
  22 H :    0.161544
  23 H :    0.161164
Sum of atomic charges:   -0.0000000

LOEWDIN ATOMIC CHARGES
----------------------
   0 C :   -0.146753
   1 C :   -0.145880
   2 C :   -0.102945
   3 C :   -0.062738
   4 C :   -0.102868
   5 C :   -0.106035
   6 C :   -0.107184
   7 C :   -0.107184
   8 C :   -0.102867
   9 C :   -0.062739
  10 C :   -0.102943
  11 C :   -0.145880
  12 C :   -0.146753
  13 C :   -0.106035
  14 H :    0.152020
  15 H :    0.152244
  16 H :    0.155613
  17 H :    0.156710
  18 H :    0.157816
  19 H :    0.157816
  20 H :    0.155612
  21 H :    0.152244
  22 H :    0.152021
  23 H :    0.156710

  Mayer bond orders larger than 0.100000
B(  0-C ,  1-C ) :   1.2967 B(  0-C ,  5-C ) :   1.4900 B(  0-C , 14-H ) :   0.9806
B(  1-C ,  2-C ) :   1.5180 B(  1-C , 15-H ) :   0.9792 B(  2-C ,  3-C ) :   1.2773
B(  2-C , 16-H ) :   0.9776 B(  3-C ,  4-C ) :   1.2989 B(  3-C ,  9-C ) :   1.0463
B(  4-C ,  5-C ) :   1.2637 B(  4-C ,  6-C ) :   1.0995 B(  5-C , 17-H ) :   0.9857
B(  6-C ,  7-C ) :   1.6534 B(  6-C , 18-H ) :   0.9991 B(  7-C ,  8-C ) :   1.0996
B(  7-C , 19-H ) :   0.9993 B(  8-C ,  9-C ) :   1.2992 B(  8-C , 13-C ) :   1.2632
B(  9-C , 10-C ) :   1.2783 B( 10-C , 11-C ) :   1.5178 B( 10-C , 20-H ) :   0.9772
B( 11-C , 12-C ) :   1.2966 B( 11-C , 21-H ) :   0.9793 B( 12-C , 13-C ) :   1.4900
B( 12-C , 22-H ) :   0.9807 B( 13-C , 23-H ) :   0.9859

FINAL SINGLE POINT ENERGY      -539.563228536530

DIPOLE MOMENT
-------------

Method             : SCF
Type of density    : Electron Density
Multiplicity       :   1
Irrep              :   0
Energy             :  -539.5750338287302839 Eh
Relativity type    :
Basis              : AO
                                X                 Y                 Z
Electronic contribution:      0.000005751       0.766314832       0.000371589
Nuclear contribution   :     -0.000001658      -0.775379898      -0.000477876
                        -----------------------------------------
Total Dipole Moment    :      0.000004094      -0.009065066      -0.000106287
                        -----------------------------------------
Magnitude (a.u.)       :      0.009065690
Magnitude (Debye)      :      0.023043152

Rotational constants in cm-1:             0.054007             0.018447             0.013751
Rotational constants in MHz :          1619.085409           553.040580           412.232049

                             ****ORCA TERMINATED NORMALLY****
TOTAL RUN TIME: 0 days 0 hours 6 minutes 16 seconds 684 msec
