                         Program Version 6.0.0  -   RELEASE  -
|  1> ! pbe def2-sv(p) def2/J RI DEFGRID1 loosescf d4 GCP(DFT/SV(P)) printgap
|  2> %output
|  3>     printlevel normal
|  4> end
|  5> * xyz 0 1
|  6> C -2.0789205859 -1.2411230212 -0.1771675897
|  7> C -1.2413722673 -0.3622283561 0.7773731535
|  8> H -1.8216750945 -0.2027431504 1.6920812233
|  9> C -0.9311400597 1.0188657197 0.1471902381
| 10> H -1.2189315692 0.9920841172 -0.9153578762
| 11> C 0.5726531405 1.2955997893 0.2251153404
| 12> H 0.8606631059 1.4110665228 1.2758807863
| 13> C 1.3316508307 0.1074704621 -0.3852865275
| 14> H 1.0060799719 -0.0321715019 -1.4292607516
| 15> C 1.013373426 -1.173560808 0.4000699225
| 16> H 1.8629629987 -1.3815966135 1.0635345113
| 17> O -0.0790406025 -1.0288580316 1.2689346372
| 18> O 0.8237196565 -2.2186132225 -0.509543388
| 19> O 2.7187944139 0.3179562669 -0.3453838565
| 20> O 0.9548449503 2.4889602407 -0.4061171257
| 21> O -1.5978936872 2.0637922374 0.8138480316
| 22> O -1.5959195416 -1.2792875869 -1.4968005603
| 23> H -3.084888098 -0.8221046664 -0.2431989254
| 24> H -2.1439785208 -2.2488702956 0.2485062954
| 25> H 0.8827813732 -3.0747426042 -0.0582328649
| 26> H 2.8837750327 1.2589749153 -0.5264319583
| 27> H 0.5093466139 2.5681966019 -1.2628816811
| 28> H -2.5410220065 2.0476243601 0.6003083363
| 29> H -0.7387300677 -1.7453761687 -1.4944594856
| 30> *
| 31>
| 32>                          ****END OF INPUT****

CARTESIAN COORDINATES (ANGSTROEM)
---------------------------------
  C     -2.078921   -1.241123   -0.177168
  C     -1.241372   -0.362228    0.777373
  H     -1.821675   -0.202743    1.692081
  C     -0.931140    1.018866    0.147190
  H     -1.218932    0.992084   -0.915358
  C      0.572653    1.295600    0.225115
  H      0.860663    1.411067    1.275881
  C      1.331651    0.107470   -0.385287
  H      1.006080   -0.032172   -1.429261
  C      1.013373   -1.173561    0.400070
  H      1.862963   -1.381597    1.063535
  O     -0.079041   -1.028858    1.268935
  O      0.823720   -2.218613   -0.509543
  O      2.718794    0.317956   -0.345384
  O      0.954845    2.488960   -0.406117
  O     -1.597894    2.063792    0.813848
  O     -1.595920   -1.279288   -1.496801
  H     -3.084888   -0.822105   -0.243199
  H     -2.143979   -2.248870    0.248506
  H      0.882781   -3.074743   -0.058233
  H      2.883775    1.258975   -0.526432
  H      0.509347    2.568197   -1.262882
  H     -2.541022    2.047624    0.600308
  H     -0.738730   -1.745376   -1.494459

 Total Charge           Charge          ....    0
 Multiplicity           Mult            ....    1
 Number of Electrons    NEL             ....   96
 Basis Dimension        Dim             ....  192

ORBITAL ENERGIES
----------------

  NO   OCC          E(Eh)            E(eV)
   0   2.0000     -18.786901      -511.2176
   1   2.0000     -18.770459      -510.7701
   2   2.0000     -18.761552      -510.5278
   3   2.0000     -18.754462      -510.3349
   4   2.0000     -18.746580      -510.1204
   5   2.0000     -18.742139      -509.9995
   6   2.0000      -9.993018      -271.9238
   7   2.0000      -9.945796      -270.6389
   8   2.0000      -9.944474      -270.6029
   9   2.0000      -9.943748      -270.5831
  10   2.0000      -9.942130      -270.5391
  11   2.0000      -9.934243      -270.3245
  12   2.0000      -0.990295       -26.9473
  13   2.0000      -0.950418       -25.8622
  14   2.0000      -0.932971       -25.3874
  15   2.0000      -0.923347       -25.1256
  16   2.0000      -0.916727       -24.9454
  17   2.0000      -0.915290       -24.9063
  18   2.0000      -0.704775       -19.1779
  19   2.0000      -0.695554       -18.9270
  20   2.0000      -0.627464       -17.0742
  21   2.0000      -0.581115       -15.8129
  22   2.0000      -0.577152       -15.7051
  23   2.0000      -0.527953       -14.3663
  24   2.0000      -0.510976       -13.9044
  25   2.0000      -0.497076       -13.5261
  26   2.0000      -0.467621       -12.7246
  27   2.0000      -0.461777       -12.5656
  28   2.0000      -0.443230       -12.0609
  29   2.0000      -0.437803       -11.9132
  30   2.0000      -0.408122       -11.1056
  31   2.0000      -0.405935       -11.0460
  32   2.0000      -0.393468       -10.7068
  33   2.0000      -0.380692       -10.3592
  34   2.0000      -0.361672        -9.8416
  35   2.0000      -0.356819        -9.7095
  36   2.0000      -0.344371        -9.3708
  37   2.0000      -0.311728        -8.4826
  38   2.0000      -0.302478        -8.2308
  39   2.0000      -0.288447        -7.8490
  40   2.0000      -0.277581        -7.5534
  41   2.0000      -0.275256        -7.4901
  42   2.0000      -0.268118        -7.2959
  43   2.0000      -0.245675        -6.6852
  44   2.0000      -0.240154        -6.5349
  45   2.0000      -0.231663        -6.3039
  46   2.0000      -0.214683        -5.8418
  47   2.0000      -0.199422        -5.4266
  48   0.0000       0.010623         0.2891
  49   0.0000       0.013053         0.3552
  50   0.0000       0.028183         0.7669
  51   0.0000       0.046416         1.2631
  52   0.0000       0.059040         1.6066

MULLIKEN ATOMIC CHARGES
-----------------------
   0 C :    0.028506
   1 C :    0.033970
   2 H :    0.069055
   3 C :    0.013945
   4 H :    0.060004
   5 C :    0.067793
   6 H :    0.076095
   7 C :    0.023327
   8 H :    0.047588
   9 C :    0.204359
  10 H :    0.081063
  11 O :   -0.308327
  12 O :   -0.403225
  13 O :   -0.416822
  14 O :   -0.412064
  15 O :   -0.397631
  16 O :   -0.447259
  17 H :    0.077195
  18 H :    0.074789
  19 H :    0.314790
  20 H :    0.302892
  21 H :    0.300401
  22 H :    0.301799
  23 H :    0.307759
Sum of atomic charges:   -0.0000000

LOEWDIN ATOMIC CHARGES
----------------------
   0 C :   -0.136870
   1 C :   -0.077668
   2 H :    0.121997
   3 C :   -0.082554
   4 H :    0.102313
   5 C :   -0.074905
   6 H :    0.125233
   7 C :   -0.085896
   8 H :    0.099908
   9 C :   -0.000517
  10 H :    0.113030
  11 O :   -0.144947
  12 O :   -0.298413
  13 O :   -0.320603
  14 O :   -0.302681
  15 O :   -0.315548
  16 O :   -0.349224
  17 H :    0.111264
  18 H :    0.100329
  19 H :    0.293814
  20 H :    0.281243
  21 H :    0.286791
  22 H :    0.286769
  23 H :    0.267134

  Mayer bond orders larger than 0.100000
B(  0-C ,  1-C ) :   1.0183 B(  0-C , 16-O ) :   1.0962 B(  0-C , 17-H ) :   0.9216
B(  0-C , 18-H ) :   0.9110 B(  1-C ,  2-H ) :   0.8831 B(  1-C ,  3-C ) :   0.9852
B(  1-C , 11-O ) :   1.0162 B(  3-C ,  4-H ) :   0.8690 B(  3-C ,  5-C ) :   1.0238
B(  3-C , 15-O ) :   1.0997 B(  5-C ,  6-H ) :   0.8591 B(  5-C ,  7-C ) :   1.0065
B(  5-C , 14-O ) :   1.0423 B(  7-C ,  8-H ) :   0.8695 B(  7-C ,  9-C ) :   0.9889
B(  7-C , 13-O ) :   1.0955 B(  9-C , 10-H ) :   0.8862 B(  9-C , 11-O ) :   1.0826
B(  9-C , 12-O ) :   1.0683 B( 12-O , 19-H ) :   0.8345 B( 12-O , 23-H ) :   0.1109
B( 13-O , 20-H ) :   0.8249 B( 14-O , 21-H ) :   0.8455 B( 15-O , 22-H ) :   0.8492
B( 16-O , 23-H ) :   0.7881

Dispersion correction           -0.025221781
FINAL SINGLE POINT ENERGY      -685.696735381554

DIPOLE MOMENT
-------------

Method             : SCF
Type of density    : Electron Density
Multiplicity       :   1
Irrep              :   0
Energy             :  -685.8286952473198426 Eh
Relativity type    :
Basis              : AO
                                X                 Y                 Z
Electronic contribution:      2.736637202       0.708255174       0.871593955
Nuclear contribution   :     -3.306374464      -1.148533402      -0.994621867
                        -----------------------------------------
Total Dipole Moment    :     -0.569737261      -0.440278228      -0.123027912
                        -----------------------------------------
Magnitude (a.u.)       :      0.730466517
Magnitude (Debye)      :      1.856698331

Rotational constants in cm-1:             0.036100             0.032432             0.021419
Rotational constants in MHz :          1082.264909           972.295306           642.127713

                             ****ORCA TERMINATED NORMALLY****
TOTAL RUN TIME: 0 days 0 hours 0 minutes 12 seconds 424 msec
