                         Program Version 6.0.0  -   RELEASE  -
|  1> ! r2scan-3c def2/J RI DEFGRID2 scfconv6 printgap
|  2> %output
|  3>     printlevel normal
|  4> end
|  5> * xyz 0 1
|  6> C -2.0809558815 0.0098216427 0.1313951743
|  7> C -0.7652492041 0.6382625003 -0.3146080406
|  8> C 0.4703298327 0.0009424916 0.3316266708
|  9> C 0.6725927301 -1.4399800641 -0.1322352637
| 10> C 1.7130275767 0.8294201892 0.0074491711
| 11> H -2.9200374896 0.559243344 -0.289014467
| 12> H -2.1648964287 0.0329530026 1.2158502136
| 13> H -2.1548691887 -1.0229606252 -0.1981769427
| 14> H -0.6774185238 0.5645842325 -1.4011042211
| 15> H -0.7811266686 1.7001177909 -0.0569105897
| 16> H 0.3284083565 0.0002561268 1.4186980165
| 17> H 1.5771849883 -1.8536033303 0.3078063116
| 18> H 0.7700180477 -1.4774137145 -1.2153146251
| 19> H -0.1635306267 -2.0678936938 0.1624531401
| 20> H 1.5991971467 1.8507411849 0.3637250622
| 21> H 1.8774602544 0.8572796026 -1.0677027572
| 22> H 2.5934797188 0.3982932119 0.4781227996
| 23> *
| 24>
| 25>                          ****END OF INPUT****

CARTESIAN COORDINATES (ANGSTROEM)
---------------------------------
  C     -2.080956    0.009822    0.131395
  C     -0.765249    0.638263   -0.314608
  C      0.470330    0.000942    0.331627
  C      0.672593   -1.439980   -0.132235
  C      1.713028    0.829420    0.007449
  H     -2.920037    0.559243   -0.289014
  H     -2.164896    0.032953    1.215850
  H     -2.154869   -1.022961   -0.198177
  H     -0.677419    0.564584   -1.401104
  H     -0.781127    1.700118   -0.056911
  H      0.328408    0.000256    1.418698
  H      1.577185   -1.853603    0.307806
  H      0.770018   -1.477414   -1.215315
  H     -0.163531   -2.067894    0.162453
  H      1.599197    1.850741    0.363725
  H      1.877460    0.857280   -1.067703
  H      2.593480    0.398293    0.478123

 Total Charge           Charge          ....    0
 Multiplicity           Mult            ....    1
 Number of Electrons    NEL             ....   42
 Basis Dimension        Dim             ....  155

ORBITAL ENERGIES
----------------

  NO   OCC          E(Eh)            E(eV)
   0   2.0000     -10.029246      -272.9097
   1   2.0000     -10.020137      -272.6618
   2   2.0000     -10.013396      -272.4784
   3   2.0000     -10.012050      -272.4417
   4   2.0000     -10.011685      -272.4318
   5   2.0000      -0.775520       -21.1030
   6   2.0000      -0.698244       -19.0002
   7   2.0000      -0.647015       -17.6062
   8   2.0000      -0.588440       -16.0123
   9   2.0000      -0.520732       -14.1698
  10   2.0000      -0.433185       -11.7876
  11   2.0000      -0.411832       -11.2065
  12   2.0000      -0.398291       -10.8381
  13   2.0000      -0.377572       -10.2743
  14   2.0000      -0.352384        -9.5889
  15   2.0000      -0.347947        -9.4681
  16   2.0000      -0.326060        -8.8725
  17   2.0000      -0.315704        -8.5907
  18   2.0000      -0.289500        -7.8777
  19   2.0000      -0.286036        -7.7834
  20   2.0000      -0.281078        -7.6485
  21   0.0000       0.088478         2.4076
  22   0.0000       0.113411         3.0861
  23   0.0000       0.131283         3.5724
  24   0.0000       0.135183         3.6785
  25   0.0000       0.137952         3.7539

MULLIKEN ATOMIC CHARGES
-----------------------
   0 C :   -0.498902
   1 C :   -0.223107
   2 C :   -0.027806
   3 C :   -0.498231
   4 C :   -0.471029
   5 H :    0.145905
   6 H :    0.144477
   7 H :    0.147663
   8 H :    0.135720
   9 H :    0.136947
  10 H :    0.137182
  11 H :    0.142392
  12 H :    0.148001
  13 H :    0.148411
  14 H :    0.144200
  15 H :    0.143255
  16 H :    0.144920
Sum of atomic charges:   -0.0000000

LOEWDIN ATOMIC CHARGES
----------------------
   0 C :   -0.424667
   1 C :   -0.313205
   2 C :   -0.251517
   3 C :   -0.418256
   4 C :   -0.418685
   5 H :    0.150630
   6 H :    0.150306
   7 H :    0.148997
   8 H :    0.153762
   9 H :    0.153564
  10 H :    0.153296
  11 H :    0.153128
  12 H :    0.153225
  13 H :    0.152412
  14 H :    0.151995
  15 H :    0.153293
  16 H :    0.151720

  Mayer bond orders larger than 0.100000
B(  0-C ,  1-C ) :   0.8978 B(  0-C ,  5-H ) :   0.9729 B(  0-C ,  6-H ) :   0.9857
B(  0-C ,  7-H ) :   0.9843 B(  1-C ,  2-C ) :   0.9092 B(  1-C ,  8-H ) :   0.9725
B(  1-C ,  9-H ) :   0.9702 B(  2-C ,  3-C ) :   0.9014 B(  2-C ,  4-C ) :   0.9139
B(  2-C , 10-H ) :   0.9602 B(  3-C , 11-H ) :   0.9709 B(  3-C , 12-H ) :   0.9862
B(  3-C , 13-H ) :   0.9758 B(  4-C , 14-H ) :   0.9781 B(  4-C , 15-H ) :   0.9838
B(  4-C , 16-H ) :   0.9772

Dispersion correction           -0.003877145
FINAL SINGLE POINT ENERGY      -197.689430300898

DIPOLE MOMENT
-------------

Method             : SCF
Type of density    : Electron Density
Multiplicity       :   1
Irrep              :   0
Energy             :  -197.6936903846837197 Eh
Relativity type    :
Basis              : AO
                                X                 Y                 Z
Electronic contribution:      0.097545976       0.449420812       0.288531065
Nuclear contribution   :     -0.108949003      -0.430055607      -0.264156119
                        -----------------------------------------
Total Dipole Moment    :     -0.011403027       0.019365205       0.024374946
                        -----------------------------------------
Magnitude (a.u.)       :      0.033153856
Magnitude (Debye)      :      0.084270405

Rotational constants in cm-1:             0.245481             0.112921             0.086624
Rotational constants in MHz :          7359.321077          3385.274819          2596.925727

                             ****ORCA TERMINATED NORMALLY****
TOTAL RUN TIME: 0 days 0 hours 0 minutes 13 seconds 266 msec
