                         Program Version 6.0.0  -   RELEASE  -
|  1> ! r2scan-3c def2/J RI DEFGRID2 scfconv6 printgap
|  2> %output
|  3>     printlevel normal
|  4> end
|  5> %cpcm
|  6>     smd true
|  7>     smdsolvent "water"
|  8> end
|  9> * xyz 0 1
| 10> C -2.0809558815 0.0098216427 0.1313951743
| 11> C -0.7652492041 0.6382625003 -0.3146080406
| 12> C 0.4703298327 0.0009424916 0.3316266708
| 13> C 0.6725927301 -1.4399800641 -0.1322352637
| 14> C 1.7130275767 0.8294201892 0.0074491711
| 15> H -2.9200374896 0.559243344 -0.289014467
| 16> H -2.1648964287 0.0329530026 1.2158502136
| 17> H -2.1548691887 -1.0229606252 -0.1981769427
| 18> H -0.6774185238 0.5645842325 -1.4011042211
| 19> H -0.7811266686 1.7001177909 -0.0569105897
| 20> H 0.3284083565 0.0002561268 1.4186980165
| 21> H 1.5771849883 -1.8536033303 0.3078063116
| 22> H 0.7700180477 -1.4774137145 -1.2153146251
| 23> H -0.1635306267 -2.0678936938 0.1624531401
| 24> H 1.5991971467 1.8507411849 0.3637250622
| 25> H 1.8774602544 0.8572796026 -1.0677027572
| 26> H 2.5934797188 0.3982932119 0.4781227996
| 27> *
| 28>
| 29>                          ****END OF INPUT****

CARTESIAN COORDINATES (ANGSTROEM)
---------------------------------
  C     -2.080956    0.009822    0.131395
  C     -0.765249    0.638263   -0.314608
  C      0.470330    0.000942    0.331627
  C      0.672593   -1.439980   -0.132235
  C      1.713028    0.829420    0.007449
  H     -2.920037    0.559243   -0.289014
  H     -2.164896    0.032953    1.215850
  H     -2.154869   -1.022961   -0.198177
  H     -0.677419    0.564584   -1.401104
  H     -0.781127    1.700118   -0.056911
  H      0.328408    0.000256    1.418698
  H      1.577185   -1.853603    0.307806
  H      0.770018   -1.477414   -1.215315
  H     -0.163531   -2.067894    0.162453
  H      1.599197    1.850741    0.363725
  H      1.877460    0.857280   -1.067703
  H      2.593480    0.398293    0.478123

 Total Charge           Charge          ....    0
 Multiplicity           Mult            ....    1
 Number of Electrons    NEL             ....   42
 Basis Dimension        Dim             ....  155

ORBITAL ENERGIES
----------------

  NO   OCC          E(Eh)            E(eV)
   0   2.0000     -10.022151      -272.7166
   1   2.0000     -10.012740      -272.4605
   2   2.0000     -10.006178      -272.2819
   3   2.0000     -10.004673      -272.2410
   4   2.0000     -10.004573      -272.2383
   5   2.0000      -0.768420       -20.9098
   6   2.0000      -0.691510       -18.8169
   7   2.0000      -0.640452       -17.4276
   8   2.0000      -0.581818       -15.8321
   9   2.0000      -0.513788       -13.9809
  10   2.0000      -0.425978       -11.5915
  11   2.0000      -0.404884       -11.0175
  12   2.0000      -0.391327       -10.6485
  13   2.0000      -0.370796       -10.0899
  14   2.0000      -0.345541        -9.4026
  15   2.0000      -0.340898        -9.2763
  16   2.0000      -0.319149        -8.6845
  17   2.0000      -0.308537        -8.3957
  18   2.0000      -0.282091        -7.6761
  19   2.0000      -0.279045        -7.5932
  20   2.0000      -0.273987        -7.4556
  21   0.0000       0.096273         2.6197
  22   0.0000       0.119724         3.2579
  23   0.0000       0.137389         3.7385
  24   0.0000       0.141372         3.8469
  25   0.0000       0.145001         3.9457

MULLIKEN ATOMIC CHARGES
-----------------------
   0 C :   -0.537050
   1 C :   -0.239902
   2 C :   -0.006599
   3 C :   -0.541348
   4 C :   -0.518430
   5 H :    0.155124
   6 H :    0.155050
   7 H :    0.158952
   8 H :    0.145341
   9 H :    0.145830
  10 H :    0.144619
  11 H :    0.153346
  12 H :    0.159338
  13 H :    0.159364
  14 H :    0.155558
  15 H :    0.154661
  16 H :    0.156147
Sum of atomic charges:   -0.0000000

LOEWDIN ATOMIC CHARGES
----------------------
   0 C :   -0.433053
   1 C :   -0.316097
   2 C :   -0.249604
   3 C :   -0.426928
   4 C :   -0.427906
   5 H :    0.152434
   6 H :    0.152737
   7 H :    0.151753
   8 H :    0.155843
   9 H :    0.155437
  10 H :    0.155400
  11 H :    0.155192
  12 H :    0.155810
  13 H :    0.154969
  14 H :    0.154369
  15 H :    0.155496
  16 H :    0.154147

  Mayer bond orders larger than 0.100000
B(  0-C ,  1-C ) :   0.8920 B(  0-C ,  5-H ) :   0.9706 B(  0-C ,  6-H ) :   0.9833
B(  0-C ,  7-H ) :   0.9808 B(  1-C ,  2-C ) :   0.9031 B(  1-C ,  8-H ) :   0.9729
B(  1-C ,  9-H ) :   0.9704 B(  2-C ,  3-C ) :   0.8948 B(  2-C ,  4-C ) :   0.9028
B(  2-C , 10-H ) :   0.9612 B(  3-C , 11-H ) :   0.9693 B(  3-C , 12-H ) :   0.9842
B(  3-C , 13-H ) :   0.9725 B(  4-C , 14-H ) :   0.9758 B(  4-C , 15-H ) :   0.9829
B(  4-C , 16-H ) :   0.9748

Dispersion correction           -0.003877145
FINAL SINGLE POINT ENERGY      -197.686218412825

DIPOLE MOMENT
-------------

Method             : SCF
Type of density    : Electron Density
Multiplicity       :   1
Irrep              :   0
Energy             :  -197.6904784966100124 Eh
Relativity type    :
Basis              : AO
                                X                 Y                 Z
Electronic contribution:      0.094314311       0.449846928       0.295509113
Nuclear contribution   :     -0.108949003      -0.430055607      -0.264156119
                        -----------------------------------------
Total Dipole Moment    :     -0.014634692       0.019791321       0.031352993
                        -----------------------------------------
Magnitude (a.u.)       :      0.039860767
Magnitude (Debye)      :      0.101318019

Rotational constants in cm-1:             0.245481             0.112921             0.086624
Rotational constants in MHz :          7359.321077          3385.274819          2596.925727

                             ****ORCA TERMINATED NORMALLY****
TOTAL RUN TIME: 0 days 0 hours 0 minutes 16 seconds 486 msec
