                         Program Version 6.0.0  -   RELEASE  -
|  1> ! pbe def2-sv(p) def2/J RI DEFGRID1 loosescf d4 GCP(DFT/SV(P)) printgap
|  2> %output
|  3>     printlevel normal
|  4> end
|  5> * xyz 0 1
|  6> C -3.5124211288 -0.5272014054 0.0546944499
|  7> C -2.1429491153 -0.1432805203 -0.5015933014
|  8> H -2.2699244321 0.1718955334 -1.5418956238
|  9> C -1.1641063177 -1.3279555908 -0.4553389713
| 10> C -0.2421414922 -1.2264367964 0.7551507509
| 11> C 0.6984383521 -0.0245483381 0.6023010178
| 12> H 1.0785045539 0.2438319799 1.5960285864
| 13> C -0.0950457365 1.1749477576 0.1224304085
| 14> O 0.414111838 2.1648128708 -0.3699671572
| 15> C -1.5827957782 1.05498945 0.2913990016
| 16> C 1.936007569 -0.2443219603 -0.3077583027
| 17> C 3.03434937 0.7523800092 0.0674653524
| 18> C 2.505566462 -1.6601124999 -0.233928868
| 19> H -4.1724909588 0.3365785592 0.0728083862
| 20> H -3.9697295443 -1.2946086713 -0.5647954907
| 21> H -3.4179145097 -0.9116550905 1.0674515083
| 22> H -1.7240512931 -2.2628575078 -0.4219087307
| 23> H -0.5530001997 -1.3398792589 -1.3596557251
| 24> H -0.8431107243 -1.1076958927 1.657698941
| 25> H 0.3320514198 -2.1416448597 0.87469795
| 26> H -1.7910555097 0.9106164308 1.3526034348
| 27> H -2.0575240148 1.9819175343 -0.0329088702
| 28> H 1.6361762088 -0.0432109791 -1.342810326
| 29> H 3.8701210585 0.669969653 -0.6234882903
| 30> H 3.3985752893 0.5522170627 1.0733107184
| 31> H 2.6583280555 1.7707408606 0.0261089996
| 32> H 2.7159634666 -1.9358310563 0.7967370345
| 33> H 3.4387728615 -1.6962433638 -0.7911487868
| 34> H 1.8308886098 -2.3904405402 -0.6710084866
| 35> *
| 36>
| 37>                          ****END OF INPUT****

CARTESIAN COORDINATES (ANGSTROEM)
---------------------------------
  C     -3.512421   -0.527201    0.054694
  C     -2.142949   -0.143281   -0.501593
  H     -2.269924    0.171896   -1.541896
  C     -1.164106   -1.327956   -0.455339
  C     -0.242141   -1.226437    0.755151
  C      0.698438   -0.024548    0.602301
  H      1.078505    0.243832    1.596029
  C     -0.095046    1.174948    0.122430
  O      0.414112    2.164813   -0.369967
  C     -1.582796    1.054989    0.291399
  C      1.936008   -0.244322   -0.307758
  C      3.034349    0.752380    0.067465
  C      2.505566   -1.660112   -0.233929
  H     -4.172491    0.336579    0.072808
  H     -3.969730   -1.294609   -0.564795
  H     -3.417915   -0.911655    1.067452
  H     -1.724051   -2.262858   -0.421909
  H     -0.553000   -1.339879   -1.359656
  H     -0.843111   -1.107696    1.657699
  H      0.332051   -2.141645    0.874698
  H     -1.791056    0.910616    1.352603
  H     -2.057524    1.981918   -0.032909
  H      1.636176   -0.043211   -1.342810
  H      3.870121    0.669970   -0.623488
  H      3.398575    0.552217    1.073311
  H      2.658328    1.770741    0.026109
  H      2.715963   -1.935831    0.796737
  H      3.438773   -1.696243   -0.791149
  H      1.830889   -2.390441   -0.671008

 Total Charge           Charge          ....    0
 Multiplicity           Mult            ....    1
 Number of Electrons    NEL             ....   86
 Basis Dimension        Dim             ....  190

ORBITAL ENERGIES
----------------

  NO   OCC          E(Eh)            E(eV)
   0   2.0000     -18.738818      -509.9092
   1   2.0000      -9.969638      -271.2876
   2   2.0000      -9.906605      -269.5724
   3   2.0000      -9.900519      -269.4068
   4   2.0000      -9.897029      -269.3118
   5   2.0000      -9.891928      -269.1730
   6   2.0000      -9.891087      -269.1502
   7   2.0000      -9.890331      -269.1296
   8   2.0000      -9.883427      -268.9417
   9   2.0000      -9.876231      -268.7459
  10   2.0000      -9.863885      -268.4100
  11   2.0000      -0.934290       -25.4233
  12   2.0000      -0.769824       -20.9480
  13   2.0000      -0.728497       -19.8234
  14   2.0000      -0.677187       -18.4272
  15   2.0000      -0.655696       -17.8424
  16   2.0000      -0.617075       -16.7915
  17   2.0000      -0.605136       -16.4666
  18   2.0000      -0.560237       -15.2448
  19   2.0000      -0.513179       -13.9643
  20   2.0000      -0.504938       -13.7401
  21   2.0000      -0.461917       -12.5694
  22   2.0000      -0.449463       -12.2305
  23   2.0000      -0.426825       -11.6145
  24   2.0000      -0.410957       -11.1827
  25   2.0000      -0.400079       -10.8867
  26   2.0000      -0.387426       -10.5424
  27   2.0000      -0.369931       -10.0663
  28   2.0000      -0.366342        -9.9687
  29   2.0000      -0.357495        -9.7279
  30   2.0000      -0.348476        -9.4825
  31   2.0000      -0.347030        -9.4432
  32   2.0000      -0.335176        -9.1206
  33   2.0000      -0.333718        -9.0809
  34   2.0000      -0.324624        -8.8335
  35   2.0000      -0.320321        -8.7164
  36   2.0000      -0.296714        -8.0740
  37   2.0000      -0.295038        -8.0284
  38   2.0000      -0.287052        -7.8111
  39   2.0000      -0.280737        -7.6392
  40   2.0000      -0.271957        -7.4003
  41   2.0000      -0.269797        -7.3415
  42   2.0000      -0.189380        -5.1533
  43   0.0000      -0.052040        -1.4161
  44   0.0000       0.027232         0.7410
  45   0.0000       0.039494         1.0747
  46   0.0000       0.051305         1.3961
  47   0.0000       0.071273         1.9394

MULLIKEN ATOMIC CHARGES
-----------------------
   0 C :   -0.235366
   1 C :   -0.207971
   2 H :    0.080321
   3 C :   -0.117500
   4 C :   -0.095864
   5 C :   -0.152838
   6 H :    0.091333
   7 C :   -0.003950
   8 O :   -0.161158
   9 C :   -0.041408
  10 C :   -0.158221
  11 C :   -0.249582
  12 C :   -0.236595
  13 H :    0.103946
  14 H :    0.104758
  15 H :    0.096268
  16 H :    0.081568
  17 H :    0.090430
  18 H :    0.070484
  19 H :    0.092497
  20 H :    0.084067
  21 H :    0.087265
  22 H :    0.076208
  23 H :    0.093218
  24 H :    0.083465
  25 H :    0.121662
  26 H :    0.095285
  27 H :    0.099996
  28 H :    0.107680
Sum of atomic charges:   -0.0000000

LOEWDIN ATOMIC CHARGES
----------------------
   0 C :   -0.327820
   1 C :   -0.142722
   2 H :    0.121501
   3 C :   -0.220477
   4 C :   -0.219155
   5 C :   -0.159744
   6 H :    0.142002
   7 C :    0.058002
   8 O :   -0.127495
   9 C :   -0.235830
  10 C :   -0.141215
  11 C :   -0.336235
  12 C :   -0.331733
  13 H :    0.120024
  14 H :    0.119340
  15 H :    0.116255
  16 H :    0.119764
  17 H :    0.119665
  18 H :    0.115777
  19 H :    0.121959
  20 H :    0.135035
  21 H :    0.129943
  22 H :    0.116764
  23 H :    0.115272
  24 H :    0.111049
  25 H :    0.125274
  26 H :    0.117358
  27 H :    0.121600
  28 H :    0.115843

  Mayer bond orders larger than 0.100000
B(  0-C ,  1-C ) :   1.1125 B(  0-C , 13-H ) :   0.9478 B(  0-C , 14-H ) :   0.9457
B(  0-C , 15-H ) :   0.9474 B(  1-C ,  2-H ) :   0.8990 B(  1-C ,  3-C ) :   1.0813
B(  1-C ,  9-C ) :   1.0859 B(  3-C ,  4-C ) :   1.1804 B(  3-C , 16-H ) :   0.9150
B(  3-C , 17-H ) :   0.9029 B(  4-C ,  5-C ) :   1.1055 B(  4-C , 18-H ) :   0.8837
B(  4-C , 19-H ) :   0.8929 B(  5-C ,  6-H ) :   0.8427 B(  5-C ,  7-C ) :   0.9193
B(  5-C , 10-C ) :   1.0262 B(  7-C ,  8-O ) :   2.1589 B(  7-C ,  9-C ) :   1.1065
B(  9-C , 20-H ) :   0.8608 B(  9-C , 21-H ) :   0.8892 B( 10-C , 11-C ) :   1.1091
B( 10-C , 12-C ) :   1.1353 B( 10-C , 22-H ) :   0.8952 B( 11-C , 23-H ) :   0.9466
B( 11-C , 24-H ) :   0.9454 B( 11-C , 25-H ) :   0.9331 B( 12-C , 26-H ) :   0.9411
B( 12-C , 27-H ) :   0.9439 B( 12-C , 28-H ) :   0.9354

Dispersion correction           -0.030345128
FINAL SINGLE POINT ENERGY      -466.026055148999

DIPOLE MOMENT
-------------

Method             : SCF
Type of density    : Electron Density
Multiplicity       :   1
Irrep              :   0
Energy             :  -466.1230146991931633 Eh
Relativity type    :
Basis              : AO
                                X                 Y                 Z
Electronic contribution:     -0.633111815       7.063891614      -0.775146737
Nuclear contribution   :      0.156793499      -7.929442221       1.090125522
                        -----------------------------------------
Total Dipole Moment    :     -0.476318315      -0.865550607       0.314978785
                        -----------------------------------------
Magnitude (a.u.)       :      1.036951603
Magnitude (Debye)      :      2.635721510

Rotational constants in cm-1:             0.063451             0.025779             0.020122
Rotational constants in MHz :          1902.202109           772.836592           603.231860

                             ****ORCA TERMINATED NORMALLY****
TOTAL RUN TIME: 0 days 0 hours 0 minutes 15 seconds 130 msec
