                         Program Version 6.0.0  -   RELEASE  -
|  1> ! r2scan-3c def2/J RI DEFGRID2 scfconv6 printgap
|  2> %output
|  3>     printlevel normal
|  4> end
|  5> * xyz 0 1
|  6> C -1.0485453124 0.7707047701 -0.0705070659
|  7> C -1.0500926557 -0.7684770062 -0.0716857129
|  8> C 0.4239389545 -1.1435580241 0.1980377493
|  9> N 1.2283252956 -0.0015038929 -0.21515391
| 10> C 0.4267123786 1.1428362313 0.197129853
| 11> H -1.7035161816 1.1821439298 0.6942546117
| 12> H -1.3684364828 1.1601552625 -1.0370065618
| 13> H -1.7074240723 -1.1800861734 0.6910249632
| 14> H -1.3686583949 -1.1555975275 -1.039638175
| 15> H 0.5833280213 -1.2839621567 1.2711117916
| 16> H 0.7373320087 -2.0478051142 -0.3212236598
| 17> H 1.3002084159 -0.0020539682 -1.2292178088
| 18> H 0.5875024963 1.2845148597 1.2698286616
| 19> H 0.7415687351 2.0456441966 -0.3237551428
| 20> *
| 21>
| 22>                          ****END OF INPUT****

CARTESIAN COORDINATES (ANGSTROEM)
---------------------------------
  C     -1.048545    0.770705   -0.070507
  C     -1.050093   -0.768477   -0.071686
  C      0.423939   -1.143558    0.198038
  N      1.228325   -0.001504   -0.215154
  C      0.426712    1.142836    0.197130
  H     -1.703516    1.182144    0.694255
  H     -1.368436    1.160155   -1.037007
  H     -1.707424   -1.180086    0.691025
  H     -1.368658   -1.155598   -1.039638
  H      0.583328   -1.283962    1.271112
  H      0.737332   -2.047805   -0.321224
  H      1.300208   -0.002054   -1.229218
  H      0.587502    1.284515    1.269829
  H      0.741569    2.045644   -0.323755

 Total Charge           Charge          ....    0
 Multiplicity           Mult            ....    1
 Number of Electrons    NEL             ....   40
 Basis Dimension        Dim             ....  145

ORBITAL ENERGIES
----------------

  NO   OCC          E(Eh)            E(eV)
   0   2.0000     -14.138706      -384.7338
   1   2.0000     -10.045639      -273.3557
   2   2.0000     -10.045631      -273.3555
   3   2.0000     -10.022344      -272.7218
   4   2.0000     -10.022227      -272.7187
   5   2.0000      -0.883718       -24.0472
   6   2.0000      -0.720335       -19.6013
   7   2.0000      -0.682901       -18.5827
   8   2.0000      -0.565570       -15.3899
   9   2.0000      -0.539872       -14.6907
  10   2.0000      -0.472380       -12.8541
  11   2.0000      -0.433834       -11.8052
  12   2.0000      -0.398064       -10.8319
  13   2.0000      -0.394586       -10.7372
  14   2.0000      -0.340092        -9.2544
  15   2.0000      -0.320087        -8.7100
  16   2.0000      -0.310303        -8.4438
  17   2.0000      -0.305774        -8.3205
  18   2.0000      -0.286982        -7.8092
  19   2.0000      -0.197403        -5.3716
  20   0.0000       0.066400         1.8068
  21   0.0000       0.104281         2.8376
  22   0.0000       0.120815         3.2876
  23   0.0000       0.123635         3.3643
  24   0.0000       0.136663         3.7188

MULLIKEN ATOMIC CHARGES
-----------------------
   0 C :   -0.292190
   1 C :   -0.293030
   2 C :   -0.237686
   3 N :   -0.372785
   4 C :   -0.238630
   5 H :    0.147710
   6 H :    0.150476
   7 H :    0.147737
   8 H :    0.150524
   9 H :    0.152876
  10 H :    0.145485
  11 H :    0.241137
  12 H :    0.152881
  13 H :    0.145495
Sum of atomic charges:   -0.0000000

LOEWDIN ATOMIC CHARGES
----------------------
   0 C :   -0.290631
   1 C :   -0.290592
   2 C :   -0.067010
   3 N :   -0.843221
   4 C :   -0.067020
   5 H :    0.156740
   6 H :    0.154702
   7 H :    0.156747
   8 H :    0.154688
   9 H :    0.172404
  10 H :    0.172995
  11 H :    0.244823
  12 H :    0.172387
  13 H :    0.172988

  Mayer bond orders larger than 0.100000
B(  0-C ,  1-C ) :   0.9168 B(  0-C ,  4-C ) :   0.8931 B(  0-C ,  5-H ) :   0.9746
B(  0-C ,  6-H ) :   0.9722 B(  1-C ,  2-C ) :   0.8932 B(  1-C ,  7-H ) :   0.9748
B(  1-C ,  8-H ) :   0.9723 B(  2-C ,  3-N ) :   0.9485 B(  2-C ,  9-H ) :   0.9938
B(  2-C , 10-H ) :   0.9680 B(  3-N ,  4-C ) :   0.9495 B(  3-N , 11-H ) :   0.9023
B(  4-C , 12-H ) :   0.9938 B(  4-C , 13-H ) :   0.9680

Dispersion correction           -0.003186497
FINAL SINGLE POINT ENERGY      -212.511008167885

DIPOLE MOMENT
-------------

Method             : SCF
Type of density    : Electron Density
Multiplicity       :   1
Irrep              :   0
Energy             :  -212.5179402438887166 Eh
Relativity type    :
Basis              : AO
                                X                 Y                 Z
Electronic contribution:      1.623109048      -0.002420856      -0.223892801
Nuclear contribution   :     -2.055426036       0.002762428      -0.024284098
                        -----------------------------------------
Total Dipole Moment    :     -0.432316988       0.000341572      -0.248176898
                        -----------------------------------------
Magnitude (a.u.)       :      0.498487581
Magnitude (Debye)      :      1.267054735

Rotational constants in cm-1:             0.231745             0.225065             0.131728
Rotational constants in MHz :          6947.532673          6747.290887          3949.101097

                             ****ORCA TERMINATED NORMALLY****
TOTAL RUN TIME: 0 days 0 hours 0 minutes 11 seconds 115 msec
