                         Program Version 6.0.0  -   RELEASE  -
|  1> ! r2scan-3c def2/J RI DEFGRID2 scfconv6 printgap
|  2> %output
|  3>     printlevel normal
|  4> end
|  5> %cpcm
|  6>     smd true
|  7>     smdsolvent "water"
|  8> end
|  9> * xyz 0 1
| 10> C -1.0485453124 0.7707047701 -0.0705070659
| 11> C -1.0500926557 -0.7684770062 -0.0716857129
| 12> C 0.4239389545 -1.1435580241 0.1980377493
| 13> N 1.2283252956 -0.0015038929 -0.21515391
| 14> C 0.4267123786 1.1428362313 0.197129853
| 15> H -1.7035161816 1.1821439298 0.6942546117
| 16> H -1.3684364828 1.1601552625 -1.0370065618
| 17> H -1.7074240723 -1.1800861734 0.6910249632
| 18> H -1.3686583949 -1.1555975275 -1.039638175
| 19> H 0.5833280213 -1.2839621567 1.2711117916
| 20> H 0.7373320087 -2.0478051142 -0.3212236598
| 21> H 1.3002084159 -0.0020539682 -1.2292178088
| 22> H 0.5875024963 1.2845148597 1.2698286616
| 23> H 0.7415687351 2.0456441966 -0.3237551428
| 24> *
| 25>
| 26>                          ****END OF INPUT****

CARTESIAN COORDINATES (ANGSTROEM)
---------------------------------
  C     -1.048545    0.770705   -0.070507
  C     -1.050093   -0.768477   -0.071686
  C      0.423939   -1.143558    0.198038
  N      1.228325   -0.001504   -0.215154
  C      0.426712    1.142836    0.197130
  H     -1.703516    1.182144    0.694255
  H     -1.368436    1.160155   -1.037007
  H     -1.707424   -1.180086    0.691025
  H     -1.368658   -1.155598   -1.039638
  H      0.583328   -1.283962    1.271112
  H      0.737332   -2.047805   -0.321224
  H      1.300208   -0.002054   -1.229218
  H      0.587502    1.284515    1.269829
  H      0.741569    2.045644   -0.323755

 Total Charge           Charge          ....    0
 Multiplicity           Mult            ....    1
 Number of Electrons    NEL             ....   40
 Basis Dimension        Dim             ....  145

ORBITAL ENERGIES
----------------

  NO   OCC          E(Eh)            E(eV)
   0   2.0000     -14.134466      -384.6184
   1   2.0000     -10.038564      -273.1632
   2   2.0000     -10.038557      -273.1630
   3   2.0000     -10.013384      -272.4780
   4   2.0000     -10.013267      -272.4748
   5   2.0000      -0.878330       -23.9006
   6   2.0000      -0.712607       -19.3910
   7   2.0000      -0.675699       -18.3867
   8   2.0000      -0.558574       -15.1996
   9   2.0000      -0.532351       -14.4860
  10   2.0000      -0.464633       -12.6433
  11   2.0000      -0.426574       -11.6077
  12   2.0000      -0.390580       -10.6282
  13   2.0000      -0.387053       -10.5323
  14   2.0000      -0.333501        -9.0750
  15   2.0000      -0.312666        -8.5081
  16   2.0000      -0.301777        -8.2118
  17   2.0000      -0.297969        -8.1081
  18   2.0000      -0.277784        -7.5589
  19   2.0000      -0.198693        -5.4067
  20   0.0000       0.077580         2.1111
  21   0.0000       0.111714         3.0399
  22   0.0000       0.128503         3.4968
  23   0.0000       0.133203         3.6246
  24   0.0000       0.143945         3.9169

MULLIKEN ATOMIC CHARGES
-----------------------
   0 C :   -0.313871
   1 C :   -0.314554
   2 C :   -0.246034
   3 N :   -0.443251
   4 C :   -0.246973
   5 H :    0.158166
   6 H :    0.161756
   7 H :    0.158192
   8 H :    0.161801
   9 H :    0.160556
  10 H :    0.158949
  11 H :    0.285740
  12 H :    0.160543
  13 H :    0.158980
Sum of atomic charges:   -0.0000000

LOEWDIN ATOMIC CHARGES
----------------------
   0 C :   -0.291150
   1 C :   -0.291109
   2 C :   -0.071092
   3 N :   -0.869458
   4 C :   -0.071101
   5 H :    0.159580
   6 H :    0.158496
   7 H :    0.159592
   8 H :    0.158489
   9 H :    0.173420
  10 H :    0.177803
  11 H :    0.255331
  12 H :    0.173394
  13 H :    0.177803

  Mayer bond orders larger than 0.100000
B(  0-C ,  1-C ) :   0.9123 B(  0-C ,  4-C ) :   0.8980 B(  0-C ,  5-H ) :   0.9762
B(  0-C ,  6-H ) :   0.9686 B(  1-C ,  2-C ) :   0.8981 B(  1-C ,  7-H ) :   0.9764
B(  1-C ,  8-H ) :   0.9686 B(  2-C ,  3-N ) :   0.9596 B(  2-C ,  9-H ) :   0.9937
B(  2-C , 10-H ) :   0.9568 B(  3-N ,  4-C ) :   0.9606 B(  3-N , 11-H ) :   0.8866
B(  4-C , 12-H ) :   0.9937 B(  4-C , 13-H ) :   0.9568

Dispersion correction           -0.003186497
FINAL SINGLE POINT ENERGY      -212.519544583252

DIPOLE MOMENT
-------------

Method             : SCF
Type of density    : Electron Density
Multiplicity       :   1
Irrep              :   0
Energy             :  -212.5264766592562751 Eh
Relativity type    :
Basis              : AO
                                X                 Y                 Z
Electronic contribution:      1.448566182      -0.002283503      -0.337490855
Nuclear contribution   :     -2.055426036       0.002762428      -0.024284098
                        -----------------------------------------
Total Dipole Moment    :     -0.606859854       0.000478925      -0.361774953
                        -----------------------------------------
Magnitude (a.u.)       :      0.706512724
Magnitude (Debye)      :      1.795812628

Rotational constants in cm-1:             0.231745             0.225065             0.131728
Rotational constants in MHz :          6947.532673          6747.290887          3949.101097

                             ****ORCA TERMINATED NORMALLY****
TOTAL RUN TIME: 0 days 0 hours 0 minutes 14 seconds 150 msec
