                         Program Version 6.0.0  -   RELEASE  -
|  1> ! r2scan-3c def2/J RI DEFGRID2 scfconv6 printgap
|  2> %output
|  3>     printlevel normal
|  4> end
|  5> * xyz 0 1
|  6> C -2.5353671931 -1.0208561712 -0.0007661479
|  7> C -1.2367711251 -0.2725936941 0.0011412391
|  8> C -1.2022188027 1.1145345756 0.0003477754
|  9> C 0.00976993 1.7852798356 -0.0001703828
| 10> C 1.2000579579 1.0861041684 -0.0004770244
| 11> C 1.1779482569 -0.3059904915 -0.0002061118
| 12> C -0.0376859684 -0.974996962 0.0008184249
| 13> O 2.3706906278 -0.9650998837 -0.0001368727
| 14> H -2.6229213486 -1.6206472054 -0.905274799
| 15> H -2.5857504281 -1.6944847543 0.8527439369
| 16> H -3.3768564415 -0.3354408458 0.0445720916
| 17> H -2.1255530779 1.6741680556 0.0012255946
| 18> H 0.0274770035 2.8647227947 0.0001600512
| 19> H 2.1528519765 1.5915786429 -0.000633442
| 20> H -0.0574131005 -2.0561855537 0.0016336271
| 21> H 2.228404593 -1.9237048802 -0.0004500055
| 22> *
| 23>
| 24>                          ****END OF INPUT****

CARTESIAN COORDINATES (ANGSTROEM)
---------------------------------
  C     -2.535367   -1.020856   -0.000766
  C     -1.236771   -0.272594    0.001141
  C     -1.202219    1.114535    0.000348
  C      0.009770    1.785280   -0.000170
  C      1.200058    1.086104   -0.000477
  C      1.177948   -0.305990   -0.000206
  C     -0.037686   -0.974997    0.000818
  O      2.370691   -0.965100   -0.000137
  H     -2.622921   -1.620647   -0.905275
  H     -2.585750   -1.694485    0.852744
  H     -3.376856   -0.335441    0.044572
  H     -2.125553    1.674168    0.001226
  H      0.027477    2.864723    0.000160
  H      2.152852    1.591579   -0.000633
  H     -0.057413   -2.056186    0.001634
  H      2.228405   -1.923705   -0.000450

 Total Charge           Charge          ....    0
 Multiplicity           Mult            ....    1
 Number of Electrons    NEL             ....   58
 Basis Dimension        Dim             ....  197

ORBITAL ENERGIES
----------------

  NO   OCC          E(Eh)            E(eV)
   0   2.0000     -18.984416      -516.5922
   1   2.0000     -10.095190      -274.7041
   2   2.0000     -10.044774      -273.3322
   3   2.0000     -10.033280      -273.0194
   4   2.0000     -10.029728      -272.9228
   5   2.0000     -10.028925      -272.9009
   6   2.0000     -10.025846      -272.8171
   7   2.0000     -10.022603      -272.7289
   8   2.0000      -1.027439       -27.9580
   9   2.0000      -0.824182       -22.4271
  10   2.0000      -0.742304       -20.1991
  11   2.0000      -0.707739       -19.2585
  12   2.0000      -0.658661       -17.9231
  13   2.0000      -0.591308       -16.0903
  14   2.0000      -0.554315       -15.0837
  15   2.0000      -0.509466       -13.8633
  16   2.0000      -0.467496       -12.7212
  17   2.0000      -0.438374       -11.9288
  18   2.0000      -0.400712       -10.9039
  19   2.0000      -0.398088       -10.8325
  20   2.0000      -0.379079       -10.3153
  21   2.0000      -0.373337       -10.1590
  22   2.0000      -0.372949       -10.1485
  23   2.0000      -0.346258        -9.4222
  24   2.0000      -0.322363        -8.7719
  25   2.0000      -0.305063        -8.3012
  26   2.0000      -0.303463        -8.2576
  27   2.0000      -0.228473        -6.2171
  28   2.0000      -0.203633        -5.5411
  29   0.0000      -0.031260        -0.8506
  30   0.0000      -0.011571        -0.3149
  31   0.0000       0.056749         1.5442
  32   0.0000       0.077527         2.1096
  33   0.0000       0.109244         2.9727

MULLIKEN ATOMIC CHARGES
-----------------------
   0 C :   -0.531039
   1 C :    0.217737
   2 C :   -0.259239
   3 C :   -0.118978
   4 C :   -0.296802
   5 C :    0.441947
   6 C :   -0.408758
   7 O :   -0.412938
   8 H :    0.162345
   9 H :    0.159270
  10 H :    0.152089
  11 H :    0.145916
  12 H :    0.146115
  13 H :    0.157170
  14 H :    0.135187
  15 H :    0.309977
Sum of atomic charges:    0.0000000

LOEWDIN ATOMIC CHARGES
----------------------
   0 C :   -0.389208
   1 C :   -0.087253
   2 C :   -0.194316
   3 C :   -0.147474
   4 C :   -0.152928
   5 C :    0.186518
   6 C :   -0.173847
   7 O :   -0.497750
   8 H :    0.164702
   9 H :    0.163987
  10 H :    0.159866
  11 H :    0.167057
  12 H :    0.168015
  13 H :    0.179265
  14 H :    0.169649
  15 H :    0.283719

  Mayer bond orders larger than 0.100000
B(  0-C ,  1-C ) :   0.7794 B(  0-C ,  8-H ) :   0.9758 B(  0-C ,  9-H ) :   0.9787
B(  0-C , 10-H ) :   0.9939 B(  1-C ,  2-C ) :   1.4245 B(  1-C ,  6-C ) :   1.4084
B(  2-C ,  3-C ) :   1.4358 B(  2-C , 11-H ) :   0.9404 B(  3-C ,  4-C ) :   1.4189
B(  3-C , 12-H ) :   0.9498 B(  4-C ,  5-C ) :   1.4238 B(  4-C , 13-H ) :   0.9436
B(  5-C ,  6-C ) :   1.3712 B(  5-C ,  7-O ) :   0.9171 B(  6-C , 14-H ) :   0.9317
B(  7-O , 15-H ) :   0.8839

Dispersion correction           -0.004914369
FINAL SINGLE POINT ENERGY      -346.702497988389

DIPOLE MOMENT
-------------

Method             : SCF
Type of density    : Electron Density
Multiplicity       :   1
Irrep              :   0
Energy             :  -346.7030292642806444 Eh
Relativity type    :
Basis              : AO
                                X                 Y                 Z
Electronic contribution:      5.572484752       0.886101311       0.003182134
Nuclear contribution   :     -5.931375612      -1.421578826      -0.005652601
                        -----------------------------------------
Total Dipole Moment    :     -0.358890859      -0.535477514      -0.002470467
                        -----------------------------------------
Magnitude (a.u.)       :      0.644627738
Magnitude (Debye)      :      1.638513495

Rotational constants in cm-1:             0.122974             0.060682             0.040940
Rotational constants in MHz :          3686.660567          1819.194598          1227.349247

                             ****ORCA TERMINATED NORMALLY****
TOTAL RUN TIME: 0 days 0 hours 0 minutes 20 seconds 800 msec
