                         Program Version 6.0.0  -   RELEASE  -
|  1> ! r2scan-3c def2/J RI DEFGRID2 scfconv6 printgap
|  2> %output
|  3>     printlevel normal
|  4> end
|  5> %cpcm
|  6>     smd true
|  7>     smdsolvent "water"
|  8> end
|  9> * xyz 0 1
| 10> C -2.5353671931 -1.0208561712 -0.0007661479
| 11> C -1.2367711251 -0.2725936941 0.0011412391
| 12> C -1.2022188027 1.1145345756 0.0003477754
| 13> C 0.00976993 1.7852798356 -0.0001703828
| 14> C 1.2000579579 1.0861041684 -0.0004770244
| 15> C 1.1779482569 -0.3059904915 -0.0002061118
| 16> C -0.0376859684 -0.974996962 0.0008184249
| 17> O 2.3706906278 -0.9650998837 -0.0001368727
| 18> H -2.6229213486 -1.6206472054 -0.905274799
| 19> H -2.5857504281 -1.6944847543 0.8527439369
| 20> H -3.3768564415 -0.3354408458 0.0445720916
| 21> H -2.1255530779 1.6741680556 0.0012255946
| 22> H 0.0274770035 2.8647227947 0.0001600512
| 23> H 2.1528519765 1.5915786429 -0.000633442
| 24> H -0.0574131005 -2.0561855537 0.0016336271
| 25> H 2.228404593 -1.9237048802 -0.0004500055
| 26> *
| 27>
| 28>                          ****END OF INPUT****

CARTESIAN COORDINATES (ANGSTROEM)
---------------------------------
  C     -2.535367   -1.020856   -0.000766
  C     -1.236771   -0.272594    0.001141
  C     -1.202219    1.114535    0.000348
  C      0.009770    1.785280   -0.000170
  C      1.200058    1.086104   -0.000477
  C      1.177948   -0.305990   -0.000206
  C     -0.037686   -0.974997    0.000818
  O      2.370691   -0.965100   -0.000137
  H     -2.622921   -1.620647   -0.905275
  H     -2.585750   -1.694485    0.852744
  H     -3.376856   -0.335441    0.044572
  H     -2.125553    1.674168    0.001226
  H      0.027477    2.864723    0.000160
  H      2.152852    1.591579   -0.000633
  H     -0.057413   -2.056186    0.001634
  H      2.228405   -1.923705   -0.000450

 Total Charge           Charge          ....    0
 Multiplicity           Mult            ....    1
 Number of Electrons    NEL             ....   58
 Basis Dimension        Dim             ....  197

ORBITAL ENERGIES
----------------

  NO   OCC          E(Eh)            E(eV)
   0   2.0000     -18.982040      -516.5276
   1   2.0000     -10.095582      -274.7147
   2   2.0000     -10.043399      -273.2948
   3   2.0000     -10.033226      -273.0180
   4   2.0000     -10.026689      -272.8401
   5   2.0000     -10.025661      -272.8121
   6   2.0000     -10.021558      -272.7005
   7   2.0000     -10.018190      -272.6088
   8   2.0000      -1.025031       -27.8925
   9   2.0000      -0.824536       -22.4368
  10   2.0000      -0.739890       -20.1334
  11   2.0000      -0.706731       -19.2311
  12   2.0000      -0.653587       -17.7850
  13   2.0000      -0.588119       -16.0035
  14   2.0000      -0.551552       -15.0085
  15   2.0000      -0.505269       -13.7491
  16   2.0000      -0.463727       -12.6187
  17   2.0000      -0.436413       -11.8754
  18   2.0000      -0.396021       -10.7763
  19   2.0000      -0.394262       -10.7284
  20   2.0000      -0.375363       -10.2142
  21   2.0000      -0.371305       -10.1037
  22   2.0000      -0.368863       -10.0373
  23   2.0000      -0.341706        -9.2983
  24   2.0000      -0.318326        -8.6621
  25   2.0000      -0.305865        -8.3230
  26   2.0000      -0.301875        -8.2144
  27   2.0000      -0.230034        -6.2596
  28   2.0000      -0.206712        -5.6249
  29   0.0000      -0.032479        -0.8838
  30   0.0000      -0.014107        -0.3839
  31   0.0000       0.081424         2.2157
  32   0.0000       0.088554         2.4097
  33   0.0000       0.118645         3.2285

MULLIKEN ATOMIC CHARGES
-----------------------
   0 C :   -0.545278
   1 C :    0.188407
   2 C :   -0.293838
   3 C :   -0.165296
   4 C :   -0.332556
   5 C :    0.372421
   6 C :   -0.382967
   7 O :   -0.458464
   8 H :    0.178744
   9 H :    0.176262
  10 H :    0.170585
  11 H :    0.177491
  12 H :    0.178658
  13 H :    0.184109
  14 H :    0.181771
  15 H :    0.369949
Sum of atomic charges:    0.0000000

LOEWDIN ATOMIC CHARGES
----------------------
   0 C :   -0.393508
   1 C :   -0.094643
   2 C :   -0.208738
   3 C :   -0.162009
   4 C :   -0.173581
   5 C :    0.172711
   6 C :   -0.168079
   7 O :   -0.515423
   8 H :    0.171485
   9 H :    0.170865
  10 H :    0.165093
  11 H :    0.177281
  12 H :    0.178419
  13 H :    0.186378
  14 H :    0.187962
  15 H :    0.305787

  Mayer bond orders larger than 0.100000
B(  0-C ,  1-C ) :   0.8018 B(  0-C ,  8-H ) :   0.9674 B(  0-C ,  9-H ) :   0.9701
B(  0-C , 10-H ) :   0.9897 B(  1-C ,  2-C ) :   1.3796 B(  1-C ,  6-C ) :   1.3630
B(  2-C ,  3-C ) :   1.4004 B(  2-C , 11-H ) :   0.9535 B(  3-C ,  4-C ) :   1.3934
B(  3-C , 12-H ) :   0.9578 B(  4-C ,  5-C ) :   1.3621 B(  4-C , 13-H ) :   0.9524
B(  5-C ,  6-C ) :   1.3899 B(  5-C ,  7-O ) :   0.9240 B(  6-C , 14-H ) :   0.9448
B(  7-O , 15-H ) :   0.8521

Dispersion correction           -0.004914369
FINAL SINGLE POINT ENERGY      -346.711326237085

DIPOLE MOMENT
-------------

Method             : SCF
Type of density    : Electron Density
Multiplicity       :   1
Irrep              :   0
Energy             :  -346.7118575129765645 Eh
Relativity type    :
Basis              : AO
                                X                 Y                 Z
Electronic contribution:      5.396447019       0.583263295       0.002138433
Nuclear contribution   :     -5.931375612      -1.421578826      -0.005652601
                        -----------------------------------------
Total Dipole Moment    :     -0.534928593      -0.838315531      -0.003514168
                        -----------------------------------------
Magnitude (a.u.)       :      0.994451546
Magnitude (Debye)      :      2.527694952

Rotational constants in cm-1:             0.122974             0.060682             0.040940
Rotational constants in MHz :          3686.660567          1819.194598          1227.349247

                             ****ORCA TERMINATED NORMALLY****
TOTAL RUN TIME: 0 days 0 hours 0 minutes 24 seconds 999 msec
