                         Program Version 6.0.0  -   RELEASE  -
|  1> ! r2scan-3c def2/J RI DEFGRID2 scfconv6 printgap
|  2> %output
|  3>     printlevel normal
|  4> end
|  5> * xyz 0 1
|  6> C -2.5370834208 0.4654525267 -0.4503808557
|  7> C -1.3955280889 -0.1816917593 0.3115356255
|  8> O -0.1763283213 0.4971840424 -0.0325188207
|  9> C 0.9704994163 -0.1613934963 0.0651017351
| 10> O 1.0482746788 -1.3168407168 0.4327853543
| 11> C 2.1362097588 0.6977658871 -0.3219047337
| 12> H -2.3792648788 0.3652214111 -1.5204381841
| 13> H -3.4691873152 -0.0194405588 -0.1798554423
| 14> H -2.5954531727 1.5209870426 -0.202121962
| 15> H -1.2847245797 -1.2421598474 0.0626324678
| 16> H -1.536913554 -0.0909640068 1.3931466559
| 17> H 2.6086944911 1.0647192195 0.5867965856
| 18> H 1.7950421415 1.5392312182 -0.914963619
| 19> H 2.862635266 0.1003103914 -0.864181691
| 20> *
| 21>
| 22>                          ****END OF INPUT****

CARTESIAN COORDINATES (ANGSTROEM)
---------------------------------
  C     -2.537083    0.465453   -0.450381
  C     -1.395528   -0.181692    0.311536
  O     -0.176328    0.497184   -0.032519
  C      0.970499   -0.161393    0.065102
  O      1.048275   -1.316841    0.432785
  C      2.136210    0.697766   -0.321905
  H     -2.379265    0.365221   -1.520438
  H     -3.469187   -0.019441   -0.179855
  H     -2.595453    1.520987   -0.202122
  H     -1.284725   -1.242160    0.062632
  H     -1.536914   -0.090964    1.393147
  H      2.608694    1.064719    0.586797
  H      1.795042    1.539231   -0.914964
  H      2.862635    0.100310   -0.864182

 Total Charge           Charge          ....    0
 Multiplicity           Mult            ....    1
 Number of Electrons    NEL             ....   48
 Basis Dimension        Dim             ....  164

ORBITAL ENERGIES
----------------

  NO   OCC          E(Eh)            E(eV)
   0   2.0000     -18.997321      -516.9434
   1   2.0000     -18.926556      -515.0178
   2   2.0000     -10.155129      -276.3351
   3   2.0000     -10.091453      -274.6024
   4   2.0000     -10.038726      -273.1676
   5   2.0000     -10.032388      -272.9952
   6   2.0000      -1.072052       -29.1720
   7   2.0000      -0.974173       -26.5086
   8   2.0000      -0.757307       -20.6074
   9   2.0000      -0.708035       -19.2666
  10   2.0000      -0.614608       -16.7243
  11   2.0000      -0.535519       -14.5722
  12   2.0000      -0.467431       -12.7195
  13   2.0000      -0.455398       -12.3920
  14   2.0000      -0.436914       -11.8890
  15   2.0000      -0.415219       -11.2987
  16   2.0000      -0.385942       -10.5020
  17   2.0000      -0.370947       -10.0940
  18   2.0000      -0.368811       -10.0359
  19   2.0000      -0.354304        -9.6411
  20   2.0000      -0.327936        -8.9236
  21   2.0000      -0.312145        -8.4939
  22   2.0000      -0.271544        -7.3891
  23   2.0000      -0.235219        -6.4006
  24   0.0000      -0.013310        -0.3622
  25   0.0000       0.077106         2.0982
  26   0.0000       0.096982         2.6390
  27   0.0000       0.118956         3.2370
  28   0.0000       0.130778         3.5587

MULLIKEN ATOMIC CHARGES
-----------------------
   0 C :   -0.439796
   1 C :   -0.150444
   2 O :   -0.169405
   3 C :    0.416940
   4 O :   -0.428528
   5 C :   -0.514720
   6 H :    0.151997
   7 H :    0.146638
   8 H :    0.151988
   9 H :    0.174221
  10 H :    0.144830
  11 H :    0.173759
  12 H :    0.168968
  13 H :    0.173550
Sum of atomic charges:   -0.0000000

LOEWDIN ATOMIC CHARGES
----------------------
   0 C :   -0.386604
   1 C :    0.032945
   2 O :   -0.601163
   3 C :    0.352866
   4 O :   -0.435595
   5 C :   -0.336142
   6 H :    0.158720
   7 H :    0.159407
   8 H :    0.158775
   9 H :    0.189295
  10 H :    0.174810
  11 H :    0.181155
  12 H :    0.174171
  13 H :    0.177359

  Mayer bond orders larger than 0.100000
B(  0-C ,  1-C ) :   0.9468 B(  0-C ,  6-H ) :   0.9743 B(  0-C ,  7-H ) :   0.9676
B(  0-C ,  8-H ) :   0.9688 B(  1-C ,  2-O ) :   0.7918 B(  1-C ,  9-H ) :   0.9622
B(  1-C , 10-H ) :   0.9450 B(  2-O ,  3-C ) :   1.0761 B(  3-C ,  4-O ) :   1.8274
B(  3-C ,  5-C ) :   0.9508 B(  5-C , 11-H ) :   0.9395 B(  5-C , 12-H ) :   0.9808
B(  5-C , 13-H ) :   0.9683

Dispersion correction           -0.002875701
FINAL SINGLE POINT ENERGY      -307.636964783676

DIPOLE MOMENT
-------------

Method             : SCF
Type of density    : Electron Density
Multiplicity       :   1
Irrep              :   0
Energy             :  -307.6432399232372745 Eh
Relativity type    :
Basis              : AO
                                X                 Y                 Z
Electronic contribution:      3.316252728      -2.285531028       1.315031105
Nuclear contribution   :     -3.738963893       3.025540525      -1.531706488
                        -----------------------------------------
Total Dipole Moment    :     -0.422711166       0.740009498      -0.216675383
                        -----------------------------------------
Magnitude (a.u.)       :      0.879344647
Magnitude (Debye)      :      2.235116465

Rotational constants in cm-1:             0.276959             0.070042             0.058606
Rotational constants in MHz :          8303.018555          2099.815648          1756.958968

                             ****ORCA TERMINATED NORMALLY****
TOTAL RUN TIME: 0 days 0 hours 0 minutes 13 seconds 768 msec
