                         Program Version 6.0.0  -   RELEASE  -
|  1> ! r2scan-3c def2/J RI DEFGRID2 scfconv6 printgap
|  2> %output
|  3>     printlevel normal
|  4> end
|  5> %cpcm
|  6>     smd true
|  7>     smdsolvent "water"
|  8> end
|  9> * xyz 0 1
| 10> C -2.5370834208 0.4654525267 -0.4503808557
| 11> C -1.3955280889 -0.1816917593 0.3115356255
| 12> O -0.1763283213 0.4971840424 -0.0325188207
| 13> C 0.9704994163 -0.1613934963 0.0651017351
| 14> O 1.0482746788 -1.3168407168 0.4327853543
| 15> C 2.1362097588 0.6977658871 -0.3219047337
| 16> H -2.3792648788 0.3652214111 -1.5204381841
| 17> H -3.4691873152 -0.0194405588 -0.1798554423
| 18> H -2.5954531727 1.5209870426 -0.202121962
| 19> H -1.2847245797 -1.2421598474 0.0626324678
| 20> H -1.536913554 -0.0909640068 1.3931466559
| 21> H 2.6086944911 1.0647192195 0.5867965856
| 22> H 1.7950421415 1.5392312182 -0.914963619
| 23> H 2.862635266 0.1003103914 -0.864181691
| 24> *
| 25>
| 26>                          ****END OF INPUT****

CARTESIAN COORDINATES (ANGSTROEM)
---------------------------------
  C     -2.537083    0.465453   -0.450381
  C     -1.395528   -0.181692    0.311536
  O     -0.176328    0.497184   -0.032519
  C      0.970499   -0.161393    0.065102
  O      1.048275   -1.316841    0.432785
  C      2.136210    0.697766   -0.321905
  H     -2.379265    0.365221   -1.520438
  H     -3.469187   -0.019441   -0.179855
  H     -2.595453    1.520987   -0.202122
  H     -1.284725   -1.242160    0.062632
  H     -1.536914   -0.090964    1.393147
  H      2.608694    1.064719    0.586797
  H      1.795042    1.539231   -0.914964
  H      2.862635    0.100310   -0.864182

 Total Charge           Charge          ....    0
 Multiplicity           Mult            ....    1
 Number of Electrons    NEL             ....   48
 Basis Dimension        Dim             ....  164

ORBITAL ENERGIES
----------------

  NO   OCC          E(Eh)            E(eV)
   0   2.0000     -19.002710      -517.0900
   1   2.0000     -18.942467      -515.4507
   2   2.0000     -10.165350      -276.6132
   3   2.0000     -10.083254      -274.3793
   4   2.0000     -10.030254      -272.9371
   5   2.0000     -10.018704      -272.6228
   6   2.0000      -1.079005       -29.3612
   7   2.0000      -0.988040       -26.8859
   8   2.0000      -0.751636       -20.4530
   9   2.0000      -0.700232       -19.0543
  10   2.0000      -0.607255       -16.5243
  11   2.0000      -0.533248       -14.5104
  12   2.0000      -0.466126       -12.6839
  13   2.0000      -0.461407       -12.5555
  14   2.0000      -0.444154       -12.0860
  15   2.0000      -0.409649       -11.1471
  16   2.0000      -0.379682       -10.3317
  17   2.0000      -0.364739        -9.9251
  18   2.0000      -0.360205        -9.8017
  19   2.0000      -0.347729        -9.4622
  20   2.0000      -0.326728        -8.8907
  21   2.0000      -0.311492        -8.4761
  22   2.0000      -0.277806        -7.5595
  23   2.0000      -0.252299        -6.8654
  24   0.0000      -0.020841        -0.5671
  25   0.0000       0.081348         2.2136
  26   0.0000       0.107273         2.9191
  27   0.0000       0.128189         3.4882
  28   0.0000       0.141170         3.8414

MULLIKEN ATOMIC CHARGES
-----------------------
   0 C :   -0.485928
   1 C :   -0.147192
   2 O :   -0.186401
   3 C :    0.464637
   4 O :   -0.518158
   5 C :   -0.551078
   6 H :    0.165156
   7 H :    0.168180
   8 H :    0.164300
   9 H :    0.173474
  10 H :    0.170708
  11 H :    0.204624
  12 H :    0.187510
  13 H :    0.190168
Sum of atomic charges:   -0.0000000

LOEWDIN ATOMIC CHARGES
----------------------
   0 C :   -0.389995
   1 C :    0.036280
   2 O :   -0.602302
   3 C :    0.364122
   4 O :   -0.499676
   5 C :   -0.334475
   6 H :    0.161890
   7 H :    0.168022
   8 H :    0.162237
   9 H :    0.189778
  10 H :    0.184005
  11 H :    0.193127
  12 H :    0.182925
  13 H :    0.184061

  Mayer bond orders larger than 0.100000
B(  0-C ,  1-C ) :   0.9445 B(  0-C ,  6-H ) :   0.9727 B(  0-C ,  7-H ) :   0.9614
B(  0-C ,  8-H ) :   0.9659 B(  1-C ,  2-O ) :   0.7792 B(  1-C ,  9-H ) :   0.9573
B(  1-C , 10-H ) :   0.9363 B(  2-O ,  3-C ) :   1.1044 B(  3-C ,  4-O ) :   1.7547
B(  3-C ,  5-C ) :   0.9510 B(  5-C , 11-H ) :   0.9268 B(  5-C , 12-H ) :   0.9704
B(  5-C , 13-H ) :   0.9600

Dispersion correction           -0.002875701
FINAL SINGLE POINT ENERGY      -307.642861241617

DIPOLE MOMENT
-------------

Method             : SCF
Type of density    : Electron Density
Multiplicity       :   1
Irrep              :   0
Energy             :  -307.6491363811780388 Eh
Relativity type    :
Basis              : AO
                                X                 Y                 Z
Electronic contribution:      3.193883027      -1.995549710       1.249600567
Nuclear contribution   :     -3.738963893       3.025540525      -1.531706488
                        -----------------------------------------
Total Dipole Moment    :     -0.545080867       1.029990815      -0.282105921
                        -----------------------------------------
Magnitude (a.u.)       :      1.198990401
Magnitude (Debye)      :      3.047591403

Rotational constants in cm-1:             0.276959             0.070042             0.058606
Rotational constants in MHz :          8303.018555          2099.815648          1756.958968

                             ****ORCA TERMINATED NORMALLY****
TOTAL RUN TIME: 0 days 0 hours 0 minutes 17 seconds 649 msec
