                         Program Version 6.0.0  -   RELEASE  -
|  1> ! pbe def2-sv(p) def2/J RI DEFGRID1 loosescf d4 GCP(DFT/SV(P)) printgap
|  2> %output
|  3>     printlevel normal
|  4> end
|  5> * xyz 0 1
|  6> C -2.4302875052 -1.0787636631 -0.3376430506
|  7> C -1.0781703989 -0.5917707883 0.2024561906
|  8> H -1.1287982654 -0.5648327682 1.3032838459
|  9> C -0.7375386563 0.8178999707 -0.3027755121
| 10> H -0.7059868924 0.8019438414 -1.4039597607
| 11> C 0.6516119545 1.2254190421 0.2020043699
| 12> H 0.629836003 1.2985378525 1.301336678
| 13> C 1.6778662961 0.1590129043 -0.1887771956
| 14> H 1.7651717183 0.1235767906 -1.285096797
| 15> C 1.1937338779 -1.2210906788 0.2872218382
| 16> H 1.1632369895 -1.2206156458 1.3983851271
| 17> O -0.0915575521 -1.5142107404 -0.2113445695
| 18> O 2.0759678022 -2.1696234578 -0.189106231
| 19> O 2.9043773036 0.5041646208 0.4007199411
| 20> O 0.9573715854 2.4780375179 -0.3581180224
| 21> O -1.7271426716 1.7075475359 0.1440146784
| 22> O -3.5147014969 -0.4852200486 0.3207740227
| 23> H -2.5069550276 -2.1541436093 -0.1641418749
| 24> H -2.4720974464 -0.8937731864 -1.4189255527
| 25> H 1.6885036247 -3.0539337046 -0.0977212336
| 26> H 3.5558652817 -0.1844994558 0.2016129923
| 27> H 1.8694653141 2.7065848392 -0.1261785117
| 28> H -1.4407078427 2.6105974018 -0.0634411844
| 29> H -3.3971079467 0.4792493361 0.2960110848
| 30> *
| 31>
| 32>                          ****END OF INPUT****

CARTESIAN COORDINATES (ANGSTROEM)
---------------------------------
  C     -2.430288   -1.078764   -0.337643
  C     -1.078170   -0.591771    0.202456
  H     -1.128798   -0.564833    1.303284
  C     -0.737539    0.817900   -0.302776
  H     -0.705987    0.801944   -1.403960
  C      0.651612    1.225419    0.202004
  H      0.629836    1.298538    1.301337
  C      1.677866    0.159013   -0.188777
  H      1.765172    0.123577   -1.285097
  C      1.193734   -1.221091    0.287222
  H      1.163237   -1.220616    1.398385
  O     -0.091558   -1.514211   -0.211345
  O      2.075968   -2.169623   -0.189106
  O      2.904377    0.504165    0.400720
  O      0.957372    2.478038   -0.358118
  O     -1.727143    1.707548    0.144015
  O     -3.514701   -0.485220    0.320774
  H     -2.506955   -2.154144   -0.164142
  H     -2.472097   -0.893773   -1.418926
  H      1.688504   -3.053934   -0.097721
  H      3.555865   -0.184499    0.201613
  H      1.869465    2.706585   -0.126179
  H     -1.440708    2.610597   -0.063441
  H     -3.397108    0.479249    0.296011

 Total Charge           Charge          ....    0
 Multiplicity           Mult            ....    1
 Number of Electrons    NEL             ....   96
 Basis Dimension        Dim             ....  192

ORBITAL ENERGIES
----------------

  NO   OCC          E(Eh)            E(eV)
   0   2.0000     -18.779383      -511.0130
   1   2.0000     -18.773136      -510.8430
   2   2.0000     -18.769932      -510.7558
   3   2.0000     -18.765014      -510.6220
   4   2.0000     -18.762125      -510.5434
   5   2.0000     -18.731436      -509.7083
   6   2.0000      -9.993080      -271.9255
   7   2.0000      -9.949955      -270.7520
   8   2.0000      -9.948469      -270.7116
   9   2.0000      -9.946344      -270.6538
  10   2.0000      -9.946335      -270.6535
  11   2.0000      -9.925865      -270.0965
  12   2.0000      -0.993122       -27.0242
  13   2.0000      -0.956510       -26.0280
  14   2.0000      -0.945537       -25.7294
  15   2.0000      -0.927358       -25.2347
  16   2.0000      -0.924674       -25.1617
  17   2.0000      -0.908048       -24.7093
  18   2.0000      -0.711587       -19.3633
  19   2.0000      -0.694690       -18.9035
  20   2.0000      -0.615851       -16.7582
  21   2.0000      -0.590223       -16.0608
  22   2.0000      -0.562425       -15.3044
  23   2.0000      -0.532807       -14.4984
  24   2.0000      -0.519844       -14.1457
  25   2.0000      -0.491533       -13.3753
  26   2.0000      -0.472636       -12.8611
  27   2.0000      -0.465019       -12.6538
  28   2.0000      -0.453947       -12.3525
  29   2.0000      -0.447027       -12.1642
  30   2.0000      -0.417878       -11.3710
  31   2.0000      -0.403409       -10.9773
  32   2.0000      -0.391323       -10.6484
  33   2.0000      -0.375540       -10.2190
  34   2.0000      -0.362442        -9.8625
  35   2.0000      -0.355352        -9.6696
  36   2.0000      -0.334227        -9.0948
  37   2.0000      -0.322699        -8.7811
  38   2.0000      -0.318705        -8.6724
  39   2.0000      -0.301849        -8.2137
  40   2.0000      -0.293529        -7.9873
  41   2.0000      -0.266703        -7.2573
  42   2.0000      -0.253900        -6.9090
  43   2.0000      -0.247814        -6.7434
  44   2.0000      -0.236795        -6.4435
  45   2.0000      -0.232372        -6.3232
  46   2.0000      -0.215693        -5.8693
  47   2.0000      -0.205273        -5.5858
  48   0.0000       0.009803         0.2668
  49   0.0000       0.020064         0.5460
  50   0.0000       0.039856         1.0845
  51   0.0000       0.047927         1.3042
  52   0.0000       0.059813         1.6276

MULLIKEN ATOMIC CHARGES
-----------------------
   0 C :    0.116004
   1 C :   -0.032517
   2 H :    0.063406
   3 C :    0.068387
   4 H :    0.061405
   5 C :    0.070112
   6 H :    0.058321
   7 C :    0.032053
   8 H :    0.061787
   9 C :    0.180452
  10 H :    0.038657
  11 O :   -0.309568
  12 O :   -0.389261
  13 O :   -0.425405
  14 O :   -0.427693
  15 O :   -0.431510
  16 O :   -0.448160
  17 H :    0.086649
  18 H :    0.062738
  19 H :    0.313720
  20 H :    0.313827
  21 H :    0.314598
  22 H :    0.319920
  23 H :    0.302078
Sum of atomic charges:   -0.0000000

LOEWDIN ATOMIC CHARGES
----------------------
   0 C :   -0.116713
   1 C :   -0.067936
   2 H :    0.106681
   3 C :   -0.067172
   4 H :    0.106737
   5 C :   -0.075317
   6 H :    0.106069
   7 C :   -0.090387
   8 H :    0.109120
   9 C :   -0.003387
  10 H :    0.081339
  11 O :   -0.149339
  12 O :   -0.301578
  13 O :   -0.321578
  14 O :   -0.324523
  15 O :   -0.312302
  16 O :   -0.341208
  17 H :    0.114289
  18 H :    0.097086
  19 H :    0.295007
  20 H :    0.293208
  21 H :    0.293289
  22 H :    0.294929
  23 H :    0.273685

  Mayer bond orders larger than 0.100000
B(  0-C ,  1-C ) :   1.0346 B(  0-C , 16-O ) :   1.0921 B(  0-C , 17-H ) :   0.9212
B(  0-C , 18-H ) :   0.9045 B(  1-C ,  2-H ) :   0.8773 B(  1-C ,  3-C ) :   1.0240
B(  1-C , 11-O ) :   0.9822 B(  3-C ,  4-H ) :   0.8673 B(  3-C ,  5-C ) :   1.0223
B(  3-C , 15-O ) :   1.0365 B(  5-C ,  6-H ) :   0.8745 B(  5-C ,  7-C ) :   1.0107
B(  5-C , 14-O ) :   1.0815 B(  7-C ,  8-H ) :   0.8649 B(  7-C ,  9-C ) :   0.9963
B(  7-C , 13-O ) :   1.0676 B(  9-C , 10-H ) :   0.8830 B(  9-C , 11-O ) :   1.0146
B(  9-C , 12-O ) :   1.1652 B( 12-O , 19-H ) :   0.8356 B( 13-O , 20-H ) :   0.8370
B( 14-O , 21-H ) :   0.8352 B( 15-O , 22-H ) :   0.8275 B( 16-O , 23-H ) :   0.8208

Dispersion correction           -0.023831821
FINAL SINGLE POINT ENERGY      -685.706893000982

DIPOLE MOMENT
-------------

Method             : SCF
Type of density    : Electron Density
Multiplicity       :   1
Irrep              :   0
Energy             :  -685.8381208192748772 Eh
Relativity type    :
Basis              : AO
                                X                 Y                 Z
Electronic contribution:      1.983409768       0.113163147      -0.001560360
Nuclear contribution   :     -0.910054896      -0.040422084      -0.053613155
                        -----------------------------------------
Total Dipole Moment    :      1.073354872       0.072741063      -0.055173516
                        -----------------------------------------
Magnitude (a.u.)       :      1.077230737
Magnitude (Debye)      :      2.738102933

Rotational constants in cm-1:             0.043810             0.024517             0.016457
Rotational constants in MHz :          1313.375831           734.986942           493.357459

                             ****ORCA TERMINATED NORMALLY****
TOTAL RUN TIME: 0 days 0 hours 0 minutes 12 seconds 281 msec
