                         Program Version 6.0.0  -   RELEASE  -
|  1> ! pbe def2-sv(p) def2/J RI DEFGRID1 loosescf d4 GCP(DFT/SV(P)) printgap
|  2> %output
|  3>     printlevel normal
|  4> end
|  5> * xyz 0 1
|  6> C -1.4602918087 0.545633061 1.3833133333
|  7> C -0.9846801128 -0.3269022914 0.2112638812
|  8> H -1.0749682143 -1.3975985253 0.4457745291
|  9> C 0.5036422911 -0.0966208514 -0.0442888372
| 10> F 0.798870418 1.1720078081 -0.3587480979
| 11> F 1.2502340425 -0.3980642626 1.0356843059
| 12> F 0.9797205293 -0.8572050841 -1.044337231
| 13> O -1.612307981 -0.0330263693 -1.0099861733
| 14> H -0.6717974841 1.2168439322 1.7125345259
| 15> H -1.7657818666 -0.0698560121 2.2221260785
| 16> H -2.2986823633 1.1543723653 1.0583748811
| 17> H -2.5524288771 -0.2652236738 -0.9553061585
| 18> *
| 19>
| 20>                          ****END OF INPUT****

CARTESIAN COORDINATES (ANGSTROEM)
---------------------------------
  C     -1.460292    0.545633    1.383313
  C     -0.984680   -0.326902    0.211264
  H     -1.074968   -1.397599    0.445775
  C      0.503642   -0.096621   -0.044289
  F      0.798870    1.172008   -0.358748
  F      1.250234   -0.398064    1.035684
  F      0.979721   -0.857205   -1.044337
  O     -1.612308   -0.033026   -1.009986
  H     -0.671797    1.216844    1.712535
  H     -1.765782   -0.069856    2.222126
  H     -2.298682    1.154372    1.058375
  H     -2.552429   -0.265224   -0.955306

 Total Charge           Charge          ....    0
 Multiplicity           Mult            ....    1
 Number of Electrons    NEL             ....   58
 Basis Dimension        Dim             ....  108

ORBITAL ENERGIES
----------------

  NO   OCC          E(Eh)            E(eV)
   0   2.0000     -24.281375      -660.7298
   1   2.0000     -24.279216      -660.6711
   2   2.0000     -24.274267      -660.5364
   3   2.0000     -18.769099      -510.7331
   4   2.0000     -10.115287      -275.2510
   5   2.0000      -9.968985      -271.2699
   6   2.0000      -9.895778      -269.2778
   7   2.0000      -1.183477       -32.2040
   8   2.0000      -1.090722       -29.6801
   9   2.0000      -1.087242       -29.5854
  10   2.0000      -0.948464       -25.8090
  11   2.0000      -0.713972       -19.4282
  12   2.0000      -0.630824       -17.1656
  13   2.0000      -0.573896       -15.6165
  14   2.0000      -0.525967       -14.3123
  15   2.0000      -0.516685       -14.0597
  16   2.0000      -0.483866       -13.1667
  17   2.0000      -0.473599       -12.8873
  18   2.0000      -0.409283       -11.1372
  19   2.0000      -0.391292       -10.6476
  20   2.0000      -0.389074       -10.5872
  21   2.0000      -0.378483       -10.2990
  22   2.0000      -0.357948        -9.7403
  23   2.0000      -0.348720        -9.4892
  24   2.0000      -0.344434        -9.3725
  25   2.0000      -0.328874        -8.9491
  26   2.0000      -0.327821        -8.9205
  27   2.0000      -0.292705        -7.9649
  28   2.0000      -0.240053        -6.5322
  29   0.0000       0.008757         0.2383
  30   0.0000       0.052557         1.4302
  31   0.0000       0.063090         1.7168
  32   0.0000       0.079734         2.1697
  33   0.0000       0.120185         3.2704

MULLIKEN ATOMIC CHARGES
-----------------------
   0 C :   -0.270305
   1 C :   -0.028253
   2 H :    0.092024
   3 C :    0.390258
   4 F :   -0.138928
   5 F :   -0.150352
   6 F :   -0.139752
   7 O :   -0.415587
   8 H :    0.131346
   9 H :    0.113495
  10 H :    0.106888
  11 H :    0.309165
Sum of atomic charges:   -0.0000000

LOEWDIN ATOMIC CHARGES
----------------------
   0 C :   -0.356414
   1 C :   -0.095108
   2 H :    0.115801
   3 C :    0.105518
   4 F :   -0.041636
   5 F :   -0.054466
   6 F :   -0.044570
   7 O :   -0.314829
   8 H :    0.134290
   9 H :    0.129198
  10 H :    0.130110
  11 H :    0.292107

  Mayer bond orders larger than 0.100000
B(  0-C ,  1-C ) :   1.0494 B(  0-C ,  8-H ) :   0.9450 B(  0-C ,  9-H ) :   0.9432
B(  0-C , 10-H ) :   0.9419 B(  1-C ,  2-H ) :   0.8994 B(  1-C ,  3-C ) :   0.9805
B(  1-C ,  7-O ) :   1.0996 B(  3-C ,  4-F ) :   1.1655 B(  3-C ,  5-F ) :   1.1434
B(  3-C ,  6-F ) :   1.1759 B(  7-O , 11-H ) :   0.8441

Dispersion correction           -0.008148786
FINAL SINGLE POINT ENERGY      -491.107346412221

DIPOLE MOMENT
-------------

Method             : SCF
Type of density    : Electron Density
Multiplicity       :   1
Irrep              :   0
Energy             :  -491.1777043729235288 Eh
Relativity type    :
Basis              : AO
                                X                 Y                 Z
Electronic contribution:      9.505665606      -0.944863884      -3.973760192
Nuclear contribution   :    -10.676714388       0.675715589       4.531769246
                        -----------------------------------------
Total Dipole Moment    :     -1.171048781      -0.269148296       0.558009053
                        -----------------------------------------
Magnitude (a.u.)       :      1.324828350
Magnitude (Debye)      :      3.367446051

Rotational constants in cm-1:             0.117422             0.080457             0.065549
Rotational constants in MHz :          3520.233736          2412.052238          1965.114807

                             ****ORCA TERMINATED NORMALLY****
TOTAL RUN TIME: 0 days 0 hours 0 minutes 5 seconds 922 msec
