                         Program Version 6.0.0  -   RELEASE  -
|  1> ! wb97x-v def2-tzvp def2/J RIJCOSX DEFGRID2 scfconv7 GCP(DFT/TZ) printgap
|  2> %output
|  3>     printlevel normal
|  4> end
|  5> * xyz 0 1
|  6> C -2.3515999807068186 0.13759985756393822 -1.2626023324326086
|  7> C -1.6990290856767334 -0.4296810146615028 0.003526209458243904
|  8> C -2.354088634106115 0.15959729626399796 1.2582378198181832
|  9> C -0.2013451008401805 -0.200356916986249 0.0022699402944914874
| 10> C 0.6874191360064678 -1.2787566735870994 0.006906661398808749
| 11> C 2.066668582838278 -1.0742340917152085 0.0049822466648118055
| 12> C 2.5813801934677554 0.219116850017376 -0.0016206131048000607
| 13> C 1.7058335802729465 1.3043608625963758 -0.006293319096347224
| 14> C 0.32980811587427494 1.095635237032111 -0.004403765754835946
| 15> H -1.9011588079482395 -0.2871295005104584 -2.1655175567725693
| 16> H -2.239243515239898 1.2265265171037107 -1.3052998372605855
| 17> H -3.4227858581823605 -0.0904726802661095 -1.2743516829814456
| 18> H -1.8598376883835661 -1.51475723218984 0.012846384866314193
| 19> H -1.9042309807343112 -0.24788323309482324 2.1693598224188206
| 20> H -3.42489276581251 -0.07008070890579188 1.2726759422830825
| 21> H -2.2439306124343417 1.249319081467044 1.2813338891739878
| 22> H 0.29328133688733204 -2.2918249475700705 0.012083876464864802
| 23> H 2.738391029311836 -1.9275454978458508 0.008661702172109426
| 24> H 3.654633630101349 0.3819678701946846 -0.0030905469716332895
| 25> H 2.096905320830365 2.3174910648154254 -0.011431391700067853
| 26> H -0.33866714801875253 1.952115072157473 -0.008167709834582825
| 27> *
| 28>
| 29>                          ****END OF INPUT****

CARTESIAN COORDINATES (ANGSTROEM)
---------------------------------
  C     -2.351600    0.137600   -1.262602
  C     -1.699029   -0.429681    0.003526
  C     -2.354089    0.159597    1.258238
  C     -0.201345   -0.200357    0.002270
  C      0.687419   -1.278757    0.006907
  C      2.066669   -1.074234    0.004982
  C      2.581380    0.219117   -0.001621
  C      1.705834    1.304361   -0.006293
  C      0.329808    1.095635   -0.004404
  H     -1.901159   -0.287130   -2.165518
  H     -2.239244    1.226527   -1.305300
  H     -3.422786   -0.090473   -1.274352
  H     -1.859838   -1.514757    0.012846
  H     -1.904231   -0.247883    2.169360
  H     -3.424893   -0.070081    1.272676
  H     -2.243931    1.249319    1.281334
  H      0.293281   -2.291825    0.012084
  H      2.738391   -1.927545    0.008662
  H      3.654634    0.381968   -0.003091
  H      2.096905    2.317491   -0.011431
  H     -0.338667    1.952115   -0.008168

 Total Charge           Charge          ....    0
 Multiplicity           Mult            ....    1
 Number of Electrons    NEL             ....   66
 Basis Dimension        Dim             ....  351

ORBITAL ENERGIES
----------------

  NO   OCC          E(Eh)            E(eV)
   0   2.0000     -12.055688      -328.0519
   1   2.0000     -12.054426      -328.0176
   2   2.0000     -12.049991      -327.8969
   3   2.0000     -12.049656      -327.8878
   4   2.0000     -12.046673      -327.8067
   5   2.0000     -12.046308      -327.7967
   6   2.0000     -12.045515      -327.7751
   7   2.0000     -12.035772      -327.5100
   8   2.0000     -12.035446      -327.5011
   9   2.0000      -1.382798       -37.6278
  10   2.0000      -1.316296       -35.8182
  11   2.0000      -1.268823       -34.5264
  12   2.0000      -1.250896       -34.0386
  13   2.0000      -1.176940       -32.0262
  14   2.0000      -1.117773       -30.4161
  15   2.0000      -1.102661       -30.0049
  16   2.0000      -1.048495       -28.5310
  17   2.0000      -0.958352       -26.0781
  18   2.0000      -0.950280       -25.8584
  19   2.0000      -0.913282       -24.8517
  20   2.0000      -0.885380       -24.0924
  21   2.0000      -0.873034       -23.7565
  22   2.0000      -0.867524       -23.6065
  23   2.0000      -0.851008       -23.1571
  24   2.0000      -0.827974       -22.5303
  25   2.0000      -0.811167       -22.0730
  26   2.0000      -0.804279       -21.8855
  27   2.0000      -0.785289       -21.3688
  28   2.0000      -0.782667       -21.2974
  29   2.0000      -0.761405       -20.7189
  30   2.0000      -0.760486       -20.6939
  31   2.0000      -0.634896       -17.2764
  32   2.0000      -0.632907       -17.2223
  33   0.0000      -0.238981        -6.5030
  34   0.0000      -0.233341        -6.3495
  35   0.0000      -0.071336        -1.9411
  36   0.0000      -0.049409        -1.3445
  37   0.0000      -0.022993        -0.6257

MULLIKEN ATOMIC CHARGES
-----------------------
   0 C :   -0.341081
   1 C :   -0.036803
   2 C :   -0.341196
   3 C :    0.224189
   4 C :   -0.229145
   5 C :   -0.099863
   6 C :   -0.137604
   7 C :   -0.115815
   8 C :   -0.235150
   9 H :    0.118842
  10 H :    0.102959
  11 H :    0.111100
  12 H :    0.068894
  13 H :    0.118899
  14 H :    0.111175
  15 H :    0.102868
  16 H :    0.111369
  17 H :    0.114697
  18 H :    0.115308
  19 H :    0.115035
  20 H :    0.121324
Sum of atomic charges:    0.0000000

LOEWDIN ATOMIC CHARGES
----------------------
   0 C :   -0.270220
   1 C :   -0.264811
   2 C :   -0.270279
   3 C :   -0.119751
   4 C :   -0.114641
   5 C :   -0.139713
   6 C :   -0.146915
   7 C :   -0.139725
   8 C :   -0.108653
   9 H :    0.121385
  10 H :    0.118482
  11 H :    0.118069
  12 H :    0.150930
  13 H :    0.121402
  14 H :    0.118093
  15 H :    0.118418
  16 H :    0.142877
  17 H :    0.140855
  18 H :    0.139978
  19 H :    0.140887
  20 H :    0.143330

  Mayer bond orders larger than 0.100000
B(  0-C ,  1-C ) :   0.9917 B(  0-C ,  9-H ) :   0.9813 B(  0-C , 10-H ) :   0.9706
B(  0-C , 11-H ) :   0.9800 B(  1-C ,  2-C ) :   0.9919 B(  1-C ,  3-C ) :   0.8921
B(  1-C , 12-H ) :   0.9822 B(  2-C , 13-H ) :   0.9813 B(  2-C , 14-H ) :   0.9801
B(  2-C , 15-H ) :   0.9706 B(  3-C ,  4-C ) :   1.3998 B(  3-C ,  8-C ) :   1.3366
B(  4-C ,  5-C ) :   1.4438 B(  4-C , 16-H ) :   0.9668 B(  5-C ,  6-C ) :   1.4302
B(  5-C , 17-H ) :   0.9760 B(  6-C ,  7-C ) :   1.4144 B(  6-C , 18-H ) :   0.9728
B(  7-C ,  8-C ) :   1.4787 B(  7-C , 19-H ) :   0.9728 B(  8-C , 20-H ) :   0.9650

FINAL SINGLE POINT ENERGY      -350.202754627856

DIPOLE MOMENT
-------------

Method             : SCF
Type of density    : Electron Density
Multiplicity       :   1
Irrep              :   0
Energy             :  -350.2152720481561801 Eh
Relativity type    :
Basis              : AO
                                X                 Y                 Z
Electronic contribution:      7.935694342      -0.698405647       0.010380235
Nuclear contribution   :     -8.076147790       0.663773737      -0.010322781
                        -----------------------------------------
Total Dipole Moment    :     -0.140453448      -0.034631910       0.000057455
                        -----------------------------------------
Magnitude (a.u.)       :      0.144660097
Magnitude (Debye)      :      0.367696745

Rotational constants in cm-1:             0.112052             0.036184             0.033199
Rotational constants in MHz :          3359.244183          1084.760807           995.275350

                             ****ORCA TERMINATED NORMALLY****
TOTAL RUN TIME: 0 days 0 hours 3 minutes 57 seconds 789 msec
