                         Program Version 6.0.0  -   RELEASE  -
|  1> ! wb97x-v def2-tzvp def2/J RIJCOSX DEFGRID2 scfconv7 GCP(DFT/TZ) printgap
|  2> %output
|  3>     printlevel normal
|  4> end
|  5> %cpcm
|  6>     smd true
|  7>     smdsolvent "water"
|  8> end
|  9> * xyz 0 1
| 10> C -2.3515999807068186 0.13759985756393822 -1.2626023324326086
| 11> C -1.6990290856767334 -0.4296810146615028 0.003526209458243904
| 12> C -2.354088634106115 0.15959729626399796 1.2582378198181832
| 13> C -0.2013451008401805 -0.200356916986249 0.0022699402944914874
| 14> C 0.6874191360064678 -1.2787566735870994 0.006906661398808749
| 15> C 2.066668582838278 -1.0742340917152085 0.0049822466648118055
| 16> C 2.5813801934677554 0.219116850017376 -0.0016206131048000607
| 17> C 1.7058335802729465 1.3043608625963758 -0.006293319096347224
| 18> C 0.32980811587427494 1.095635237032111 -0.004403765754835946
| 19> H -1.9011588079482395 -0.2871295005104584 -2.1655175567725693
| 20> H -2.239243515239898 1.2265265171037107 -1.3052998372605855
| 21> H -3.4227858581823605 -0.0904726802661095 -1.2743516829814456
| 22> H -1.8598376883835661 -1.51475723218984 0.012846384866314193
| 23> H -1.9042309807343112 -0.24788323309482324 2.1693598224188206
| 24> H -3.42489276581251 -0.07008070890579188 1.2726759422830825
| 25> H -2.2439306124343417 1.249319081467044 1.2813338891739878
| 26> H 0.29328133688733204 -2.2918249475700705 0.012083876464864802
| 27> H 2.738391029311836 -1.9275454978458508 0.008661702172109426
| 28> H 3.654633630101349 0.3819678701946846 -0.0030905469716332895
| 29> H 2.096905320830365 2.3174910648154254 -0.011431391700067853
| 30> H -0.33866714801875253 1.952115072157473 -0.008167709834582825
| 31> *
| 32>
| 33>                          ****END OF INPUT****

CARTESIAN COORDINATES (ANGSTROEM)
---------------------------------
  C     -2.351600    0.137600   -1.262602
  C     -1.699029   -0.429681    0.003526
  C     -2.354089    0.159597    1.258238
  C     -0.201345   -0.200357    0.002270
  C      0.687419   -1.278757    0.006907
  C      2.066669   -1.074234    0.004982
  C      2.581380    0.219117   -0.001621
  C      1.705834    1.304361   -0.006293
  C      0.329808    1.095635   -0.004404
  H     -1.901159   -0.287130   -2.165518
  H     -2.239244    1.226527   -1.305300
  H     -3.422786   -0.090473   -1.274352
  H     -1.859838   -1.514757    0.012846
  H     -1.904231   -0.247883    2.169360
  H     -3.424893   -0.070081    1.272676
  H     -2.243931    1.249319    1.281334
  H      0.293281   -2.291825    0.012084
  H      2.738391   -1.927545    0.008662
  H      3.654634    0.381968   -0.003091
  H      2.096905    2.317491   -0.011431
  H     -0.338667    1.952115   -0.008168

 Total Charge           Charge          ....    0
 Multiplicity           Mult            ....    1
 Number of Electrons    NEL             ....   66
 Basis Dimension        Dim             ....  351

ORBITAL ENERGIES
----------------

  NO   OCC          E(Eh)            E(eV)
   0   2.0000     -12.053367      -327.9888
   1   2.0000     -12.048025      -327.8434
   2   2.0000     -12.047779      -327.8367
   3   2.0000     -12.047109      -327.8185
   4   2.0000     -12.044673      -327.7522
   5   2.0000     -12.043865      -327.7302
   6   2.0000     -12.043241      -327.7132
   7   2.0000     -12.026744      -327.2644
   8   2.0000     -12.026421      -327.2556
   9   2.0000      -1.382261       -37.6132
  10   2.0000      -1.311411       -35.6853
  11   2.0000      -1.267975       -34.5034
  12   2.0000      -1.247368       -33.9426
  13   2.0000      -1.168613       -31.7996
  14   2.0000      -1.114076       -30.3155
  15   2.0000      -1.100596       -29.9487
  16   2.0000      -1.043162       -28.3859
  17   2.0000      -0.954878       -25.9835
  18   2.0000      -0.948222       -25.8024
  19   2.0000      -0.907974       -24.7072
  20   2.0000      -0.880548       -23.9609
  21   2.0000      -0.868281       -23.6271
  22   2.0000      -0.861013       -23.4293
  23   2.0000      -0.843350       -22.9487
  24   2.0000      -0.823461       -22.4075
  25   2.0000      -0.802081       -21.8257
  26   2.0000      -0.800310       -21.7775
  27   2.0000      -0.778080       -21.1726
  28   2.0000      -0.776002       -21.1161
  29   2.0000      -0.760409       -20.6918
  30   2.0000      -0.752508       -20.4768
  31   2.0000      -0.635875       -17.3030
  32   2.0000      -0.633341       -17.2341
  33   0.0000      -0.239176        -6.5083
  34   0.0000      -0.233765        -6.3611
  35   0.0000      -0.070516        -1.9188
  36   0.0000      -0.041673        -1.1340
  37   0.0000      -0.013271        -0.3611

MULLIKEN ATOMIC CHARGES
-----------------------
   0 C :   -0.407725
   1 C :    0.016479
   2 C :   -0.407746
   3 C :    0.174500
   4 C :   -0.274159
   5 C :   -0.142105
   6 C :   -0.188846
   7 C :   -0.154151
   8 C :   -0.277636
   9 H :    0.129326
  10 H :    0.125638
  11 H :    0.130593
  12 H :    0.091641
  13 H :    0.129329
  14 H :    0.130650
  15 H :    0.125656
  16 H :    0.154979
  17 H :    0.158351
  18 H :    0.159038
  19 H :    0.158463
  20 H :    0.167724
Sum of atomic charges:    0.0000000

LOEWDIN ATOMIC CHARGES
----------------------
   0 C :   -0.276660
   1 C :   -0.261945
   2 C :   -0.276717
   3 C :   -0.127306
   4 C :   -0.122979
   5 C :   -0.151634
   6 C :   -0.159979
   7 C :   -0.151490
   8 C :   -0.116233
   9 H :    0.121649
  10 H :    0.122510
  11 H :    0.122024
  12 H :    0.156622
  13 H :    0.121654
  14 H :    0.122038
  15 H :    0.122489
  16 H :    0.152668
  17 H :    0.150006
  18 H :    0.148865
  19 H :    0.150028
  20 H :    0.154389

  Mayer bond orders larger than 0.100000
B(  0-C ,  1-C ) :   0.9681 B(  0-C ,  9-H ) :   0.9794 B(  0-C , 10-H ) :   0.9713
B(  0-C , 11-H ) :   0.9775 B(  1-C ,  2-C ) :   0.9684 B(  1-C ,  3-C ) :   0.8974
B(  1-C , 12-H ) :   0.9840 B(  2-C , 13-H ) :   0.9794 B(  2-C , 14-H ) :   0.9775
B(  2-C , 15-H ) :   0.9712 B(  3-C ,  4-C ) :   1.3797 B(  3-C ,  8-C ) :   1.3256
B(  4-C ,  5-C ) :   1.4234 B(  4-C , 16-H ) :   0.9743 B(  5-C ,  6-C ) :   1.4073
B(  5-C , 17-H ) :   0.9788 B(  6-C ,  7-C ) :   1.3921 B(  6-C , 18-H ) :   0.9757
B(  7-C ,  8-C ) :   1.4510 B(  7-C , 19-H ) :   0.9766 B(  8-C , 20-H ) :   0.9693

FINAL SINGLE POINT ENERGY      -350.203593610369

DIPOLE MOMENT
-------------

Method             : SCF
Type of density    : Electron Density
Multiplicity       :   1
Irrep              :   0
Energy             :  -350.2161110306689125 Eh
Relativity type    :
Basis              : AO
                                X                 Y                 Z
Electronic contribution:      7.828345083      -0.700867413       0.010231906
Nuclear contribution   :     -8.076147790       0.663773737      -0.010322781
                        -----------------------------------------
Total Dipole Moment    :     -0.247802707      -0.037093676      -0.000090875
                        -----------------------------------------
Magnitude (a.u.)       :      0.250563626
Magnitude (Debye)      :      0.636882122

Rotational constants in cm-1:             0.112052             0.036184             0.033199
Rotational constants in MHz :          3359.244183          1084.760807           995.275350

                             ****ORCA TERMINATED NORMALLY****
TOTAL RUN TIME: 0 days 0 hours 3 minutes 49 seconds 476 msec
