                         Program Version 6.0.0  -   RELEASE  -
|  1> ! wb97x-v def2-tzvp def2/J RIJCOSX DEFGRID2 scfconv7 GCP(DFT/TZ) printgap
|  2> %output
|  3>     printlevel normal
|  4> end
|  5> * xyz 0 1
|  6> C 3.7008738610067824 0.37983509451868364 0.06746791196033303
|  7> C 2.2291111170394915 0.32827393771023666 -0.3322341256652066
|  8> H 2.159121871352423 0.42798148920909795 -1.4261394246657744
|  9> C 1.4332756497438517 1.474758965389693 0.2948242282840912
| 10> C -0.04820051582080046 1.3971579078662797 -0.07251159265752975
| 11> C -0.6721844378483337 0.059375994851691004 0.3525727343967064
| 12> H -0.5219986089017393 -0.04542547537841915 1.4406018402699712
| 13> C 0.11531614962784356 -1.083581365807543 -0.3009044026112448
| 14> H 0.008385915828401163 -1.0248030725146673 -1.3914973433652102
| 15> C 1.596391377137429 -1.0104880259018645 0.05975397496309311
| 16> O -0.417605087104079 -2.381827700781986 0.04869643777828144
| 17> C -2.195085568994961 -0.026544535936913697 0.10545958702100688
| 18> C -2.96137974116774 0.9654160049702522 0.9840209536427917
| 19> C -2.590663965936705 0.15203177406381338 -1.3619245336539032
| 20> H 4.15996821278087 1.3272188754817642 -0.23591107236963413
| 21> H 3.8065569823469794 0.2878081342196046 1.1552413844568445
| 22> H 4.268673428163662 -0.434694329575861 -0.3955691992553245
| 23> H 1.5433762759866427 1.4252025633372254 1.3881862605582487
| 24> H 1.8518254015224307 2.437037954014085 -0.025601372173541272
| 25> H -0.5912365858101715 2.2264460027542405 0.39317306311800837
| 26> H -0.15240492882215656 1.5185533664806552 -1.1590894329700216
| 27> H 1.6967860040258285 -1.1505310309046315 1.147208021805258
| 28> H 2.126450638950441 -1.8378990938709006 -0.4279067018639075
| 29> H -0.38499542991495567 -2.446811105385258 1.0134246193564032
| 30> H -2.5024767026970145 -1.0339812135381967 0.4129218437105762
| 31> H -2.7817063362395578 2.0009562033155817 0.6757343399911877
| 32> H -2.672472544187162 0.8715280620989615 2.0368043113460708
| 33> H -4.039661433562141 0.7860679074428449 0.9139356411037576
| 34> H -3.6685569197953654 -0.0008795876932522695 -1.4825946977291307
| 35> H -2.0815917181623864 -0.5610689408776878 -2.0180791140876333
| 36> H -2.3610116596756696 1.1625153470576102 -1.7167201347182555
| 37> *
| 38>
| 39>                          ****END OF INPUT****

CARTESIAN COORDINATES (ANGSTROEM)
---------------------------------
  C      3.700874    0.379835    0.067468
  C      2.229111    0.328274   -0.332234
  H      2.159122    0.427981   -1.426139
  C      1.433276    1.474759    0.294824
  C     -0.048201    1.397158   -0.072512
  C     -0.672184    0.059376    0.352573
  H     -0.521999   -0.045425    1.440602
  C      0.115316   -1.083581   -0.300904
  H      0.008386   -1.024803   -1.391497
  C      1.596391   -1.010488    0.059754
  O     -0.417605   -2.381828    0.048696
  C     -2.195086   -0.026545    0.105460
  C     -2.961380    0.965416    0.984021
  C     -2.590664    0.152032   -1.361925
  H      4.159968    1.327219   -0.235911
  H      3.806557    0.287808    1.155241
  H      4.268673   -0.434694   -0.395569
  H      1.543376    1.425203    1.388186
  H      1.851825    2.437038   -0.025601
  H     -0.591237    2.226446    0.393173
  H     -0.152405    1.518553   -1.159089
  H      1.696786   -1.150531    1.147208
  H      2.126451   -1.837899   -0.427907
  H     -0.384995   -2.446811    1.013425
  H     -2.502477   -1.033981    0.412922
  H     -2.781706    2.000956    0.675734
  H     -2.672473    0.871528    2.036804
  H     -4.039661    0.786068    0.913936
  H     -3.668557   -0.000880   -1.482595
  H     -2.081592   -0.561069   -2.018079
  H     -2.361012    1.162515   -1.716720

 Total Charge           Charge          ....    0
 Multiplicity           Mult            ....    1
 Number of Electrons    NEL             ....   88
 Basis Dimension        Dim             ....  461

ORBITAL ENERGIES
----------------

  NO   OCC          E(Eh)            E(eV)
   0   2.0000     -21.665257      -589.5416
   1   2.0000     -12.090120      -328.9889
   2   2.0000     -12.048880      -327.8667
   3   2.0000     -12.045755      -327.7817
   4   2.0000     -12.043364      -327.7166
   5   2.0000     -12.040738      -327.6451
   6   2.0000     -12.039462      -327.6104
   7   2.0000     -12.037937      -327.5689
   8   2.0000     -12.034338      -327.4710
   9   2.0000     -12.030603      -327.3693
  10   2.0000     -12.028365      -327.3084
  11   2.0000      -1.663642       -45.2700
  12   2.0000      -1.353711       -36.8363
  13   2.0000      -1.309274       -35.6272
  14   2.0000      -1.255019       -34.1508
  15   2.0000      -1.250875       -34.0380
  16   2.0000      -1.175531       -31.9878
  17   2.0000      -1.172124       -31.8951
  18   2.0000      -1.123660       -30.5763
  19   2.0000      -1.099688       -29.9240
  20   2.0000      -1.037440       -28.2302
  21   2.0000      -1.034485       -28.1498
  22   2.0000      -0.978739       -26.6328
  23   2.0000      -0.955556       -26.0020
  24   2.0000      -0.925417       -25.1819
  25   2.0000      -0.903133       -24.5755
  26   2.0000      -0.894850       -24.3501
  27   2.0000      -0.876315       -23.8458
  28   2.0000      -0.868225       -23.6256
  29   2.0000      -0.857145       -23.3241
  30   2.0000      -0.852128       -23.1876
  31   2.0000      -0.836583       -22.7646
  32   2.0000      -0.831241       -22.6192
  33   2.0000      -0.815116       -22.1804
  34   2.0000      -0.803060       -21.8524
  35   2.0000      -0.799789       -21.7634
  36   2.0000      -0.792629       -21.5685
  37   2.0000      -0.783872       -21.3302
  38   2.0000      -0.777665       -21.1613
  39   2.0000      -0.771804       -21.0019
  40   2.0000      -0.757994       -20.6261
  41   2.0000      -0.748795       -20.3758
  42   2.0000      -0.742750       -20.2113
  43   2.0000      -0.734185       -19.9782
  44   0.0000      -0.155772        -4.2388
  45   0.0000      -0.067186        -1.8282
  46   0.0000      -0.052301        -1.4232
  47   0.0000      -0.044329        -1.2062
  48   0.0000      -0.029418        -0.8005

MULLIKEN ATOMIC CHARGES
-----------------------
   0 C :   -0.341233
   1 C :   -0.022360
   2 H :    0.067106
   3 C :   -0.195426
   4 C :   -0.248790
   5 C :   -0.093620
   6 H :    0.064243
   7 C :    0.055695
   8 H :    0.086133
   9 C :   -0.209903
  10 O :   -0.442229
  11 C :    0.097940
  12 C :   -0.366405
  13 C :   -0.409369
  14 H :    0.111934
  15 H :    0.103657
  16 H :    0.113821
  17 H :    0.086441
  18 H :    0.102609
  19 H :    0.108229
  20 H :    0.105117
  21 H :    0.078881
  22 H :    0.111732
  23 H :    0.294124
  24 H :    0.065157
  25 H :    0.106463
  26 H :    0.108327
  27 H :    0.115883
  28 H :    0.114069
  29 H :    0.121613
  30 H :    0.110159
Sum of atomic charges:   -0.0000000

LOEWDIN ATOMIC CHARGES
----------------------
   0 C :   -0.279680
   1 C :   -0.281254
   2 H :    0.149155
   3 C :   -0.234532
   4 C :   -0.224683
   5 C :   -0.225629
   6 H :    0.152052
   7 C :   -0.304110
   8 H :    0.143904
   9 C :   -0.220688
  10 O :   -0.029987
  11 C :   -0.283910
  12 C :   -0.282165
  13 C :   -0.278631
  14 H :    0.118265
  15 H :    0.118869
  16 H :    0.118769
  17 H :    0.136187
  18 H :    0.134116
  19 H :    0.136023
  20 H :    0.138926
  21 H :    0.135592
  22 H :    0.139052
  23 H :    0.166311
  24 H :    0.150677
  25 H :    0.115357
  26 H :    0.116941
  27 H :    0.118757
  28 H :    0.120005
  29 H :    0.119411
  30 H :    0.116901

  Mayer bond orders larger than 0.100000
B(  0-C ,  1-C ) :   0.9714 B(  0-C , 14-H ) :   0.9863 B(  0-C , 15-H ) :   0.9743
B(  0-C , 16-H ) :   0.9868 B(  1-C ,  2-H ) :   0.9710 B(  1-C ,  3-C ) :   0.9764
B(  1-C ,  9-C ) :   0.9610 B(  3-C ,  4-C ) :   1.0076 B(  3-C , 17-H ) :   0.9674
B(  3-C , 18-H ) :   0.9749 B(  4-C ,  5-C ) :   0.9594 B(  4-C , 19-H ) :   0.9719
B(  4-C , 20-H ) :   0.9708 B(  5-C ,  6-H ) :   0.9562 B(  5-C ,  7-C ) :   0.9930
B(  5-C , 11-C ) :   0.9396 B(  7-C ,  8-H ) :   0.9535 B(  7-C ,  9-C ) :   1.0255
B(  7-C , 10-O ) :   0.9846 B(  9-C , 21-H ) :   0.9518 B(  9-C , 22-H ) :   0.9770
B( 10-O , 23-H ) :   0.8996 B( 11-C , 12-C ) :   0.9536 B( 11-C , 13-C ) :   0.9508
B( 11-C , 24-H ) :   0.9656 B( 12-C , 25-H ) :   0.9760 B( 12-C , 26-H ) :   0.9840
B( 12-C , 27-H ) :   0.9879 B( 13-C , 28-H ) :   0.9817 B( 13-C , 29-H ) :   0.9850
B( 13-C , 30-H ) :   0.9783

FINAL SINGLE POINT ENERGY      -468.378440721942

DIPOLE MOMENT
-------------

Method             : SCF
Type of density    : Electron Density
Multiplicity       :   1
Irrep              :   0
Energy             :  -468.4012773631416735 Eh
Relativity type    :
Basis              : AO
                                X                 Y                 Z
Electronic contribution:      0.419484576      -5.108808675      -0.102166379
Nuclear contribution   :     -0.191971977       5.588376092       0.444360037
                        -----------------------------------------
Total Dipole Moment    :      0.227512599       0.479567417       0.342193658
                        -----------------------------------------
Magnitude (a.u.)       :      0.631540489
Magnitude (Debye)      :      1.605248352

Rotational constants in cm-1:             0.058820             0.023138             0.019100
Rotational constants in MHz :          1763.367381           693.665607           572.607276

                             ****ORCA TERMINATED NORMALLY****
TOTAL RUN TIME: 0 days 0 hours 5 minutes 51 seconds 975 msec
