                         Program Version 6.0.0  -   RELEASE  -
|  1> ! wb97x-v def2-tzvp def2/J RIJCOSX DEFGRID2 scfconv7 GCP(DFT/TZ) printgap
|  2> %output
|  3>     printlevel normal
|  4> end
|  5> %cpcm
|  6>     smd true
|  7>     smdsolvent "water"
|  8> end
|  9> * xyz 0 1
| 10> C 3.7008738610067824 0.37983509451868364 0.06746791196033303
| 11> C 2.2291111170394915 0.32827393771023666 -0.3322341256652066
| 12> H 2.159121871352423 0.42798148920909795 -1.4261394246657744
| 13> C 1.4332756497438517 1.474758965389693 0.2948242282840912
| 14> C -0.04820051582080046 1.3971579078662797 -0.07251159265752975
| 15> C -0.6721844378483337 0.059375994851691004 0.3525727343967064
| 16> H -0.5219986089017393 -0.04542547537841915 1.4406018402699712
| 17> C 0.11531614962784356 -1.083581365807543 -0.3009044026112448
| 18> H 0.008385915828401163 -1.0248030725146673 -1.3914973433652102
| 19> C 1.596391377137429 -1.0104880259018645 0.05975397496309311
| 20> O -0.417605087104079 -2.381827700781986 0.04869643777828144
| 21> C -2.195085568994961 -0.026544535936913697 0.10545958702100688
| 22> C -2.96137974116774 0.9654160049702522 0.9840209536427917
| 23> C -2.590663965936705 0.15203177406381338 -1.3619245336539032
| 24> H 4.15996821278087 1.3272188754817642 -0.23591107236963413
| 25> H 3.8065569823469794 0.2878081342196046 1.1552413844568445
| 26> H 4.268673428163662 -0.434694329575861 -0.3955691992553245
| 27> H 1.5433762759866427 1.4252025633372254 1.3881862605582487
| 28> H 1.8518254015224307 2.437037954014085 -0.025601372173541272
| 29> H -0.5912365858101715 2.2264460027542405 0.39317306311800837
| 30> H -0.15240492882215656 1.5185533664806552 -1.1590894329700216
| 31> H 1.6967860040258285 -1.1505310309046315 1.147208021805258
| 32> H 2.126450638950441 -1.8378990938709006 -0.4279067018639075
| 33> H -0.38499542991495567 -2.446811105385258 1.0134246193564032
| 34> H -2.5024767026970145 -1.0339812135381967 0.4129218437105762
| 35> H -2.7817063362395578 2.0009562033155817 0.6757343399911877
| 36> H -2.672472544187162 0.8715280620989615 2.0368043113460708
| 37> H -4.039661433562141 0.7860679074428449 0.9139356411037576
| 38> H -3.6685569197953654 -0.0008795876932522695 -1.4825946977291307
| 39> H -2.0815917181623864 -0.5610689408776878 -2.0180791140876333
| 40> H -2.3610116596756696 1.1625153470576102 -1.7167201347182555
| 41> *
| 42>
| 43>                          ****END OF INPUT****

CARTESIAN COORDINATES (ANGSTROEM)
---------------------------------
  C      3.700874    0.379835    0.067468
  C      2.229111    0.328274   -0.332234
  H      2.159122    0.427981   -1.426139
  C      1.433276    1.474759    0.294824
  C     -0.048201    1.397158   -0.072512
  C     -0.672184    0.059376    0.352573
  H     -0.521999   -0.045425    1.440602
  C      0.115316   -1.083581   -0.300904
  H      0.008386   -1.024803   -1.391497
  C      1.596391   -1.010488    0.059754
  O     -0.417605   -2.381828    0.048696
  C     -2.195086   -0.026545    0.105460
  C     -2.961380    0.965416    0.984021
  C     -2.590664    0.152032   -1.361925
  H      4.159968    1.327219   -0.235911
  H      3.806557    0.287808    1.155241
  H      4.268673   -0.434694   -0.395569
  H      1.543376    1.425203    1.388186
  H      1.851825    2.437038   -0.025601
  H     -0.591237    2.226446    0.393173
  H     -0.152405    1.518553   -1.159089
  H      1.696786   -1.150531    1.147208
  H      2.126451   -1.837899   -0.427907
  H     -0.384995   -2.446811    1.013425
  H     -2.502477   -1.033981    0.412922
  H     -2.781706    2.000956    0.675734
  H     -2.672473    0.871528    2.036804
  H     -4.039661    0.786068    0.913936
  H     -3.668557   -0.000880   -1.482595
  H     -2.081592   -0.561069   -2.018079
  H     -2.361012    1.162515   -1.716720

 Total Charge           Charge          ....    0
 Multiplicity           Mult            ....    1
 Number of Electrons    NEL             ....   88
 Basis Dimension        Dim             ....  461

ORBITAL ENERGIES
----------------

  NO   OCC          E(Eh)            E(eV)
   0   2.0000     -21.667934      -589.6145
   1   2.0000     -12.083220      -328.8011
   2   2.0000     -12.037029      -327.5442
   3   2.0000     -12.036255      -327.5232
   4   2.0000     -12.033845      -327.4576
   5   2.0000     -12.027790      -327.2928
   6   2.0000     -12.027198      -327.2767
   7   2.0000     -12.026434      -327.2559
   8   2.0000     -12.022900      -327.1597
   9   2.0000     -12.021233      -327.1144
  10   2.0000     -12.020748      -327.1012
  11   2.0000      -1.666700       -45.3532
  12   2.0000      -1.342893       -36.5420
  13   2.0000      -1.299466       -35.3603
  14   2.0000      -1.246492       -33.9188
  15   2.0000      -1.240020       -33.7426
  16   2.0000      -1.165004       -31.7014
  17   2.0000      -1.164273       -31.6815
  18   2.0000      -1.118769       -30.4432
  19   2.0000      -1.089064       -29.6349
  20   2.0000      -1.032434       -28.0940
  21   2.0000      -1.024567       -27.8799
  22   2.0000      -0.973423       -26.4882
  23   2.0000      -0.955850       -26.0100
  24   2.0000      -0.925373       -25.1807
  25   2.0000      -0.893733       -24.3197
  26   2.0000      -0.884059       -24.0565
  27   2.0000      -0.865175       -23.5426
  28   2.0000      -0.861637       -23.4463
  29   2.0000      -0.846648       -23.0385
  30   2.0000      -0.844034       -22.9673
  31   2.0000      -0.827278       -22.5114
  32   2.0000      -0.821544       -22.3553
  33   2.0000      -0.804286       -21.8857
  34   2.0000      -0.794344       -21.6152
  35   2.0000      -0.788968       -21.4689
  36   2.0000      -0.783357       -21.3162
  37   2.0000      -0.774540       -21.0763
  38   2.0000      -0.766634       -20.8612
  39   2.0000      -0.762551       -20.7501
  40   2.0000      -0.746810       -20.3217
  41   2.0000      -0.738621       -20.0989
  42   2.0000      -0.734003       -19.9732
  43   2.0000      -0.721983       -19.6461
  44   0.0000      -0.150158        -4.0860
  45   0.0000      -0.050692        -1.3794
  46   0.0000      -0.038532        -1.0485
  47   0.0000      -0.033356        -0.9077
  48   0.0000      -0.018230        -0.4961

MULLIKEN ATOMIC CHARGES
-----------------------
   0 C :   -0.403463
   1 C :   -0.007963
   2 H :    0.075823
   3 C :   -0.221833
   4 C :   -0.268927
   5 C :   -0.073083
   6 H :    0.088188
   7 C :    0.092508
   8 H :    0.110878
   9 C :   -0.254308
  10 O :   -0.561238
  11 C :    0.069420
  12 C :   -0.427842
  13 C :   -0.453493
  14 H :    0.127467
  15 H :    0.119895
  16 H :    0.127789
  17 H :    0.098061
  18 H :    0.113917
  19 H :    0.122627
  20 H :    0.114592
  21 H :    0.108758
  22 H :    0.112100
  23 H :    0.353665
  24 H :    0.066055
  25 H :    0.124380
  26 H :    0.126523
  27 H :    0.130271
  28 H :    0.130148
  29 H :    0.131828
  30 H :    0.127257
Sum of atomic charges:   -0.0000000

LOEWDIN ATOMIC CHARGES
----------------------
   0 C :   -0.287262
   1 C :   -0.279421
   2 H :    0.151680
   3 C :   -0.236593
   4 C :   -0.225346
   5 C :   -0.220796
   6 H :    0.159715
   7 C :   -0.303084
   8 H :    0.147488
   9 C :   -0.222182
  10 O :   -0.073943
  11 C :   -0.286214
  12 C :   -0.288043
  13 C :   -0.286602
  14 H :    0.120168
  15 H :    0.121161
  16 H :    0.120135
  17 H :    0.138559
  18 H :    0.135548
  19 H :    0.138304
  20 H :    0.141175
  21 H :    0.142663
  22 H :    0.137283
  23 H :    0.188274
  24 H :    0.147215
  25 H :    0.118666
  26 H :    0.120219
  27 H :    0.119879
  28 H :    0.120955
  29 H :    0.119953
  30 H :    0.120444

  Mayer bond orders larger than 0.100000
B(  0-C ,  1-C ) :   0.9511 B(  0-C , 14-H ) :   0.9845 B(  0-C , 15-H ) :   0.9750
B(  0-C , 16-H ) :   0.9849 B(  1-C ,  2-H ) :   0.9702 B(  1-C ,  3-C ) :   0.9803
B(  1-C ,  9-C ) :   0.9694 B(  3-C ,  4-C ) :   1.0074 B(  3-C , 17-H ) :   0.9662
B(  3-C , 18-H ) :   0.9733 B(  4-C ,  5-C ) :   0.9573 B(  4-C , 19-H ) :   0.9717
B(  4-C , 20-H ) :   0.9668 B(  5-C ,  6-H ) :   0.9610 B(  5-C ,  7-C ) :   0.9903
B(  5-C , 11-C ) :   0.9353 B(  7-C ,  8-H ) :   0.9571 B(  7-C ,  9-C ) :   1.0273
B(  7-C , 10-O ) :   0.9347 B(  9-C , 21-H ) :   0.9581 B(  9-C , 22-H ) :   0.9694
B( 10-O , 23-H ) :   0.8686 B( 11-C , 12-C ) :   0.9531 B( 11-C , 13-C ) :   0.9464
B( 11-C , 24-H ) :   0.9742 B( 12-C , 25-H ) :   0.9754 B( 12-C , 26-H ) :   0.9821
B( 12-C , 27-H ) :   0.9850 B( 13-C , 28-H ) :   0.9810 B( 13-C , 29-H ) :   0.9812
B( 13-C , 30-H ) :   0.9755

FINAL SINGLE POINT ENERGY      -468.384353651382

DIPOLE MOMENT
-------------

Method             : SCF
Type of density    : Electron Density
Multiplicity       :   1
Irrep              :   0
Energy             :  -468.4071902925815607 Eh
Relativity type    :
Basis              : AO
                                X                 Y                 Z
Electronic contribution:      0.514815538      -4.878004629       0.102603657
Nuclear contribution   :     -0.191971977       5.588376092       0.444360037
                        -----------------------------------------
Total Dipole Moment    :      0.322843561       0.710371463       0.546963694
                        -----------------------------------------
Magnitude (a.u.)       :      0.952903386
Magnitude (Debye)      :      2.422087920

Rotational constants in cm-1:             0.058820             0.023138             0.019100
Rotational constants in MHz :          1763.367381           693.665607           572.607276

                             ****ORCA TERMINATED NORMALLY****
TOTAL RUN TIME: 0 days 0 hours 6 minutes 34 seconds 327 msec
