                         Program Version 6.0.0  -   RELEASE  -
|  1> ! pbe def2-sv(p) def2/J RI DEFGRID1 loosescf d4 GCP(DFT/SV(P)) printgap
|  2> %output
|  3>     printlevel normal
|  4> end
|  5> * xyz 0 1
|  6> C -3.3262281721 0.4462250196 -0.291589839
|  7> C -1.8586524429 0.5105540943 -0.0183275006
|  8> C -1.0970375413 1.5829769037 -0.2003787059
|  9> C 0.3650939068 1.4955133962 0.0969385287
| 10> C 0.9641541991 0.2550357351 -0.5985328445
| 11> H 0.9726672597 0.4679738545 -1.6718671605
| 12> C 0.0898870242 -0.9971719514 -0.3671789175
| 13> C -1.1532172782 -0.7217977688 0.5027009539
| 14> H -0.8308458877 -0.5283555176 1.5351250134
| 15> O -1.9704956125 -1.8673028214 0.6099890685
| 16> C 2.3891280832 0.0080528397 -0.1669390607
| 17> C 3.3676203912 -0.0771186627 -1.0552877745
| 18> C 2.6473597644 -0.1397577473 1.3029963771
| 19> H -3.7323826549 1.4463747176 -0.4138407884
| 20> H -3.8358839103 -0.0548110005 0.5295764073
| 21> H -3.5224724629 -0.1175776583 -1.2036944385
| 22> H -1.5028390108 2.5126481222 -0.5685741424
| 23> H 0.8921066662 2.3880901977 -0.2398347935
| 24> H 0.5045020327 1.4039982188 1.1768697516
| 25> H -0.2596122941 -1.3745600865 -1.3305463103
| 26> H 0.6717614024 -1.7938477797 0.0989944892
| 27> H -2.2603629593 -2.1296522459 -0.274458609
| 28> H 4.3864625883 -0.2682902768 -0.7628728701
| 29> H 3.1927659955 0.0421961587 -2.111231174
| 30> H 3.5956544662 -0.6415850758 1.4753971597
| 31> H 2.6951343276 0.8415551299 1.7739496267
| 32> H 1.8542424509 -0.7063158704 1.7850809426
| 33> *
| 34>
| 35>                          ****END OF INPUT****

CARTESIAN COORDINATES (ANGSTROEM)
---------------------------------
  C     -3.326228    0.446225   -0.291590
  C     -1.858652    0.510554   -0.018328
  C     -1.097038    1.582977   -0.200379
  C      0.365094    1.495513    0.096939
  C      0.964154    0.255036   -0.598533
  H      0.972667    0.467974   -1.671867
  C      0.089887   -0.997172   -0.367179
  C     -1.153217   -0.721798    0.502701
  H     -0.830846   -0.528356    1.535125
  O     -1.970496   -1.867303    0.609989
  C      2.389128    0.008053   -0.166939
  C      3.367620   -0.077119   -1.055288
  C      2.647360   -0.139758    1.302996
  H     -3.732383    1.446375   -0.413841
  H     -3.835884   -0.054811    0.529576
  H     -3.522472   -0.117578   -1.203694
  H     -1.502839    2.512648   -0.568574
  H      0.892107    2.388090   -0.239835
  H      0.504502    1.403998    1.176870
  H     -0.259612   -1.374560   -1.330546
  H      0.671761   -1.793848    0.098994
  H     -2.260363   -2.129652   -0.274459
  H      4.386463   -0.268290   -0.762873
  H      3.192766    0.042196   -2.111231
  H      3.595654   -0.641585    1.475397
  H      2.695134    0.841555    1.773950
  H      1.854242   -0.706316    1.785081

 Total Charge           Charge          ....    0
 Multiplicity           Mult            ....    1
 Number of Electrons    NEL             ....   84
 Basis Dimension        Dim             ....  186

ORBITAL ENERGIES
----------------

  NO   OCC          E(Eh)            E(eV)
   0   2.0000     -18.745986      -510.1042
   1   2.0000      -9.939775      -270.4750
   2   2.0000      -9.900407      -269.4038
   3   2.0000      -9.898235      -269.3447
   4   2.0000      -9.889054      -269.0949
   5   2.0000      -9.888509      -269.0800
   6   2.0000      -9.888168      -269.0707
   7   2.0000      -9.881846      -268.8987
   8   2.0000      -9.881334      -268.8848
   9   2.0000      -9.877711      -268.7862
  10   2.0000      -9.866443      -268.4796
  11   2.0000      -0.925216       -25.1764
  12   2.0000      -0.767390       -20.8817
  13   2.0000      -0.723367       -19.6838
  14   2.0000      -0.675224       -18.3738
  15   2.0000      -0.656009       -17.8509
  16   2.0000      -0.619436       -16.8557
  17   2.0000      -0.608079       -16.5467
  18   2.0000      -0.559365       -15.2211
  19   2.0000      -0.531352       -14.4588
  20   2.0000      -0.489932       -13.3317
  21   2.0000      -0.464241       -12.6326
  22   2.0000      -0.440882       -11.9970
  23   2.0000      -0.424550       -11.5526
  24   2.0000      -0.403531       -10.9806
  25   2.0000      -0.402757       -10.9596
  26   2.0000      -0.388031       -10.5589
  27   2.0000      -0.383021       -10.4225
  28   2.0000      -0.372272       -10.1300
  29   2.0000      -0.360632        -9.8133
  30   2.0000      -0.350610        -9.5406
  31   2.0000      -0.346100        -9.4178
  32   2.0000      -0.327655        -8.9159
  33   2.0000      -0.325531        -8.8581
  34   2.0000      -0.318087        -8.6556
  35   2.0000      -0.306472        -8.3395
  36   2.0000      -0.296198        -8.0600
  37   2.0000      -0.277646        -7.5551
  38   2.0000      -0.264625        -7.2008
  39   2.0000      -0.221526        -6.0280
  40   2.0000      -0.217234        -5.9112
  41   2.0000      -0.200255        -5.4492
  42   0.0000      -0.015674        -0.4265
  43   0.0000      -0.006415        -0.1746
  44   0.0000       0.022065         0.6004
  45   0.0000       0.037920         1.0319
  46   0.0000       0.047938         1.3045

MULLIKEN ATOMIC CHARGES
-----------------------
   0 C :   -0.222395
   1 C :   -0.080251
   2 C :   -0.206499
   3 C :   -0.021622
   4 C :   -0.144704
   5 H :    0.052926
   6 C :   -0.092821
   7 C :    0.076158
   8 H :    0.076708
   9 O :   -0.412621
  10 C :   -0.043799
  11 C :   -0.227926
  12 C :   -0.234761
  13 H :    0.101378
  14 H :    0.118207
  15 H :    0.100223
  16 H :    0.039015
  17 H :    0.083863
  18 H :    0.089959
  19 H :    0.060336
  20 H :    0.098181
  21 H :    0.295182
  22 H :    0.077890
  23 H :    0.081861
  24 H :    0.102876
  25 H :    0.122953
  26 H :    0.109685
Sum of atomic charges:    0.0000000

LOEWDIN ATOMIC CHARGES
----------------------
   0 C :   -0.327761
   1 C :   -0.082128
   2 C :   -0.157382
   3 C :   -0.213007
   4 C :   -0.122625
   5 H :    0.122469
   6 C :   -0.218929
   7 C :   -0.045314
   8 H :    0.120761
   9 O :   -0.313925
  10 C :   -0.050810
  11 C :   -0.268519
  12 C :   -0.326863
  13 H :    0.126643
  14 H :    0.131453
  15 H :    0.123240
  16 H :    0.115532
  17 H :    0.124742
  18 H :    0.126168
  19 H :    0.116438
  20 H :    0.123584
  21 H :    0.281005
  22 H :    0.115044
  23 H :    0.115794
  24 H :    0.127848
  25 H :    0.132995
  26 H :    0.123548

  Mayer bond orders larger than 0.100000
B(  0-C ,  1-C ) :   1.1414 B(  0-C , 13-H ) :   0.9389 B(  0-C , 14-H ) :   0.9279
B(  0-C , 15-H ) :   0.9282 B(  1-C ,  2-C ) :   1.8657 B(  1-C ,  7-C ) :   0.9970
B(  2-C ,  3-C ) :   1.0907 B(  2-C , 16-H ) :   0.9490 B(  3-C ,  4-C ) :   1.1200
B(  3-C , 17-H ) :   0.9125 B(  3-C , 18-H ) :   0.8558 B(  4-C ,  5-H ) :   0.8752
B(  4-C ,  6-C ) :   1.0320 B(  4-C , 10-C ) :   1.0030 B(  6-C ,  7-C ) :   1.1052
B(  6-C , 19-H ) :   0.8957 B(  6-C , 20-H ) :   0.9054 B(  7-C ,  8-H ) :   0.8542
B(  7-C ,  9-O ) :   1.0690 B(  9-O , 21-H ) :   0.8468 B( 10-C , 11-C ) :   2.0392
B( 10-C , 12-C ) :   1.1092 B( 11-C , 22-H ) :   0.9075 B( 11-C , 23-H ) :   0.9096
B( 12-C , 24-H ) :   0.9350 B( 12-C , 25-H ) :   0.9236 B( 12-C , 26-H ) :   0.9269

Dispersion correction           -0.028515998
FINAL SINGLE POINT ENERGY      -464.784820900801

DIPOLE MOMENT
-------------

Method             : SCF
Type of density    : Electron Density
Multiplicity       :   1
Irrep              :   0
Energy             :  -464.8750726919345198 Eh
Relativity type    :
Basis              : AO
                                X                 Y                 Z
Electronic contribution:     -2.680756460      -1.204932757      -0.185865559
Nuclear contribution   :      2.617252103       1.368152729      -0.180395667
                        -----------------------------------------
Total Dipole Moment    :     -0.063504357       0.163219972      -0.366261226
                        -----------------------------------------
Magnitude (a.u.)       :      0.405981340
Magnitude (Debye)      :      1.031922559

Rotational constants in cm-1:             0.070349             0.022678             0.019901
Rotational constants in MHz :          2109.003896           679.865929           596.605050

                             ****ORCA TERMINATED NORMALLY****
TOTAL RUN TIME: 0 days 0 hours 0 minutes 12 seconds 418 msec
