                         Program Version 6.0.0  -   RELEASE  -
|  1> ! pbe def2-sv(p) def2/J RI DEFGRID1 loosescf d4 GCP(DFT/SV(P)) printgap
|  2> %output
|  3>     printlevel normal
|  4> end
|  5> * xyz 0 1
|  6> C 1.8571532327 0.0708302805 0.2587464613
|  7> C 0.5451360474 -0.165722958 -0.4706366325
|  8> O -0.525243173 0.1434762188 0.4057745682
|  9> C -1.7934450434 -0.0439655567 -0.178027507
| 10> H 1.9207002966 1.1085487152 0.5730919676
| 11> H 1.9063207049 -0.5611214923 1.1407271988
| 12> H 2.6897424868 -0.1596941888 -0.3981931069
| 13> H 0.4644189178 -1.2158224775 -0.7910218438
| 14> H 0.4802626633 0.4707361395 -1.3664922791
| 15> H -1.9200702601 0.5997938942 -1.0561192604
| 16> H -2.5228337177 0.2229707555 0.58246782
| 17> H -1.9362246216 -1.0882103959 -0.479162585
| 18> *
| 19>
| 20>                          ****END OF INPUT****

CARTESIAN COORDINATES (ANGSTROEM)
---------------------------------
  C      1.857153    0.070830    0.258746
  C      0.545136   -0.165723   -0.470637
  O     -0.525243    0.143476    0.405775
  C     -1.793445   -0.043966   -0.178028
  H      1.920700    1.108549    0.573092
  H      1.906321   -0.561121    1.140727
  H      2.689742   -0.159694   -0.398193
  H      0.464419   -1.215822   -0.791022
  H      0.480263    0.470736   -1.366492
  H     -1.920070    0.599794   -1.056119
  H     -2.522834    0.222971    0.582468
  H     -1.936225   -1.088210   -0.479163

 Total Charge           Charge          ....    0
 Multiplicity           Mult            ....    1
 Number of Electrons    NEL             ....   34
 Basis Dimension        Dim             ....   72

ORBITAL ENERGIES
----------------

  NO   OCC          E(Eh)            E(eV)
   0   2.0000     -18.746743      -510.1248
   1   2.0000      -9.929142      -270.1857
   2   2.0000      -9.921089      -269.9666
   3   2.0000      -9.874850      -268.7083
   4   2.0000      -0.927504       -25.2387
   5   2.0000      -0.683693       -18.6042
   6   2.0000      -0.600235       -16.3332
   7   2.0000      -0.535006       -14.5583
   8   2.0000      -0.436914       -11.8890
   9   2.0000      -0.426918       -11.6170
  10   2.0000      -0.400216       -10.8904
  11   2.0000      -0.372564       -10.1380
  12   2.0000      -0.340214        -9.2577
  13   2.0000      -0.319347        -8.6899
  14   2.0000      -0.309592        -8.4244
  15   2.0000      -0.262880        -7.1533
  16   2.0000      -0.201489        -5.4828
  17   0.0000       0.040292         1.0964
  18   0.0000       0.065369         1.7788
  19   0.0000       0.091482         2.4894
  20   0.0000       0.096448         2.6245
  21   0.0000       0.106742         2.9046

MULLIKEN ATOMIC CHARGES
-----------------------
   0 C :   -0.268028
   1 C :   -0.024456
   2 O :   -0.344365
   3 C :   -0.101107
   4 H :    0.110670
   5 H :    0.110694
   6 H :    0.100681
   7 H :    0.068357
   8 H :    0.068487
   9 H :    0.082347
  10 H :    0.114278
  11 H :    0.082443
Sum of atomic charges:   -0.0000000

LOEWDIN ATOMIC CHARGES
----------------------
   0 C :   -0.351031
   1 C :   -0.115333
   2 O :   -0.188659
   3 C :   -0.207758
   4 H :    0.124472
   5 H :    0.124477
   6 H :    0.124445
   7 H :    0.092545
   8 H :    0.092565
   9 H :    0.094678
  10 H :    0.114911
  11 H :    0.094688

  Mayer bond orders larger than 0.100000
B(  0-C ,  1-C ) :   1.1552 B(  0-C ,  4-H ) :   0.9519 B(  0-C ,  5-H ) :   0.9519
B(  0-C ,  6-H ) :   0.9458 B(  1-C ,  2-O ) :   1.0184 B(  1-C ,  7-H ) :   0.9188
B(  1-C ,  8-H ) :   0.9189 B(  2-O ,  3-C ) :   1.0273 B(  3-C ,  9-H ) :   0.9423
B(  3-C , 10-H ) :   0.9646 B(  3-C , 11-H ) :   0.9423

Dispersion correction           -0.006036097
FINAL SINGLE POINT ENERGY      -193.872592343284

DIPOLE MOMENT
-------------

Method             : SCF
Type of density    : Electron Density
Multiplicity       :   1
Irrep              :   0
Energy             :  -193.9212556144177313 Eh
Relativity type    :
Basis              : AO
                                X                 Y                 Z
Electronic contribution:     -1.056307690       0.447326812       1.281431941
Nuclear contribution   :      1.007581049      -0.582156992      -1.677699299
                        -----------------------------------------
Total Dipole Moment    :     -0.048726641      -0.134830180      -0.396267359
                        -----------------------------------------
Magnitude (a.u.)       :      0.421403942
Magnitude (Debye)      :      1.071123698

Rotational constants in cm-1:             0.946747             0.137973             0.129235
Rotational constants in MHz :         28382.767933          4136.338265          3874.364598

                             ****ORCA TERMINATED NORMALLY****
TOTAL RUN TIME: 0 days 0 hours 0 minutes 4 seconds 23 msec
