                         Program Version 6.0.0  -   RELEASE  -
|  1> ! wb97x-v def2-tzvp def2/J RIJCOSX DEFGRID2 scfconv7 GCP(DFT/TZ) printgap
|  2> %output
|  3>     printlevel normal
|  4> end
|  5> * xyz 0 1
|  6> C -1.4475534325439456 -0.0923518138375627 -0.0002602546549282892
|  7> C 0.04829412393229182 0.05720814131203722 -0.0007183292431018958
|  8> O 0.5844006335489249 1.180457518383466 0.0005710156280284124
|  9> N 0.7704285662142529 -1.0771575820673363 -0.0002690799747168694
| 10> H -1.7781614753895025 -1.132555055245751 -0.01749853877018749
| 11> H -1.845958125502614 0.3996575004993306 0.8922933524415148
| 12> H -1.8507526608969982 0.4319767278237945 -0.8717255464916904
| 13> H 1.778903676862285 -1.0268035769728114 0.0023627918455105482
| 14> H 0.3228644349934854 -1.979950072027296 -0.0007324466290503684
| 15> *
| 16>
| 17>                          ****END OF INPUT****

CARTESIAN COORDINATES (ANGSTROEM)
---------------------------------
  C     -1.447553   -0.092352   -0.000260
  C      0.048294    0.057208   -0.000718
  O      0.584401    1.180458    0.000571
  N      0.770429   -1.077158   -0.000269
  H     -1.778161   -1.132555   -0.017499
  H     -1.845958    0.399658    0.892293
  H     -1.850753    0.431977   -0.871726
  H      1.778904   -1.026804    0.002363
  H      0.322864   -1.979950   -0.000732

 Total Charge           Charge          ....    0
 Multiplicity           Mult            ....    1
 Number of Electrons    NEL             ....   32
 Basis Dimension        Dim             ....  154

ORBITAL ENERGIES
----------------

  NO   OCC          E(Eh)            E(eV)
   0   2.0000     -21.626398      -588.4842
   1   2.0000     -16.555421      -450.4959
   2   2.0000     -12.153121      -330.7032
   3   2.0000     -12.055948      -328.0590
   4   2.0000      -1.674924       -45.5770
   5   2.0000      -1.509029       -41.0628
   6   2.0000      -1.256801       -34.1993
   7   2.0000      -1.129654       -30.7395
   8   2.0000      -1.047954       -28.5163
   9   2.0000      -1.020819       -27.7779
  10   2.0000      -0.929598       -25.2956
  11   2.0000      -0.908202       -24.7134
  12   2.0000      -0.841844       -22.9077
  13   2.0000      -0.828307       -22.5394
  14   2.0000      -0.816194       -22.2098
  15   2.0000      -0.790357       -21.5067
  16   0.0000      -0.272335        -7.4106
  17   0.0000      -0.071708        -1.9513
  18   0.0000      -0.040425        -1.1000
  19   0.0000      -0.024217        -0.6590
  20   0.0000       0.008856         0.2410

MULLIKEN ATOMIC CHARGES
-----------------------
   0 C :   -0.321238
   1 C :    0.291789
   2 O :   -0.402227
   3 N :   -0.423837
   4 H :    0.091585
   5 H :    0.137489
   6 H :    0.137766
   7 H :    0.249380
   8 H :    0.239293
Sum of atomic charges:    0.0000000

LOEWDIN ATOMIC CHARGES
----------------------
   0 C :   -0.260692
   1 C :   -0.493219
   2 O :    0.014922
   3 N :    0.007568
   4 H :    0.115528
   5 H :    0.138810
   6 H :    0.138707
   7 H :    0.172014
   8 H :    0.166363

  Mayer bond orders larger than 0.100000
B(  0-C ,  1-C ) :   0.9504 B(  0-C ,  4-H ) :   0.9735 B(  0-C ,  5-H ) :   0.9621
B(  0-C ,  6-H ) :   0.9633 B(  1-C ,  2-O ) :   2.0632 B(  1-C ,  3-N ) :   1.2328
B(  3-N ,  7-H ) :   0.9026 B(  3-N ,  8-H ) :   0.9181

FINAL SINGLE POINT ENERGY      -209.229740317688

DIPOLE MOMENT
-------------

Method             : SCF
Type of density    : Electron Density
Multiplicity       :   1
Irrep              :   0
Energy             :  -209.2352991966882030 Eh
Relativity type    :
Basis              : AO
                                X                 Y                 Z
Electronic contribution:      2.743144875       1.498426230      -0.003058473
Nuclear contribution   :     -3.146467280      -3.095017170       0.004547621
                        -----------------------------------------
Total Dipole Moment    :     -0.403322405      -1.596590940       0.001489148
                        -----------------------------------------
Magnitude (a.u.)       :      1.646746432
Magnitude (Debye)      :      4.185696786

Rotational constants in cm-1:             0.360317             0.311948             0.172567
Rotational constants in MHz :         10802.021368          9351.975712          5173.415878

                             ****ORCA TERMINATED NORMALLY****
TOTAL RUN TIME: 0 days 0 hours 0 minutes 37 seconds 445 msec
