                         Program Version 6.0.0  -   RELEASE  -
|  1> ! wb97x-v def2-tzvp def2/J RIJCOSX DEFGRID2 scfconv7 GCP(DFT/TZ) printgap
|  2> %output
|  3>     printlevel normal
|  4> end
|  5> %cpcm
|  6>     smd true
|  7>     smdsolvent "water"
|  8> end
|  9> * xyz 0 1
| 10> C -1.4475534325439456 -0.0923518138375627 -0.0002602546549282892
| 11> C 0.04829412393229182 0.05720814131203722 -0.0007183292431018958
| 12> O 0.5844006335489249 1.180457518383466 0.0005710156280284124
| 13> N 0.7704285662142529 -1.0771575820673363 -0.0002690799747168694
| 14> H -1.7781614753895025 -1.132555055245751 -0.01749853877018749
| 15> H -1.845958125502614 0.3996575004993306 0.8922933524415148
| 16> H -1.8507526608969982 0.4319767278237945 -0.8717255464916904
| 17> H 1.778903676862285 -1.0268035769728114 0.0023627918455105482
| 18> H 0.3228644349934854 -1.979950072027296 -0.0007324466290503684
| 19> *
| 20>
| 21>                          ****END OF INPUT****

CARTESIAN COORDINATES (ANGSTROEM)
---------------------------------
  C     -1.447553   -0.092352   -0.000260
  C      0.048294    0.057208   -0.000718
  O      0.584401    1.180458    0.000571
  N      0.770429   -1.077158   -0.000269
  H     -1.778161   -1.132555   -0.017499
  H     -1.845958    0.399658    0.892293
  H     -1.850753    0.431977   -0.871726
  H      1.778904   -1.026804    0.002363
  H      0.322864   -1.979950   -0.000732

 Total Charge           Charge          ....    0
 Multiplicity           Mult            ....    1
 Number of Electrons    NEL             ....   32
 Basis Dimension        Dim             ....  154

ORBITAL ENERGIES
----------------

  NO   OCC          E(Eh)            E(eV)
   0   2.0000     -21.642976      -588.9353
   1   2.0000     -16.545855      -450.2356
   2   2.0000     -12.160478      -330.9034
   3   2.0000     -12.042318      -327.6881
   4   2.0000      -1.694312       -46.1046
   5   2.0000      -1.501305       -40.8526
   6   2.0000      -1.248528       -33.9742
   7   2.0000      -1.125185       -30.6178
   8   2.0000      -1.051238       -28.6056
   9   2.0000      -1.021532       -27.7973
  10   2.0000      -0.933501       -25.4019
  11   2.0000      -0.921689       -25.0804
  12   2.0000      -0.829428       -22.5699
  13   2.0000      -0.825759       -22.4700
  14   2.0000      -0.824183       -22.4272
  15   2.0000      -0.785660       -21.3789
  16   0.0000      -0.272778        -7.4227
  17   0.0000      -0.055013        -1.4970
  18   0.0000      -0.017577        -0.4783
  19   0.0000      -0.010402        -0.2831
  20   0.0000       0.026454         0.7198

MULLIKEN ATOMIC CHARGES
-----------------------
   0 C :   -0.369977
   1 C :    0.335380
   2 O :   -0.571813
   3 N :   -0.434346
   4 H :    0.143217
   5 H :    0.155044
   6 H :    0.154445
   7 H :    0.287114
   8 H :    0.300935
Sum of atomic charges:    0.0000000

LOEWDIN ATOMIC CHARGES
----------------------
   0 C :   -0.256761
   1 C :   -0.485331
   2 O :   -0.088349
   3 N :    0.036630
   4 H :    0.132348
   5 H :    0.142935
   6 H :    0.142469
   7 H :    0.185445
   8 H :    0.190614

  Mayer bond orders larger than 0.100000
B(  0-C ,  1-C ) :   0.9683 B(  0-C ,  4-H ) :   0.9647 B(  0-C ,  5-H ) :   0.9533
B(  0-C ,  6-H ) :   0.9547 B(  1-C ,  2-O ) :   1.8742 B(  1-C ,  3-N ) :   1.3290
B(  3-N ,  7-H ) :   0.8847 B(  3-N ,  8-H ) :   0.8885

FINAL SINGLE POINT ENERGY      -209.247611601917

DIPOLE MOMENT
-------------

Method             : SCF
Type of density    : Electron Density
Multiplicity       :   1
Irrep              :   0
Energy             :  -209.2531704809171345 Eh
Relativity type    :
Basis              : AO
                                X                 Y                 Z
Electronic contribution:      2.576164155       0.834930408      -0.002640738
Nuclear contribution   :     -3.146467280      -3.095017170       0.004547621
                        -----------------------------------------
Total Dipole Moment    :     -0.570303125      -2.260086763       0.001906883
                        -----------------------------------------
Magnitude (a.u.)       :      2.330931459
Magnitude (Debye)      :      5.924756920

Rotational constants in cm-1:             0.360317             0.311948             0.172567
Rotational constants in MHz :         10802.021368          9351.975712          5173.415878

                             ****ORCA TERMINATED NORMALLY****
TOTAL RUN TIME: 0 days 0 hours 0 minutes 38 seconds 566 msec
