                         Program Version 6.0.0  -   RELEASE  -
|  1> ! pbe def2-sv(p) def2/J RI DEFGRID1 loosescf d4 GCP(DFT/SV(P)) printgap
|  2> %output
|  3>     printlevel normal
|  4> end
|  5> * xyz 0 1
|  6> C 1.7351158002 0.1244005379 0.8867602916
|  7> N 1.1063114228 -0.0414950105 -0.4128434182
|  8> C 0.3494732295 -1.2805304855 -0.5464285245
|  9> C -1.1265086178 -1.1162761008 -0.112409225
| 10> O -1.2808829657 -0.0050134603 0.7524398551
| 11> C -0.9767307433 1.2196278025 0.1004902968
| 12> C 0.2741152007 1.0826657723 -0.7976114756
| 13> H 1.0277056261 0.125283245 1.7248784008
| 14> H 2.2809842941 1.0663933203 0.8846514676
| 15> H 2.4467800607 -0.6877019554 1.0291988002
| 16> H 0.3859615989 -1.5836705988 -1.5977208204
| 17> H 0.8409483083 -2.0475236311 0.0510248247
| 18> H -1.7771364288 -0.9836656386 -0.988540797
| 19> H -1.473466864 -1.9779745024 0.4582507304
| 20> H -1.8433909224 1.541871608 -0.4956642437
| 21> H -0.8164212709 1.9366378335 0.9072884886
| 22> H -0.0262336091 0.9148534932 -1.8352868065
| 23> H 0.8683461705 1.9955677066 -0.7536842571
| 24> *
| 25>
| 26>                          ****END OF INPUT****

CARTESIAN COORDINATES (ANGSTROEM)
---------------------------------
  C      1.735116    0.124401    0.886760
  N      1.106311   -0.041495   -0.412843
  C      0.349473   -1.280530   -0.546429
  C     -1.126509   -1.116276   -0.112409
  O     -1.280883   -0.005013    0.752440
  C     -0.976731    1.219628    0.100490
  C      0.274115    1.082666   -0.797611
  H      1.027706    0.125283    1.724878
  H      2.280984    1.066393    0.884651
  H      2.446780   -0.687702    1.029199
  H      0.385962   -1.583671   -1.597721
  H      0.840948   -2.047524    0.051025
  H     -1.777136   -0.983666   -0.988541
  H     -1.473467   -1.977975    0.458251
  H     -1.843391    1.541872   -0.495664
  H     -0.816421    1.936638    0.907288
  H     -0.026234    0.914853   -1.835287
  H      0.868346    1.995568   -0.753684

 Total Charge           Charge          ....    0
 Multiplicity           Mult            ....    1
 Number of Electrons    NEL             ....   56
 Basis Dimension        Dim             ....  120

ORBITAL ENERGIES
----------------

  NO   OCC          E(Eh)            E(eV)
   0   2.0000     -18.752340      -510.2771
   1   2.0000     -13.983798      -380.5185
   2   2.0000      -9.928382      -270.1650
   3   2.0000      -9.927273      -270.1348
   4   2.0000      -9.910101      -269.6676
   5   2.0000      -9.908021      -269.6109
   6   2.0000      -9.895391      -269.2673
   7   2.0000      -0.938359       -25.5340
   8   2.0000      -0.832054       -22.6413
   9   2.0000      -0.690181       -18.7808
  10   2.0000      -0.647179       -17.6106
  11   2.0000      -0.588234       -16.0067
  12   2.0000      -0.571862       -15.5612
  13   2.0000      -0.478997       -13.0342
  14   2.0000      -0.455421       -12.3926
  15   2.0000      -0.446429       -12.1480
  16   2.0000      -0.436893       -11.8885
  17   2.0000      -0.393849       -10.7172
  18   2.0000      -0.381620       -10.3844
  19   2.0000      -0.370426       -10.0798
  20   2.0000      -0.352872        -9.6021
  21   2.0000      -0.339955        -9.2507
  22   2.0000      -0.321451        -8.7471
  23   2.0000      -0.315901        -8.5961
  24   2.0000      -0.298498        -8.1225
  25   2.0000      -0.265848        -7.2341
  26   2.0000      -0.213517        -5.8101
  27   2.0000      -0.158600        -4.3157
  28   0.0000       0.025870         0.7039
  29   0.0000       0.053432         1.4540
  30   0.0000       0.067996         1.8503
  31   0.0000       0.074478         2.0266
  32   0.0000       0.082495         2.2448

MULLIKEN ATOMIC CHARGES
-----------------------
   0 C :   -0.179713
   1 N :   -0.293902
   2 C :   -0.057192
   3 C :   -0.001492
   4 O :   -0.337836
   5 C :    0.021868
   6 C :   -0.112476
   7 H :    0.097458
   8 H :    0.096586
   9 H :    0.102088
  10 H :    0.081154
  11 H :    0.083743
  12 H :    0.064629
  13 H :    0.094756
  14 H :    0.070110
  15 H :    0.090590
  16 H :    0.085382
  17 H :    0.094247
Sum of atomic charges:    0.0000000

LOEWDIN ATOMIC CHARGES
----------------------
   0 C :   -0.264227
   1 N :   -0.143572
   2 C :   -0.175150
   3 C :   -0.127471
   4 O :   -0.170623
   5 C :   -0.129936
   6 C :   -0.181648
   7 H :    0.096429
   8 H :    0.111842
   9 H :    0.112242
  10 H :    0.109513
  11 H :    0.116054
  12 H :    0.093647
  13 H :    0.116055
  14 H :    0.096692
  15 H :    0.111378
  16 H :    0.110757
  17 H :    0.118016

  Mayer bond orders larger than 0.100000
B(  0-C ,  1-N ) :   1.0339 B(  0-C ,  7-H ) :   0.9274 B(  0-C ,  8-H ) :   0.9533
B(  0-C ,  9-H ) :   0.9555 B(  1-N ,  2-C ) :   1.0636 B(  1-N ,  6-C ) :   1.0880
B(  2-C ,  3-C ) :   1.0707 B(  2-C , 10-H ) :   0.9209 B(  2-C , 11-H ) :   0.9234
B(  3-C ,  4-O ) :   1.0447 B(  3-C , 12-H ) :   0.9141 B(  3-C , 13-H ) :   0.9340
B(  4-O ,  5-C ) :   1.0314 B(  5-C ,  6-C ) :   1.0554 B(  5-C , 14-H ) :   0.9170
B(  5-C , 15-H ) :   0.9311 B(  6-C , 16-H ) :   0.9254 B(  6-C , 17-H ) :   0.9257

Dispersion correction           -0.015864269
FINAL SINGLE POINT ENERGY      -326.332825305405

DIPOLE MOMENT
-------------

Method             : SCF
Type of density    : Electron Density
Multiplicity       :   1
Irrep              :   0
Energy             :  -326.4059061980275374 Eh
Relativity type    :
Basis              : AO
                                X                 Y                 Z
Electronic contribution:     -1.748375348      -0.256517818       0.361701796
Nuclear contribution   :      1.782784707       0.281214779      -0.568640960
                        -----------------------------------------
Total Dipole Moment    :      0.034409359       0.024696961      -0.206939164
                        -----------------------------------------
Magnitude (a.u.)       :      0.211229168
Magnitude (Debye)      :      0.536901876

Rotational constants in cm-1:             0.122915             0.094739             0.075429
Rotational constants in MHz :          3684.895999          2840.214600          2261.311440

                             ****ORCA TERMINATED NORMALLY****
TOTAL RUN TIME: 0 days 0 hours 0 minutes 8 seconds 4 msec
