                         Program Version 6.0.0  -   RELEASE  -
|  1> ! wb97x-v def2-tzvp def2/J RIJCOSX DEFGRID2 scfconv7 GCP(DFT/TZ) printgap
|  2> %output
|  3>     printlevel normal
|  4> end
|  5> * xyz 0 1
|  6> C -2.7701232304825703 -0.7870796655180088 2.3629911561487016e-05
|  7> O -1.7997495513453328 0.27143619743849334 -4.731547359982529e-06
|  8> C -0.47975551938009237 -0.09795952583185638 -4.422208248814568e-06
|  9> C -0.014113294655662622 -1.4099351568665865 -6.201349678203157e-06
| 10> C 1.3598728447934443 -1.66658578895518 -3.1654724297949564e-06
| 11> C 2.269010137627024 -0.6173142788414148 1.4060738930390031e-06
| 12> C 1.8075429743143578 0.7002189169504814 1.5338088207346868e-06
| 13> C 0.4451986572613614 0.9636202060024743 -1.9626409774598677e-06
| 14> O -0.07090659158833239 2.2396939560446123 -1.8658343727696353e-06
| 15> H -3.7425282273799096 -0.293680828732711 4.035918343538931e-05
| 16> H -2.6725611107567855 -1.4083917063899556 0.8973708011801966
| 17> H -2.6725998893758947 -1.408406195106956 -0.8973178340738887
| 18> H -0.712294445719446 -2.2380451944408293 -1.0223858372767762e-05
| 19> H 1.706594056875598 -2.694622806898775 -4.184942814443027e-06
| 20> H 3.336423813279795 -0.8109457784572175 5.070778310628719e-06
| 21> H 2.50369942982174 1.5349361543404831 5.182678329976109e-06
| 22> H 0.6655815872997723 2.8671936551369144 -2.0866811581200202e-06
| 23> *
| 24>
| 25>                          ****END OF INPUT****

CARTESIAN COORDINATES (ANGSTROEM)
---------------------------------
  C     -2.770123   -0.787080    0.000024
  O     -1.799750    0.271436   -0.000005
  C     -0.479756   -0.097960   -0.000004
  C     -0.014113   -1.409935   -0.000006
  C      1.359873   -1.666586   -0.000003
  C      2.269010   -0.617314    0.000001
  C      1.807543    0.700219    0.000002
  C      0.445199    0.963620   -0.000002
  O     -0.070907    2.239694   -0.000002
  H     -3.742528   -0.293681    0.000040
  H     -2.672561   -1.408392    0.897371
  H     -2.672600   -1.408406   -0.897318
  H     -0.712294   -2.238045   -0.000010
  H      1.706594   -2.694623   -0.000004
  H      3.336424   -0.810946    0.000005
  H      2.503699    1.534936    0.000005
  H      0.665582    2.867194   -0.000002

 Total Charge           Charge          ....    0
 Multiplicity           Mult            ....    1
 Number of Electrons    NEL             ....   66
 Basis Dimension        Dim             ....  327

ORBITAL ENERGIES
----------------

  NO   OCC          E(Eh)            E(eV)
   0   2.0000     -21.699605      -590.4763
   1   2.0000     -21.699391      -590.4704
   2   2.0000     -12.110358      -329.5396
   3   2.0000     -12.107840      -329.4711
   4   2.0000     -12.099813      -329.2527
   5   2.0000     -12.052249      -327.9584
   6   2.0000     -12.050912      -327.9220
   7   2.0000     -12.048229      -327.8490
   8   2.0000     -12.045956      -327.7871
   9   2.0000      -1.717120       -46.7252
  10   2.0000      -1.707813       -46.4720
  11   2.0000      -1.385602       -37.7041
  12   2.0000      -1.296852       -35.2891
  13   2.0000      -1.279941       -34.8290
  14   2.0000      -1.225607       -33.3505
  15   2.0000      -1.157737       -31.5036
  16   2.0000      -1.113493       -30.2997
  17   2.0000      -1.064921       -28.9780
  18   2.0000      -1.046917       -28.4881
  19   2.0000      -1.009229       -27.4625
  20   2.0000      -0.975094       -26.5337
  21   2.0000      -0.970865       -26.4186
  22   2.0000      -0.941196       -25.6113
  23   2.0000      -0.925797       -25.1922
  24   2.0000      -0.924933       -25.1687
  25   2.0000      -0.898271       -24.4432
  26   2.0000      -0.840401       -22.8685
  27   2.0000      -0.832927       -22.6651
  28   2.0000      -0.822192       -22.3730
  29   2.0000      -0.821584       -22.3564
  30   2.0000      -0.763460       -20.7748
  31   2.0000      -0.643060       -17.4985
  32   2.0000      -0.632394       -17.2083
  33   0.0000      -0.247043        -6.7224
  34   0.0000      -0.245663        -6.6848
  35   0.0000      -0.195126        -5.3097
  36   0.0000      -0.140131        -3.8132
  37   0.0000      -0.085971        -2.3394

MULLIKEN ATOMIC CHARGES
-----------------------
   0 C :   -0.220480
   1 O :   -0.238322
   2 C :    0.231460
   3 C :   -0.234857
   4 C :   -0.153756
   5 C :   -0.155314
   6 C :   -0.165109
   7 C :    0.160381
   8 O :   -0.377080
   9 H :    0.137643
  10 H :    0.121484
  11 H :    0.121488
  12 H :    0.129479
  13 H :    0.114815
  14 H :    0.115088
  15 H :    0.102522
  16 H :    0.310559
Sum of atomic charges:   -0.0000000

LOEWDIN ATOMIC CHARGES
----------------------
   0 C :   -0.310133
   1 O :    0.223894
   2 C :   -0.223270
   3 C :   -0.141335
   4 C :   -0.157643
   5 C :   -0.157355
   6 C :   -0.145845
   7 C :   -0.238365
   8 O :    0.072588
   9 H :    0.113102
  10 H :    0.105483
  11 H :    0.105483
  12 H :    0.146117
  13 H :    0.140914
  14 H :    0.140935
  15 H :    0.140416
  16 H :    0.185016

  Mayer bond orders larger than 0.100000
B(  0-C ,  1-O ) :   0.9548 B(  0-C ,  9-H ) :   0.9784 B(  0-C , 10-H ) :   0.9734
B(  0-C , 11-H ) :   0.9734 B(  1-O ,  2-C ) :   1.1978 B(  2-C ,  3-C ) :   1.4011
B(  2-C ,  7-C ) :   1.3316 B(  3-C ,  4-C ) :   1.4002 B(  3-C , 12-H ) :   0.9607
B(  4-C ,  5-C ) :   1.4939 B(  4-C , 13-H ) :   0.9686 B(  5-C ,  6-C ) :   1.3911
B(  5-C , 14-H ) :   0.9684 B(  6-C ,  7-C ) :   1.4406 B(  6-C , 15-H ) :   0.9655
B(  7-C ,  8-O ) :   1.1987 B(  8-O , 16-H ) :   0.8884

FINAL SINGLE POINT ENERGY      -422.011804539982

DIPOLE MOMENT
-------------

Method             : SCF
Type of density    : Electron Density
Multiplicity       :   1
Irrep              :   0
Energy             :  -422.0218471901815178 Eh
Relativity type    :
Basis              : AO
                                X                 Y                 Z
Electronic contribution:      1.699374515       3.904374767      -0.000061112
Nuclear contribution   :     -1.511814504      -4.180590308       0.000074795
                        -----------------------------------------
Total Dipole Moment    :      0.187560011      -0.276215541       0.000013683
                        -----------------------------------------
Magnitude (a.u.)       :      0.333876898
Magnitude (Debye)      :      0.848647633

Rotational constants in cm-1:             0.085476             0.052013             0.032539
Rotational constants in MHz :          2562.495118          1559.302764           975.483478

                             ****ORCA TERMINATED NORMALLY****
TOTAL RUN TIME: 0 days 0 hours 3 minutes 19 seconds 181 msec
