                         Program Version 6.0.0  -   RELEASE  -
|  1> ! wb97x-v def2-tzvp def2/J RIJCOSX DEFGRID2 scfconv7 GCP(DFT/TZ) printgap
|  2> %output
|  3>     printlevel normal
|  4> end
|  5> %cpcm
|  6>     smd true
|  7>     smdsolvent "water"
|  8> end
|  9> * xyz 0 1
| 10> C -2.7701232304825703 -0.7870796655180088 2.3629911561487016e-05
| 11> O -1.7997495513453328 0.27143619743849334 -4.731547359982529e-06
| 12> C -0.47975551938009237 -0.09795952583185638 -4.422208248814568e-06
| 13> C -0.014113294655662622 -1.4099351568665865 -6.201349678203157e-06
| 14> C 1.3598728447934443 -1.66658578895518 -3.1654724297949564e-06
| 15> C 2.269010137627024 -0.6173142788414148 1.4060738930390031e-06
| 16> C 1.8075429743143578 0.7002189169504814 1.5338088207346868e-06
| 17> C 0.4451986572613614 0.9636202060024743 -1.9626409774598677e-06
| 18> O -0.07090659158833239 2.2396939560446123 -1.8658343727696353e-06
| 19> H -3.7425282273799096 -0.293680828732711 4.035918343538931e-05
| 20> H -2.6725611107567855 -1.4083917063899556 0.8973708011801966
| 21> H -2.6725998893758947 -1.408406195106956 -0.8973178340738887
| 22> H -0.712294445719446 -2.2380451944408293 -1.0223858372767762e-05
| 23> H 1.706594056875598 -2.694622806898775 -4.184942814443027e-06
| 24> H 3.336423813279795 -0.8109457784572175 5.070778310628719e-06
| 25> H 2.50369942982174 1.5349361543404831 5.182678329976109e-06
| 26> H 0.6655815872997723 2.8671936551369144 -2.0866811581200202e-06
| 27> *
| 28>
| 29>                          ****END OF INPUT****

CARTESIAN COORDINATES (ANGSTROEM)
---------------------------------
  C     -2.770123   -0.787080    0.000024
  O     -1.799750    0.271436   -0.000005
  C     -0.479756   -0.097960   -0.000004
  C     -0.014113   -1.409935   -0.000006
  C      1.359873   -1.666586   -0.000003
  C      2.269010   -0.617314    0.000001
  C      1.807543    0.700219    0.000002
  C      0.445199    0.963620   -0.000002
  O     -0.070907    2.239694   -0.000002
  H     -3.742528   -0.293681    0.000040
  H     -2.672561   -1.408392    0.897371
  H     -2.672600   -1.408406   -0.897318
  H     -0.712294   -2.238045   -0.000010
  H      1.706594   -2.694623   -0.000004
  H      3.336424   -0.810946    0.000005
  H      2.503699    1.534936    0.000005
  H      0.665582    2.867194   -0.000002

 Total Charge           Charge          ....    0
 Multiplicity           Mult            ....    1
 Number of Electrons    NEL             ....   66
 Basis Dimension        Dim             ....  327

ORBITAL ENERGIES
----------------

  NO   OCC          E(Eh)            E(eV)
   0   2.0000     -21.706045      -590.6515
   1   2.0000     -21.702800      -590.5632
   2   2.0000     -12.113018      -329.6120
   3   2.0000     -12.110793      -329.5514
   4   2.0000     -12.088495      -328.9447
   5   2.0000     -12.050402      -327.9081
   6   2.0000     -12.050200      -327.9026
   7   2.0000     -12.047463      -327.8281
   8   2.0000     -12.045408      -327.7722
   9   2.0000      -1.722816       -46.8802
  10   2.0000      -1.712724       -46.6056
  11   2.0000      -1.387857       -37.7655
  12   2.0000      -1.298654       -35.3382
  13   2.0000      -1.280599       -34.8469
  14   2.0000      -1.224227       -33.3129
  15   2.0000      -1.159883       -31.5620
  16   2.0000      -1.112546       -30.2739
  17   2.0000      -1.066524       -29.0216
  18   2.0000      -1.048777       -28.5387
  19   2.0000      -1.011733       -27.5307
  20   2.0000      -0.980967       -26.6935
  21   2.0000      -0.976284       -26.5660
  22   2.0000      -0.947672       -25.7875
  23   2.0000      -0.928504       -25.2659
  24   2.0000      -0.923349       -25.1256
  25   2.0000      -0.893116       -24.3029
  26   2.0000      -0.837463       -22.7885
  27   2.0000      -0.825396       -22.4602
  28   2.0000      -0.817857       -22.2550
  29   2.0000      -0.814120       -22.1533
  30   2.0000      -0.766620       -20.8608
  31   2.0000      -0.644514       -17.5381
  32   2.0000      -0.637050       -17.3350
  33   0.0000      -0.250323        -6.8116
  34   0.0000      -0.247019        -6.7217
  35   0.0000      -0.195333        -5.3153
  36   0.0000      -0.137111        -3.7310
  37   0.0000      -0.086431        -2.3519

MULLIKEN ATOMIC CHARGES
-----------------------
   0 C :   -0.233399
   1 O :   -0.313920
   2 C :    0.236882
   3 C :   -0.273580
   4 C :   -0.200309
   5 C :   -0.191907
   6 C :   -0.223876
   7 C :    0.173728
   8 O :   -0.473070
   9 H :    0.157728
  10 H :    0.145984
  11 H :    0.145988
  12 H :    0.177631
  13 H :    0.161903
  14 H :    0.162197
  15 H :    0.168110
  16 H :    0.379911
Sum of atomic charges:   -0.0000000

LOEWDIN ATOMIC CHARGES
----------------------
   0 C :   -0.304028
   1 O :    0.191249
   2 C :   -0.237658
   3 C :   -0.141946
   4 C :   -0.167512
   5 C :   -0.166779
   6 C :   -0.141097
   7 C :   -0.251081
   8 O :    0.040906
   9 H :    0.118092
  10 H :    0.114526
  11 H :    0.114526
  12 H :    0.159357
  13 H :    0.150677
  14 H :    0.150725
  15 H :    0.157861
  16 H :    0.212183

  Mayer bond orders larger than 0.100000
B(  0-C ,  1-O ) :   0.9155 B(  0-C ,  9-H ) :   0.9700 B(  0-C , 10-H ) :   0.9709
B(  0-C , 11-H ) :   0.9709 B(  1-O ,  2-C ) :   1.1403 B(  2-C ,  3-C ) :   1.3954
B(  2-C ,  7-C ) :   1.3176 B(  3-C ,  4-C ) :   1.3751 B(  3-C , 12-H ) :   0.9613
B(  4-C ,  5-C ) :   1.4556 B(  4-C , 13-H ) :   0.9720 B(  5-C ,  6-C ) :   1.3533
B(  5-C , 14-H ) :   0.9711 B(  6-C ,  7-C ) :   1.4422 B(  6-C , 15-H ) :   0.9695
B(  7-C ,  8-O ) :   1.1189 B(  8-O , 16-H ) :   0.8460

FINAL SINGLE POINT ENERGY      -422.024981119147

DIPOLE MOMENT
-------------

Method             : SCF
Type of density    : Electron Density
Multiplicity       :   1
Irrep              :   0
Energy             :  -422.0350237693467648 Eh
Relativity type    :
Basis              : AO
                                X                 Y                 Z
Electronic contribution:      1.913896078       3.711089670      -0.000056081
Nuclear contribution   :     -1.511814504      -4.180590308       0.000074795
                        -----------------------------------------
Total Dipole Moment    :      0.402081575      -0.469500638       0.000018713
                        -----------------------------------------
Magnitude (a.u.)       :      0.618142736
Magnitude (Debye)      :      1.571193971

Rotational constants in cm-1:             0.085476             0.052013             0.032539
Rotational constants in MHz :          2562.495118          1559.302764           975.483478

                             ****ORCA TERMINATED NORMALLY****
TOTAL RUN TIME: 0 days 0 hours 3 minutes 19 seconds 176 msec
