                         Program Version 6.0.0  -   RELEASE  -
|  1> ! wb97x-v def2-tzvp def2/J RIJCOSX DEFGRID2 scfconv7 GCP(DFT/TZ) printgap
|  2> %output
|  3>     printlevel normal
|  4> end
|  5> * xyz 0 1
|  6> C -1.618830152243709 -1.6946983217458083 -0.35786344637417233
|  7> C -1.5873410143867384 -0.23324380209127626 -0.7960026101628285
|  8> C -2.260844016128761 0.6789940872794502 0.22527728668473146
|  9> C -0.20012793809675242 0.23658618150441466 -1.181929902802984
| 10> Br 1.1026999218074487 0.2137408687493715 0.3459458329091557
| 11> H -1.0879580397442947 -1.8271460262060413 0.5906411723260416
| 12> H -2.651486510645824 -2.027421991290478 -0.21542567416857936
| 13> H -1.1503522528643755 -2.3443308465555237 -1.104614005762098
| 14> H -2.143061754717402 -0.15071282707509237 -1.744317199074915
| 15> H -3.302273190061764 0.3787846286196111 0.37563923989647
| 16> H -2.250174600190023 1.7228713775920206 -0.10525696069149724
| 17> H -1.750368982161821 0.6222406313815609 1.1923620278367444
| 18> H -0.19441507510585496 1.272848224281042 -1.5193418392932694
| 19> H 0.25949863412920443 -0.4074735920874974 -1.9313454685538443
| 20> *
| 21>
| 22>                          ****END OF INPUT****

CARTESIAN COORDINATES (ANGSTROEM)
---------------------------------
  C     -1.618830   -1.694698   -0.357863
  C     -1.587341   -0.233244   -0.796003
  C     -2.260844    0.678994    0.225277
  C     -0.200128    0.236586   -1.181930
  Br     1.102700    0.213741    0.345946
  H     -1.087958   -1.827146    0.590641
  H     -2.651487   -2.027422   -0.215426
  H     -1.150352   -2.344331   -1.104614
  H     -2.143062   -0.150713   -1.744317
  H     -3.302273    0.378785    0.375639
  H     -2.250175    1.722871   -0.105257
  H     -1.750369    0.622241    1.192362
  H     -0.194415    1.272848   -1.519342
  H      0.259499   -0.407474   -1.931345

 Total Charge           Charge          ....    0
 Multiplicity           Mult            ....    1
 Number of Electrons    NEL             ....   68
 Basis Dimension        Dim             ....  226

ORBITAL ENERGIES
----------------

  NO   OCC          E(Eh)            E(eV)
   0   2.0000    -494.705430    -13461.6191
   1   2.0000     -66.874928     -1819.7593
   2   2.0000     -60.931722     -1658.0365
   3   2.0000     -60.930227     -1657.9958
   4   2.0000     -60.930192     -1657.9948
   5   2.0000     -12.106771      -329.4420
   6   2.0000     -12.068286      -328.3948
   7   2.0000     -12.040342      -327.6344
   8   2.0000     -12.040034      -327.6260
   9   2.0000     -10.626571      -289.1637
  10   2.0000      -8.406139      -228.7427
  11   2.0000      -8.399770      -228.5694
  12   2.0000      -8.399680      -228.5669
  13   2.0000      -4.391182      -119.4901
  14   2.0000      -4.388740      -119.4237
  15   2.0000      -4.388660      -119.4215
  16   2.0000      -4.381603      -119.2295
  17   2.0000      -4.381585      -119.2290
  18   2.0000      -1.347194       -36.6590
  19   2.0000      -1.297107       -35.2961
  20   2.0000      -1.185469       -32.2582
  21   2.0000      -1.180073       -32.1114
  22   2.0000      -1.040914       -28.3247
  23   2.0000      -0.909359       -24.7449
  24   2.0000      -0.900162       -24.4947
  25   2.0000      -0.885070       -24.0840
  26   2.0000      -0.827724       -22.5235
  27   2.0000      -0.814186       -22.1551
  28   2.0000      -0.813251       -22.1297
  29   2.0000      -0.795899       -21.6575
  30   2.0000      -0.788488       -21.4558
  31   2.0000      -0.760038       -20.6817
  32   2.0000      -0.711395       -19.3580
  33   2.0000      -0.708536       -19.2802
  34   0.0000      -0.283430        -7.7125
  35   0.0000      -0.036074        -0.9816
  36   0.0000      -0.031596        -0.8598
  37   0.0000      -0.020812        -0.5663
  38   0.0000      -0.010140        -0.2759

MULLIKEN ATOMIC CHARGES
-----------------------
   0 C :   -0.351368
   1 C :   -0.014098
   2 C :   -0.351128
   3 C :   -0.180748
   4 Br:   -0.165585
   5 H :    0.129195
   6 H :    0.114509
   7 H :    0.109436
   8 H :    0.073843
   9 H :    0.114450
  10 H :    0.109402
  11 H :    0.129105
  12 H :    0.141522
  13 H :    0.141463
Sum of atomic charges:   -0.0000000

LOEWDIN ATOMIC CHARGES
----------------------
   0 C :   -0.282237
   1 C :   -0.351150
   2 C :   -0.282213
   3 C :   -0.390408
   4 Br:    0.170926
   5 H :    0.121867
   6 H :    0.120438
   7 H :    0.119595
   8 H :    0.157534
   9 H :    0.120430
  10 H :    0.119588
  11 H :    0.121870
  12 H :    0.126873
  13 H :    0.126888

  Mayer bond orders larger than 0.100000
B(  0-C ,  1-C ) :   0.9856 B(  0-C ,  5-H ) :   0.9678 B(  0-C ,  6-H ) :   0.9791
B(  0-C ,  7-H ) :   0.9781 B(  1-C ,  2-C ) :   0.9858 B(  1-C ,  3-C ) :   0.9912
B(  1-C ,  8-H ) :   0.9473 B(  2-C ,  9-H ) :   0.9791 B(  2-C , 10-H ) :   0.9780
B(  2-C , 11-H ) :   0.9678 B(  3-C ,  4-Br) :   1.0092 B(  3-C , 12-H ) :   0.9687
B(  3-C , 13-H ) :   0.9688

FINAL SINGLE POINT ENERGY     -2731.776179886093

DIPOLE MOMENT
-------------

Method             : SCF
Type of density    : Electron Density
Multiplicity       :   1
Irrep              :   0
Energy             : -2731.7877146403930055 Eh
Relativity type    :
Basis              : AO
                                X                 Y                 Z
Electronic contribution:     22.894464097       4.522391457       6.800894987
Nuclear contribution   :    -23.592191683      -4.561154029      -7.411476903
                        -----------------------------------------
Total Dipole Moment    :     -0.697727585      -0.038762572      -0.610581917
                        -----------------------------------------
Magnitude (a.u.)       :      0.927974459
Magnitude (Debye)      :      2.358723625

Rotational constants in cm-1:             0.185505             0.054428             0.050906
Rotational constants in MHz :          5561.299289          1631.716751          1526.118262

                             ****ORCA TERMINATED NORMALLY****
TOTAL RUN TIME: 0 days 0 hours 1 minutes 33 seconds 508 msec
