                         Program Version 6.0.0  -   RELEASE  -
|  1> ! wb97x-v def2-tzvp def2/J RIJCOSX DEFGRID2 scfconv7 GCP(DFT/TZ) printgap
|  2> %output
|  3>     printlevel normal
|  4> end
|  5> %cpcm
|  6>     smd true
|  7>     smdsolvent "water"
|  8> end
|  9> * xyz 0 1
| 10> C -1.618830152243709 -1.6946983217458083 -0.35786344637417233
| 11> C -1.5873410143867384 -0.23324380209127626 -0.7960026101628285
| 12> C -2.260844016128761 0.6789940872794502 0.22527728668473146
| 13> C -0.20012793809675242 0.23658618150441466 -1.181929902802984
| 14> Br 1.1026999218074487 0.2137408687493715 0.3459458329091557
| 15> H -1.0879580397442947 -1.8271460262060413 0.5906411723260416
| 16> H -2.651486510645824 -2.027421991290478 -0.21542567416857936
| 17> H -1.1503522528643755 -2.3443308465555237 -1.104614005762098
| 18> H -2.143061754717402 -0.15071282707509237 -1.744317199074915
| 19> H -3.302273190061764 0.3787846286196111 0.37563923989647
| 20> H -2.250174600190023 1.7228713775920206 -0.10525696069149724
| 21> H -1.750368982161821 0.6222406313815609 1.1923620278367444
| 22> H -0.19441507510585496 1.272848224281042 -1.5193418392932694
| 23> H 0.25949863412920443 -0.4074735920874974 -1.9313454685538443
| 24> *
| 25>
| 26>                          ****END OF INPUT****

CARTESIAN COORDINATES (ANGSTROEM)
---------------------------------
  C     -1.618830   -1.694698   -0.357863
  C     -1.587341   -0.233244   -0.796003
  C     -2.260844    0.678994    0.225277
  C     -0.200128    0.236586   -1.181930
  Br     1.102700    0.213741    0.345946
  H     -1.087958   -1.827146    0.590641
  H     -2.651487   -2.027422   -0.215426
  H     -1.150352   -2.344331   -1.104614
  H     -2.143062   -0.150713   -1.744317
  H     -3.302273    0.378785    0.375639
  H     -2.250175    1.722871   -0.105257
  H     -1.750369    0.622241    1.192362
  H     -0.194415    1.272848   -1.519342
  H      0.259499   -0.407474   -1.931345

 Total Charge           Charge          ....    0
 Multiplicity           Mult            ....    1
 Number of Electrons    NEL             ....   68
 Basis Dimension        Dim             ....  226

ORBITAL ENERGIES
----------------

  NO   OCC          E(Eh)            E(eV)
   0   2.0000    -494.701038    -13461.4996
   1   2.0000     -66.870669     -1819.6434
   2   2.0000     -60.927407     -1657.9190
   3   2.0000     -60.926007     -1657.8809
   4   2.0000     -60.925979     -1657.8802
   5   2.0000     -12.093259      -329.0743
   6   2.0000     -12.052850      -327.9747
   7   2.0000     -12.026561      -327.2594
   8   2.0000     -12.026251      -327.2509
   9   2.0000     -10.622390      -289.0499
  10   2.0000      -8.401733      -228.6228
  11   2.0000      -8.395802      -228.4614
  12   2.0000      -8.395721      -228.4592
  13   2.0000      -4.386712      -119.3685
  14   2.0000      -4.384443      -119.3068
  15   2.0000      -4.384377      -119.3050
  16   2.0000      -4.377760      -119.1249
  17   2.0000      -4.377741      -119.1244
  18   2.0000      -1.336249       -36.3612
  19   2.0000      -1.288378       -35.0586
  20   2.0000      -1.172013       -31.8921
  21   2.0000      -1.166931       -31.7538
  22   2.0000      -1.026834       -27.9416
  23   2.0000      -0.894970       -24.3534
  24   2.0000      -0.885516       -24.0961
  25   2.0000      -0.871190       -23.7063
  26   2.0000      -0.814235       -22.1565
  27   2.0000      -0.804312       -21.8865
  28   2.0000      -0.799754       -21.7624
  29   2.0000      -0.782184       -21.2843
  30   2.0000      -0.774427       -21.0732
  31   2.0000      -0.746863       -20.3232
  32   2.0000      -0.707442       -19.2505
  33   2.0000      -0.704536       -19.1714
  34   0.0000      -0.273317        -7.4373
  35   0.0000      -0.019483        -0.5302
  36   0.0000      -0.017752        -0.4831
  37   0.0000      -0.005856        -0.1593
  38   0.0000       0.003784         0.1030

MULLIKEN ATOMIC CHARGES
-----------------------
   0 C :   -0.401206
   1 C :    0.012409
   2 C :   -0.401399
   3 C :   -0.196598
   4 Br:   -0.212173
   5 H :    0.121647
   6 H :    0.133386
   7 H :    0.130189
   8 H :    0.095878
   9 H :    0.133354
  10 H :    0.130169
  11 H :    0.121935
  12 H :    0.166324
  13 H :    0.166084
Sum of atomic charges:   -0.0000000

LOEWDIN ATOMIC CHARGES
----------------------
   0 C :   -0.288507
   1 C :   -0.344942
   2 C :   -0.288535
   3 C :   -0.379084
   4 Br:    0.138647
   5 H :    0.117725
   6 H :    0.123740
   7 H :    0.123095
   8 H :    0.166151
   9 H :    0.123732
  10 H :    0.123070
  11 H :    0.117812
  12 H :    0.133556
  13 H :    0.133541

  Mayer bond orders larger than 0.100000
B(  0-C ,  1-C ) :   0.9781 B(  0-C ,  5-H ) :   0.9676 B(  0-C ,  6-H ) :   0.9781
B(  0-C ,  7-H ) :   0.9774 B(  1-C ,  2-C ) :   0.9780 B(  1-C ,  3-C ) :   0.9922
B(  1-C ,  8-H ) :   0.9428 B(  2-C ,  9-H ) :   0.9781 B(  2-C , 10-H ) :   0.9774
B(  2-C , 11-H ) :   0.9676 B(  3-C ,  4-Br) :   0.9753 B(  3-C , 12-H ) :   0.9635
B(  3-C , 13-H ) :   0.9637

FINAL SINGLE POINT ENERGY     -2731.777842471899

DIPOLE MOMENT
-------------

Method             : SCF
Type of density    : Electron Density
Multiplicity       :   1
Irrep              :   0
Energy             : -2731.7893772261986669 Eh
Relativity type    :
Basis              : AO
                                X                 Y                 Z
Electronic contribution:     22.682043008       4.537041642       6.507202987
Nuclear contribution   :    -23.592191683      -4.561154029      -7.411476903
                        -----------------------------------------
Total Dipole Moment    :     -0.910148674      -0.024112387      -0.904273916
                        -----------------------------------------
Magnitude (a.u.)       :      1.283223804
Magnitude (Debye)      :      3.261695699

Rotational constants in cm-1:             0.185505             0.054428             0.050906
Rotational constants in MHz :          5561.299289          1631.716751          1526.118262

                             ****ORCA TERMINATED NORMALLY****
TOTAL RUN TIME: 0 days 0 hours 1 minutes 36 seconds 838 msec
