                         Program Version 6.0.0  -   RELEASE  -
|  1> ! pbe def2-sv(p) def2/J RI DEFGRID1 loosescf d4 GCP(DFT/SV(P)) printgap
|  2> %output
|  3>     printlevel normal
|  4> end
|  5> * xyz 0 1
|  6> C -2.3023431085 0.0947836996 0.0426683812
|  7> C -1.6599338669 1.299401273 -0.1965992027
|  8> C -0.2796113832 1.3517887447 -0.2455952784
|  9> C 0.4748577761 0.1990881563 -0.0560956758
| 10> C -0.1728448791 -1.0032456046 0.181968385
| 11> C -1.5559302418 -1.0545669862 0.2315979452
| 12> C 1.9792611523 0.2842928621 -0.116892888
| 13> O 2.5712419559 -0.9704892289 0.1407831838
| 14> H -3.3804759913 0.0545868934 0.0811620973
| 15> H -2.2372905699 2.1996896596 -0.3450980144
| 16> H 0.2206393041 2.291278179 -0.4320136612
| 17> H 0.4168902201 -1.8946829409 0.3286424659
| 18> H -2.0493246568 -1.9967565989 0.4179282842
| 19> H 2.2685629432 0.6444502346 -1.1161111982
| 20> H 2.3181295051 1.0263053794 0.6216147122
| 21> H 3.5321660947 -0.8801759224 0.1032196673
| 22> *
| 23>
| 24>                          ****END OF INPUT****

CARTESIAN COORDINATES (ANGSTROEM)
---------------------------------
  C     -2.302343    0.094784    0.042668
  C     -1.659934    1.299401   -0.196599
  C     -0.279611    1.351789   -0.245595
  C      0.474858    0.199088   -0.056096
  C     -0.172845   -1.003246    0.181968
  C     -1.555930   -1.054567    0.231598
  C      1.979261    0.284293   -0.116893
  O      2.571242   -0.970489    0.140783
  H     -3.380476    0.054587    0.081162
  H     -2.237291    2.199690   -0.345098
  H      0.220639    2.291278   -0.432014
  H      0.416890   -1.894683    0.328642
  H     -2.049325   -1.996757    0.417928
  H      2.268563    0.644450   -1.116111
  H      2.318130    1.026305    0.621615
  H      3.532166   -0.880176    0.103220

 Total Charge           Charge          ....    0
 Multiplicity           Mult            ....    1
 Number of Electrons    NEL             ....   58
 Basis Dimension        Dim             ....  128

ORBITAL ENERGIES
----------------

  NO   OCC          E(Eh)            E(eV)
   0   2.0000     -18.749715      -510.2057
   1   2.0000      -9.939536      -270.4685
   2   2.0000      -9.897511      -269.3250
   3   2.0000      -9.887309      -269.0473
   4   2.0000      -9.887053      -269.0404
   5   2.0000      -9.886029      -269.0125
   6   2.0000      -9.885009      -268.9848
   7   2.0000      -9.882163      -268.9073
   8   2.0000      -0.926482       -25.2108
   9   2.0000      -0.771969       -21.0064
  10   2.0000      -0.687131       -18.6978
  11   2.0000      -0.663979       -18.0678
  12   2.0000      -0.603983       -16.4352
  13   2.0000      -0.540775       -14.7152
  14   2.0000      -0.516631       -14.0582
  15   2.0000      -0.465541       -12.6680
  16   2.0000      -0.459257       -12.4970
  17   2.0000      -0.409338       -11.1387
  18   2.0000      -0.396946       -10.8015
  19   2.0000      -0.389038       -10.5863
  20   2.0000      -0.371718       -10.1150
  21   2.0000      -0.367609       -10.0032
  22   2.0000      -0.321423        -8.7464
  23   2.0000      -0.308119        -8.3843
  24   2.0000      -0.294480        -8.0132
  25   2.0000      -0.280762        -7.6399
  26   2.0000      -0.232400        -6.3239
  27   2.0000      -0.222904        -6.0655
  28   2.0000      -0.208167        -5.6645
  29   0.0000      -0.031279        -0.8512
  30   0.0000      -0.025110        -0.6833
  31   0.0000       0.023372         0.6360
  32   0.0000       0.051113         1.3909
  33   0.0000       0.069830         1.9002

MULLIKEN ATOMIC CHARGES
-----------------------
   0 C :   -0.050028
   1 C :   -0.047836
   2 C :   -0.108250
   3 C :    0.009059
   4 C :   -0.104149
   5 C :   -0.042931
   6 C :    0.058833
   7 O :   -0.425651
   8 H :    0.049858
   9 H :    0.049384
  10 H :    0.034206
  11 H :    0.056026
  12 H :    0.050467
  13 H :    0.084112
  14 H :    0.082997
  15 H :    0.303903
Sum of atomic charges:    0.0000000

LOEWDIN ATOMIC CHARGES
----------------------
   0 C :   -0.129681
   1 C :   -0.122823
   2 C :   -0.124373
   3 C :   -0.056428
   4 C :   -0.120413
   5 C :   -0.120654
   6 C :   -0.106137
   7 O :   -0.338570
   8 H :    0.121563
   9 H :    0.121992
  10 H :    0.119031
  11 H :    0.129600
  12 H :    0.122476
  13 H :    0.107400
  14 H :    0.106936
  15 H :    0.290081

  Mayer bond orders larger than 0.100000
B(  0-C ,  1-C ) :   1.3731 B(  0-C ,  5-C ) :   1.3880 B(  0-C ,  8-H ) :   0.9653
B(  1-C ,  2-C ) :   1.3910 B(  1-C ,  9-H ) :   0.9637 B(  2-C ,  3-C ) :   1.3739
B(  2-C , 10-H ) :   0.9647 B(  3-C ,  4-C ) :   1.4335 B(  3-C ,  6-C ) :   1.0332
B(  4-C ,  5-C ) :   1.3402 B(  4-C , 11-H ) :   0.9566 B(  5-C , 12-H ) :   0.9658
B(  6-C ,  7-O ) :   1.1140 B(  6-C , 13-H ) :   0.9090 B(  6-C , 14-H ) :   0.9103
B(  7-O , 15-H ) :   0.8478

Dispersion correction           -0.015315490
FINAL SINGLE POINT ENERGY      -346.003754969580

DIPOLE MOMENT
-------------

Method             : SCF
Type of density    : Electron Density
Multiplicity       :   1
Irrep              :   0
Energy             :  -346.0557667156614343 Eh
Relativity type    :
Basis              : AO
                                X                 Y                 Z
Electronic contribution:     -0.475414234      -0.948126579       0.219217868
Nuclear contribution   :      1.060111976       1.340971018      -0.317504722
                        -----------------------------------------
Total Dipole Moment    :      0.584697743       0.392844439      -0.098286854
                        -----------------------------------------
Magnitude (a.u.)       :      0.711237309
Magnitude (Debye)      :      1.807821568

Rotational constants in cm-1:             0.166890             0.050042             0.038783
Rotational constants in MHz :          5003.241267          1500.209620          1162.698408

                             ****ORCA TERMINATED NORMALLY****
TOTAL RUN TIME: 0 days 0 hours 0 minutes 7 seconds 129 msec
