                         Program Version 6.0.0  -   RELEASE  -
|  1> ! r2scan-3c def2/J RI DEFGRID2 scfconv6 printgap
|  2> %output
|  3>     printlevel normal
|  4> end
|  5> %cpcm
|  6>     smd true
|  7>     smdsolvent "water"
|  8> end
|  9> * xyz 0 1
| 10> C 4.45894e-05 -0.0001195311 -1.61156e-05
| 11> Cl -0.557001815 -0.0023737862 -1.6787186679
| 12> Cl -0.694603305 1.3871236272 0.8496390358
| 13> Cl 1.7650205589 0.1102619143 0.0354584517
| 14> Cl -0.5134305451 -1.4949712598 0.7936266401
| 15> *
| 16>
| 17>                          ****END OF INPUT****

CARTESIAN COORDINATES (ANGSTROEM)
---------------------------------
  C      0.000045   -0.000120   -0.000016
  Cl    -0.557002   -0.002374   -1.678719
  Cl    -0.694603    1.387124    0.849639
  Cl     1.765021    0.110262    0.035458
  Cl    -0.513431   -1.494971    0.793627

 Total Charge           Charge          ....    0
 Multiplicity           Mult            ....    1
 Number of Electrons    NEL             ....   74
 Basis Dimension        Dim             ....  127

ORBITAL ENERGIES
----------------

  NO   OCC          E(Eh)            E(eV)
   0   2.0000    -101.254716     -2755.2809
   1   2.0000    -101.254712     -2755.2808
   2   2.0000    -101.254692     -2755.2802
   3   2.0000    -101.254672     -2755.2797
   4   2.0000     -10.287024      -279.9242
   5   2.0000      -9.410775      -256.0802
   6   2.0000      -9.410772      -256.0801
   7   2.0000      -9.410751      -256.0796
   8   2.0000      -9.410730      -256.0790
   9   2.0000      -7.158093      -194.7816
  10   2.0000      -7.158088      -194.7815
  11   2.0000      -7.158069      -194.7810
  12   2.0000      -7.158046      -194.7803
  13   2.0000      -7.146248      -194.4593
  14   2.0000      -7.146247      -194.4593
  15   2.0000      -7.146246      -194.4592
  16   2.0000      -7.146244      -194.4592
  17   2.0000      -7.146224      -194.4586
  18   2.0000      -7.146223      -194.4586
  19   2.0000      -7.146205      -194.4581
  20   2.0000      -7.146203      -194.4581
  21   2.0000      -0.954781       -25.9809
  22   2.0000      -0.823471       -22.4078
  23   2.0000      -0.823451       -22.4073
  24   2.0000      -0.823420       -22.4064
  25   2.0000      -0.606847       -16.5131
  26   2.0000      -0.484714       -13.1897
  27   2.0000      -0.484708       -13.1896
  28   2.0000      -0.484695       -13.1892
  29   2.0000      -0.354258        -9.6399
  30   2.0000      -0.354255        -9.6398
  31   2.0000      -0.331060        -9.0086
  32   2.0000      -0.331053        -9.0084
  33   2.0000      -0.331044        -9.0082
  34   2.0000      -0.295332        -8.0364
  35   2.0000      -0.295321        -8.0361
  36   2.0000      -0.295319        -8.0360
  37   0.0000      -0.093255        -2.5376
  38   0.0000      -0.035280        -0.9600
  39   0.0000      -0.035241        -0.9589
  40   0.0000      -0.035211        -0.9581
  41   0.0000       0.124929         3.3995

MULLIKEN ATOMIC CHARGES
-----------------------
   0 C :    0.115124
   1 Cl:   -0.028729
   2 Cl:   -0.028899
   3 Cl:   -0.028801
   4 Cl:   -0.028695
Sum of atomic charges:    0.0000000

LOEWDIN ATOMIC CHARGES
----------------------
   0 C :   -0.511511
   1 Cl:    0.127920
   2 Cl:    0.127760
   3 Cl:    0.127863
   4 Cl:    0.127968

  Mayer bond orders larger than 0.100000
B(  0-C ,  1-Cl) :   1.0585 B(  0-C ,  2-Cl) :   1.0582 B(  0-C ,  3-Cl) :   1.0582
B(  0-C ,  4-Cl) :   1.0584

Dispersion correction           -0.002129767
FINAL SINGLE POINT ENERGY     -1878.779610671855

DIPOLE MOMENT
-------------

Method             : SCF
Type of density    : Electron Density
Multiplicity       :   1
Irrep              :   0
Energy             : -1878.7845830974999899 Eh
Relativity type    :
Basis              : AO
                                X                 Y                 Z
Electronic contribution:     -0.000124560      -0.000241505      -0.000206887
Nuclear contribution   :      0.000020276      -0.000054353      -0.000007328
                        -----------------------------------------
Total Dipole Moment    :     -0.000104285      -0.000295858      -0.000214215
                        -----------------------------------------
Magnitude (a.u.)       :      0.000379862
Magnitude (Debye)      :      0.000965534

Rotational constants in cm-1:             0.056998             0.056995             0.056994
Rotational constants in MHz :          1708.751569          1708.665767          1708.638947

                             ****ORCA TERMINATED NORMALLY****
TOTAL RUN TIME: 0 days 0 hours 0 minutes 9 seconds 590 msec
