                         Program Version 6.0.0  -   RELEASE  -
|  1> ! pbe def2-sv(p) def2/J RI DEFGRID1 loosescf d4 GCP(DFT/SV(P)) printgap
|  2> %output
|  3>     printlevel normal
|  4> end
|  5> * xyz 0 1
|  6> C 2.8863140963 -0.0734376843 0.0135755509
|  7> C 1.3928319149 0.0045286469 -0.0055851871
|  8> C 0.71396894 1.2173923292 -0.0064328858
|  9> C -0.6698105271 1.2255397516 -0.0051988514
| 10> C -1.356546812 0.0151544037 -0.0017970167
| 11> N -0.7108383274 -1.1488907733 -0.005469461
| 12> C 0.6097256861 -1.1458564878 -0.0078371302
| 13> C -2.8517693669 -0.0437298785 0.0110787734
| 14> H 3.2306775358 -0.3422723664 1.0116868459
| 15> H 3.2380376788 -0.835861221 -0.6777152043
| 16> H 3.3254391597 0.8834416965 -0.2559983371
| 17> H 1.2648575443 2.1474981059 -0.0094998554
| 18> H -1.2135549982 2.1578565326 -0.0074032922
| 19> H 1.0717873092 -2.1255456476 -0.0127708854
| 20> H -3.1924841268 -0.4952919497 0.9405536302
| 21> H -3.278630449 0.9503140538 -0.0813754684
| 22> H -3.2039824458 -0.6694576633 -0.8052904817
| 23> *
| 24>
| 25>                          ****END OF INPUT****

CARTESIAN COORDINATES (ANGSTROEM)
---------------------------------
  C      2.886314   -0.073438    0.013576
  C      1.392832    0.004529   -0.005585
  C      0.713969    1.217392   -0.006433
  C     -0.669811    1.225540   -0.005199
  C     -1.356547    0.015154   -0.001797
  N     -0.710838   -1.148891   -0.005469
  C      0.609726   -1.145856   -0.007837
  C     -2.851769   -0.043730    0.011079
  H      3.230678   -0.342272    1.011687
  H      3.238038   -0.835861   -0.677715
  H      3.325439    0.883442   -0.255998
  H      1.264858    2.147498   -0.009500
  H     -1.213555    2.157857   -0.007403
  H      1.071787   -2.125546   -0.012771
  H     -3.192484   -0.495292    0.940554
  H     -3.278630    0.950314   -0.081375
  H     -3.203982   -0.669458   -0.805290

 Total Charge           Charge          ....    0
 Multiplicity           Mult            ....    1
 Number of Electrons    NEL             ....   58
 Basis Dimension        Dim             ....  130

ORBITAL ENERGIES
----------------

  NO   OCC          E(Eh)            E(eV)
   0   2.0000     -13.974259      -380.2589
   1   2.0000      -9.925374      -270.0832
   2   2.0000      -9.912890      -269.7435
   3   2.0000      -9.905773      -269.5498
   4   2.0000      -9.900766      -269.4135
   5   2.0000      -9.892902      -269.1996
   6   2.0000      -9.889838      -269.1162
   7   2.0000      -9.876757      -268.7602
   8   2.0000      -0.853070       -23.2132
   9   2.0000      -0.733214       -19.9518
  10   2.0000      -0.704505       -19.1706
  11   2.0000      -0.655629       -17.8406
  12   2.0000      -0.596271       -16.2254
  13   2.0000      -0.562158       -15.2971
  14   2.0000      -0.529243       -14.4014
  15   2.0000      -0.449971       -12.2443
  16   2.0000      -0.441053       -12.0017
  17   2.0000      -0.399176       -10.8621
  18   2.0000      -0.391608       -10.6562
  19   2.0000      -0.375725       -10.2240
  20   2.0000      -0.364792        -9.9265
  21   2.0000      -0.357903        -9.7390
  22   2.0000      -0.345604        -9.4044
  23   2.0000      -0.332137        -9.0379
  24   2.0000      -0.325718        -8.8632
  25   2.0000      -0.309354        -8.4180
  26   2.0000      -0.253792        -6.9060
  27   2.0000      -0.219230        -5.9656
  28   2.0000      -0.198045        -5.3891
  29   0.0000      -0.049383        -1.3438
  30   0.0000      -0.036353        -0.9892
  31   0.0000       0.046354         1.2613
  32   0.0000       0.057229         1.5573
  33   0.0000       0.073345         1.9958

MULLIKEN ATOMIC CHARGES
-----------------------
   0 C :   -0.218607
   1 C :   -0.016263
   2 C :   -0.053997
   3 C :   -0.085817
   4 C :   -0.083722
   5 N :   -0.064107
   6 C :   -0.098700
   7 C :   -0.182531
   8 H :    0.122728
   9 H :    0.115501
  10 H :    0.104178
  11 H :    0.046045
  12 H :    0.043088
  13 H :    0.050343
  14 H :    0.117416
  15 H :    0.088995
  16 H :    0.115449
Sum of atomic charges:   -0.0000000

LOEWDIN ATOMIC CHARGES
----------------------
   0 C :   -0.322333
   1 C :   -0.074456
   2 C :   -0.100835
   3 C :   -0.140435
   4 C :   -0.020374
   5 N :   -0.075680
   6 C :   -0.081621
   7 C :   -0.330467
   8 H :    0.136120
   9 H :    0.132142
  10 H :    0.125847
  11 H :    0.123522
  12 H :    0.124478
  13 H :    0.110257
  14 H :    0.137090
  15 H :    0.120548
  16 H :    0.136198

  Mayer bond orders larger than 0.100000
B(  0-C ,  1-C ) :   1.0975 B(  0-C ,  8-H ) :   0.9322 B(  0-C ,  9-H ) :   0.9387
B(  0-C , 10-H ) :   0.9440 B(  1-C ,  2-C ) :   1.4315 B(  1-C ,  6-C ) :   1.3447
B(  2-C ,  3-C ) :   1.3992 B(  2-C , 11-H ) :   0.9517 B(  3-C ,  4-C ) :   1.4011
B(  3-C , 12-H ) :   0.9388 B(  4-C ,  5-N ) :   1.4920 B(  4-C ,  7-C ) :   1.1136
B(  5-N ,  6-C ) :   1.5663 B(  6-C , 13-H ) :   0.9558 B(  7-C , 14-H ) :   0.9288
B(  7-C , 15-H ) :   0.9419 B(  7-C , 16-H ) :   0.9309

Dispersion correction           -0.016163889
FINAL SINGLE POINT ENERGY      -326.184951563269

DIPOLE MOMENT
-------------

Method             : SCF
Type of density    : Electron Density
Multiplicity       :   1
Irrep              :   0
Energy             :  -326.2333961514104317 Eh
Relativity type    :
Basis              : AO
                                X                 Y                 Z
Electronic contribution:     -0.762706945      -0.973056693      -0.065496363
Nuclear contribution   :      1.161445896       1.561081481       0.095838593
                        -----------------------------------------
Total Dipole Moment    :      0.398738951       0.588024788       0.030342230
                        -----------------------------------------
Magnitude (a.u.)       :      0.711116413
Magnitude (Debye)      :      1.807514277

Rotational constants in cm-1:             0.186428             0.049983             0.039999
Rotational constants in MHz :          5588.984212          1498.453281          1199.135260

                             ****ORCA TERMINATED NORMALLY****
TOTAL RUN TIME: 0 days 0 hours 0 minutes 8 seconds 43 msec
