                         Program Version 6.0.0  -   RELEASE  -
|  1> ! wb97x-v def2-tzvp def2/J RIJCOSX DEFGRID2 scfconv7 GCP(DFT/TZ) printgap
|  2> %output
|  3>     printlevel normal
|  4> end
|  5> * xyz 0 1
|  6> C -2.507547415949274 -1.1413947023901505 -0.22067728632576203
|  7> C -1.721437668259382 0.13063625883987345 -0.17249171920447912
|  8> O -2.2720863987658024 1.227205459829207 -0.17035851436695096
|  9> C -0.2256169431061637 0.050008982498892254 -0.11749786796916732
| 10> C 0.5269857497958816 1.224798545813496 -0.06396273408488548
| 11> C 1.9093788736825303 1.1337198058844644 -0.01438023014982466
| 12> N 2.5783420727932267 -0.03028758133346095 -0.014358185779188728
| 13> C 1.8475490184026004 -1.1518446807824403 -0.06528171993897909
| 14> C 0.4588167759386619 -1.1661609181585446 -0.11719523350532328
| 15> H -2.208495118029804 -1.7425338574609106 -1.0861621445196745
| 16> H -3.5725533812900503 -0.9157521553243292 -0.2754251559351928
| 17> H -2.300938673569915 -1.7429272849212576 0.6717617940130074
| 18> H 0.04017236260134149 2.1932450233782794 -0.061184731180560836
| 19> H 2.512505981705134 2.037365371572532 0.0278857767477301
| 20> H 2.3983475210145064 -2.089278254909499 -0.06513314665457155
| 21> H -0.0626062092552788 -2.1152260636044495 -0.1565038753418769
| 22> *
| 23>
| 24>                          ****END OF INPUT****

CARTESIAN COORDINATES (ANGSTROEM)
---------------------------------
  C     -2.507547   -1.141395   -0.220677
  C     -1.721438    0.130636   -0.172492
  O     -2.272086    1.227205   -0.170359
  C     -0.225617    0.050009   -0.117498
  C      0.526986    1.224799   -0.063963
  C      1.909379    1.133720   -0.014380
  N      2.578342   -0.030288   -0.014358
  C      1.847549   -1.151845   -0.065282
  C      0.458817   -1.166161   -0.117195
  H     -2.208495   -1.742534   -1.086162
  H     -3.572553   -0.915752   -0.275425
  H     -2.300939   -1.742927    0.671762
  H      0.040172    2.193245   -0.061185
  H      2.512506    2.037365    0.027886
  H      2.398348   -2.089278   -0.065133
  H     -0.062606   -2.115226   -0.156504

 Total Charge           Charge          ....    0
 Multiplicity           Mult            ....    1
 Number of Electrons    NEL             ....   64
 Basis Dimension        Dim             ....  321

ORBITAL ENERGIES
----------------

  NO   OCC          E(Eh)            E(eV)
   0   2.0000     -21.675328      -589.8157
   1   2.0000     -16.540913      -450.1011
   2   2.0000     -12.156659      -330.7995
   3   2.0000     -12.098166      -329.2078
   4   2.0000     -12.095642      -329.1391
   5   2.0000     -12.089448      -328.9706
   6   2.0000     -12.078230      -328.6653
   7   2.0000     -12.071160      -328.4730
   8   2.0000     -12.065051      -328.3067
   9   2.0000      -1.719297       -46.7845
  10   2.0000      -1.531467       -41.6733
  11   2.0000      -1.373279       -37.3688
  12   2.0000      -1.311903       -35.6987
  13   2.0000      -1.278826       -34.7986
  14   2.0000      -1.184137       -32.2220
  15   2.0000      -1.167076       -31.7578
  16   2.0000      -1.101615       -29.9765
  17   2.0000      -1.033715       -28.1288
  18   2.0000      -1.017313       -27.6825
  19   2.0000      -0.969176       -26.3726
  20   2.0000      -0.958530       -26.0829
  21   2.0000      -0.934523       -25.4297
  22   2.0000      -0.922780       -25.1101
  23   2.0000      -0.899619       -24.4799
  24   2.0000      -0.850030       -23.1305
  25   2.0000      -0.847086       -23.0504
  26   2.0000      -0.844422       -22.9779
  27   2.0000      -0.841835       -22.9075
  28   2.0000      -0.828802       -22.5528
  29   2.0000      -0.779165       -21.2021
  30   2.0000      -0.721260       -19.6265
  31   2.0000      -0.664616       -18.0851
  32   0.0000      -0.372388       -10.1332
  33   0.0000      -0.259892        -7.0720
  34   0.0000      -0.255743        -6.9591
  35   0.0000      -0.096895        -2.6366
  36   0.0000      -0.085836        -2.3357

MULLIKEN ATOMIC CHARGES
-----------------------
   0 C :   -0.364626
   1 C :    0.208698
   2 O :   -0.306328
   3 C :    0.019165
   4 C :   -0.104287
   5 C :   -0.034706
   6 N :   -0.207725
   7 C :   -0.064632
   8 C :   -0.123188
   9 H :    0.137892
  10 H :    0.148414
  11 H :    0.139483
  12 H :    0.157739
  13 H :    0.129588
  14 H :    0.127782
  15 H :    0.136732
Sum of atomic charges:    0.0000000

LOEWDIN ATOMIC CHARGES
----------------------
   0 C :   -0.254090
   1 C :   -0.292142
   2 O :    0.124329
   3 C :   -0.113891
   4 C :   -0.087905
   5 C :   -0.190788
   6 N :    0.131896
   7 C :   -0.195384
   8 C :   -0.112997
   9 H :    0.136591
  10 H :    0.134657
  11 H :    0.137884
  12 H :    0.157271
  13 H :    0.138018
  14 H :    0.137231
  15 H :    0.149319

  Mayer bond orders larger than 0.100000
B(  0-C ,  1-C ) :   1.0089 B(  0-C ,  9-H ) :   0.9559 B(  0-C , 10-H ) :   0.9771
B(  0-C , 11-H ) :   0.9542 B(  1-C ,  2-O ) :   2.1177 B(  1-C ,  3-C ) :   0.9310
B(  2-O ,  3-C ) :  -0.1127 B(  3-C ,  4-C ) :   1.4035 B(  3-C ,  8-C ) :   1.3462
B(  4-C ,  5-C ) :   1.4041 B(  4-C , 12-H ) :   0.9404 B(  5-C ,  6-N ) :   1.4777
B(  5-C , 13-H ) :   0.9886 B(  6-N ,  7-C ) :   1.5187 B(  7-C ,  8-C ) :   1.4127
B(  7-C , 14-H ) :   0.9913 B(  8-C , 15-H ) :   0.9590

FINAL SINGLE POINT ENERGY      -400.948597771965

DIPOLE MOMENT
-------------

Method             : SCF
Type of density    : Electron Density
Multiplicity       :   1
Irrep              :   0
Energy             :  -400.9571704454652377 Eh
Relativity type    :
Basis              : AO
                                X                 Y                 Z
Electronic contribution:      2.749733892       3.325777875       0.148499283
Nuclear contribution   :     -3.015823619      -4.290387754      -0.174109395
                        -----------------------------------------
Total Dipole Moment    :     -0.266089727      -0.964609879      -0.025610112
                        -----------------------------------------
Magnitude (a.u.)       :      1.000965453
Magnitude (Debye)      :      2.544251987

Rotational constants in cm-1:             0.127591             0.040572             0.030960
Rotational constants in MHz :          3825.075023          1216.331661           928.165461

                             ****ORCA TERMINATED NORMALLY****
TOTAL RUN TIME: 0 days 0 hours 3 minutes 26 seconds 80 msec
