                         Program Version 6.0.0  -   RELEASE  -
|  1> ! wb97x-v def2-tzvp def2/J RIJCOSX DEFGRID2 scfconv7 GCP(DFT/TZ) printgap
|  2> %output
|  3>     printlevel normal
|  4> end
|  5> %cpcm
|  6>     smd true
|  7>     smdsolvent "water"
|  8> end
|  9> * xyz 0 1
| 10> C -2.507547415949274 -1.1413947023901505 -0.22067728632576203
| 11> C -1.721437668259382 0.13063625883987345 -0.17249171920447912
| 12> O -2.2720863987658024 1.227205459829207 -0.17035851436695096
| 13> C -0.2256169431061637 0.050008982498892254 -0.11749786796916732
| 14> C 0.5269857497958816 1.224798545813496 -0.06396273408488548
| 15> C 1.9093788736825303 1.1337198058844644 -0.01438023014982466
| 16> N 2.5783420727932267 -0.03028758133346095 -0.014358185779188728
| 17> C 1.8475490184026004 -1.1518446807824403 -0.06528171993897909
| 18> C 0.4588167759386619 -1.1661609181585446 -0.11719523350532328
| 19> H -2.208495118029804 -1.7425338574609106 -1.0861621445196745
| 20> H -3.5725533812900503 -0.9157521553243292 -0.2754251559351928
| 21> H -2.300938673569915 -1.7429272849212576 0.6717617940130074
| 22> H 0.04017236260134149 2.1932450233782794 -0.061184731180560836
| 23> H 2.512505981705134 2.037365371572532 0.0278857767477301
| 24> H 2.3983475210145064 -2.089278254909499 -0.06513314665457155
| 25> H -0.0626062092552788 -2.1152260636044495 -0.1565038753418769
| 26> *
| 27>
| 28>                          ****END OF INPUT****

CARTESIAN COORDINATES (ANGSTROEM)
---------------------------------
  C     -2.507547   -1.141395   -0.220677
  C     -1.721438    0.130636   -0.172492
  O     -2.272086    1.227205   -0.170359
  C     -0.225617    0.050009   -0.117498
  C      0.526986    1.224799   -0.063963
  C      1.909379    1.133720   -0.014380
  N      2.578342   -0.030288   -0.014358
  C      1.847549   -1.151845   -0.065282
  C      0.458817   -1.166161   -0.117195
  H     -2.208495   -1.742534   -1.086162
  H     -3.572553   -0.915752   -0.275425
  H     -2.300939   -1.742927    0.671762
  H      0.040172    2.193245   -0.061185
  H      2.512506    2.037365    0.027886
  H      2.398348   -2.089278   -0.065133
  H     -0.062606   -2.115226   -0.156504

 Total Charge           Charge          ....    0
 Multiplicity           Mult            ....    1
 Number of Electrons    NEL             ....   64
 Basis Dimension        Dim             ....  321

ORBITAL ENERGIES
----------------

  NO   OCC          E(Eh)            E(eV)
   0   2.0000     -21.678091      -589.8908
   1   2.0000     -16.539118      -450.0523
   2   2.0000     -12.157302      -330.8170
   3   2.0000     -12.089158      -328.9627
   4   2.0000     -12.088428      -328.9428
   5   2.0000     -12.082047      -328.7692
   6   2.0000     -12.066352      -328.3421
   7   2.0000     -12.064010      -328.2784
   8   2.0000     -12.044097      -327.7366
   9   2.0000      -1.724978       -46.9390
  10   2.0000      -1.528306       -41.5873
  11   2.0000      -1.365689       -37.1623
  12   2.0000      -1.304180       -35.4885
  13   2.0000      -1.265776       -34.4435
  14   2.0000      -1.175799       -31.9951
  15   2.0000      -1.160094       -31.5677
  16   2.0000      -1.102682       -30.0055
  17   2.0000      -1.030714       -28.0472
  18   2.0000      -1.009690       -27.4751
  19   2.0000      -0.963112       -26.2076
  20   2.0000      -0.951542       -25.8928
  21   2.0000      -0.927759       -25.2456
  22   2.0000      -0.923974       -25.1426
  23   2.0000      -0.889165       -24.1954
  24   2.0000      -0.839219       -22.8363
  25   2.0000      -0.838029       -22.8039
  26   2.0000      -0.831204       -22.6182
  27   2.0000      -0.825988       -22.4763
  28   2.0000      -0.823748       -22.4153
  29   2.0000      -0.777410       -21.1544
  30   2.0000      -0.715751       -19.4766
  31   2.0000      -0.656253       -17.8575
  32   0.0000      -0.365398        -9.9430
  33   0.0000      -0.252655        -6.8751
  34   0.0000      -0.248233        -6.7548
  35   0.0000      -0.088798        -2.4163
  36   0.0000      -0.076155        -2.0723

MULLIKEN ATOMIC CHARGES
-----------------------
   0 C :   -0.385263
   1 C :    0.279922
   2 O :   -0.427308
   3 C :    0.042444
   4 C :   -0.139785
   5 C :   -0.054086
   6 N :   -0.278105
   7 C :   -0.067417
   8 C :   -0.150901
   9 H :    0.170144
  10 H :    0.151237
  11 H :    0.170902
  12 H :    0.168774
  13 H :    0.166808
  14 H :    0.167812
  15 H :    0.184822
Sum of atomic charges:    0.0000000

LOEWDIN ATOMIC CHARGES
----------------------
   0 C :   -0.245211
   1 C :   -0.270647
   2 O :    0.055022
   3 C :   -0.109470
   4 C :   -0.091365
   5 C :   -0.196559
   6 N :    0.093424
   7 C :   -0.195995
   8 C :   -0.093076
   9 H :    0.149697
  10 H :    0.134737
  11 H :    0.150839
  12 H :    0.160269
  13 H :    0.146369
  14 H :    0.146768
  15 H :    0.165199

  Mayer bond orders larger than 0.100000
B(  0-C ,  1-C ) :   1.0420 B(  0-C ,  9-H ) :   0.9426 B(  0-C , 10-H ) :   0.9675
B(  0-C , 11-H ) :   0.9406 B(  1-C ,  2-O ) :   1.9931 B(  1-C ,  3-C ) :   0.9408
B(  2-O ,  3-C ) :  -0.1070 B(  3-C ,  4-C ) :   1.3519 B(  3-C ,  8-C ) :   1.3527
B(  4-C ,  5-C ) :   1.4418 B(  4-C , 12-H ) :   0.9516 B(  5-C ,  6-N ) :   1.4717
B(  5-C , 13-H ) :   0.9688 B(  6-N ,  7-C ) :   1.4986 B(  7-C ,  8-C ) :   1.4298
B(  7-C , 14-H ) :   0.9696 B(  8-C , 15-H ) :   0.9555

FINAL SINGLE POINT ENERGY      -400.961607718452

DIPOLE MOMENT
-------------

Method             : SCF
Type of density    : Electron Density
Multiplicity       :   1
Irrep              :   0
Energy             :  -400.9701803919523968 Eh
Relativity type    :
Basis              : AO
                                X                 Y                 Z
Electronic contribution:      2.672253095       2.782328236       0.136261206
Nuclear contribution   :     -3.015823619      -4.290387754      -0.174109395
                        -----------------------------------------
Total Dipole Moment    :     -0.343570523      -1.508059518      -0.037848189
                        -----------------------------------------
Magnitude (a.u.)       :      1.547164083
Magnitude (Debye)      :      3.932578571

Rotational constants in cm-1:             0.127591             0.040572             0.030960
Rotational constants in MHz :          3825.075023          1216.331661           928.165461

                             ****ORCA TERMINATED NORMALLY****
TOTAL RUN TIME: 0 days 0 hours 3 minutes 20 seconds 610 msec
