                         Program Version 6.0.0  -   RELEASE  -
|  1> ! r2scan-3c def2/J RI DEFGRID2 scfconv6 printgap
|  2> %output
|  3>     printlevel normal
|  4> end
|  5> * xyz 0 1
|  6> C -1.4500933721 0.5574230034 1.3694021012
|  7> C -0.9845575589 -0.3289755458 0.2176231686
|  8> H -1.0784839778 -1.3950515011 0.4779887314
|  9> C 0.5034736001 -0.0970090955 -0.0432093518
| 10> F 0.7948807913 1.1741397932 -0.3512447207
| 11> F 1.256319947 -0.4047537921 1.0306984513
| 12> F 0.9751867442 -0.8506616212 -1.0502505528
| 13> O -1.6182408074 -0.0513764096 -1.0035491551
| 14> H -0.8443459062 0.3674284466 2.2506878011
| 15> H -2.487614709 0.3405085784 1.6022664124
| 16> H -1.3554146317 1.6035688992 1.0882484374
| 17> H -2.5786577297 -0.1352304008 -0.8967315657
| 18> *
| 19>
| 20>                          ****END OF INPUT****

CARTESIAN COORDINATES (ANGSTROEM)
---------------------------------
  C     -1.450093    0.557423    1.369402
  C     -0.984558   -0.328976    0.217623
  H     -1.078484   -1.395052    0.477989
  C      0.503474   -0.097009   -0.043209
  F      0.794881    1.174140   -0.351245
  F      1.256320   -0.404754    1.030698
  F      0.975187   -0.850662   -1.050251
  O     -1.618241   -0.051376   -1.003549
  H     -0.844346    0.367428    2.250688
  H     -2.487615    0.340509    1.602266
  H     -1.355415    1.603569    1.088248
  H     -2.578658   -0.135230   -0.896732

 Total Charge           Charge          ....    0
 Multiplicity           Mult            ....    1
 Number of Electrons    NEL             ....   58
 Basis Dimension        Dim             ....  178

ORBITAL ENERGIES
----------------

  NO   OCC          E(Eh)            E(eV)
   0   2.0000     -24.515761      -667.1078
   1   2.0000     -24.513305      -667.0409
   2   2.0000     -24.509711      -666.9432
   3   2.0000     -18.976851      -516.3864
   4   2.0000     -10.275605      -279.6134
   5   2.0000     -10.122033      -275.4345
   6   2.0000     -10.045709      -273.3577
   7   2.0000      -1.272004       -34.6130
   8   2.0000      -1.182546       -32.1787
   9   2.0000      -1.179239       -32.0887
  10   2.0000      -1.018830       -27.7238
  11   2.0000      -0.765987       -20.8436
  12   2.0000      -0.678888       -18.4735
  13   2.0000      -0.613851       -16.7037
  14   2.0000      -0.558209       -15.1896
  15   2.0000      -0.550386       -14.9768
  16   2.0000      -0.513462       -13.9720
  17   2.0000      -0.497272       -13.5315
  18   2.0000      -0.438219       -11.9245
  19   2.0000      -0.423686       -11.5291
  20   2.0000      -0.419086       -11.4039
  21   2.0000      -0.406045       -11.0491
  22   2.0000      -0.381826       -10.3900
  23   2.0000      -0.378039       -10.2870
  24   2.0000      -0.372646       -10.1402
  25   2.0000      -0.361711        -9.8427
  26   2.0000      -0.354694        -9.6517
  27   2.0000      -0.319604        -8.6969
  28   2.0000      -0.266851        -7.2614
  29   0.0000       0.033714         0.9174
  30   0.0000       0.079985         2.1765
  31   0.0000       0.103206         2.8084
  32   0.0000       0.117373         3.1939
  33   0.0000       0.129539         3.5249

MULLIKEN ATOMIC CHARGES
-----------------------
   0 C :   -0.497347
   1 C :    0.034859
   2 H :    0.149261
   3 C :    0.543274
   4 F :   -0.207940
   5 F :   -0.218606
   6 F :   -0.201616
   7 O :   -0.401984
   8 H :    0.170126
   9 H :    0.148485
  10 H :    0.179397
  11 H :    0.302090
Sum of atomic charges:   -0.0000000

LOEWDIN ATOMIC CHARGES
----------------------
   0 C :   -0.383223
   1 C :    0.075093
   2 H :    0.182703
   3 C :    0.522985
   4 F :   -0.197392
   5 F :   -0.217433
   6 F :   -0.195871
   7 O :   -0.570086
   8 H :    0.172738
   9 H :    0.157456
  10 H :    0.173260
  11 H :    0.279771

  Mayer bond orders larger than 0.100000
B(  0-C ,  1-C ) :   0.9171 B(  0-C ,  8-H ) :   0.9590 B(  0-C ,  9-H ) :   0.9650
B(  0-C , 10-H ) :   0.9722 B(  1-C ,  2-H ) :   0.9257 B(  1-C ,  3-C ) :   1.0031
B(  1-C ,  7-O ) :   0.9231 B(  3-C ,  4-F ) :   1.0349 B(  3-C ,  5-F ) :   1.0008
B(  3-C ,  6-F ) :   1.0352 B(  7-O , 11-H ) :   0.8934

Dispersion correction           -0.002547979
FINAL SINGLE POINT ENERGY      -492.054053584522

DIPOLE MOMENT
-------------

Method             : SCF
Type of density    : Electron Density
Multiplicity       :   1
Irrep              :   0
Energy             :  -492.0634067608582427 Eh
Relativity type    :
Basis              : AO
                                X                 Y                 Z
Electronic contribution:      9.434198826      -0.979217436      -3.902219368
Nuclear contribution   :    -10.656585386       0.807468468       4.571558342
                        -----------------------------------------
Total Dipole Moment    :     -1.222386559      -0.171748968       0.669338974
                        -----------------------------------------
Magnitude (a.u.)       :      1.404187050
Magnitude (Debye)      :      3.569159834

Rotational constants in cm-1:             0.118025             0.080525             0.065752
Rotational constants in MHz :          3538.310037          2414.082945          1971.185738

                             ****ORCA TERMINATED NORMALLY****
TOTAL RUN TIME: 0 days 0 hours 0 minutes 20 seconds 434 msec
