                         Program Version 6.0.0  -   RELEASE  -
|  1> ! r2scan-3c def2/J RI DEFGRID2 scfconv6 printgap
|  2> %output
|  3>     printlevel normal
|  4> end
|  5> %cpcm
|  6>     smd true
|  7>     smdsolvent "water"
|  8> end
|  9> * xyz 0 1
| 10> C -1.4500933721 0.5574230034 1.3694021012
| 11> C -0.9845575589 -0.3289755458 0.2176231686
| 12> H -1.0784839778 -1.3950515011 0.4779887314
| 13> C 0.5034736001 -0.0970090955 -0.0432093518
| 14> F 0.7948807913 1.1741397932 -0.3512447207
| 15> F 1.256319947 -0.4047537921 1.0306984513
| 16> F 0.9751867442 -0.8506616212 -1.0502505528
| 17> O -1.6182408074 -0.0513764096 -1.0035491551
| 18> H -0.8443459062 0.3674284466 2.2506878011
| 19> H -2.487614709 0.3405085784 1.6022664124
| 20> H -1.3554146317 1.6035688992 1.0882484374
| 21> H -2.5786577297 -0.1352304008 -0.8967315657
| 22> *
| 23>
| 24>                          ****END OF INPUT****

CARTESIAN COORDINATES (ANGSTROEM)
---------------------------------
  C     -1.450093    0.557423    1.369402
  C     -0.984558   -0.328976    0.217623
  H     -1.078484   -1.395052    0.477989
  C      0.503474   -0.097009   -0.043209
  F      0.794881    1.174140   -0.351245
  F      1.256320   -0.404754    1.030698
  F      0.975187   -0.850662   -1.050251
  O     -1.618241   -0.051376   -1.003549
  H     -0.844346    0.367428    2.250688
  H     -2.487615    0.340509    1.602266
  H     -1.355415    1.603569    1.088248
  H     -2.578658   -0.135230   -0.896732

 Total Charge           Charge          ....    0
 Multiplicity           Mult            ....    1
 Number of Electrons    NEL             ....   58
 Basis Dimension        Dim             ....  178

ORBITAL ENERGIES
----------------

  NO   OCC          E(Eh)            E(eV)
   0   2.0000     -24.520609      -667.2397
   1   2.0000     -24.519529      -667.2103
   2   2.0000     -24.518531      -667.1832
   3   2.0000     -18.966403      -516.1021
   4   2.0000     -10.278404      -279.6896
   5   2.0000     -10.109346      -275.0893
   6   2.0000     -10.024878      -272.7908
   7   2.0000      -1.279109       -34.8063
   8   2.0000      -1.189459       -32.3668
   9   2.0000      -1.187368       -32.3099
  10   2.0000      -1.008359       -27.4389
  11   2.0000      -0.754826       -20.5398
  12   2.0000      -0.672189       -18.2912
  13   2.0000      -0.610441       -16.6109
  14   2.0000      -0.562539       -15.3075
  15   2.0000      -0.557246       -15.1634
  16   2.0000      -0.508785       -13.8447
  17   2.0000      -0.485048       -13.1988
  18   2.0000      -0.436637       -11.8815
  19   2.0000      -0.431805       -11.7500
  20   2.0000      -0.416448       -11.3321
  21   2.0000      -0.397827       -10.8254
  22   2.0000      -0.386665       -10.5217
  23   2.0000      -0.381858       -10.3909
  24   2.0000      -0.370888       -10.0924
  25   2.0000      -0.356036        -9.6882
  26   2.0000      -0.344908        -9.3854
  27   2.0000      -0.312597        -8.5062
  28   2.0000      -0.258695        -7.0394
  29   0.0000       0.056130         1.5274
  30   0.0000       0.092055         2.5049
  31   0.0000       0.111124         3.0238
  32   0.0000       0.136767         3.7216
  33   0.0000       0.141021         3.8374

MULLIKEN ATOMIC CHARGES
-----------------------
   0 C :   -0.528205
   1 C :    0.044456
   2 H :    0.183473
   3 C :    0.530629
   4 F :   -0.216833
   5 F :   -0.222409
   6 F :   -0.213781
   7 O :   -0.475813
   8 H :    0.180357
   9 H :    0.181427
  10 H :    0.178707
  11 H :    0.357992
Sum of atomic charges:   -0.0000000

LOEWDIN ATOMIC CHARGES
----------------------
   0 C :   -0.382596
   1 C :    0.081261
   2 H :    0.197024
   3 C :    0.517520
   4 F :   -0.207233
   5 F :   -0.219888
   6 F :   -0.207893
   7 O :   -0.597996
   8 H :    0.175868
   9 H :    0.170876
  10 H :    0.171981
  11 H :    0.301076

  Mayer bond orders larger than 0.100000
B(  0-C ,  1-C ) :   0.9190 B(  0-C ,  8-H ) :   0.9568 B(  0-C ,  9-H ) :   0.9572
B(  0-C , 10-H ) :   0.9674 B(  1-C ,  2-H ) :   0.9135 B(  1-C ,  3-C ) :   1.0020
B(  1-C ,  7-O ) :   0.9179 B(  3-C ,  4-F ) :   1.0279 B(  3-C ,  5-F ) :   1.0074
B(  3-C ,  6-F ) :   1.0233 B(  7-O , 11-H ) :   0.8653

Dispersion correction           -0.002547979
FINAL SINGLE POINT ENERGY      -492.062068253754

DIPOLE MOMENT
-------------

Method             : SCF
Type of density    : Electron Density
Multiplicity       :   1
Irrep              :   0
Energy             :  -492.0714214300905951 Eh
Relativity type    :
Basis              : AO
                                X                 Y                 Z
Electronic contribution:      9.088330275      -1.097049113      -3.641346496
Nuclear contribution   :    -10.656585386       0.807468468       4.571558342
                        -----------------------------------------
Total Dipole Moment    :     -1.568255110      -0.289580645       0.930211845
                        -----------------------------------------
Magnitude (a.u.)       :      1.846232683
Magnitude (Debye)      :      4.692750540

Rotational constants in cm-1:             0.118025             0.080525             0.065752
Rotational constants in MHz :          3538.310037          2414.082945          1971.185738

                             ****ORCA TERMINATED NORMALLY****
TOTAL RUN TIME: 0 days 0 hours 0 minutes 24 seconds 396 msec
