                         Program Version 6.0.0  -   RELEASE  -
|  1> ! r2scan-3c def2/J RI DEFGRID2 scfconv6 printgap
|  2> %output
|  3>     printlevel normal
|  4> end
|  5> * xyz 0 1
|  6> C -2.100674084 -1.1723922214 -0.2360976192
|  7> C -1.2694390969 -0.3325907407 0.7532469623
|  8> H -1.8788424976 -0.1626889056 1.6465341825
|  9> C -0.9144717067 1.0460871124 0.1674378452
| 10> H -1.1969616846 1.075560156 -0.8967815893
| 11> C 0.5971333752 1.2838624215 0.2451766999
| 12> H 0.9021824474 1.3554041425 1.301134855
| 13> C 1.3044318831 0.0871530866 -0.3964047919
| 14> H 0.9135703657 -0.0427026509 -1.4147760667
| 15> C 0.9858710738 -1.173292436 0.4304050595
| 16> H 1.8144756861 -1.3466744752 1.1326857363
| 17> O -0.1343393969 -1.0287001331 1.2631900623
| 18> O 0.8524057292 -2.2531969048 -0.4514334647
| 19> O 2.682766074 0.3599624492 -0.4206609735
| 20> O 0.8843453557 2.4813580261 -0.429144965
| 21> O -1.6311533411 2.0207555748 0.8826436509
| 22> O -1.5390420738 -1.2785777183 -1.5202845094
| 23> H -3.063766741 -0.6761877604 -0.3691287602
| 24> H -2.2662296466 -2.1639424392 0.2019275188
| 25> H 0.8066231116 -3.0865369693 0.043128559
| 26> H 3.139092292 -0.2827789878 -0.9817811474
| 27> H 1.8459270025 2.5469172119 -0.5338946218
| 28> H -1.3579741354 2.8943975507 0.5636236062
| 29> H -0.7077015798 -1.7860258368 -1.4518085951
| 30> *
| 31>
| 32>                          ****END OF INPUT****

CARTESIAN COORDINATES (ANGSTROEM)
---------------------------------
  C     -2.100674   -1.172392   -0.236098
  C     -1.269439   -0.332591    0.753247
  H     -1.878842   -0.162689    1.646534
  C     -0.914472    1.046087    0.167438
  H     -1.196962    1.075560   -0.896782
  C      0.597133    1.283862    0.245177
  H      0.902182    1.355404    1.301135
  C      1.304432    0.087153   -0.396405
  H      0.913570   -0.042703   -1.414776
  C      0.985871   -1.173292    0.430405
  H      1.814476   -1.346674    1.132686
  O     -0.134339   -1.028700    1.263190
  O      0.852406   -2.253197   -0.451433
  O      2.682766    0.359962   -0.420661
  O      0.884345    2.481358   -0.429145
  O     -1.631153    2.020756    0.882644
  O     -1.539042   -1.278578   -1.520285
  H     -3.063767   -0.676188   -0.369129
  H     -2.266230   -2.163942    0.201928
  H      0.806623   -3.086537    0.043129
  H      3.139092   -0.282779   -0.981781
  H      1.845927    2.546917   -0.533895
  H     -1.357974    2.894398    0.563624
  H     -0.707702   -1.786026   -1.451809

 Total Charge           Charge          ....    0
 Multiplicity           Mult            ....    1
 Number of Electrons    NEL             ....   96
 Basis Dimension        Dim             ....  318

ORBITAL ENERGIES
----------------

  NO   OCC          E(Eh)            E(eV)
   0   2.0000     -18.992005      -516.7987
   1   2.0000     -18.977404      -516.4014
   2   2.0000     -18.972594      -516.2705
   3   2.0000     -18.959013      -515.9010
   4   2.0000     -18.950584      -515.6716
   5   2.0000     -18.940611      -515.4002
   6   2.0000     -10.148791      -276.1626
   7   2.0000     -10.099534      -274.8223
   8   2.0000     -10.089343      -274.5450
   9   2.0000     -10.088679      -274.5269
  10   2.0000     -10.085246      -274.4335
  11   2.0000     -10.075825      -274.1771
  12   2.0000      -1.059841       -28.8397
  13   2.0000      -1.020618       -27.7724
  14   2.0000      -1.004156       -27.3245
  15   2.0000      -0.992911       -27.0185
  16   2.0000      -0.982224       -26.7277
  17   2.0000      -0.978969       -26.6391
  18   2.0000      -0.753184       -20.4952
  19   2.0000      -0.742404       -20.2018
  20   2.0000      -0.661384       -17.9972
  21   2.0000      -0.620233       -16.8774
  22   2.0000      -0.604673       -16.4540
  23   2.0000      -0.555650       -15.1200
  24   2.0000      -0.533856       -14.5270
  25   2.0000      -0.503324       -13.6961
  26   2.0000      -0.491609       -13.3773
  27   2.0000      -0.486005       -13.2249
  28   2.0000      -0.477096       -12.9824
  29   2.0000      -0.457820       -12.4579
  30   2.0000      -0.440335       -11.9821
  31   2.0000      -0.420783       -11.4501
  32   2.0000      -0.410944       -11.1823
  33   2.0000      -0.405190       -11.0258
  34   2.0000      -0.381954       -10.3935
  35   2.0000      -0.366987        -9.9862
  36   2.0000      -0.359068        -9.7707
  37   2.0000      -0.343448        -9.3457
  38   2.0000      -0.334644        -9.1061
  39   2.0000      -0.314931        -8.5697
  40   2.0000      -0.311582        -8.4786
  41   2.0000      -0.297510        -8.0956
  42   2.0000      -0.283886        -7.7249
  43   2.0000      -0.267558        -7.2806
  44   2.0000      -0.258828        -7.0431
  45   2.0000      -0.246218        -6.6999
  46   2.0000      -0.237230        -6.4553
  47   2.0000      -0.223909        -6.0929
  48   0.0000       0.028266         0.7692
  49   0.0000       0.036232         0.9859
  50   0.0000       0.064239         1.7480
  51   0.0000       0.075131         2.0444
  52   0.0000       0.079701         2.1688

MULLIKEN ATOMIC CHARGES
-----------------------
   0 C :   -0.234811
   1 C :    0.025098
   2 H :    0.164888
   3 C :   -0.067455
   4 H :    0.185492
   5 C :   -0.014928
   6 H :    0.171344
   7 C :    0.019171
   8 H :    0.182875
   9 C :   -0.124151
  10 H :    0.146359
  11 O :   -0.195257
  12 O :   -0.399658
  13 O :   -0.435304
  14 O :   -0.428956
  15 O :   -0.426100
  16 O :   -0.433078
  17 H :    0.144214
  18 H :    0.140767
  19 H :    0.314338
  20 H :    0.308772
  21 H :    0.311287
  22 H :    0.310946
  23 H :    0.334147
Sum of atomic charges:    0.0000000

LOEWDIN ATOMIC CHARGES
----------------------
   0 C :    0.023280
   1 C :    0.116318
   2 H :    0.215363
   3 C :    0.120566
   4 H :    0.196896
   5 C :    0.122466
   6 H :    0.189693
   7 C :    0.124723
   8 H :    0.197133
   9 C :    0.286773
  10 H :    0.206793
  11 O :   -0.671841
  12 O :   -0.540824
  13 O :   -0.577481
  14 O :   -0.571778
  15 O :   -0.575341
  16 O :   -0.620820
  17 H :    0.186853
  18 H :    0.167358
  19 H :    0.280759
  20 H :    0.278303
  21 H :    0.284697
  22 H :    0.281266
  23 H :    0.278846

  Mayer bond orders larger than 0.100000
B(  0-C ,  1-C ) :   0.8970 B(  0-C , 16-O ) :   1.0138 B(  0-C , 17-H ) :   0.9654
B(  0-C , 18-H ) :   0.9910 B(  1-C ,  2-H ) :   0.9353 B(  1-C ,  3-C ) :   0.8505
B(  1-C , 11-O ) :   0.9627 B(  3-C ,  4-H ) :   0.9728 B(  3-C ,  5-C ) :   0.8894
B(  3-C , 15-O ) :   0.9018 B(  5-C ,  6-H ) :   0.9950 B(  5-C ,  7-C ) :   0.8969
B(  5-C , 14-O ) :   0.9347 B(  7-C ,  8-H ) :   0.9531 B(  7-C ,  9-C ) :   0.8671
B(  7-C , 13-O ) :   0.9250 B(  9-C , 10-H ) :   0.9741 B(  9-C , 11-O ) :   1.0200
B(  9-C , 12-O ) :   0.9559 B( 12-O , 19-H ) :   0.8847 B( 13-O , 20-H ) :   0.8894
B( 14-O , 21-H ) :   0.8741 B( 15-O , 22-H ) :   0.8808 B( 16-O , 23-H ) :   0.8252

Dispersion correction           -0.008445407
FINAL SINGLE POINT ENERGY      -687.075287663238

DIPOLE MOMENT
-------------

Method             : SCF
Type of density    : Electron Density
Multiplicity       :   1
Irrep              :   0
Energy             :  -687.0873675205632480 Eh
Relativity type    :
Basis              : AO
                                X                 Y                 Z
Electronic contribution:      1.976285486       0.728754219       0.784369373
Nuclear contribution   :     -0.968190507      -1.567209830      -0.722209020
                        -----------------------------------------
Total Dipole Moment    :      1.008094979      -0.838455611       0.062160353
                        -----------------------------------------
Magnitude (a.u.)       :      1.312679400
Magnitude (Debye)      :      3.336565874

Rotational constants in cm-1:             0.035804             0.032766             0.021510
Rotational constants in MHz :          1073.376982           982.305411           644.846654

                             ****ORCA TERMINATED NORMALLY****
TOTAL RUN TIME: 0 days 0 hours 0 minutes 50 seconds 145 msec
