                         Program Version 6.0.0  -   RELEASE  -
|  1> ! r2scan-3c def2/J RI DEFGRID2 scfconv6 printgap
|  2> %output
|  3>     printlevel normal
|  4> end
|  5> %cpcm
|  6>     smd true
|  7>     smdsolvent "water"
|  8> end
|  9> * xyz 0 1
| 10> C -2.100674084 -1.1723922214 -0.2360976192
| 11> C -1.2694390969 -0.3325907407 0.7532469623
| 12> H -1.8788424976 -0.1626889056 1.6465341825
| 13> C -0.9144717067 1.0460871124 0.1674378452
| 14> H -1.1969616846 1.075560156 -0.8967815893
| 15> C 0.5971333752 1.2838624215 0.2451766999
| 16> H 0.9021824474 1.3554041425 1.301134855
| 17> C 1.3044318831 0.0871530866 -0.3964047919
| 18> H 0.9135703657 -0.0427026509 -1.4147760667
| 19> C 0.9858710738 -1.173292436 0.4304050595
| 20> H 1.8144756861 -1.3466744752 1.1326857363
| 21> O -0.1343393969 -1.0287001331 1.2631900623
| 22> O 0.8524057292 -2.2531969048 -0.4514334647
| 23> O 2.682766074 0.3599624492 -0.4206609735
| 24> O 0.8843453557 2.4813580261 -0.429144965
| 25> O -1.6311533411 2.0207555748 0.8826436509
| 26> O -1.5390420738 -1.2785777183 -1.5202845094
| 27> H -3.063766741 -0.6761877604 -0.3691287602
| 28> H -2.2662296466 -2.1639424392 0.2019275188
| 29> H 0.8066231116 -3.0865369693 0.043128559
| 30> H 3.139092292 -0.2827789878 -0.9817811474
| 31> H 1.8459270025 2.5469172119 -0.5338946218
| 32> H -1.3579741354 2.8943975507 0.5636236062
| 33> H -0.7077015798 -1.7860258368 -1.4518085951
| 34> *
| 35>
| 36>                          ****END OF INPUT****

CARTESIAN COORDINATES (ANGSTROEM)
---------------------------------
  C     -2.100674   -1.172392   -0.236098
  C     -1.269439   -0.332591    0.753247
  H     -1.878842   -0.162689    1.646534
  C     -0.914472    1.046087    0.167438
  H     -1.196962    1.075560   -0.896782
  C      0.597133    1.283862    0.245177
  H      0.902182    1.355404    1.301135
  C      1.304432    0.087153   -0.396405
  H      0.913570   -0.042703   -1.414776
  C      0.985871   -1.173292    0.430405
  H      1.814476   -1.346674    1.132686
  O     -0.134339   -1.028700    1.263190
  O      0.852406   -2.253197   -0.451433
  O      2.682766    0.359962   -0.420661
  O      0.884345    2.481358   -0.429145
  O     -1.631153    2.020756    0.882644
  O     -1.539042   -1.278578   -1.520285
  H     -3.063767   -0.676188   -0.369129
  H     -2.266230   -2.163942    0.201928
  H      0.806623   -3.086537    0.043129
  H      3.139092   -0.282779   -0.981781
  H      1.845927    2.546917   -0.533895
  H     -1.357974    2.894398    0.563624
  H     -0.707702   -1.786026   -1.451809

 Total Charge           Charge          ....    0
 Multiplicity           Mult            ....    1
 Number of Electrons    NEL             ....   96
 Basis Dimension        Dim             ....  318

ORBITAL ENERGIES
----------------

  NO   OCC          E(Eh)            E(eV)
   0   2.0000     -18.972801      -516.2762
   1   2.0000     -18.970993      -516.2270
   2   2.0000     -18.964761      -516.0574
   3   2.0000     -18.960805      -515.9497
   4   2.0000     -18.959044      -515.9018
   5   2.0000     -18.948195      -515.6066
   6   2.0000     -10.135869      -275.8110
   7   2.0000     -10.089682      -274.5542
   8   2.0000     -10.087395      -274.4920
   9   2.0000     -10.086951      -274.4799
  10   2.0000     -10.086621      -274.4709
  11   2.0000     -10.073395      -274.1110
  12   2.0000      -1.049328       -28.5537
  13   2.0000      -1.014691       -27.6111
  14   2.0000      -1.002002       -27.2659
  15   2.0000      -0.985800       -26.8250
  16   2.0000      -0.985182       -26.8082
  17   2.0000      -0.982126       -26.7250
  18   2.0000      -0.750570       -20.4240
  19   2.0000      -0.736305       -20.0359
  20   2.0000      -0.656469       -17.8634
  21   2.0000      -0.614134       -16.7114
  22   2.0000      -0.601318       -16.3627
  23   2.0000      -0.545749       -14.8506
  24   2.0000      -0.528331       -14.3766
  25   2.0000      -0.497587       -13.5400
  26   2.0000      -0.487688       -13.2707
  27   2.0000      -0.481883       -13.1127
  28   2.0000      -0.471699       -12.8356
  29   2.0000      -0.455765       -12.4020
  30   2.0000      -0.435287       -11.8448
  31   2.0000      -0.416089       -11.3224
  32   2.0000      -0.409233       -11.1358
  33   2.0000      -0.403167       -10.9707
  34   2.0000      -0.378959       -10.3120
  35   2.0000      -0.366944        -9.9851
  36   2.0000      -0.357014        -9.7149
  37   2.0000      -0.347321        -9.4511
  38   2.0000      -0.331419        -9.0184
  39   2.0000      -0.314855        -8.5677
  40   2.0000      -0.312478        -8.5030
  41   2.0000      -0.290914        -7.9162
  42   2.0000      -0.279717        -7.6115
  43   2.0000      -0.268240        -7.2992
  44   2.0000      -0.254341        -6.9210
  45   2.0000      -0.247383        -6.7316
  46   2.0000      -0.244801        -6.6614
  47   2.0000      -0.227082        -6.1792
  48   0.0000       0.039978         1.0879
  49   0.0000       0.063981         1.7410
  50   0.0000       0.079565         2.1651
  51   0.0000       0.082814         2.2535
  52   0.0000       0.086960         2.3663

MULLIKEN ATOMIC CHARGES
-----------------------
   0 C :   -0.231841
   1 C :    0.025577
   2 H :    0.178731
   3 C :   -0.066660
   4 H :    0.186252
   5 C :   -0.022621
   6 H :    0.186490
   7 C :    0.028484
   8 H :    0.198850
   9 C :   -0.114547
  10 H :    0.170411
  11 O :   -0.245468
  12 O :   -0.433943
  13 O :   -0.486116
  14 O :   -0.486579
  15 O :   -0.491491
  16 O :   -0.498634
  17 H :    0.159800
  18 H :    0.158413
  19 H :    0.360318
  20 H :    0.356594
  21 H :    0.349466
  22 H :    0.350905
  23 H :    0.367610
Sum of atomic charges:   -0.0000000

LOEWDIN ATOMIC CHARGES
----------------------
   0 C :    0.024515
   1 C :    0.115676
   2 H :    0.219815
   3 C :    0.118039
   4 H :    0.197522
   5 C :    0.119969
   6 H :    0.194137
   7 C :    0.126993
   8 H :    0.202225
   9 C :    0.292505
  10 H :    0.215994
  11 O :   -0.693644
  12 O :   -0.535659
  13 O :   -0.588938
  14 O :   -0.594413
  15 O :   -0.603136
  16 O :   -0.653685
  17 H :    0.192541
  18 H :    0.177241
  19 H :    0.299014
  20 H :    0.296267
  21 H :    0.296561
  22 H :    0.294055
  23 H :    0.286406

  Mayer bond orders larger than 0.100000
B(  0-C ,  1-C ) :   0.9109 B(  0-C , 16-O ) :   0.9931 B(  0-C , 17-H ) :   0.9604
B(  0-C , 18-H ) :   0.9765 B(  1-C ,  2-H ) :   0.9325 B(  1-C ,  3-C ) :   0.8545
B(  1-C , 11-O ) :   0.9525 B(  3-C ,  4-H ) :   0.9707 B(  3-C ,  5-C ) :   0.8966
B(  3-C , 15-O ) :   0.8761 B(  5-C ,  6-H ) :   0.9872 B(  5-C ,  7-C ) :   0.8954
B(  5-C , 14-O ) :   0.9172 B(  7-C ,  8-H ) :   0.9442 B(  7-C ,  9-C ) :   0.8676
B(  7-C , 13-O ) :   0.9215 B(  9-C , 10-H ) :   0.9737 B(  9-C , 11-O ) :   0.9977
B(  9-C , 12-O ) :   0.9570 B( 12-O , 19-H ) :   0.8601 B( 13-O , 20-H ) :   0.8632
B( 14-O , 21-H ) :   0.8559 B( 15-O , 22-H ) :   0.8612 B( 16-O , 23-H ) :   0.8070

Dispersion correction           -0.008445407
FINAL SINGLE POINT ENERGY      -687.106201881659

DIPOLE MOMENT
-------------

Method             : SCF
Type of density    : Electron Density
Multiplicity       :   1
Irrep              :   0
Energy             :  -687.1182817389840238 Eh
Relativity type    :
Basis              : AO
                                X                 Y                 Z
Electronic contribution:      2.313296431       0.347641149       0.789831790
Nuclear contribution   :     -0.968190507      -1.567209830      -0.722209020
                        -----------------------------------------
Total Dipole Moment    :      1.345105924      -1.219568681       0.067622771
                        -----------------------------------------
Magnitude (a.u.)       :      1.816928880
Magnitude (Debye)      :      4.618266193

Rotational constants in cm-1:             0.035804             0.032766             0.021510
Rotational constants in MHz :          1073.376982           982.305411           644.846654

                             ****ORCA TERMINATED NORMALLY****
TOTAL RUN TIME: 0 days 0 hours 0 minutes 59 seconds 74 msec
