                         Program Version 6.0.0  -   RELEASE  -
|  1> ! pbe def2-sv(p) def2/J RI DEFGRID1 loosescf d4 GCP(DFT/SV(P)) printgap
|  2> %output
|  3>     printlevel normal
|  4> end
|  5> * xyz 0 1
|  6> C -1.7440360899 -1.3787231741 -0.4796409534
|  7> C -1.1231266323 -0.4885800806 0.6154398101
|  8> H -1.8234766654 -0.3968268316 1.4536891765
|  9> C -0.8532353797 0.9388630993 0.0975350017
| 10> H -1.1628917174 0.9951017801 -0.9594173845
| 11> C 0.6403382136 1.2677081999 0.1947375157
| 12> H 0.9103077684 1.4032894394 1.2481732576
| 13> C 1.4649670834 0.1121902568 -0.3834741871
| 14> H 1.173512113 -0.0625046253 -1.4325960165
| 15> C 1.1820241269 -1.1750732879 0.4085533237
| 16> H 1.9963880802 -1.3081639565 1.1352433344
| 17> O 0.0228407171 -1.0897797217 1.2030487192
| 18> O 1.1324441961 -2.2369465165 -0.4907569891
| 19> O 2.8411116761 0.3796341964 -0.3084399377
| 20> O 0.9569674821 2.4826867481 -0.4390148085
| 21> O -1.6284364294 1.8322226268 0.8619058932
| 22> O -2.8738537861 -0.7917375459 -1.0706087555
| 23> H -1.9834754189 -2.3551277992 -0.042263294
| 24> H -1.0230772785 -1.5286268476 -1.2863730211
| 25> H 1.1675728095 -3.0822087887 -0.0180031048
| 26> H 2.9807002224 1.3222534686 -0.5014252861
| 27> H 0.6997302516 2.4410347043 -1.3732494386
| 28> H -1.3625964443 2.7412605069 0.655448307
| 29> H -3.572220616 -0.6909527683 -0.4082304483
| 30> *
| 31>
| 32>                          ****END OF INPUT****

CARTESIAN COORDINATES (ANGSTROEM)
---------------------------------
  C     -1.744036   -1.378723   -0.479641
  C     -1.123127   -0.488580    0.615440
  H     -1.823477   -0.396827    1.453689
  C     -0.853235    0.938863    0.097535
  H     -1.162892    0.995102   -0.959417
  C      0.640338    1.267708    0.194738
  H      0.910308    1.403289    1.248173
  C      1.464967    0.112190   -0.383474
  H      1.173512   -0.062505   -1.432596
  C      1.182024   -1.175073    0.408553
  H      1.996388   -1.308164    1.135243
  O      0.022841   -1.089780    1.203049
  O      1.132444   -2.236947   -0.490757
  O      2.841112    0.379634   -0.308440
  O      0.956967    2.482687   -0.439015
  O     -1.628436    1.832223    0.861906
  O     -2.873854   -0.791738   -1.070609
  H     -1.983475   -2.355128   -0.042263
  H     -1.023077   -1.528627   -1.286373
  H      1.167573   -3.082209   -0.018003
  H      2.980700    1.322253   -0.501425
  H      0.699730    2.441035   -1.373249
  H     -1.362596    2.741261    0.655448
  H     -3.572221   -0.690953   -0.408230

 Total Charge           Charge          ....    0
 Multiplicity           Mult            ....    1
 Number of Electrons    NEL             ....   96
 Basis Dimension        Dim             ....  192

ORBITAL ENERGIES
----------------

  NO   OCC          E(Eh)            E(eV)
   0   2.0000     -18.775551      -510.9087
   1   2.0000     -18.768498      -510.7168
   2   2.0000     -18.763552      -510.5822
   3   2.0000     -18.752444      -510.2799
   4   2.0000     -18.750533      -510.2279
   5   2.0000     -18.748988      -510.1859
   6   2.0000      -9.985698      -271.7246
   7   2.0000      -9.945841      -270.6401
   8   2.0000      -9.943152      -270.5669
   9   2.0000      -9.942918      -270.5606
  10   2.0000      -9.942571      -270.5511
  11   2.0000      -9.928125      -270.1580
  12   2.0000      -0.980255       -26.6741
  13   2.0000      -0.957917       -26.0663
  14   2.0000      -0.932060       -25.3626
  15   2.0000      -0.925301       -25.1787
  16   2.0000      -0.918724       -24.9998
  17   2.0000      -0.912650       -24.8345
  18   2.0000      -0.704390       -19.1674
  19   2.0000      -0.691725       -18.8228
  20   2.0000      -0.622052       -16.9269
  21   2.0000      -0.586558       -15.9610
  22   2.0000      -0.572406       -15.5760
  23   2.0000      -0.527187       -14.3455
  24   2.0000      -0.509136       -13.8543
  25   2.0000      -0.479418       -13.0456
  26   2.0000      -0.470509       -12.8032
  27   2.0000      -0.468340       -12.7442
  28   2.0000      -0.452913       -12.3244
  29   2.0000      -0.436377       -11.8744
  30   2.0000      -0.407359       -11.0848
  31   2.0000      -0.402039       -10.9400
  32   2.0000      -0.385499       -10.4900
  33   2.0000      -0.368060       -10.0154
  34   2.0000      -0.363977        -9.9043
  35   2.0000      -0.353651        -9.6233
  36   2.0000      -0.334021        -9.0892
  37   2.0000      -0.321421        -8.7463
  38   2.0000      -0.300246        -8.1701
  39   2.0000      -0.290427        -7.9029
  40   2.0000      -0.286687        -7.8011
  41   2.0000      -0.261436        -7.1140
  42   2.0000      -0.254900        -6.9362
  43   2.0000      -0.252856        -6.8806
  44   2.0000      -0.239759        -6.5242
  45   2.0000      -0.227716        -6.1965
  46   2.0000      -0.210082        -5.7166
  47   2.0000      -0.207346        -5.6422
  48   0.0000       0.007514         0.2045
  49   0.0000       0.025920         0.7053
  50   0.0000       0.028525         0.7762
  51   0.0000       0.041850         1.1388
  52   0.0000       0.054005         1.4696

MULLIKEN ATOMIC CHARGES
-----------------------
   0 C :    0.007289
   1 C :    0.019390
   2 H :    0.074856
   3 C :    0.064735
   4 H :    0.053330
   5 C :    0.032230
   6 H :    0.073473
   7 C :    0.007709
   8 H :    0.054343
   9 C :    0.217439
  10 H :    0.073900
  11 O :   -0.309859
  12 O :   -0.386651
  13 O :   -0.411336
  14 O :   -0.421992
  15 O :   -0.415652
  16 O :   -0.424854
  17 H :    0.075906
  18 H :    0.110901
  19 H :    0.304413
  20 H :    0.300285
  21 H :    0.299713
  22 H :    0.299565
  23 H :    0.300868
Sum of atomic charges:    0.0000000

LOEWDIN ATOMIC CHARGES
----------------------
   0 C :   -0.146080
   1 C :   -0.065888
   2 H :    0.119592
   3 C :   -0.077615
   4 H :    0.099975
   5 C :   -0.091630
   6 H :    0.123969
   7 C :   -0.085575
   8 H :    0.100906
   9 C :    0.001606
  10 H :    0.107683
  11 O :   -0.143652
  12 O :   -0.300419
  13 O :   -0.317995
  14 O :   -0.309999
  15 O :   -0.322312
  16 O :   -0.328492
  17 H :    0.098139
  18 H :    0.116340
  19 H :    0.288002
  20 H :    0.279857
  21 H :    0.284898
  22 H :    0.282315
  23 H :    0.286373

  Mayer bond orders larger than 0.100000
B(  0-C ,  1-C ) :   1.0289 B(  0-C , 16-O ) :   1.0488 B(  0-C , 17-H ) :   0.9182
B(  0-C , 18-H ) :   0.9066 B(  1-C ,  2-H ) :   0.8889 B(  1-C ,  3-C ) :   0.9798
B(  1-C , 11-O ) :   1.0246 B(  3-C ,  4-H ) :   0.8735 B(  3-C ,  5-C ) :   1.0291
B(  3-C , 15-O ) :   1.0683 B(  5-C ,  6-H ) :   0.8503 B(  5-C ,  7-C ) :   1.0162
B(  5-C , 14-O ) :   1.0146 B(  7-C ,  8-H ) :   0.8728 B(  7-C ,  9-C ) :   0.9877
B(  7-C , 13-O ) :   1.0948 B(  9-C , 10-H ) :   0.8873 B(  9-C , 11-O ) :   1.0562
B(  9-C , 12-O ) :   1.1331 B( 12-O , 19-H ) :   0.8405 B( 13-O , 20-H ) :   0.8289
B( 14-O , 21-H ) :   0.8443 B( 15-O , 22-H ) :   0.8395 B( 16-O , 23-H ) :   0.8497

Dispersion correction           -0.024532829
FINAL SINGLE POINT ENERGY      -685.692601619066

DIPOLE MOMENT
-------------

Method             : SCF
Type of density    : Electron Density
Multiplicity       :   1
Irrep              :   0
Energy             :  -685.8228266176374746 Eh
Relativity type    :
Basis              : AO
                                X                 Y                 Z
Electronic contribution:      1.640402079       0.603248835       1.320759856
Nuclear contribution   :     -1.869213954      -0.480694854      -1.438078535
                        -----------------------------------------
Total Dipole Moment    :     -0.228811875       0.122553981      -0.117318679
                        -----------------------------------------
Magnitude (a.u.)       :      0.284847372
Magnitude (Debye)      :      0.724024479

Rotational constants in cm-1:             0.037201             0.029054             0.019519
Rotational constants in MHz :          1115.254438           871.025645           585.175780

                             ****ORCA TERMINATED NORMALLY****
TOTAL RUN TIME: 0 days 0 hours 0 minutes 12 seconds 457 msec
