                         Program Version 6.0.0  -   RELEASE  -
|  1> ! wb97x-v def2-tzvp def2/J RIJCOSX DEFGRID2 scfconv7 GCP(DFT/TZ) printgap
|  2> %output
|  3>     printlevel normal
|  4> end
|  5> * xyz 0 1
|  6> C 2.1169766467944915 -0.0038932542675079746 -0.0140232867556296
|  7> C 0.830305460774414 -0.6885359735465046 0.4370864166282506
|  8> C -0.4695328594248199 0.03210336409452041 0.04525810553913973
|  9> C -0.49788491148343744 1.478265377389953 0.518025187450596
| 10> C -1.6697833710102337 -0.7368204432670226 0.5926521751650372
| 11> O -0.5734397216983668 0.09902986999111914 -1.407089307583444
| 12> H 2.9812042838695003 -0.640442205075684 0.20038030130147047
| 13> H 2.2736828794062016 0.9478377056562275 0.5028798956406222
| 14> H 2.1081640993013275 0.19227160430398485 -1.091079023974039
| 15> H 0.8366348838181803 -0.809056080149742 1.5275057586263592
| 16> H 0.7827488762403892 -1.7005484954236112 0.012142618962512765
| 17> H 0.2927996844638416 2.0650402087043096 0.042223451017992845
| 18> H -1.461191545615249 1.9375203313550573 0.2742826954248334
| 19> H -0.3578951801967735 1.5244447806466856 1.6020456694367489
| 20> H -2.604186480593811 -0.2665333634942225 0.27058822138547567
| 21> H -1.6574606187547931 -1.772354139772162 0.23381777716819765
| 22> H -1.6507121330658365 -0.755008563318103 1.6871324019645246
| 23> H -0.5710842176550645 -0.8121672551616954 -1.7312928122996634
| 24> *
| 25>
| 26>                          ****END OF INPUT****

CARTESIAN COORDINATES (ANGSTROEM)
---------------------------------
  C      2.116977   -0.003893   -0.014023
  C      0.830305   -0.688536    0.437086
  C     -0.469533    0.032103    0.045258
  C     -0.497885    1.478265    0.518025
  C     -1.669783   -0.736820    0.592652
  O     -0.573440    0.099030   -1.407089
  H      2.981204   -0.640442    0.200380
  H      2.273683    0.947838    0.502880
  H      2.108164    0.192272   -1.091079
  H      0.836635   -0.809056    1.527506
  H      0.782749   -1.700548    0.012143
  H      0.292800    2.065040    0.042223
  H     -1.461192    1.937520    0.274283
  H     -0.357895    1.524445    1.602046
  H     -2.604186   -0.266533    0.270588
  H     -1.657461   -1.772354    0.233818
  H     -1.650712   -0.755009    1.687132
  H     -0.571084   -0.812167   -1.731293

 Total Charge           Charge          ....    0
 Multiplicity           Mult            ....    1
 Number of Electrons    NEL             ....   50
 Basis Dimension        Dim             ....  258

ORBITAL ENERGIES
----------------

  NO   OCC          E(Eh)            E(eV)
   0   2.0000     -21.663075      -589.4822
   1   2.0000     -12.102019      -329.3127
   2   2.0000     -12.043506      -327.7205
   3   2.0000     -12.035923      -327.5141
   4   2.0000     -12.031535      -327.3947
   5   2.0000     -12.031062      -327.3818
   6   2.0000      -1.661251       -45.2049
   7   2.0000      -1.320261       -35.9261
   8   2.0000      -1.240235       -33.7485
   9   2.0000      -1.186486       -32.2859
  10   2.0000      -1.120241       -30.4833
  11   2.0000      -1.083246       -29.4766
  12   2.0000      -0.987366       -26.8676
  13   2.0000      -0.937712       -25.5164
  14   2.0000      -0.929113       -25.2825
  15   2.0000      -0.867442       -23.6043
  16   2.0000      -0.861951       -23.4549
  17   2.0000      -0.847640       -23.0655
  18   2.0000      -0.818651       -22.2766
  19   2.0000      -0.814540       -22.1648
  20   2.0000      -0.809871       -22.0377
  21   2.0000      -0.801019       -21.7968
  22   2.0000      -0.780232       -21.2312
  23   2.0000      -0.766483       -20.8571
  24   2.0000      -0.758999       -20.6534
  25   0.0000      -0.147302        -4.0083
  26   0.0000      -0.060152        -1.6368
  27   0.0000      -0.029909        -0.8139
  28   0.0000      -0.015177        -0.4130
  29   0.0000      -0.012524        -0.3408

MULLIKEN ATOMIC CHARGES
-----------------------
   0 C :   -0.358147
   1 C :   -0.197310
   2 C :    0.206370
   3 C :   -0.361191
   4 C :   -0.344845
   5 O :   -0.448027
   6 H :    0.114079
   7 H :    0.114704
   8 H :    0.121537
   9 H :    0.092016
  10 H :    0.086964
  11 H :    0.127762
  12 H :    0.116257
  13 H :    0.105113
  14 H :    0.125318
  15 H :    0.100092
  16 H :    0.106948
  17 H :    0.292359
Sum of atomic charges:   -0.0000000

LOEWDIN ATOMIC CHARGES
----------------------
   0 C :   -0.305440
   1 C :   -0.258962
   2 C :   -0.423565
   3 C :   -0.255939
   4 C :   -0.267567
   5 O :   -0.015909
   6 H :    0.116263
   7 H :    0.116332
   8 H :    0.120794
   9 H :    0.138152
  10 H :    0.132717
  11 H :    0.124847
  12 H :    0.124589
  13 H :    0.123816
  14 H :    0.123546
  15 H :    0.117360
  16 H :    0.123081
  17 H :    0.165884

  Mayer bond orders larger than 0.100000
B(  0-C ,  1-C ) :   0.9779 B(  0-C ,  6-H ) :   0.9825 B(  0-C ,  7-H ) :   0.9828
B(  0-C ,  8-H ) :   0.9766 B(  1-C ,  2-C ) :   0.9930 B(  1-C ,  9-H ) :   0.9670
B(  1-C , 10-H ) :   0.9662 B(  2-C ,  3-C ) :   0.9363 B(  2-C ,  4-C ) :   0.9926
B(  2-C ,  5-O ) :   0.9876 B(  3-C , 11-H ) :   0.9861 B(  3-C , 12-H ) :   0.9793
B(  3-C , 13-H ) :   0.9730 B(  4-C , 14-H ) :   0.9861 B(  4-C , 15-H ) :   0.9653
B(  4-C , 16-H ) :   0.9727 B(  5-O , 17-H ) :   0.9036

FINAL SINGLE POINT ENERGY      -273.000599697324

DIPOLE MOMENT
-------------

Method             : SCF
Type of density    : Electron Density
Multiplicity       :   1
Irrep              :   0
Energy             :  -273.0136941617237767 Eh
Relativity type    :
Basis              : AO
                                X                 Y                 Z
Electronic contribution:     -1.422349959      -0.097096768      -2.889360315
Nuclear contribution   :      1.475673707      -0.397771608       3.289980611
                        -----------------------------------------
Total Dipole Moment    :      0.053323748      -0.494868376       0.400620296
                        -----------------------------------------
Magnitude (a.u.)       :      0.638932511
Magnitude (Debye)      :      1.624037378

Rotational constants in cm-1:             0.150065             0.086344             0.084407
Rotational constants in MHz :          4498.830005          2588.520608          2530.469322

                             ****ORCA TERMINATED NORMALLY****
TOTAL RUN TIME: 0 days 0 hours 1 minutes 45 seconds 228 msec
