                         Program Version 6.0.0  -   RELEASE  -
|  1> ! wb97x-v def2-tzvp def2/J RIJCOSX DEFGRID2 scfconv7 GCP(DFT/TZ) printgap
|  2> %output
|  3>     printlevel normal
|  4> end
|  5> %cpcm
|  6>     smd true
|  7>     smdsolvent "water"
|  8> end
|  9> * xyz 0 1
| 10> C 2.1169766467944915 -0.0038932542675079746 -0.0140232867556296
| 11> C 0.830305460774414 -0.6885359735465046 0.4370864166282506
| 12> C -0.4695328594248199 0.03210336409452041 0.04525810553913973
| 13> C -0.49788491148343744 1.478265377389953 0.518025187450596
| 14> C -1.6697833710102337 -0.7368204432670226 0.5926521751650372
| 15> O -0.5734397216983668 0.09902986999111914 -1.407089307583444
| 16> H 2.9812042838695003 -0.640442205075684 0.20038030130147047
| 17> H 2.2736828794062016 0.9478377056562275 0.5028798956406222
| 18> H 2.1081640993013275 0.19227160430398485 -1.091079023974039
| 19> H 0.8366348838181803 -0.809056080149742 1.5275057586263592
| 20> H 0.7827488762403892 -1.7005484954236112 0.012142618962512765
| 21> H 0.2927996844638416 2.0650402087043096 0.042223451017992845
| 22> H -1.461191545615249 1.9375203313550573 0.2742826954248334
| 23> H -0.3578951801967735 1.5244447806466856 1.6020456694367489
| 24> H -2.604186480593811 -0.2665333634942225 0.27058822138547567
| 25> H -1.6574606187547931 -1.772354139772162 0.23381777716819765
| 26> H -1.6507121330658365 -0.755008563318103 1.6871324019645246
| 27> H -0.5710842176550645 -0.8121672551616954 -1.7312928122996634
| 28> *
| 29>
| 30>                          ****END OF INPUT****

CARTESIAN COORDINATES (ANGSTROEM)
---------------------------------
  C      2.116977   -0.003893   -0.014023
  C      0.830305   -0.688536    0.437086
  C     -0.469533    0.032103    0.045258
  C     -0.497885    1.478265    0.518025
  C     -1.669783   -0.736820    0.592652
  O     -0.573440    0.099030   -1.407089
  H      2.981204   -0.640442    0.200380
  H      2.273683    0.947838    0.502880
  H      2.108164    0.192272   -1.091079
  H      0.836635   -0.809056    1.527506
  H      0.782749   -1.700548    0.012143
  H      0.292800    2.065040    0.042223
  H     -1.461192    1.937520    0.274283
  H     -0.357895    1.524445    1.602046
  H     -2.604186   -0.266533    0.270588
  H     -1.657461   -1.772354    0.233818
  H     -1.650712   -0.755009    1.687132
  H     -0.571084   -0.812167   -1.731293

 Total Charge           Charge          ....    0
 Multiplicity           Mult            ....    1
 Number of Electrons    NEL             ....   50
 Basis Dimension        Dim             ....  258

ORBITAL ENERGIES
----------------

  NO   OCC          E(Eh)            E(eV)
   0   2.0000     -21.666612      -589.5785
   1   2.0000     -12.097088      -329.1785
   2   2.0000     -12.032204      -327.4129
   3   2.0000     -12.024852      -327.2129
   4   2.0000     -12.024484      -327.2029
   5   2.0000     -12.024221      -327.1957
   6   2.0000      -1.665213       -45.3127
   7   2.0000      -1.313438       -35.7405
   8   2.0000      -1.232441       -33.5364
   9   2.0000      -1.178874       -32.0788
  10   2.0000      -1.113308       -30.2947
  11   2.0000      -1.082162       -29.4471
  12   2.0000      -0.989700       -26.9311
  13   2.0000      -0.934880       -25.4394
  14   2.0000      -0.929902       -25.3039
  15   2.0000      -0.860067       -23.4036
  16   2.0000      -0.856709       -23.3122
  17   2.0000      -0.841726       -22.9045
  18   2.0000      -0.811048       -22.0697
  19   2.0000      -0.808176       -21.9916
  20   2.0000      -0.801978       -21.8229
  21   2.0000      -0.791361       -21.5340
  22   2.0000      -0.772618       -21.0240
  23   2.0000      -0.758538       -20.6409
  24   2.0000      -0.750583       -20.4244
  25   0.0000      -0.143080        -3.8934
  26   0.0000      -0.039919        -1.0862
  27   0.0000      -0.020603        -0.5606
  28   0.0000      -0.007253        -0.1974
  29   0.0000      -0.002684        -0.0730

MULLIKEN ATOMIC CHARGES
-----------------------
   0 C :   -0.408411
   1 C :   -0.215966
   2 C :    0.253663
   3 C :   -0.409544
   4 C :   -0.408012
   5 O :   -0.564933
   6 H :    0.132933
   7 H :    0.131489
   8 H :    0.115871
   9 H :    0.112178
  10 H :    0.115051
  11 H :    0.137207
  12 H :    0.131333
  13 H :    0.132151
  14 H :    0.130505
  15 H :    0.131406
  16 H :    0.130074
  17 H :    0.353004
Sum of atomic charges:   -0.0000000

LOEWDIN ATOMIC CHARGES
----------------------
   0 C :   -0.313259
   1 C :   -0.256381
   2 C :   -0.420613
   3 C :   -0.264868
   4 C :   -0.270200
   5 O :   -0.058843
   6 H :    0.119694
   7 H :    0.118939
   8 H :    0.116514
   9 H :    0.143665
  10 H :    0.140552
  11 H :    0.124339
  12 H :    0.124750
  13 H :    0.131227
  14 H :    0.123039
  15 H :    0.124807
  16 H :    0.128833
  17 H :    0.187805

  Mayer bond orders larger than 0.100000
B(  0-C ,  1-C ) :   0.9642 B(  0-C ,  6-H ) :   0.9803 B(  0-C ,  7-H ) :   0.9797
B(  0-C ,  8-H ) :   0.9778 B(  1-C ,  2-C ) :   0.9845 B(  1-C ,  9-H ) :   0.9641
B(  1-C , 10-H ) :   0.9705 B(  2-C ,  3-C ) :   0.9509 B(  2-C ,  4-C ) :   0.9815
B(  2-C ,  5-O ) :   0.9457 B(  3-C , 11-H ) :   0.9777 B(  3-C , 12-H ) :   0.9753
B(  3-C , 13-H ) :   0.9715 B(  4-C , 14-H ) :   0.9782 B(  4-C , 15-H ) :   0.9704
B(  4-C , 16-H ) :   0.9702 B(  5-O , 17-H ) :   0.8708

FINAL SINGLE POINT ENERGY      -273.007261236130

DIPOLE MOMENT
-------------

Method             : SCF
Type of density    : Electron Density
Multiplicity       :   1
Irrep              :   0
Energy             :  -273.0203557005304447 Eh
Relativity type    :
Basis              : AO
                                X                 Y                 Z
Electronic contribution:     -1.397326461      -0.370076491      -2.664731262
Nuclear contribution   :      1.475673707      -0.397771608       3.289980611
                        -----------------------------------------
Total Dipole Moment    :      0.078347246      -0.767848099       0.625249349
                        -----------------------------------------
Magnitude (a.u.)       :      0.993310497
Magnitude (Debye)      :      2.524794634

Rotational constants in cm-1:             0.150065             0.086344             0.084407
Rotational constants in MHz :          4498.830005          2588.520608          2530.469322

                             ****ORCA TERMINATED NORMALLY****
TOTAL RUN TIME: 0 days 0 hours 2 minutes 0 seconds 299 msec
