                         Program Version 6.0.0  -   RELEASE  -
|  1> ! r2scan-3c def2/J RI DEFGRID2 scfconv6 printgap
|  2> %output
|  3>     printlevel normal
|  4> end
|  5> * xyz 0 1
|  6> C 2.4095261503 0.6892354582 -0.0001475693
|  7> C 2.3841797408 -0.7154486472 8.86607e-05
|  8> C 1.196145034 -1.3918725507 7.77773e-05
|  9> C -0.0241667348 -0.6839914483 -2.16151e-05
| 10> C 0.0009173396 0.7384788305 9.40576e-05
| 11> C 1.2437984289 1.403126956 -6.25131e-05
| 12> C -1.2375055714 1.4136560935 0.0001039482
| 13> C -2.3953642287 0.6848543965 -4.95471e-05
| 14> C -2.3056633215 -0.7189177816 -5.5502e-05
| 15> N -1.1818452025 -1.3816026111 -2.06426e-05
| 16> H 3.3601331843 1.2004331888 0.0002038098
| 17> H 3.3166441194 -1.2591548301 -0.0003720363
| 18> H 1.1564030352 -2.4693115399 7.916e-07
| 19> H 1.2538609013 2.4834484699 0.000127294
| 20> H -1.251830483 2.4944248582 7.53337e-05
| 21> H -3.3630735006 1.1606089423 -9.58869e-05
| 22> H -3.2047906771 -1.3219013399 1.74974e-05
| 23> *
| 24>
| 25>                          ****END OF INPUT****

CARTESIAN COORDINATES (ANGSTROEM)
---------------------------------
  C      2.409526    0.689235   -0.000148
  C      2.384180   -0.715449    0.000089
  C      1.196145   -1.391873    0.000078
  C     -0.024167   -0.683991   -0.000022
  C      0.000917    0.738479    0.000094
  C      1.243798    1.403127   -0.000063
  C     -1.237506    1.413656    0.000104
  C     -2.395364    0.684854   -0.000050
  C     -2.305663   -0.718918   -0.000056
  N     -1.181845   -1.381603   -0.000021
  H      3.360133    1.200433    0.000204
  H      3.316644   -1.259155   -0.000372
  H      1.156403   -2.469312    0.000001
  H      1.253861    2.483448    0.000127
  H     -1.251830    2.494425    0.000075
  H     -3.363074    1.160609   -0.000096
  H     -3.204791   -1.321901    0.000017

 Total Charge           Charge          ....    0
 Multiplicity           Mult            ....    1
 Number of Electrons    NEL             ....   68
 Basis Dimension        Dim             ....  230

ORBITAL ENERGIES
----------------

  NO   OCC          E(Eh)            E(eV)
   0   2.0000     -14.155350      -385.1867
   1   2.0000     -10.073097      -274.1029
   2   2.0000     -10.070368      -274.0286
   3   2.0000     -10.057392      -273.6756
   4   2.0000     -10.054575      -273.5989
   5   2.0000     -10.047242      -273.3994
   6   2.0000     -10.045918      -273.3633
   7   2.0000     -10.044382      -273.3215
   8   2.0000     -10.043831      -273.3065
   9   2.0000     -10.037845      -273.1437
  10   2.0000      -0.918633       -24.9973
  11   2.0000      -0.825203       -22.4549
  12   2.0000      -0.781540       -21.2668
  13   2.0000      -0.726501       -19.7691
  14   2.0000      -0.715534       -19.4707
  15   2.0000      -0.618850       -16.8398
  16   2.0000      -0.604249       -16.4425
  17   2.0000      -0.576782       -15.6950
  18   2.0000      -0.503015       -13.6877
  19   2.0000      -0.491249       -13.3676
  20   2.0000      -0.480996       -13.0886
  21   2.0000      -0.429457       -11.6861
  22   2.0000      -0.413574       -11.2539
  23   2.0000      -0.402018       -10.9395
  24   2.0000      -0.393668       -10.7123
  25   2.0000      -0.384611       -10.4658
  26   2.0000      -0.375750       -10.2247
  27   2.0000      -0.331825        -9.0294
  28   2.0000      -0.327308        -8.9065
  29   2.0000      -0.322065        -8.7638
  30   2.0000      -0.292549        -7.9607
  31   2.0000      -0.242368        -6.5952
  32   2.0000      -0.225635        -6.1398
  33   2.0000      -0.222644        -6.0585
  34   0.0000      -0.083474        -2.2714
  35   0.0000      -0.045258        -1.2315
  36   0.0000      -0.015651        -0.4259
  37   0.0000       0.055207         1.5023
  38   0.0000       0.076185         2.0731

MULLIKEN ATOMIC CHARGES
-----------------------
   0 C :   -0.142902
   1 C :   -0.111723
   2 C :   -0.330804
   3 C :    0.267580
   4 C :    0.077602
   5 C :   -0.215126
   6 C :   -0.211072
   7 C :   -0.125071
   8 C :   -0.050990
   9 N :   -0.191880
  10 H :    0.147422
  11 H :    0.149605
  12 H :    0.160900
  13 H :    0.144572
  14 H :    0.147256
  15 H :    0.148886
  16 H :    0.135744
Sum of atomic charges:    0.0000000

LOEWDIN ATOMIC CHARGES
----------------------
   0 C :   -0.159466
   1 C :   -0.156154
   2 C :   -0.100583
   3 C :    0.147894
   4 C :   -0.043038
   5 C :   -0.144891
   6 C :   -0.103554
   7 C :   -0.151292
   8 C :    0.094346
   9 N :   -0.603743
  10 H :    0.168776
  11 H :    0.169202
  12 H :    0.182909
  13 H :    0.170871
  14 H :    0.172930
  15 H :    0.170674
  16 H :    0.185120

  Mayer bond orders larger than 0.100000
B(  0-C ,  1-C ) :   1.2790 B(  0-C ,  5-C ) :   1.5299 B(  0-C , 10-H ) :   0.9450
B(  1-C ,  2-C ) :   1.4677 B(  1-C , 11-H ) :   0.9519 B(  2-C ,  3-C ) :   1.3036
B(  2-C ,  9-N ) :   0.1228 B(  2-C , 12-H ) :   0.9319 B(  3-C ,  4-C ) :   1.3899
B(  3-C ,  9-N ) :   1.0863 B(  4-C ,  5-C ) :   1.1567 B(  4-C ,  6-C ) :   1.1808
B(  5-C , 13-H ) :   0.9520 B(  6-C ,  7-C ) :   1.5274 B(  6-C , 14-H ) :   0.9622
B(  7-C ,  8-C ) :   1.2250 B(  7-C , 15-H ) :   0.9398 B(  8-C ,  9-N ) :   1.5941
B(  8-C , 16-H ) :   0.9773

Dispersion correction           -0.006530327
FINAL SINGLE POINT ENERGY      -401.821640954373

DIPOLE MOMENT
-------------

Method             : SCF
Type of density    : Electron Density
Multiplicity       :   1
Irrep              :   0
Energy             :  -401.8204486566386890 Eh
Relativity type    :
Basis              : AO
                                X                 Y                 Z
Electronic contribution:     -1.088879641      -1.352855294       0.000041701
Nuclear contribution   :      1.182498253       2.139462965      -0.000040639
                        -----------------------------------------
Total Dipole Moment    :      0.093618612       0.786607671       0.000001062
                        -----------------------------------------
Magnitude (a.u.)       :      0.792159121
Magnitude (Debye)      :      2.013508469

Rotational constants in cm-1:             0.106475             0.042868             0.030563
Rotational constants in MHz :          3192.030564          1285.160619           916.260178

                             ****ORCA TERMINATED NORMALLY****
TOTAL RUN TIME: 0 days 0 hours 0 minutes 23 seconds 746 msec
