                         Program Version 6.0.0  -   RELEASE  -
|  1> ! r2scan-3c def2/J RI DEFGRID2 scfconv6 printgap
|  2> %output
|  3>     printlevel normal
|  4> end
|  5> %cpcm
|  6>     smd true
|  7>     smdsolvent "water"
|  8> end
|  9> * xyz 0 1
| 10> C 2.4095261503 0.6892354582 -0.0001475693
| 11> C 2.3841797408 -0.7154486472 8.86607e-05
| 12> C 1.196145034 -1.3918725507 7.77773e-05
| 13> C -0.0241667348 -0.6839914483 -2.16151e-05
| 14> C 0.0009173396 0.7384788305 9.40576e-05
| 15> C 1.2437984289 1.403126956 -6.25131e-05
| 16> C -1.2375055714 1.4136560935 0.0001039482
| 17> C -2.3953642287 0.6848543965 -4.95471e-05
| 18> C -2.3056633215 -0.7189177816 -5.5502e-05
| 19> N -1.1818452025 -1.3816026111 -2.06426e-05
| 20> H 3.3601331843 1.2004331888 0.0002038098
| 21> H 3.3166441194 -1.2591548301 -0.0003720363
| 22> H 1.1564030352 -2.4693115399 7.916e-07
| 23> H 1.2538609013 2.4834484699 0.000127294
| 24> H -1.251830483 2.4944248582 7.53337e-05
| 25> H -3.3630735006 1.1606089423 -9.58869e-05
| 26> H -3.2047906771 -1.3219013399 1.74974e-05
| 27> *
| 28>
| 29>                          ****END OF INPUT****

CARTESIAN COORDINATES (ANGSTROEM)
---------------------------------
  C      2.409526    0.689235   -0.000148
  C      2.384180   -0.715449    0.000089
  C      1.196145   -1.391873    0.000078
  C     -0.024167   -0.683991   -0.000022
  C      0.000917    0.738479    0.000094
  C      1.243798    1.403127   -0.000063
  C     -1.237506    1.413656    0.000104
  C     -2.395364    0.684854   -0.000050
  C     -2.305663   -0.718918   -0.000056
  N     -1.181845   -1.381603   -0.000021
  H      3.360133    1.200433    0.000204
  H      3.316644   -1.259155   -0.000372
  H      1.156403   -2.469312    0.000001
  H      1.253861    2.483448    0.000127
  H     -1.251830    2.494425    0.000075
  H     -3.363074    1.160609   -0.000096
  H     -3.204791   -1.321901    0.000017

 Total Charge           Charge          ....    0
 Multiplicity           Mult            ....    1
 Number of Electrons    NEL             ....   68
 Basis Dimension        Dim             ....  230

ORBITAL ENERGIES
----------------

  NO   OCC          E(Eh)            E(eV)
   0   2.0000     -14.159511      -385.2999
   1   2.0000     -10.073859      -274.1236
   2   2.0000     -10.069296      -273.9995
   3   2.0000     -10.052653      -273.5466
   4   2.0000     -10.051884      -273.5257
   5   2.0000     -10.041288      -273.2373
   6   2.0000     -10.040720      -273.2219
   7   2.0000     -10.040348      -273.2118
   8   2.0000     -10.038804      -273.1697
   9   2.0000     -10.036342      -273.1027
  10   2.0000      -0.921474       -25.0746
  11   2.0000      -0.823762       -22.4157
  12   2.0000      -0.778740       -21.1906
  13   2.0000      -0.724607       -19.7176
  14   2.0000      -0.712583       -19.3904
  15   2.0000      -0.614932       -16.7331
  16   2.0000      -0.601758       -16.3747
  17   2.0000      -0.573223       -15.5982
  18   2.0000      -0.498662       -13.5693
  19   2.0000      -0.485781       -13.2188
  20   2.0000      -0.476444       -12.9647
  21   2.0000      -0.424669       -11.5558
  22   2.0000      -0.408143       -11.1061
  23   2.0000      -0.397781       -10.8242
  24   2.0000      -0.396214       -10.7815
  25   2.0000      -0.377707       -10.2779
  26   2.0000      -0.369787       -10.0624
  27   2.0000      -0.328048        -8.9266
  28   2.0000      -0.326659        -8.8888
  29   2.0000      -0.317095        -8.6286
  30   2.0000      -0.292849        -7.9688
  31   2.0000      -0.242129        -6.5887
  32   2.0000      -0.232607        -6.3296
  33   2.0000      -0.222756        -6.0615
  34   0.0000      -0.082938        -2.2569
  35   0.0000      -0.044775        -1.2184
  36   0.0000      -0.015781        -0.4294
  37   0.0000       0.057149         1.5551
  38   0.0000       0.086973         2.3666

MULLIKEN ATOMIC CHARGES
-----------------------
   0 C :   -0.170653
   1 C :   -0.147226
   2 C :   -0.379123
   3 C :    0.283649
   4 C :    0.044460
   5 C :   -0.234894
   6 C :   -0.202359
   7 C :   -0.159001
   8 C :   -0.059561
   9 N :   -0.243544
  10 H :    0.181984
  11 H :    0.184103
  12 H :    0.182540
  13 H :    0.181937
  14 H :    0.187447
  15 H :    0.185869
  16 H :    0.164373
Sum of atomic charges:    0.0000000

LOEWDIN ATOMIC CHARGES
----------------------
   0 C :   -0.164959
   1 C :   -0.158695
   2 C :   -0.119418
   3 C :    0.135141
   4 C :   -0.051279
   5 C :   -0.144218
   6 C :   -0.094660
   7 C :   -0.149747
   8 C :    0.093515
   9 N :   -0.648520
  10 H :    0.180723
  11 H :    0.180968
  12 H :    0.188070
  13 H :    0.184983
  14 H :    0.188344
  15 H :    0.184374
  16 H :    0.195378

  Mayer bond orders larger than 0.100000
B(  0-C ,  1-C ) :   1.2525 B(  0-C ,  5-C ) :   1.4928 B(  0-C , 10-H ) :   0.9538
B(  1-C ,  2-C ) :   1.4595 B(  1-C , 11-H ) :   0.9545 B(  2-C ,  3-C ) :   1.2293
B(  2-C ,  9-N ) :   0.1334 B(  2-C , 12-H ) :   0.9497 B(  3-C ,  4-C ) :   1.3343
B(  3-C ,  9-N ) :   1.0869 B(  4-C ,  5-C ) :   1.1578 B(  4-C ,  6-C ) :   1.1882
B(  5-C , 13-H ) :   0.9590 B(  6-C ,  7-C ) :   1.5033 B(  6-C , 14-H ) :   0.9606
B(  7-C ,  8-C ) :   1.2293 B(  7-C , 15-H ) :   0.9440 B(  8-C ,  9-N ) :   1.5821
B(  8-C , 16-H ) :   0.9640

Dispersion correction           -0.006530327
FINAL SINGLE POINT ENERGY      -401.829941949071

DIPOLE MOMENT
-------------

Method             : SCF
Type of density    : Electron Density
Multiplicity       :   1
Irrep              :   0
Energy             :  -401.8287496513366364 Eh
Relativity type    :
Basis              : AO
                                X                 Y                 Z
Electronic contribution:     -1.079820923      -0.896091850       0.000044109
Nuclear contribution   :      1.182498253       2.139462965      -0.000040639
                        -----------------------------------------
Total Dipole Moment    :      0.102677330       1.243371116       0.000003470
                        -----------------------------------------
Magnitude (a.u.)       :      1.247603449
Magnitude (Debye)      :      3.171155951

Rotational constants in cm-1:             0.106475             0.042868             0.030563
Rotational constants in MHz :          3192.030564          1285.160619           916.260178

                             ****ORCA TERMINATED NORMALLY****
TOTAL RUN TIME: 0 days 0 hours 0 minutes 33 seconds 703 msec
