                         Program Version 6.0.0  -   RELEASE  -
|  1> ! r2scan-3c def2/J RI DEFGRID2 scfconv6 printgap
|  2> %output
|  3>     printlevel normal
|  4> end
|  5> * xyz 0 1
|  6> C 1.3328023878 0.9384011075 0.939875192
|  7> C 0.7027110781 0.3392089302 -0.3204517746
|  8> C 1.4619602225 -0.9140495122 -0.762280049
|  9> C -0.7690262897 0.0416847899 -0.0998897048
| 10> O -1.6228909825 0.6133901255 -0.7532671104
| 11> C -1.1202689403 -0.9727073267 0.9447459172
| 12> H 2.3313499523 1.2991064896 0.7078717612
| 13> H 0.7409353297 1.7754631006 1.3031157639
| 14> H 1.4123587895 0.1924906399 1.7254181076
| 15> H 0.7468644348 1.0825181531 -1.1247164218
| 16> H 1.5226122568 -1.6361617326 0.0467431659
| 17> H 2.4726626389 -0.6396734919 -1.052876047
| 18> H 0.9728066862 -1.3770252482 -1.6163701281
| 19> H -2.2003348489 -1.0662015817 1.0171421294
| 20> H -0.712822547 -0.6708371294 1.9052540055
| 21> H -0.6891010895 -1.9342677047 0.6801478363
| 22> *
| 23>
| 24>                          ****END OF INPUT****

CARTESIAN COORDINATES (ANGSTROEM)
---------------------------------
  C      1.332802    0.938401    0.939875
  C      0.702711    0.339209   -0.320452
  C      1.461960   -0.914050   -0.762280
  C     -0.769026    0.041685   -0.099890
  O     -1.622891    0.613390   -0.753267
  C     -1.120269   -0.972707    0.944746
  H      2.331350    1.299106    0.707872
  H      0.740935    1.775463    1.303116
  H      1.412359    0.192491    1.725418
  H      0.746864    1.082518   -1.124716
  H      1.522612   -1.636162    0.046743
  H      2.472663   -0.639673   -1.052876
  H      0.972807   -1.377025   -1.616370
  H     -2.200335   -1.066202    1.017142
  H     -0.712823   -0.670837    1.905254
  H     -0.689101   -1.934268    0.680148

 Total Charge           Charge          ....    0
 Multiplicity           Mult            ....    1
 Number of Electrons    NEL             ....   48
 Basis Dimension        Dim             ....  169

ORBITAL ENERGIES
----------------

  NO   OCC          E(Eh)            E(eV)
   0   2.0000     -18.934854      -515.2436
   1   2.0000     -10.115135      -275.2468
   2   2.0000     -10.045931      -273.3637
   3   2.0000     -10.033617      -273.0286
   4   2.0000     -10.033357      -273.0215
   5   2.0000     -10.033293      -273.0198
   6   2.0000      -0.999937       -27.2097
   7   2.0000      -0.782904       -21.3039
   8   2.0000      -0.708233       -19.2720
   9   2.0000      -0.666835       -18.1455
  10   2.0000      -0.594731       -16.1834
  11   2.0000      -0.495124       -13.4730
  12   2.0000      -0.443601       -12.0710
  13   2.0000      -0.431428       -11.7397
  14   2.0000      -0.425676       -11.5832
  15   2.0000      -0.390177       -10.6173
  16   2.0000      -0.387915       -10.5557
  17   2.0000      -0.377014       -10.2591
  18   2.0000      -0.362394        -9.8612
  19   2.0000      -0.336757        -9.1636
  20   2.0000      -0.333264        -9.0686
  21   2.0000      -0.312948        -8.5157
  22   2.0000      -0.312404        -8.5010
  23   2.0000      -0.208606        -5.6764
  24   0.0000      -0.043803        -1.1919
  25   0.0000       0.067319         1.8318
  26   0.0000       0.108289         2.9467
  27   0.0000       0.115842         3.1522
  28   0.0000       0.124041         3.3753

MULLIKEN ATOMIC CHARGES
-----------------------
   0 C :   -0.514598
   1 C :    0.029261
   2 C :   -0.512486
   3 C :    0.247579
   4 O :   -0.341315
   5 C :   -0.525723
   6 H :    0.153759
   7 H :    0.159613
   8 H :    0.151955
   9 H :    0.170194
  10 H :    0.152978
  11 H :    0.153148
  12 H :    0.159366
  13 H :    0.178434
  14 H :    0.168108
  15 H :    0.169728
Sum of atomic charges:    0.0000000

LOEWDIN ATOMIC CHARGES
----------------------
   0 C :   -0.399110
   1 C :   -0.221546
   2 C :   -0.399640
   3 C :    0.219502
   4 O :   -0.464314
   5 C :   -0.383835
   6 H :    0.158830
   7 H :    0.160750
   8 H :    0.152968
   9 H :    0.178289
  10 H :    0.153324
  11 H :    0.158772
  12 H :    0.160394
  13 H :    0.176690
  14 H :    0.173876
  15 H :    0.175050

  Mayer bond orders larger than 0.100000
B(  0-C ,  1-C ) :   0.8790 B(  0-C ,  6-H ) :   0.9643 B(  0-C ,  7-H ) :   0.9694
B(  0-C ,  8-H ) :   0.9805 B(  1-C ,  2-C ) :   0.8772 B(  1-C ,  3-C ) :   0.8908
B(  1-C ,  9-H ) :   0.9568 B(  2-C , 10-H ) :   0.9797 B(  2-C , 11-H ) :   0.9643
B(  2-C , 12-H ) :   0.9699 B(  3-C ,  4-O ) :   1.9749 B(  3-C ,  5-C ) :   0.9043
B(  5-C , 13-H ) :   0.9749 B(  5-C , 14-H ) :   0.9470 B(  5-C , 15-H ) :   0.9451

Dispersion correction           -0.004001993
FINAL SINGLE POINT ENERGY      -271.703171867469

DIPOLE MOMENT
-------------

Method             : SCF
Type of density    : Electron Density
Multiplicity       :   1
Irrep              :   0
Energy             :  -271.7068225359368512 Eh
Relativity type    :
Basis              : AO
                                X                 Y                 Z
Electronic contribution:     -5.255829296       2.254945616      -2.749034961
Nuclear contribution   :      6.165316713      -2.781557958       3.358464197
                        -----------------------------------------
Total Dipole Moment    :      0.909487417      -0.526612342       0.609429236
                        -----------------------------------------
Magnitude (a.u.)       :      1.214862920
Magnitude (Debye)      :      3.087936139

Rotational constants in cm-1:             0.153441             0.086339             0.085424
Rotational constants in MHz :          4600.038997          2588.388983          2560.935482

                             ****ORCA TERMINATED NORMALLY****
TOTAL RUN TIME: 0 days 0 hours 0 minutes 20 seconds 567 msec
