                         Program Version 6.0.0  -   RELEASE  -
|  1> ! r2scan-3c def2/J RI DEFGRID2 scfconv6 printgap
|  2> %output
|  3>     printlevel normal
|  4> end
|  5> %cpcm
|  6>     smd true
|  7>     smdsolvent "water"
|  8> end
|  9> * xyz 0 1
| 10> C 1.3328023878 0.9384011075 0.939875192
| 11> C 0.7027110781 0.3392089302 -0.3204517746
| 12> C 1.4619602225 -0.9140495122 -0.762280049
| 13> C -0.7690262897 0.0416847899 -0.0998897048
| 14> O -1.6228909825 0.6133901255 -0.7532671104
| 15> C -1.1202689403 -0.9727073267 0.9447459172
| 16> H 2.3313499523 1.2991064896 0.7078717612
| 17> H 0.7409353297 1.7754631006 1.3031157639
| 18> H 1.4123587895 0.1924906399 1.7254181076
| 19> H 0.7468644348 1.0825181531 -1.1247164218
| 20> H 1.5226122568 -1.6361617326 0.0467431659
| 21> H 2.4726626389 -0.6396734919 -1.052876047
| 22> H 0.9728066862 -1.3770252482 -1.6163701281
| 23> H -2.2003348489 -1.0662015817 1.0171421294
| 24> H -0.712822547 -0.6708371294 1.9052540055
| 25> H -0.6891010895 -1.9342677047 0.6801478363
| 26> *
| 27>
| 28>                          ****END OF INPUT****

CARTESIAN COORDINATES (ANGSTROEM)
---------------------------------
  C      1.332802    0.938401    0.939875
  C      0.702711    0.339209   -0.320452
  C      1.461960   -0.914050   -0.762280
  C     -0.769026    0.041685   -0.099890
  O     -1.622891    0.613390   -0.753267
  C     -1.120269   -0.972707    0.944746
  H      2.331350    1.299106    0.707872
  H      0.740935    1.775463    1.303116
  H      1.412359    0.192491    1.725418
  H      0.746864    1.082518   -1.124716
  H      1.522612   -1.636162    0.046743
  H      2.472663   -0.639673   -1.052876
  H      0.972807   -1.377025   -1.616370
  H     -2.200335   -1.066202    1.017142
  H     -0.712823   -0.670837    1.905254
  H     -0.689101   -1.934268    0.680148

 Total Charge           Charge          ....    0
 Multiplicity           Mult            ....    1
 Number of Electrons    NEL             ....   48
 Basis Dimension        Dim             ....  169

ORBITAL ENERGIES
----------------

  NO   OCC          E(Eh)            E(eV)
   0   2.0000     -18.945550      -515.5346
   1   2.0000     -10.122313      -275.4421
   2   2.0000     -10.037691      -273.1395
   3   2.0000     -10.022147      -272.7165
   4   2.0000     -10.017545      -272.5913
   5   2.0000     -10.017363      -272.5863
   6   2.0000      -1.013322       -27.5739
   7   2.0000      -0.772556       -21.0223
   8   2.0000      -0.698761       -19.0142
   9   2.0000      -0.651242       -17.7212
  10   2.0000      -0.586310       -15.9543
  11   2.0000      -0.489044       -13.3076
  12   2.0000      -0.442614       -12.0442
  13   2.0000      -0.422809       -11.5052
  14   2.0000      -0.418449       -11.3866
  15   2.0000      -0.392746       -10.6872
  16   2.0000      -0.372344       -10.1320
  17   2.0000      -0.363806        -9.8997
  18   2.0000      -0.346308        -9.4235
  19   2.0000      -0.331558        -9.0221
  20   2.0000      -0.330866        -9.0033
  21   2.0000      -0.305930        -8.3248
  22   2.0000      -0.300818        -8.1857
  23   2.0000      -0.219826        -5.9818
  24   0.0000      -0.047351        -1.2885
  25   0.0000       0.081523         2.2184
  26   0.0000       0.120725         3.2851
  27   0.0000       0.131456         3.5771
  28   0.0000       0.135983         3.7003

MULLIKEN ATOMIC CHARGES
-----------------------
   0 C :   -0.542734
   1 C :    0.037480
   2 C :   -0.539881
   3 C :    0.282060
   4 O :   -0.452180
   5 C :   -0.545780
   6 H :    0.169423
   7 H :    0.165471
   8 H :    0.173874
   9 H :    0.166748
  10 H :    0.174160
  11 H :    0.168628
  12 H :    0.165491
  13 H :    0.177335
  14 H :    0.199067
  15 H :    0.200838
Sum of atomic charges:   -0.0000000

LOEWDIN ATOMIC CHARGES
----------------------
   0 C :   -0.400332
   1 C :   -0.217440
   2 C :   -0.400751
   3 C :    0.236629
   4 O :   -0.543789
   5 C :   -0.380533
   6 H :    0.163762
   7 H :    0.162533
   8 H :    0.161311
   9 H :    0.177332
  10 H :    0.161455
  11 H :    0.163626
  12 H :    0.162359
  13 H :    0.175823
  14 H :    0.188419
  15 H :    0.189595

  Mayer bond orders larger than 0.100000
B(  0-C ,  1-C ) :   0.8756 B(  0-C ,  6-H ) :   0.9613 B(  0-C ,  7-H ) :   0.9654
B(  0-C ,  8-H ) :   0.9749 B(  1-C ,  2-C ) :   0.8751 B(  1-C ,  3-C ) :   0.9049
B(  1-C ,  9-H ) :   0.9576 B(  2-C , 10-H ) :   0.9744 B(  2-C , 11-H ) :   0.9615
B(  2-C , 12-H ) :   0.9658 B(  3-C ,  4-O ) :   1.8943 B(  3-C ,  5-C ) :   0.9351
B(  5-C , 13-H ) :   0.9697 B(  5-C , 14-H ) :   0.9319 B(  5-C , 15-H ) :   0.9301

Dispersion correction           -0.004001993
FINAL SINGLE POINT ENERGY      -271.709941549804

DIPOLE MOMENT
-------------

Method             : SCF
Type of density    : Electron Density
Multiplicity       :   1
Irrep              :   0
Energy             :  -271.7135922182726517 Eh
Relativity type    :
Basis              : AO
                                X                 Y                 Z
Electronic contribution:     -4.868775190       1.973410623      -2.430199766
Nuclear contribution   :      6.165316713      -2.781557958       3.358464197
                        -----------------------------------------
Total Dipole Moment    :      1.296541522      -0.808147335       0.928264432
                        -----------------------------------------
Magnitude (a.u.)       :      1.787679191
Magnitude (Debye)      :      4.543919392

Rotational constants in cm-1:             0.153441             0.086339             0.085424
Rotational constants in MHz :          4600.038997          2588.388983          2560.935482

                             ****ORCA TERMINATED NORMALLY****
TOTAL RUN TIME: 0 days 0 hours 0 minutes 23 seconds 64 msec
