                         Program Version 6.0.0  -   RELEASE  -
|  1> ! wb97x-v def2-tzvp def2/J RIJCOSX DEFGRID2 scfconv7 GCP(DFT/TZ) printgap
|  2> %output
|  3>     printlevel normal
|  4> end
|  5> * xyz 0 1
|  6> C 1.7219645235850969 0.9507668330493881 -0.0011522830421114344
|  7> C 0.7183961098623156 -0.17114207787421912 -0.00013904223407312135
|  8> C 1.133774228025866 -1.4498484433696754 0.0008222394356343862
|  9> C -0.7184001554760409 0.1711259668295763 -0.00015912601416628432
| 10> C -1.1337791719964945 1.4498326919124884 0.0007339546805566732
| 11> C -1.7219686548385438 -0.9507830130495099 -0.0011338412877743835
| 12> H 1.600855082496525 1.5920120330987708 -0.8813859005331774
| 13> H 2.739571354735754 0.5543843092617177 -0.00236264683421695
| 14> H 1.6029574142485283 1.5918565662853676 0.879498389440772
| 15> H 0.44591206194207056 -2.2884636816903914 0.002005574120938711
| 16> H 2.1943009914621663 -1.685402090860164 0.0010191632399554186
| 17> H -2.194306887252879 1.6853837875727171 0.0011839995917281038
| 18> H -0.44591864733634134 2.288450067055893 0.0020346978382216408
| 19> H -1.6011760526889347 -1.5917217600701346 -0.8816384654426213
| 20> H -1.6026423508788317 -1.59217864075924 0.8792460031035431
| 21> H -2.739575991877 -0.5544007831786787 -0.0018377402312986656
| 22> *
| 23>
| 24>                          ****END OF INPUT****

CARTESIAN COORDINATES (ANGSTROEM)
---------------------------------
  C      1.721965    0.950767   -0.001152
  C      0.718396   -0.171142   -0.000139
  C      1.133774   -1.449848    0.000822
  C     -0.718400    0.171126   -0.000159
  C     -1.133779    1.449833    0.000734
  C     -1.721969   -0.950783   -0.001134
  H      1.600855    1.592012   -0.881386
  H      2.739571    0.554384   -0.002363
  H      1.602957    1.591857    0.879498
  H      0.445912   -2.288464    0.002006
  H      2.194301   -1.685402    0.001019
  H     -2.194307    1.685384    0.001184
  H     -0.445919    2.288450    0.002035
  H     -1.601176   -1.591722   -0.881638
  H     -1.602642   -1.592179    0.879246
  H     -2.739576   -0.554401   -0.001838

 Total Charge           Charge          ....    0
 Multiplicity           Mult            ....    1
 Number of Electrons    NEL             ....   46
 Basis Dimension        Dim             ....  246

ORBITAL ENERGIES
----------------

  NO   OCC          E(Eh)            E(eV)
   0   2.0000     -12.062247      -328.2304
   1   2.0000     -12.060669      -328.1875
   2   2.0000     -12.040588      -327.6411
   3   2.0000     -12.040390      -327.6357
   4   2.0000     -12.038507      -327.5844
   5   2.0000     -12.038299      -327.5788
   6   2.0000      -1.351702       -36.7817
   7   2.0000      -1.276899       -34.7462
   8   2.0000      -1.199334       -32.6355
   9   2.0000      -1.174350       -31.9557
  10   2.0000      -1.077559       -29.3219
  11   2.0000      -0.970819       -26.4173
  12   2.0000      -0.931295       -25.3418
  13   2.0000      -0.906424       -24.6650
  14   2.0000      -0.855809       -23.2877
  15   2.0000      -0.841210       -22.8905
  16   2.0000      -0.834263       -22.7014
  17   2.0000      -0.827050       -22.5052
  18   2.0000      -0.815949       -22.2031
  19   2.0000      -0.801937       -21.8218
  20   2.0000      -0.784345       -21.3431
  21   2.0000      -0.694598       -18.9010
  22   2.0000      -0.610532       -16.6134
  23   0.0000      -0.245345        -6.6762
  24   0.0000      -0.135229        -3.6798
  25   0.0000      -0.030054        -0.8178
  26   0.0000      -0.021472        -0.5843
  27   0.0000      -0.020093        -0.5468

MULLIKEN ATOMIC CHARGES
-----------------------
   0 C :   -0.381802
   1 C :    0.057860
   2 C :   -0.286331
   3 C :    0.057876
   4 C :   -0.286348
   5 C :   -0.381753
   6 H :    0.128136
   7 H :    0.113291
   8 H :    0.128100
   9 H :    0.127264
  10 H :    0.113473
  11 H :    0.113469
  12 H :    0.127266
  13 H :    0.128131
  14 H :    0.128088
  15 H :    0.113280
Sum of atomic charges:   -0.0000000

LOEWDIN ATOMIC CHARGES
----------------------
   0 C :   -0.252902
   1 C :   -0.191947
   2 C :   -0.174583
   3 C :   -0.191947
   4 C :   -0.174582
   5 C :   -0.252901
   6 H :    0.126564
   7 H :    0.124472
   8 H :    0.126557
   9 H :    0.121735
  10 H :    0.120103
  11 H :    0.120103
  12 H :    0.121735
  13 H :    0.126568
  14 H :    0.126552
  15 H :    0.124472

  Mayer bond orders larger than 0.100000
B(  0-C ,  1-C ) :   0.9336 B(  0-C ,  6-H ) :   0.9797 B(  0-C ,  7-H ) :   0.9849
B(  0-C ,  8-H ) :   0.9796 B(  1-C ,  2-C ) :   1.8545 B(  1-C ,  3-C ) :   0.9973
B(  2-C ,  9-H ) :   0.9667 B(  2-C , 10-H ) :   0.9707 B(  3-C ,  4-C ) :   1.8545
B(  3-C ,  5-C ) :   0.9336 B(  4-C , 11-H ) :   0.9707 B(  4-C , 12-H ) :   0.9667
B(  5-C , 13-H ) :   0.9797 B(  5-C , 14-H ) :   0.9796 B(  5-C , 15-H ) :   0.9849

FINAL SINGLE POINT ENERGY      -234.627913508236

DIPOLE MOMENT
-------------

Method             : SCF
Type of density    : Electron Density
Multiplicity       :   1
Irrep              :   0
Energy             :  -234.6378307887358119 Eh
Relativity type    :
Basis              : AO
                                X                 Y                 Z
Electronic contribution:      0.000002269       0.000003119       0.000730778
Nuclear contribution   :     -0.000000952      -0.000000101      -0.000430810
                        -----------------------------------------
Total Dipole Moment    :      0.000001316       0.000003019       0.000299968
                        -----------------------------------------
Magnitude (a.u.)       :      0.000299986
Magnitude (Debye)      :      0.000762503

Rotational constants in cm-1:             0.163426             0.110017             0.067396
Rotational constants in MHz :          4899.394659          3298.241552          2020.490033

                             ****ORCA TERMINATED NORMALLY****
TOTAL RUN TIME: 0 days 0 hours 1 minutes 35 seconds 338 msec
