                         Program Version 6.0.0  -   RELEASE  -
|  1> ! wb97x-v def2-tzvp def2/J RIJCOSX DEFGRID2 scfconv7 GCP(DFT/TZ) printgap
|  2> %output
|  3>     printlevel normal
|  4> end
|  5> %cpcm
|  6>     smd true
|  7>     smdsolvent "water"
|  8> end
|  9> * xyz 0 1
| 10> C 1.7219645235850969 0.9507668330493881 -0.0011522830421114344
| 11> C 0.7183961098623156 -0.17114207787421912 -0.00013904223407312135
| 12> C 1.133774228025866 -1.4498484433696754 0.0008222394356343862
| 13> C -0.7184001554760409 0.1711259668295763 -0.00015912601416628432
| 14> C -1.1337791719964945 1.4498326919124884 0.0007339546805566732
| 15> C -1.7219686548385438 -0.9507830130495099 -0.0011338412877743835
| 16> H 1.600855082496525 1.5920120330987708 -0.8813859005331774
| 17> H 2.739571354735754 0.5543843092617177 -0.00236264683421695
| 18> H 1.6029574142485283 1.5918565662853676 0.879498389440772
| 19> H 0.44591206194207056 -2.2884636816903914 0.002005574120938711
| 20> H 2.1943009914621663 -1.685402090860164 0.0010191632399554186
| 21> H -2.194306887252879 1.6853837875727171 0.0011839995917281038
| 22> H -0.44591864733634134 2.288450067055893 0.0020346978382216408
| 23> H -1.6011760526889347 -1.5917217600701346 -0.8816384654426213
| 24> H -1.6026423508788317 -1.59217864075924 0.8792460031035431
| 25> H -2.739575991877 -0.5544007831786787 -0.0018377402312986656
| 26> *
| 27>
| 28>                          ****END OF INPUT****

CARTESIAN COORDINATES (ANGSTROEM)
---------------------------------
  C      1.721965    0.950767   -0.001152
  C      0.718396   -0.171142   -0.000139
  C      1.133774   -1.449848    0.000822
  C     -0.718400    0.171126   -0.000159
  C     -1.133779    1.449833    0.000734
  C     -1.721969   -0.950783   -0.001134
  H      1.600855    1.592012   -0.881386
  H      2.739571    0.554384   -0.002363
  H      1.602957    1.591857    0.879498
  H      0.445912   -2.288464    0.002006
  H      2.194301   -1.685402    0.001019
  H     -2.194307    1.685384    0.001184
  H     -0.445919    2.288450    0.002035
  H     -1.601176   -1.591722   -0.881638
  H     -1.602642   -1.592179    0.879246
  H     -2.739576   -0.554401   -0.001838

 Total Charge           Charge          ....    0
 Multiplicity           Mult            ....    1
 Number of Electrons    NEL             ....   46
 Basis Dimension        Dim             ....  246

ORBITAL ENERGIES
----------------

  NO   OCC          E(Eh)            E(eV)
   0   2.0000     -12.059921      -328.1671
   1   2.0000     -12.058341      -328.1241
   2   2.0000     -12.033794      -327.4562
   3   2.0000     -12.033509      -327.4484
   4   2.0000     -12.031727      -327.3999
   5   2.0000     -12.031618      -327.3970
   6   2.0000      -1.348881       -36.7049
   7   2.0000      -1.273249       -34.6469
   8   2.0000      -1.193519       -32.4773
   9   2.0000      -1.168030       -31.7837
  10   2.0000      -1.073638       -29.2152
  11   2.0000      -0.965487       -26.2722
  12   2.0000      -0.926251       -25.2046
  13   2.0000      -0.901261       -24.5246
  14   2.0000      -0.850904       -23.1543
  15   2.0000      -0.834583       -22.7102
  16   2.0000      -0.827542       -22.5186
  17   2.0000      -0.819235       -22.2925
  18   2.0000      -0.808306       -21.9951
  19   2.0000      -0.793830       -21.6012
  20   2.0000      -0.778819       -21.1927
  21   2.0000      -0.692287       -18.8381
  22   2.0000      -0.609205       -16.5773
  23   0.0000      -0.243900        -6.6369
  24   0.0000      -0.133339        -3.6283
  25   0.0000      -0.024010        -0.6534
  26   0.0000      -0.014626        -0.3980
  27   0.0000      -0.011594        -0.3155

MULLIKEN ATOMIC CHARGES
-----------------------
   0 C :   -0.402802
   1 C :    0.016049
   2 C :   -0.358213
   3 C :    0.016068
   4 C :   -0.358236
   5 C :   -0.402752
   6 H :    0.142940
   7 H :    0.138813
   8 H :    0.142960
   9 H :    0.164661
  10 H :    0.155582
  11 H :    0.155578
  12 H :    0.164664
  13 H :    0.142930
  14 H :    0.142955
  15 H :    0.138803
Sum of atomic charges:   -0.0000000

LOEWDIN ATOMIC CHARGES
----------------------
   0 C :   -0.256417
   1 C :   -0.203315
   2 C :   -0.186864
   3 C :   -0.203315
   4 C :   -0.186863
   5 C :   -0.256415
   6 H :    0.130769
   7 H :    0.129140
   8 H :    0.130782
   9 H :    0.128637
  10 H :    0.127267
  11 H :    0.127267
  12 H :    0.128636
  13 H :    0.130773
  14 H :    0.130778
  15 H :    0.129140

  Mayer bond orders larger than 0.100000
B(  0-C ,  1-C ) :   0.9467 B(  0-C ,  6-H ) :   0.9725 B(  0-C ,  7-H ) :   0.9812
B(  0-C ,  8-H ) :   0.9724 B(  1-C ,  2-C ) :   1.8475 B(  1-C ,  3-C ) :   0.9798
B(  2-C ,  9-H ) :   0.9639 B(  2-C , 10-H ) :   0.9686 B(  3-C ,  4-C ) :   1.8475
B(  3-C ,  5-C ) :   0.9467 B(  4-C , 11-H ) :   0.9686 B(  4-C , 12-H ) :   0.9639
B(  5-C , 13-H ) :   0.9725 B(  5-C , 14-H ) :   0.9725 B(  5-C , 15-H ) :   0.9812

FINAL SINGLE POINT ENERGY      -234.626113396999

DIPOLE MOMENT
-------------

Method             : SCF
Type of density    : Electron Density
Multiplicity       :   1
Irrep              :   0
Energy             :  -234.6360306774987237 Eh
Relativity type    :
Basis              : AO
                                X                 Y                 Z
Electronic contribution:      0.000002068       0.000004213       0.000940444
Nuclear contribution   :     -0.000000952      -0.000000101      -0.000430810
                        -----------------------------------------
Total Dipole Moment    :      0.000001115       0.000004112       0.000509634
                        -----------------------------------------
Magnitude (a.u.)       :      0.000509652
Magnitude (Debye)      :      0.001295432

Rotational constants in cm-1:             0.163426             0.110017             0.067396
Rotational constants in MHz :          4899.394659          3298.241552          2020.490033

                             ****ORCA TERMINATED NORMALLY****
TOTAL RUN TIME: 0 days 0 hours 1 minutes 32 seconds 402 msec
