                         Program Version 6.0.0  -   RELEASE  -
|  1> ! r2scan-3c def2/J RI DEFGRID2 scfconv6 printgap
|  2> %output
|  3>     printlevel normal
|  4> end
|  5> * xyz 0 1
|  6> C -0.4985023806 1.4143311015 -4.01627e-05
|  7> N -0.4225744522 -0.0353301093 0.0010737769
|  8> C -1.663066464 -0.7727586897 -0.0005115
|  9> C 0.766457971 -0.619996661 0.0005391404
| 10> O 1.8423460983 -0.031555026 -0.0004854372
| 11> H 0.0268315992 1.8129148141 0.8685936722
| 12> H -1.5389663511 1.71925544 0.0236421984
| 13> H -0.0141865219 1.8111611958 -0.8930774731
| 14> H -2.244848254 -0.5205424385 -0.887905609
| 15> H -2.2439778043 -0.5258289988 0.8889537388
| 16> H -1.4545257737 -1.8396799386 -0.003762573
| 17> H 0.7219966782 -1.722535151 -0.0035108041
| 18> *
| 19>
| 20>                          ****END OF INPUT****

CARTESIAN COORDINATES (ANGSTROEM)
---------------------------------
  C     -0.498502    1.414331   -0.000040
  N     -0.422574   -0.035330    0.001074
  C     -1.663066   -0.772759   -0.000512
  C      0.766458   -0.619997    0.000539
  O      1.842346   -0.031555   -0.000485
  H      0.026832    1.812915    0.868594
  H     -1.538966    1.719255    0.023642
  H     -0.014187    1.811161   -0.893077
  H     -2.244848   -0.520542   -0.887906
  H     -2.243978   -0.525829    0.888954
  H     -1.454526   -1.839680   -0.003763
  H      0.721997   -1.722535   -0.003511

 Total Charge           Charge          ....    0
 Multiplicity           Mult            ....    1
 Number of Electrons    NEL             ....   40
 Basis Dimension        Dim             ....  140

ORBITAL ENERGIES
----------------

  NO   OCC          E(Eh)            E(eV)
   0   2.0000     -18.907909      -514.5104
   1   2.0000     -14.200627      -386.4187
   2   2.0000     -10.113791      -275.2102
   3   2.0000     -10.079811      -274.2856
   4   2.0000     -10.067569      -273.9525
   5   2.0000      -0.993850       -27.0440
   6   2.0000      -0.912691       -24.8356
   7   2.0000      -0.707634       -19.2557
   8   2.0000      -0.680858       -18.5271
   9   2.0000      -0.540672       -14.7124
  10   2.0000      -0.488691       -13.2980
  11   2.0000      -0.454381       -12.3643
  12   2.0000      -0.438491       -11.9320
  13   2.0000      -0.388878       -10.5819
  14   2.0000      -0.388179       -10.5629
  15   2.0000      -0.370052       -10.0696
  16   2.0000      -0.360358        -9.8058
  17   2.0000      -0.340142        -9.2557
  18   2.0000      -0.220825        -6.0090
  19   2.0000      -0.215772        -5.8715
  20   0.0000      -0.000975        -0.0265
  21   0.0000       0.067640         1.8406
  22   0.0000       0.096275         2.6198
  23   0.0000       0.102324         2.7844
  24   0.0000       0.118428         3.2226

MULLIKEN ATOMIC CHARGES
-----------------------
   0 C :   -0.405769
   1 N :    0.082627
   2 C :   -0.373878
   3 C :    0.112934
   4 O :   -0.448858
   5 H :    0.172783
   6 H :    0.143436
   7 H :    0.171498
   8 H :    0.153124
   9 H :    0.153215
  10 H :    0.148054
  11 H :    0.090835
Sum of atomic charges:   -0.0000000

LOEWDIN ATOMIC CHARGES
----------------------
   0 C :   -0.115014
   1 N :   -0.850968
   2 C :   -0.112206
   3 C :    0.298784
   4 O :   -0.476316
   5 H :    0.187245
   6 H :    0.177875
   7 H :    0.186095
   8 H :    0.172430
   9 H :    0.172374
  10 H :    0.183107
  11 H :    0.176594

  Mayer bond orders larger than 0.100000
B(  0-C ,  1-N ) :   0.9133 B(  0-C ,  5-H ) :   0.9525 B(  0-C ,  6-H ) :   0.9600
B(  0-C ,  7-H ) :   0.9524 B(  1-N ,  2-C ) :   0.9306 B(  1-N ,  3-C ) :   1.2504
B(  2-C ,  8-H ) :   0.9558 B(  2-C ,  9-H ) :   0.9561 B(  2-C , 10-H ) :   0.9590
B(  3-C ,  4-O ) :   1.7659 B(  3-C , 11-H ) :   0.9800

Dispersion correction           -0.002519415
FINAL SINGLE POINT ENERGY      -248.442196677342

DIPOLE MOMENT
-------------

Method             : SCF
Type of density    : Electron Density
Multiplicity       :   1
Irrep              :   0
Energy             :  -248.4528015070581830 Eh
Relativity type    :
Basis              : AO
                                X                 Y                 Z
Electronic contribution:      4.582753817      -0.828746994       0.006462479
Nuclear contribution   :     -6.305443084       0.688654488      -0.006631227
                        -----------------------------------------
Total Dipole Moment    :     -1.722689267      -0.140092506      -0.000168748
                        -----------------------------------------
Magnitude (a.u.)       :      1.728376188
Magnitude (Debye)      :      4.393183139

Rotational constants in cm-1:             0.303675             0.142294             0.100541
Rotational constants in MHz :          9103.956044          4265.865135          3014.131665

                             ****ORCA TERMINATED NORMALLY****
TOTAL RUN TIME: 0 days 0 hours 0 minutes 14 seconds 144 msec
