                         Program Version 6.0.0  -   RELEASE  -
|  1> ! r2scan-3c def2/J RI DEFGRID2 scfconv6 printgap
|  2> %output
|  3>     printlevel normal
|  4> end
|  5> %cpcm
|  6>     smd true
|  7>     smdsolvent "water"
|  8> end
|  9> * xyz 0 1
| 10> C -0.4985023806 1.4143311015 -4.01627e-05
| 11> N -0.4225744522 -0.0353301093 0.0010737769
| 12> C -1.663066464 -0.7727586897 -0.0005115
| 13> C 0.766457971 -0.619996661 0.0005391404
| 14> O 1.8423460983 -0.031555026 -0.0004854372
| 15> H 0.0268315992 1.8129148141 0.8685936722
| 16> H -1.5389663511 1.71925544 0.0236421984
| 17> H -0.0141865219 1.8111611958 -0.8930774731
| 18> H -2.244848254 -0.5205424385 -0.887905609
| 19> H -2.2439778043 -0.5258289988 0.8889537388
| 20> H -1.4545257737 -1.8396799386 -0.003762573
| 21> H 0.7219966782 -1.722535151 -0.0035108041
| 22> *
| 23>
| 24>                          ****END OF INPUT****

CARTESIAN COORDINATES (ANGSTROEM)
---------------------------------
  C     -0.498502    1.414331   -0.000040
  N     -0.422574   -0.035330    0.001074
  C     -1.663066   -0.772759   -0.000512
  C      0.766458   -0.619997    0.000539
  O      1.842346   -0.031555   -0.000485
  H      0.026832    1.812915    0.868594
  H     -1.538966    1.719255    0.023642
  H     -0.014187    1.811161   -0.893077
  H     -2.244848   -0.520542   -0.887906
  H     -2.243978   -0.525829    0.888954
  H     -1.454526   -1.839680   -0.003763
  H      0.721997   -1.722535   -0.003511

 Total Charge           Charge          ....    0
 Multiplicity           Mult            ....    1
 Number of Electrons    NEL             ....   40
 Basis Dimension        Dim             ....  140

ORBITAL ENERGIES
----------------

  NO   OCC          E(Eh)            E(eV)
   0   2.0000     -18.924166      -514.9527
   1   2.0000     -14.200014      -386.4020
   2   2.0000     -10.119887      -275.3761
   3   2.0000     -10.056300      -273.6458
   4   2.0000     -10.053748      -273.5764
   5   2.0000      -1.007684       -27.4205
   6   2.0000      -0.911762       -24.8103
   7   2.0000      -0.692845       -18.8533
   8   2.0000      -0.670713       -18.2510
   9   2.0000      -0.531982       -14.4760
  10   2.0000      -0.481078       -13.0908
  11   2.0000      -0.442948       -12.0532
  12   2.0000      -0.440077       -11.9751
  13   2.0000      -0.379314       -10.3217
  14   2.0000      -0.370233       -10.0745
  15   2.0000      -0.369728       -10.0608
  16   2.0000      -0.349203        -9.5023
  17   2.0000      -0.348899        -9.4940
  18   2.0000      -0.236270        -6.4292
  19   2.0000      -0.223031        -6.0690
  20   0.0000      -0.006779        -0.1845
  21   0.0000       0.085254         2.3199
  22   0.0000       0.113988         3.1018
  23   0.0000       0.117163         3.1882
  24   0.0000       0.126526         3.4430

MULLIKEN ATOMIC CHARGES
-----------------------
   0 C :   -0.448791
   1 N :    0.085139
   2 C :   -0.393250
   3 C :    0.141002
   4 O :   -0.579134
   5 H :    0.180224
   6 H :    0.180428
   7 H :    0.180893
   8 H :    0.173559
   9 H :    0.173666
  10 H :    0.173144
  11 H :    0.133120
Sum of atomic charges:   -0.0000000

LOEWDIN ATOMIC CHARGES
----------------------
   0 C :   -0.115600
   1 N :   -0.828849
   2 C :   -0.103713
   3 C :    0.301802
   4 O :   -0.578670
   5 H :    0.188036
   6 H :    0.193706
   7 H :    0.187576
   8 H :    0.183370
   9 H :    0.183322
  10 H :    0.192576
  11 H :    0.196443

  Mayer bond orders larger than 0.100000
B(  0-C ,  1-N ) :   0.8999 B(  0-C ,  5-H ) :   0.9508 B(  0-C ,  6-H ) :   0.9512
B(  0-C ,  7-H ) :   0.9503 B(  1-N ,  2-C ) :   0.9286 B(  1-N ,  3-C ) :   1.3381
B(  2-C ,  8-H ) :   0.9464 B(  2-C ,  9-H ) :   0.9467 B(  2-C , 10-H ) :   0.9531
B(  3-C ,  4-O ) :   1.6653 B(  3-C , 11-H ) :   0.9643

Dispersion correction           -0.002519415
FINAL SINGLE POINT ENERGY      -248.454066548160

DIPOLE MOMENT
-------------

Method             : SCF
Type of density    : Electron Density
Multiplicity       :   1
Irrep              :   0
Energy             :  -248.4646713778766411 Eh
Relativity type    :
Basis              : AO
                                X                 Y                 Z
Electronic contribution:      3.844899040      -0.968148924       0.006122292
Nuclear contribution   :     -6.305443084       0.688654488      -0.006631227
                        -----------------------------------------
Total Dipole Moment    :     -2.460544044      -0.279494436      -0.000508934
                        -----------------------------------------
Magnitude (a.u.)       :      2.476367176
Magnitude (Debye)      :      6.294425136

Rotational constants in cm-1:             0.303675             0.142294             0.100541
Rotational constants in MHz :          9103.956044          4265.865135          3014.131665

                             ****ORCA TERMINATED NORMALLY****
TOTAL RUN TIME: 0 days 0 hours 0 minutes 15 seconds 63 msec
