                         Program Version 6.0.0  -   RELEASE  -
|  1> ! pbe def2-sv(p) def2/J RI DEFGRID1 loosescf d4 GCP(DFT/SV(P)) printgap
|  2> %output
|  3>     printlevel normal
|  4> end
|  5> * xyz 0 1
|  6> C -2.8218025491 -0.2620923322 -0.4014379255
|  7> O -1.3980258214 -0.4860780461 -0.4348432719
|  8> C -0.6140400981 0.3396211263 0.1796382117
|  9> O -0.8937609906 1.3230163849 0.8124356578
| 10> C 0.8747813905 -0.0941040873 0.007055295
| 11> F 1.5881282854 0.8716310091 -0.5870114624
| 12> F 1.4451045375 -0.3306342744 1.1958470292
| 13> F 1.0182221927 -1.199886208 -0.727091806
| 14> H -3.2689362253 -1.1164283192 0.1023936726
| 15> H -3.155782002 -0.2154982097 -1.4354249582
| 16> H -3.0438147174 0.6636471109 0.1272706616
| 17> *
| 18>
| 19>                          ****END OF INPUT****

CARTESIAN COORDINATES (ANGSTROEM)
---------------------------------
  C     -2.821803   -0.262092   -0.401438
  O     -1.398026   -0.486078   -0.434843
  C     -0.614040    0.339621    0.179638
  O     -0.893761    1.323016    0.812436
  C      0.874781   -0.094104    0.007055
  F      1.588128    0.871631   -0.587011
  F      1.445105   -0.330634    1.195847
  F      1.018222   -1.199886   -0.727092
  H     -3.268936   -1.116428    0.102394
  H     -3.155782   -0.215498   -1.435425
  H     -3.043815    0.663647    0.127271

 Total Charge           Charge          ....    0
 Multiplicity           Mult            ....    1
 Number of Electrons    NEL             ....   64
 Basis Dimension        Dim             ....  118

ORBITAL ENERGIES
----------------

  NO   OCC          E(Eh)            E(eV)
   0   2.0000     -24.294563      -661.0887
   1   2.0000     -24.294280      -661.0810
   2   2.0000     -24.294192      -661.0786
   3   2.0000     -18.838443      -512.6201
   4   2.0000     -18.769594      -510.7466
   5   2.0000     -10.132170      -275.7104
   6   2.0000     -10.040048      -273.2036
   7   2.0000      -9.966832      -271.2113
   8   2.0000      -1.199576       -32.6421
   9   2.0000      -1.106645       -30.1133
  10   2.0000      -1.105164       -30.0730
  11   2.0000      -1.046610       -28.4797
  12   2.0000      -0.951761       -25.8987
  13   2.0000      -0.716601       -19.4997
  14   2.0000      -0.640741       -17.4355
  15   2.0000      -0.566712       -15.4210
  16   2.0000      -0.535692       -14.5769
  17   2.0000      -0.533404       -14.5147
  18   2.0000      -0.520740       -14.1700
  19   2.0000      -0.463295       -12.6069
  20   2.0000      -0.445019       -12.1096
  21   2.0000      -0.417979       -11.3738
  22   2.0000      -0.405799       -11.0424
  23   2.0000      -0.402169       -10.9436
  24   2.0000      -0.389138       -10.5890
  25   2.0000      -0.367076        -9.9886
  26   2.0000      -0.363393        -9.8884
  27   2.0000      -0.358518        -9.7558
  28   2.0000      -0.343045        -9.3347
  29   2.0000      -0.326048        -8.8722
  30   2.0000      -0.290029        -7.8921
  31   2.0000      -0.253609        -6.9010
  32   0.0000      -0.058756        -1.5988
  33   0.0000       0.039927         1.0865
  34   0.0000       0.048625         1.3232
  35   0.0000       0.088484         2.4078
  36   0.0000       0.096467         2.6250

MULLIKEN ATOMIC CHARGES
-----------------------
   0 C :   -0.137626
   1 O :   -0.211968
   2 C :    0.051899
   3 O :   -0.170129
   4 C :    0.427468
   5 F :   -0.131020
   6 F :   -0.131165
   7 F :   -0.123885
   8 H :    0.140589
   9 H :    0.140618
  10 H :    0.145219
Sum of atomic charges:   -0.0000000

LOEWDIN ATOMIC CHARGES
----------------------
   0 C :   -0.197882
   1 O :   -0.033492
   2 C :   -0.025314
   3 O :   -0.125450
   4 C :    0.091388
   5 F :   -0.033987
   6 F :   -0.034077
   7 F :   -0.033782
   8 H :    0.130950
   9 H :    0.131047
  10 H :    0.130599

  Mayer bond orders larger than 0.100000
B(  0-C ,  1-O ) :   0.9075 B(  0-C ,  8-H ) :   0.9584 B(  0-C ,  9-H ) :   0.9586
B(  0-C , 10-H ) :   0.9317 B(  1-O ,  2-C ) :   1.2669 B(  1-O ,  3-O ) :   0.1214
B(  2-C ,  3-O ) :   2.0821 B(  2-C ,  4-C ) :   0.8360 B(  4-C ,  5-F ) :   1.1741
B(  4-C ,  6-F ) :   1.1740 B(  4-C ,  7-F ) :   1.1865

Dispersion correction           -0.007819191
FINAL SINGLE POINT ENERGY      -565.035366453691

DIPOLE MOMENT
-------------

Method             : SCF
Type of density    : Electron Density
Multiplicity       :   1
Irrep              :   0
Energy             :  -565.0957662174466805 Eh
Relativity type    :
Basis              : AO
                                X                 Y                 Z
Electronic contribution:     11.496271325      -0.456898064       0.615391509
Nuclear contribution   :    -12.670857165      -0.004102847      -1.016063337
                        -----------------------------------------
Total Dipole Moment    :     -1.174585840      -0.461000912      -0.400671828
                        -----------------------------------------
Magnitude (a.u.)       :      1.323900166
Magnitude (Debye)      :      3.365086795

Rotational constants in cm-1:             0.120115             0.049918             0.043605
Rotational constants in MHz :          3600.960565          1496.512310          1307.240598

                             ****ORCA TERMINATED NORMALLY****
TOTAL RUN TIME: 0 days 0 hours 0 minutes 5 seconds 917 msec
