                         Program Version 6.0.0  -   RELEASE  -
|  1> ! wb97x-v def2-tzvp def2/J RIJCOSX DEFGRID2 scfconv7 GCP(DFT/TZ) printgap
|  2> %output
|  3>     printlevel normal
|  4> end
|  5> * xyz 0 1
|  6> C -2.688629204395891 0.0002758978541103072 -0.40746957735967637
|  7> C -2.0276155282640023 1.206611731944421 -0.18371126512684044
|  8> C -0.7096017362273406 1.2066345305984953 0.26079058049784476
|  9> C -0.04142304194149582 -0.0002697138377533503 0.48737917763960853
| 10> C -0.7099146830501065 -1.2068955720321373 0.2602509520729676
| 11> C -2.027936104293284 -1.2063291339768552 -0.18424252256292356
| 12> C 1.3684375668549646 -0.0005627710676394165 0.9616799559214517
| 13> Cl 2.5460526281612608 0.00017156377144410452 -0.4844327465879232
| 14> H -3.71794476047042 0.0004873395696727652 -0.7516038000851073
| 15> H -2.5412023230100798 2.147807279419897 -0.35209937362597926
| 16> H -0.19217087074338288 2.145526698683349 0.4370717703165988
| 17> H -0.1927296607728397 -2.1460016509999673 0.4361131613997426
| 18> H -2.5417715756208827 -2.147315963124291 -0.35303760610735563
| 19> H 1.6192518702578136 -0.8974641135407468 1.5277028243941035
| 20> H 1.6193139152452647 0.8957245538701446 1.5286487352848241
| 21> *
| 22>
| 23>                          ****END OF INPUT****

CARTESIAN COORDINATES (ANGSTROEM)
---------------------------------
  C     -2.688629    0.000276   -0.407470
  C     -2.027616    1.206612   -0.183711
  C     -0.709602    1.206635    0.260791
  C     -0.041423   -0.000270    0.487379
  C     -0.709915   -1.206896    0.260251
  C     -2.027936   -1.206329   -0.184243
  C      1.368438   -0.000563    0.961680
  Cl     2.546053    0.000172   -0.484433
  H     -3.717945    0.000487   -0.751604
  H     -2.541202    2.147807   -0.352099
  H     -0.192171    2.145527    0.437072
  H     -0.192730   -2.146002    0.436113
  H     -2.541772   -2.147316   -0.353038
  H      1.619252   -0.897464    1.527703
  H      1.619314    0.895725    1.528649

 Total Charge           Charge          ....    0
 Multiplicity           Mult            ....    1
 Number of Electrons    NEL             ....   66
 Basis Dimension        Dim             ....  296

ORBITAL ENERGIES
----------------

  NO   OCC          E(Eh)            E(eV)
   0   2.0000    -107.123984     -2914.9918
   1   2.0000     -12.117483      -329.7335
   2   2.0000     -12.072162      -328.5002
   3   2.0000     -12.063046      -328.2522
   4   2.0000     -12.062769      -328.2446
   5   2.0000     -12.061836      -328.2192
   6   2.0000     -12.060455      -328.1817
   7   2.0000     -12.059323      -328.1509
   8   2.0000     -11.276895      -306.8599
   9   2.0000      -9.068241      -246.7594
  10   2.0000      -9.065649      -246.6888
  11   2.0000      -9.065591      -246.6873
  12   2.0000      -1.403289       -38.1854
  13   2.0000      -1.376510       -37.4567
  14   2.0000      -1.300335       -35.3839
  15   2.0000      -1.283869       -34.9358
  16   2.0000      -1.195429       -32.5293
  17   2.0000      -1.118381       -30.4327
  18   2.0000      -1.092985       -29.7416
  19   2.0000      -0.973877       -26.5005
  20   2.0000      -0.968616       -26.3574
  21   2.0000      -0.931944       -25.3595
  22   2.0000      -0.893573       -24.3154
  23   2.0000      -0.885919       -24.1071
  24   2.0000      -0.876884       -23.8612
  25   2.0000      -0.872176       -23.7331
  26   2.0000      -0.831241       -22.6192
  27   2.0000      -0.814684       -22.1687
  28   2.0000      -0.777654       -21.1610
  29   2.0000      -0.765642       -20.8342
  30   2.0000      -0.760805       -20.7025
  31   2.0000      -0.650745       -17.7077
  32   2.0000      -0.648305       -17.6413
  33   0.0000      -0.303071        -8.2470
  34   0.0000      -0.245350        -6.6763
  35   0.0000      -0.214591        -5.8393
  36   0.0000      -0.073861        -2.0099
  37   0.0000      -0.057810        -1.5731

MULLIKEN ATOMIC CHARGES
-----------------------
   0 C :   -0.130863
   1 C :   -0.102143
   2 C :   -0.191359
   3 C :    0.177153
   4 C :   -0.191371
   5 C :   -0.102149
   6 C :   -0.168368
   7 Cl:   -0.178481
   8 H :    0.122259
   9 H :    0.122145
  10 H :    0.121869
  11 H :    0.121836
  12 H :    0.122136
  13 H :    0.138666
  14 H :    0.138669
Sum of atomic charges:    0.0000000

LOEWDIN ATOMIC CHARGES
----------------------
   0 C :   -0.133199
   1 C :   -0.133781
   2 C :   -0.102693
   3 C :   -0.192528
   4 C :   -0.102697
   5 C :   -0.133782
   6 C :   -0.378516
   7 Cl:    0.195882
   8 H :    0.142749
   9 H :    0.143258
  10 H :    0.147132
  11 H :    0.147129
  12 H :    0.143258
  13 H :    0.128894
  14 H :    0.128895

  Mayer bond orders larger than 0.100000
B(  0-C ,  1-C ) :   1.4194 B(  0-C ,  5-C ) :   1.4194 B(  0-C ,  8-H ) :   0.9695
B(  1-C ,  2-C ) :   1.4421 B(  1-C ,  9-H ) :   0.9720 B(  2-C ,  3-C ) :   1.3714
B(  2-C , 10-H ) :   0.9678 B(  3-C ,  4-C ) :   1.3713 B(  3-C ,  6-C ) :   0.9505
B(  4-C ,  5-C ) :   1.4420 B(  4-C , 11-H ) :   0.9679 B(  5-C , 12-H ) :   0.9720
B(  6-C ,  7-Cl) :   1.0681 B(  6-C , 13-H ) :   0.9764 B(  6-C , 14-H ) :   0.9764

FINAL SINGLE POINT ENERGY      -731.115924505834

DIPOLE MOMENT
-------------

Method             : SCF
Type of density    : Electron Density
Multiplicity       :   1
Irrep              :   0
Energy             :  -731.1237279409341454 Eh
Relativity type    :
Basis              : AO
                                X                 Y                 Z
Electronic contribution:      8.372401390       0.001071550      -2.435879907
Nuclear contribution   :     -9.085853564      -0.001324114       2.983862493
                        -----------------------------------------
Total Dipole Moment    :     -0.713452173      -0.000252564       0.547982585
                        -----------------------------------------
Magnitude (a.u.)       :      0.899610461
Magnitude (Debye)      :      2.286628071

Rotational constants in cm-1:             0.137303             0.032737             0.029447
Rotational constants in MHz :          4116.234612           981.427508           882.813391

                             ****ORCA TERMINATED NORMALLY****
TOTAL RUN TIME: 0 days 0 hours 2 minutes 21 seconds 22 msec
