                         Program Version 6.0.0  -   RELEASE  -
|  1> ! wb97x-v def2-tzvp def2/J RIJCOSX DEFGRID2 scfconv7 GCP(DFT/TZ) printgap
|  2> %output
|  3>     printlevel normal
|  4> end
|  5> %cpcm
|  6>     smd true
|  7>     smdsolvent "water"
|  8> end
|  9> * xyz 0 1
| 10> C -2.688629204395891 0.0002758978541103072 -0.40746957735967637
| 11> C -2.0276155282640023 1.206611731944421 -0.18371126512684044
| 12> C -0.7096017362273406 1.2066345305984953 0.26079058049784476
| 13> C -0.04142304194149582 -0.0002697138377533503 0.48737917763960853
| 14> C -0.7099146830501065 -1.2068955720321373 0.2602509520729676
| 15> C -2.027936104293284 -1.2063291339768552 -0.18424252256292356
| 16> C 1.3684375668549646 -0.0005627710676394165 0.9616799559214517
| 17> Cl 2.5460526281612608 0.00017156377144410452 -0.4844327465879232
| 18> H -3.71794476047042 0.0004873395696727652 -0.7516038000851073
| 19> H -2.5412023230100798 2.147807279419897 -0.35209937362597926
| 20> H -0.19217087074338288 2.145526698683349 0.4370717703165988
| 21> H -0.1927296607728397 -2.1460016509999673 0.4361131613997426
| 22> H -2.5417715756208827 -2.147315963124291 -0.35303760610735563
| 23> H 1.6192518702578136 -0.8974641135407468 1.5277028243941035
| 24> H 1.6193139152452647 0.8957245538701446 1.5286487352848241
| 25> *
| 26>
| 27>                          ****END OF INPUT****

CARTESIAN COORDINATES (ANGSTROEM)
---------------------------------
  C     -2.688629    0.000276   -0.407470
  C     -2.027616    1.206612   -0.183711
  C     -0.709602    1.206635    0.260791
  C     -0.041423   -0.000270    0.487379
  C     -0.709915   -1.206896    0.260251
  C     -2.027936   -1.206329   -0.184243
  C      1.368438   -0.000563    0.961680
  Cl     2.546053    0.000172   -0.484433
  H     -3.717945    0.000487   -0.751604
  H     -2.541202    2.147807   -0.352099
  H     -0.192171    2.145527    0.437072
  H     -0.192730   -2.146002    0.436113
  H     -2.541772   -2.147316   -0.353038
  H      1.619252   -0.897464    1.527703
  H      1.619314    0.895725    1.528649

 Total Charge           Charge          ....    0
 Multiplicity           Mult            ....    1
 Number of Electrons    NEL             ....   66
 Basis Dimension        Dim             ....  296

ORBITAL ENERGIES
----------------

  NO   OCC          E(Eh)            E(eV)
   0   2.0000    -107.126869     -2915.0703
   1   2.0000     -12.106595      -329.4372
   2   2.0000     -12.065059      -328.3069
   3   2.0000     -12.054313      -328.0145
   4   2.0000     -12.054002      -328.0061
   5   2.0000     -12.053169      -327.9834
   6   2.0000     -12.051623      -327.9413
   7   2.0000     -12.050537      -327.9118
   8   2.0000     -11.279986      -306.9440
   9   2.0000      -9.071272      -246.8419
  10   2.0000      -9.068849      -246.7759
  11   2.0000      -9.068798      -246.7745
  12   2.0000      -1.398545       -38.0564
  13   2.0000      -1.375641       -37.4331
  14   2.0000      -1.293883       -35.2083
  15   2.0000      -1.276259       -34.7288
  16   2.0000      -1.187130       -32.3035
  17   2.0000      -1.109705       -30.1966
  18   2.0000      -1.084278       -29.5047
  19   2.0000      -0.964202       -26.2373
  20   2.0000      -0.960318       -26.1316
  21   2.0000      -0.921383       -25.0721
  22   2.0000      -0.884174       -24.0596
  23   2.0000      -0.875732       -23.8299
  24   2.0000      -0.869795       -23.6683
  25   2.0000      -0.865930       -23.5632
  26   2.0000      -0.821858       -22.3639
  27   2.0000      -0.804636       -21.8953
  28   2.0000      -0.772904       -21.0318
  29   2.0000      -0.768618       -20.9152
  30   2.0000      -0.762620       -20.7519
  31   2.0000      -0.645357       -17.5610
  32   2.0000      -0.642200       -17.4751
  33   0.0000      -0.297849        -8.1049
  34   0.0000      -0.238848        -6.4994
  35   0.0000      -0.208715        -5.6794
  36   0.0000      -0.066389        -1.8065
  37   0.0000      -0.044964        -1.2235

MULLIKEN ATOMIC CHARGES
-----------------------
   0 C :   -0.172568
   1 C :   -0.139643
   2 C :   -0.234464
   3 C :    0.149544
   4 C :   -0.234463
   5 C :   -0.139646
   6 C :   -0.172108
   7 Cl:   -0.233625
   8 H :    0.163618
   9 H :    0.163528
  10 H :    0.164970
  11 H :    0.164944
  12 H :    0.163518
  13 H :    0.178200
  14 H :    0.178195
Sum of atomic charges:    0.0000000

LOEWDIN ATOMIC CHARGES
----------------------
   0 C :   -0.141621
   1 C :   -0.143036
   2 C :   -0.109349
   3 C :   -0.201202
   4 C :   -0.109348
   5 C :   -0.143036
   6 C :   -0.364259
   7 Cl:    0.160672
   8 H :    0.151949
   9 H :    0.152394
  10 H :    0.157300
  11 H :    0.157299
  12 H :    0.152394
  13 H :    0.139921
  14 H :    0.139922

  Mayer bond orders larger than 0.100000
B(  0-C ,  1-C ) :   1.3958 B(  0-C ,  5-C ) :   1.3958 B(  0-C ,  8-H ) :   0.9724
B(  1-C ,  2-C ) :   1.4190 B(  1-C ,  9-H ) :   0.9755 B(  2-C ,  3-C ) :   1.3470
B(  2-C , 10-H ) :   0.9758 B(  3-C ,  4-C ) :   1.3469 B(  3-C ,  6-C ) :   0.9599
B(  4-C ,  5-C ) :   1.4189 B(  4-C , 11-H ) :   0.9759 B(  5-C , 12-H ) :   0.9755
B(  6-C ,  7-Cl) :   1.0015 B(  6-C , 13-H ) :   0.9687 B(  6-C , 14-H ) :   0.9687

FINAL SINGLE POINT ENERGY      -731.121618827184

DIPOLE MOMENT
-------------

Method             : SCF
Type of density    : Electron Density
Multiplicity       :   1
Irrep              :   0
Energy             :  -731.1294222622843790 Eh
Relativity type    :
Basis              : AO
                                X                 Y                 Z
Electronic contribution:      8.224134080       0.000923750      -2.168495319
Nuclear contribution   :     -9.085853564      -0.001324114       2.983862493
                        -----------------------------------------
Total Dipole Moment    :     -0.861719484      -0.000400364       0.815367174
                        -----------------------------------------
Magnitude (a.u.)       :      1.186332271
Magnitude (Debye)      :      3.015416994

Rotational constants in cm-1:             0.137303             0.032737             0.029447
Rotational constants in MHz :          4116.234612           981.427508           882.813391

                             ****ORCA TERMINATED NORMALLY****
TOTAL RUN TIME: 0 days 0 hours 2 minutes 14 seconds 544 msec
