                         Program Version 6.0.0  -   RELEASE  -
|  1> ! r2scan-3c def2/J RI DEFGRID2 scfconv6 printgap
|  2> %output
|  3>     printlevel normal
|  4> end
|  5> * xyz 0 1
|  6> C 1.8337650367 -1.4734142825 -0.0001959407
|  7> C 0.539825169 -0.7187376591 0.0001637876
|  8> C -0.6693300372 -1.4032083496 0.0001342892
|  9> C -1.8649939144 -0.7041810043 -5.26328e-05
| 10> C -1.8020542319 0.6782839982 -0.0001804645
| 11> N -0.6626811539 1.3480934335 0.0001095722
| 12> C 0.4883566959 0.68228459 0.0002990857
| 13> C 1.7158511438 1.5418932597 -0.0001250843
| 14> H 1.6434842951 -2.5436131545 -0.0026215727
| 15> H 2.4224498173 -1.2248452537 -0.8813988006
| 16> H 2.4205159572 -1.228749267 0.8834539749
| 17> H -0.6733171452 -2.4843628052 0.0001309482
| 18> H -2.8139155935 -1.2163900478 5.48008e-05
| 19> H -2.6978821763 1.2855578952 8.9502e-05
| 20> H 1.696895394 2.194636126 0.8696594465
| 21> H 2.6258087188 0.9543672688 0.0110989988
| 22> H 1.7082180574 2.1778559812 -0.8825029169
| 23> *
| 24>
| 25>                          ****END OF INPUT****

CARTESIAN COORDINATES (ANGSTROEM)
---------------------------------
  C      1.833765   -1.473414   -0.000196
  C      0.539825   -0.718738    0.000164
  C     -0.669330   -1.403208    0.000134
  C     -1.864994   -0.704181   -0.000053
  C     -1.802054    0.678284   -0.000180
  N     -0.662681    1.348093    0.000110
  C      0.488357    0.682285    0.000299
  C      1.715851    1.541893   -0.000125
  H      1.643484   -2.543613   -0.002622
  H      2.422450   -1.224845   -0.881399
  H      2.420516   -1.228749    0.883454
  H     -0.673317   -2.484363    0.000131
  H     -2.813916   -1.216390    0.000055
  H     -2.697882    1.285558    0.000090
  H      1.696895    2.194636    0.869659
  H      2.625809    0.954367    0.011099
  H      1.708218    2.177856   -0.882503

 Total Charge           Charge          ....    0
 Multiplicity           Mult            ....    1
 Number of Electrons    NEL             ....   58
 Basis Dimension        Dim             ....  202

ORBITAL ENERGIES
----------------

  NO   OCC          E(Eh)            E(eV)
   0   2.0000     -14.144910      -384.9026
   1   2.0000     -10.069443      -274.0035
   2   2.0000     -10.058177      -273.6969
   3   2.0000     -10.047883      -273.4168
   4   2.0000     -10.045098      -273.3410
   5   2.0000     -10.036155      -273.0977
   6   2.0000     -10.035120      -273.0695
   7   2.0000     -10.022830      -272.7351
   8   2.0000      -0.909606       -24.7516
   9   2.0000      -0.782142       -21.2832
  10   2.0000      -0.756247       -20.5785
  11   2.0000      -0.688548       -18.7363
  12   2.0000      -0.653770       -17.7900
  13   2.0000      -0.580829       -15.8051
  14   2.0000      -0.566612       -15.4183
  15   2.0000      -0.474698       -12.9172
  16   2.0000      -0.464404       -12.6371
  17   2.0000      -0.414278       -11.2731
  18   2.0000      -0.413976       -11.2648
  19   2.0000      -0.382933       -10.4201
  20   2.0000      -0.378971       -10.3123
  21   2.0000      -0.374325       -10.1859
  22   2.0000      -0.368717       -10.0333
  23   2.0000      -0.347214        -9.4482
  24   2.0000      -0.345683        -9.4065
  25   2.0000      -0.317901        -8.6505
  26   2.0000      -0.260139        -7.0788
  27   2.0000      -0.227651        -6.1947
  28   2.0000      -0.216468        -5.8904
  29   0.0000      -0.047460        -1.2915
  30   0.0000      -0.031092        -0.8460
  31   0.0000       0.075065         2.0426
  32   0.0000       0.094857         2.5812
  33   0.0000       0.104554         2.8451

MULLIKEN ATOMIC CHARGES
-----------------------
   0 C :   -0.575172
   1 C :    0.139578
   2 C :   -0.225449
   3 C :   -0.108235
   4 C :   -0.102590
   5 N :   -0.152333
   6 C :    0.230216
   7 C :   -0.622581
   8 H :    0.148885
   9 H :    0.171453
  10 H :    0.171464
  11 H :    0.145578
  12 H :    0.146967
  13 H :    0.132523
  14 H :    0.173309
  15 H :    0.152956
  16 H :    0.173429
Sum of atomic charges:    0.0000000

LOEWDIN ATOMIC CHARGES
----------------------
   0 C :   -0.391726
   1 C :   -0.078929
   2 C :   -0.125944
   3 C :   -0.154624
   4 C :    0.076838
   5 N :   -0.617976
   6 C :    0.133563
   7 C :   -0.359477
   8 H :    0.159799
   9 H :    0.165596
  10 H :    0.165583
  11 H :    0.168559
  12 H :    0.168946
  13 H :    0.183183
  14 H :    0.175163
  15 H :    0.156386
  16 H :    0.175061

  Mayer bond orders larger than 0.100000
B(  0-C ,  1-C ) :   0.7462 B(  0-C ,  8-H ) :   0.9828 B(  0-C ,  9-H ) :   0.9817
B(  0-C , 10-H ) :   0.9818 B(  1-C ,  2-C ) :   1.3827 B(  1-C ,  6-C ) :   1.4115
B(  2-C ,  3-C ) :   1.4437 B(  2-C , 11-H ) :   0.9461 B(  3-C ,  4-C ) :   1.3570
B(  3-C , 12-H ) :   0.9349 B(  4-C ,  5-N ) :   1.4614 B(  4-C , 13-H ) :   0.9819
B(  5-N ,  6-C ) :   1.3368 B(  6-C ,  7-C ) :   0.8607 B(  7-C , 14-H ) :   0.9667
B(  7-C , 15-H ) :   0.9930 B(  7-C , 16-H ) :   0.9657

Dispersion correction           -0.005364403
FINAL SINGLE POINT ENERGY      -326.822290461077

DIPOLE MOMENT
-------------

Method             : SCF
Type of density    : Electron Density
Multiplicity       :   1
Irrep              :   0
Energy             :  -326.8248272940608672 Eh
Relativity type    :
Basis              : AO
                                X                 Y                 Z
Electronic contribution:     -5.618708179       1.206517818       0.001491773
Nuclear contribution   :      5.937091075      -1.949199460      -0.001909153
                        -----------------------------------------
Total Dipole Moment    :      0.318382896      -0.742681642      -0.000417380
                        -----------------------------------------
Magnitude (a.u.)       :      0.808049419
Magnitude (Debye)      :      2.053898398

Rotational constants in cm-1:             0.105611             0.076397             0.045069
Rotational constants in MHz :          3166.146656          2290.313748          1351.121147

                             ****ORCA TERMINATED NORMALLY****
TOTAL RUN TIME: 0 days 0 hours 0 minutes 24 seconds 247 msec
