                         Program Version 6.0.0  -   RELEASE  -
|  1> ! r2scan-3c def2/J RI DEFGRID2 scfconv6 printgap
|  2> %output
|  3>     printlevel normal
|  4> end
|  5> %cpcm
|  6>     smd true
|  7>     smdsolvent "water"
|  8> end
|  9> * xyz 0 1
| 10> C 1.8337650367 -1.4734142825 -0.0001959407
| 11> C 0.539825169 -0.7187376591 0.0001637876
| 12> C -0.6693300372 -1.4032083496 0.0001342892
| 13> C -1.8649939144 -0.7041810043 -5.26328e-05
| 14> C -1.8020542319 0.6782839982 -0.0001804645
| 15> N -0.6626811539 1.3480934335 0.0001095722
| 16> C 0.4883566959 0.68228459 0.0002990857
| 17> C 1.7158511438 1.5418932597 -0.0001250843
| 18> H 1.6434842951 -2.5436131545 -0.0026215727
| 19> H 2.4224498173 -1.2248452537 -0.8813988006
| 20> H 2.4205159572 -1.228749267 0.8834539749
| 21> H -0.6733171452 -2.4843628052 0.0001309482
| 22> H -2.8139155935 -1.2163900478 5.48008e-05
| 23> H -2.6978821763 1.2855578952 8.9502e-05
| 24> H 1.696895394 2.194636126 0.8696594465
| 25> H 2.6258087188 0.9543672688 0.0110989988
| 26> H 1.7082180574 2.1778559812 -0.8825029169
| 27> *
| 28>
| 29>                          ****END OF INPUT****

CARTESIAN COORDINATES (ANGSTROEM)
---------------------------------
  C      1.833765   -1.473414   -0.000196
  C      0.539825   -0.718738    0.000164
  C     -0.669330   -1.403208    0.000134
  C     -1.864994   -0.704181   -0.000053
  C     -1.802054    0.678284   -0.000180
  N     -0.662681    1.348093    0.000110
  C      0.488357    0.682285    0.000299
  C      1.715851    1.541893   -0.000125
  H      1.643484   -2.543613   -0.002622
  H      2.422450   -1.224845   -0.881399
  H      2.420516   -1.228749    0.883454
  H     -0.673317   -2.484363    0.000131
  H     -2.813916   -1.216390    0.000055
  H     -2.697882    1.285558    0.000090
  H      1.696895    2.194636    0.869659
  H      2.625809    0.954367    0.011099
  H      1.708218    2.177856   -0.882503

 Total Charge           Charge          ....    0
 Multiplicity           Mult            ....    1
 Number of Electrons    NEL             ....   58
 Basis Dimension        Dim             ....  202

ORBITAL ENERGIES
----------------

  NO   OCC          E(Eh)            E(eV)
   0   2.0000     -14.150557      -385.0562
   1   2.0000     -10.069786      -274.0128
   2   2.0000     -10.058227      -273.6983
   3   2.0000     -10.045294      -273.3463
   4   2.0000     -10.040691      -273.2211
   5   2.0000     -10.032978      -273.0112
   6   2.0000     -10.020456      -272.6705
   7   2.0000     -10.016456      -272.5616
   8   2.0000      -0.913441       -24.8560
   9   2.0000      -0.778880       -21.1944
  10   2.0000      -0.754271       -20.5247
  11   2.0000      -0.681876       -18.5548
  12   2.0000      -0.648454       -17.6453
  13   2.0000      -0.577164       -15.7054
  14   2.0000      -0.564025       -15.3479
  15   2.0000      -0.470622       -12.8063
  16   2.0000      -0.461221       -12.5505
  17   2.0000      -0.409813       -11.1516
  18   2.0000      -0.407135       -11.0787
  19   2.0000      -0.374374       -10.1872
  20   2.0000      -0.373268       -10.1572
  21   2.0000      -0.368585       -10.0297
  22   2.0000      -0.356069        -9.6891
  23   2.0000      -0.345548        -9.4029
  24   2.0000      -0.341731        -9.2990
  25   2.0000      -0.312080        -8.4921
  26   2.0000      -0.261741        -7.1223
  27   2.0000      -0.227031        -6.1778
  28   2.0000      -0.224849        -6.1184
  29   0.0000      -0.048875        -1.3300
  30   0.0000      -0.030936        -0.8418
  31   0.0000       0.081478         2.2171
  32   0.0000       0.105515         2.8712
  33   0.0000       0.107136         2.9153

MULLIKEN ATOMIC CHARGES
-----------------------
   0 C :   -0.592900
   1 C :    0.112188
   2 C :   -0.229996
   3 C :   -0.147613
   4 C :   -0.122943
   5 N :   -0.206956
   6 C :    0.238174
   7 C :   -0.665553
   8 H :    0.170360
   9 H :    0.187517
  10 H :    0.187612
  11 H :    0.182498
  12 H :    0.181481
  13 H :    0.158093
  14 H :    0.185258
  15 H :    0.176925
  16 H :    0.185852
Sum of atomic charges:    0.0000000

LOEWDIN ATOMIC CHARGES
----------------------
   0 C :   -0.393779
   1 C :   -0.077011
   2 C :   -0.123686
   3 C :   -0.158548
   4 C :    0.064337
   5 N :   -0.664444
   6 C :    0.128947
   7 C :   -0.364856
   8 H :    0.166948
   9 H :    0.172745
  10 H :    0.172774
  11 H :    0.182380
  12 H :    0.181132
  13 H :    0.191339
  14 H :    0.177392
  15 H :    0.166816
  16 H :    0.177516

  Mayer bond orders larger than 0.100000
B(  0-C ,  1-C ) :   0.7700 B(  0-C ,  8-H ) :   0.9768 B(  0-C ,  9-H ) :   0.9725
B(  0-C , 10-H ) :   0.9725 B(  1-C ,  2-C ) :   1.3740 B(  1-C ,  6-C ) :   1.3900
B(  2-C ,  3-C ) :   1.4130 B(  2-C , 11-H ) :   0.9495 B(  3-C ,  4-C ) :   1.3582
B(  3-C , 12-H ) :   0.9399 B(  4-C ,  5-N ) :   1.4483 B(  4-C , 13-H ) :   0.9714
B(  5-N ,  6-C ) :   1.3360 B(  5-N ,  7-C ) :   0.1038 B(  6-C ,  7-C ) :   0.8514
B(  7-C , 14-H ) :   0.9647 B(  7-C , 15-H ) :   0.9825 B(  7-C , 16-H ) :   0.9634

Dispersion correction           -0.005364403
FINAL SINGLE POINT ENERGY      -326.828553426394

DIPOLE MOMENT
-------------

Method             : SCF
Type of density    : Electron Density
Multiplicity       :   1
Irrep              :   0
Energy             :  -326.8310902593785841 Eh
Relativity type    :
Basis              : AO
                                X                 Y                 Z
Electronic contribution:     -5.462152128       0.815152852       0.001261917
Nuclear contribution   :      5.937091075      -1.949199460      -0.001909153
                        -----------------------------------------
Total Dipole Moment    :      0.474938947      -1.134046608      -0.000647236
                        -----------------------------------------
Magnitude (a.u.)       :      1.229483278
Magnitude (Debye)      :      3.125098138

Rotational constants in cm-1:             0.105611             0.076397             0.045069
Rotational constants in MHz :          3166.146656          2290.313748          1351.121147

                             ****ORCA TERMINATED NORMALLY****
TOTAL RUN TIME: 0 days 0 hours 0 minutes 33 seconds 238 msec
