                         Program Version 6.0.0  -   RELEASE  -
|  1> ! wb97x-v def2-tzvp def2/J RIJCOSX DEFGRID2 scfconv7 GCP(DFT/TZ) printgap
|  2> %output
|  3>     printlevel normal
|  4> end
|  5> * xyz 0 1
|  6> C -2.4442385568635396 0.7849430621859297 -0.1806271938433797
|  7> O -1.190087780569766 0.571966278696167 0.5294380382603423
|  8> C -0.3980931492791696 -0.37465873450382164 0.027202283323222845
|  9> O -0.64852718893622 -1.0558195189216302 -0.9444731738540385
| 10> C 0.8954626127301818 -0.4916497381187969 0.8298130497809455
| 11> C 1.9630146941110245 0.20761923193781112 0.14662998347087922
| 12> N 2.8136342623668282 0.7663897198457397 -0.4038909029074556
| 13> H -3.036140894925305 -0.13210675270929423 -0.16980613028228522
| 14> H -2.23829595671445 1.0955708445852579 -1.2067820140427923
| 15> H -2.9499089814338353 1.5769730729323368 0.3681705515060502
| 16> H 1.161069953499584 -1.5504946845100582 0.9074281997746069
| 17> H 0.7765459539804243 -0.07191632960410317 1.8322108140301983
| 18> *
| 19>
| 20>                          ****END OF INPUT****

CARTESIAN COORDINATES (ANGSTROEM)
---------------------------------
  C     -2.444239    0.784943   -0.180627
  O     -1.190088    0.571966    0.529438
  C     -0.398093   -0.374659    0.027202
  O     -0.648527   -1.055820   -0.944473
  C      0.895463   -0.491650    0.829813
  C      1.963015    0.207619    0.146630
  N      2.813634    0.766390   -0.403891
  H     -3.036141   -0.132107   -0.169806
  H     -2.238296    1.095571   -1.206782
  H     -2.949909    1.576973    0.368171
  H      1.161070   -1.550495    0.907428
  H      0.776546   -0.071916    1.832211

 Total Charge           Charge          ....    0
 Multiplicity           Mult            ....    1
 Number of Electrons    NEL             ....   52
 Basis Dimension        Dim             ....  247

ORBITAL ENERGIES
----------------

  NO   OCC          E(Eh)            E(eV)
   0   2.0000     -21.749582      -591.8362
   1   2.0000     -21.684346      -590.0611
   2   2.0000     -16.537777      -450.0158
   3   2.0000     -12.211387      -332.2887
   4   2.0000     -12.123331      -329.8926
   5   2.0000     -12.122944      -329.8821
   6   2.0000     -12.101348      -329.2944
   7   2.0000      -1.791189       -48.7407
   8   2.0000      -1.724777       -46.9336
   9   2.0000      -1.530971       -41.6598
  10   2.0000      -1.355097       -36.8741
  11   2.0000      -1.285228       -34.9728
  12   2.0000      -1.152877       -31.3714
  13   2.0000      -1.093338       -29.7513
  14   2.0000      -1.068098       -29.0644
  15   2.0000      -1.028884       -27.9973
  16   2.0000      -0.998422       -27.1684
  17   2.0000      -0.970064       -26.3968
  18   2.0000      -0.925705       -25.1897
  19   2.0000      -0.914742       -24.8914
  20   2.0000      -0.901925       -24.5426
  21   2.0000      -0.889167       -24.1955
  22   2.0000      -0.863443       -23.4955
  23   2.0000      -0.847986       -23.0749
  24   2.0000      -0.805489       -21.9185
  25   2.0000      -0.800061       -21.7708
  26   0.0000      -0.344227        -9.3669
  27   0.0000      -0.241925        -6.5831
  28   0.0000      -0.227654        -6.1948
  29   0.0000      -0.201449        -5.4817
  30   0.0000      -0.130734        -3.5575

MULLIKEN ATOMIC CHARGES
-----------------------
   0 C :   -0.191177
   1 O :   -0.235503
   2 C :    0.322476
   3 O :   -0.323874
   4 C :   -0.023180
   5 C :   -0.283091
   6 N :    0.000449
   7 H :    0.137461
   8 H :    0.142813
   9 H :    0.137722
  10 H :    0.160514
  11 H :    0.155390
Sum of atomic charges:    0.0000000

LOEWDIN ATOMIC CHARGES
----------------------
   0 C :   -0.269669
   1 O :    0.241696
   2 C :   -0.467102
   3 O :    0.114052
   4 C :   -0.187723
   5 C :   -0.189118
   6 N :    0.066578
   7 H :    0.114145
   8 H :    0.116060
   9 H :    0.113362
  10 H :    0.176880
  11 H :    0.170838

  Mayer bond orders larger than 0.100000
B(  0-C ,  1-O ) :   0.8886 B(  0-C ,  7-H ) :   0.9753 B(  0-C ,  8-H ) :   0.9757
B(  0-C ,  9-H ) :   0.9700 B(  1-O ,  2-C ) :   1.2286 B(  2-C ,  3-O ) :   2.0659
B(  2-C ,  4-C ) :   0.9266 B(  4-C ,  5-C ) :   0.9790 B(  4-C , 10-H ) :   0.9393
B(  4-C , 11-H ) :   0.9419 B(  5-C ,  6-N ) :   3.1320

FINAL SINGLE POINT ENERGY      -360.645324193008

DIPOLE MOMENT
-------------

Method             : SCF
Type of density    : Electron Density
Multiplicity       :   1
Irrep              :   0
Energy             :  -360.6523463797080353 Eh
Relativity type    :
Basis              : AO
                                X                 Y                 Z
Electronic contribution:      4.675249249      -0.722115686      -0.510969723
Nuclear contribution   :     -6.093452773       0.599095243       1.647645968
                        -----------------------------------------
Total Dipole Moment    :     -1.418203523      -0.123020443       1.136676244
                        -----------------------------------------
Magnitude (a.u.)       :      1.821666311
Magnitude (Debye)      :      4.630307785

Rotational constants in cm-1:             0.197531             0.051542             0.048425
Rotational constants in MHz :          5921.841318          1545.201131          1451.735928

                             ****ORCA TERMINATED NORMALLY****
TOTAL RUN TIME: 0 days 0 hours 1 minutes 19 seconds 324 msec
