                         Program Version 6.0.0  -   RELEASE  -
|  1> ! wb97x-v def2-tzvp def2/J RIJCOSX DEFGRID2 scfconv7 GCP(DFT/TZ) printgap
|  2> %output
|  3>     printlevel normal
|  4> end
|  5> %cpcm
|  6>     smd true
|  7>     smdsolvent "water"
|  8> end
|  9> * xyz 0 1
| 10> C -2.4442385568635396 0.7849430621859297 -0.1806271938433797
| 11> O -1.190087780569766 0.571966278696167 0.5294380382603423
| 12> C -0.3980931492791696 -0.37465873450382164 0.027202283323222845
| 13> O -0.64852718893622 -1.0558195189216302 -0.9444731738540385
| 14> C 0.8954626127301818 -0.4916497381187969 0.8298130497809455
| 15> C 1.9630146941110245 0.20761923193781112 0.14662998347087922
| 16> N 2.8136342623668282 0.7663897198457397 -0.4038909029074556
| 17> H -3.036140894925305 -0.13210675270929423 -0.16980613028228522
| 18> H -2.23829595671445 1.0955708445852579 -1.2067820140427923
| 19> H -2.9499089814338353 1.5769730729323368 0.3681705515060502
| 20> H 1.161069953499584 -1.5504946845100582 0.9074281997746069
| 21> H 0.7765459539804243 -0.07191632960410317 1.8322108140301983
| 22> *
| 23>
| 24>                          ****END OF INPUT****

CARTESIAN COORDINATES (ANGSTROEM)
---------------------------------
  C     -2.444239    0.784943   -0.180627
  O     -1.190088    0.571966    0.529438
  C     -0.398093   -0.374659    0.027202
  O     -0.648527   -1.055820   -0.944473
  C      0.895463   -0.491650    0.829813
  C      1.963015    0.207619    0.146630
  N      2.813634    0.766390   -0.403891
  H     -3.036141   -0.132107   -0.169806
  H     -2.238296    1.095571   -1.206782
  H     -2.949909    1.576973    0.368171
  H      1.161070   -1.550495    0.907428
  H      0.776546   -0.071916    1.832211

 Total Charge           Charge          ....    0
 Multiplicity           Mult            ....    1
 Number of Electrons    NEL             ....   52
 Basis Dimension        Dim             ....  247

ORBITAL ENERGIES
----------------

  NO   OCC          E(Eh)            E(eV)
   0   2.0000     -21.737751      -591.5143
   1   2.0000     -21.682673      -590.0155
   2   2.0000     -16.540509      -450.0901
   3   2.0000     -12.207158      -332.1737
   4   2.0000     -12.110210      -329.5356
   5   2.0000     -12.102971      -329.3386
   6   2.0000     -12.097632      -329.1933
   7   2.0000      -1.782256       -48.4977
   8   2.0000      -1.720956       -46.8296
   9   2.0000      -1.537488       -41.8372
  10   2.0000      -1.340695       -36.4822
  11   2.0000      -1.268454       -34.5164
  12   2.0000      -1.143864       -31.1261
  13   2.0000      -1.088098       -29.6087
  14   2.0000      -1.057584       -28.7783
  15   2.0000      -1.015388       -27.6301
  16   2.0000      -0.983546       -26.7636
  17   2.0000      -0.958632       -26.0857
  18   2.0000      -0.926063       -25.1995
  19   2.0000      -0.909816       -24.7573
  20   2.0000      -0.898457       -24.4483
  21   2.0000      -0.885427       -24.0937
  22   2.0000      -0.838981       -22.8298
  23   2.0000      -0.824264       -22.4294
  24   2.0000      -0.810827       -22.0637
  25   2.0000      -0.803272       -21.8582
  26   0.0000      -0.335373        -9.1260
  27   0.0000      -0.240225        -6.5368
  28   0.0000      -0.227595        -6.1932
  29   0.0000      -0.181894        -4.9496
  30   0.0000      -0.119440        -3.2501

MULLIKEN ATOMIC CHARGES
-----------------------
   0 C :   -0.226966
   1 O :   -0.248639
   2 C :    0.401262
   3 O :   -0.436722
   4 C :   -0.017641
   5 C :   -0.232510
   6 N :   -0.109997
   7 H :    0.157515
   8 H :    0.157390
   9 H :    0.162595
  10 H :    0.200215
  11 H :    0.193496
Sum of atomic charges:    0.0000000

LOEWDIN ATOMIC CHARGES
----------------------
   0 C :   -0.266203
   1 O :    0.243865
   2 C :   -0.444051
   3 O :    0.055110
   4 C :   -0.165339
   5 C :   -0.162478
   6 N :   -0.002367
   7 H :    0.119231
   8 H :    0.119327
   9 H :    0.121773
  10 H :    0.192957
  11 H :    0.188174

  Mayer bond orders larger than 0.100000
B(  0-C ,  1-O ) :   0.8665 B(  0-C ,  7-H ) :   0.9703 B(  0-C ,  8-H ) :   0.9707
B(  0-C ,  9-H ) :   0.9653 B(  1-O ,  2-C ) :   1.2547 B(  2-C ,  3-O ) :   1.9553
B(  2-C ,  4-C ) :   0.9338 B(  4-C ,  5-C ) :   0.9838 B(  4-C , 10-H ) :   0.9211
B(  4-C , 11-H ) :   0.9234 B(  5-C ,  6-N ) :   3.1284

FINAL SINGLE POINT ENERGY      -360.656890664225

DIPOLE MOMENT
-------------

Method             : SCF
Type of density    : Electron Density
Multiplicity       :   1
Irrep              :   0
Energy             :  -360.6639128509254419 Eh
Relativity type    :
Basis              : AO
                                X                 Y                 Z
Electronic contribution:      4.351267788      -0.769152607      -0.029552320
Nuclear contribution   :     -6.093452773       0.599095243       1.647645968
                        -----------------------------------------
Total Dipole Moment    :     -1.742184985      -0.170057364       1.618093648
                        -----------------------------------------
Magnitude (a.u.)       :      2.383769091
Magnitude (Debye)      :      6.059059508

Rotational constants in cm-1:             0.197531             0.051542             0.048425
Rotational constants in MHz :          5921.841318          1545.201131          1451.735928

                             ****ORCA TERMINATED NORMALLY****
TOTAL RUN TIME: 0 days 0 hours 1 minutes 22 seconds 425 msec
