                         Program Version 6.0.0  -   RELEASE  -
|  1> ! pbe def2-sv(p) def2/J RI DEFGRID1 loosescf d4 GCP(DFT/SV(P)) printgap
|  2> %output
|  3>     printlevel normal
|  4> end
|  5> * xyz 0 1
|  6> C -2.5295201428 -1.3814107182 -0.420778027
|  7> C -1.967277733 -0.0201534619 0.0092944684
|  8> C -2.4189795467 1.0521384055 -0.9934056867
|  9> C -2.5445688099 0.3095646632 1.391967573
| 10> C -0.4454447322 -0.0285051397 0.0260549029
| 11> C 0.2835674058 -0.8013220088 -0.873811808
| 12> C 1.6640062258 -0.7866513192 -0.8928627752
| 13> C 2.3686161484 0.0178584442 -0.005167131
| 14> C 1.6588970773 0.8060444607 0.8895116347
| 15> C 0.2758948695 0.780085685 0.8970001235
| 16> O 3.7310449656 0.0020422694 -0.0541146566
| 17> H -2.102726065 -2.1783478987 0.1838874857
| 18> H -3.6093142725 -1.3906374635 -0.2907695497
| 19> H -2.3238599379 -1.5868463381 -1.4673690656
| 20> H -2.0471832887 2.030283444 -0.6964777461
| 21> H -2.035228131 0.8291816605 -1.9864299489
| 22> H -3.5048413815 1.0912488279 -1.039753081
| 23> H -2.3477005711 1.3405432113 1.6720464334
| 24> H -3.623586655 0.1733390968 1.3810235286
| 25> H -2.1224142061 -0.3482225768 2.1481612637
| 26> H -0.2218260864 -1.4352523669 -1.5837113669
| 27> H 2.2158405008 -1.3942649018 -1.5933195818
| 28> H 2.1854530849 1.4451776665 1.5843217349
| 29> H -0.234312238 1.4118524889 1.6055752572
| 30> H 4.0989469249 0.6033854194 0.6105028054
| 31> *
| 32>
| 33>                          ****END OF INPUT****

CARTESIAN COORDINATES (ANGSTROEM)
---------------------------------
  C     -2.529520   -1.381411   -0.420778
  C     -1.967278   -0.020153    0.009294
  C     -2.418980    1.052138   -0.993406
  C     -2.544569    0.309565    1.391968
  C     -0.445445   -0.028505    0.026055
  C      0.283567   -0.801322   -0.873812
  C      1.664006   -0.786651   -0.892863
  C      2.368616    0.017858   -0.005167
  C      1.658897    0.806044    0.889512
  C      0.275895    0.780086    0.897000
  O      3.731045    0.002042   -0.054115
  H     -2.102726   -2.178348    0.183887
  H     -3.609314   -1.390637   -0.290770
  H     -2.323860   -1.586846   -1.467369
  H     -2.047183    2.030283   -0.696478
  H     -2.035228    0.829182   -1.986430
  H     -3.504841    1.091249   -1.039753
  H     -2.347701    1.340543    1.672046
  H     -3.623587    0.173339    1.381024
  H     -2.122414   -0.348223    2.148161
  H     -0.221826   -1.435252   -1.583711
  H      2.215841   -1.394265   -1.593320
  H      2.185453    1.445178    1.584322
  H     -0.234312    1.411852    1.605575
  H      4.098947    0.603385    0.610503

 Total Charge           Charge          ....    0
 Multiplicity           Mult            ....    1
 Number of Electrons    NEL             ....   82
 Basis Dimension        Dim             ....  182

ORBITAL ENERGIES
----------------

  NO   OCC          E(Eh)            E(eV)
   0   2.0000     -18.777227      -510.9543
   1   2.0000      -9.946592      -270.6605
   2   2.0000      -9.908927      -269.6356
   3   2.0000      -9.890986      -269.1474
   4   2.0000      -9.888031      -269.0670
   5   2.0000      -9.887668      -269.0571
   6   2.0000      -9.886484      -269.0249
   7   2.0000      -9.881915      -268.9006
   8   2.0000      -9.873022      -268.6586
   9   2.0000      -9.872609      -268.6473
  10   2.0000      -9.872503      -268.6445
  11   2.0000      -0.958244       -26.0752
  12   2.0000      -0.776628       -21.1331
  13   2.0000      -0.733583       -19.9618
  14   2.0000      -0.669788       -18.2259
  15   2.0000      -0.651333       -17.7237
  16   2.0000      -0.613509       -16.6944
  17   2.0000      -0.611977       -16.6527
  18   2.0000      -0.561416       -15.2769
  19   2.0000      -0.540471       -14.7070
  20   2.0000      -0.493190       -13.4204
  21   2.0000      -0.489787       -13.3278
  22   2.0000      -0.433306       -11.7908
  23   2.0000      -0.417302       -11.3554
  24   2.0000      -0.398857       -10.8534
  25   2.0000      -0.389812       -10.6073
  26   2.0000      -0.381758       -10.3882
  27   2.0000      -0.372136       -10.1263
  28   2.0000      -0.362768        -9.8714
  29   2.0000      -0.358802        -9.7635
  30   2.0000      -0.345748        -9.4083
  31   2.0000      -0.336470        -9.1558
  32   2.0000      -0.324903        -8.8411
  33   2.0000      -0.319309        -8.6888
  34   2.0000      -0.297956        -8.1078
  35   2.0000      -0.297160        -8.0861
  36   2.0000      -0.282823        -7.6960
  37   2.0000      -0.276990        -7.5373
  38   2.0000      -0.273952        -7.4546
  39   2.0000      -0.225401        -6.1335
  40   2.0000      -0.187773        -5.1096
  41   0.0000      -0.031314        -0.8521
  42   0.0000      -0.014205        -0.3865
  43   0.0000       0.025161         0.6847
  44   0.0000       0.034622         0.9421
  45   0.0000       0.061165         1.6644

MULLIKEN ATOMIC CHARGES
-----------------------
   0 C :   -0.214115
   1 C :   -0.263538
   2 C :   -0.183560
   3 C :   -0.212995
   4 C :    0.201647
   5 C :   -0.143770
   6 C :   -0.121194
   7 C :    0.257559
   8 C :   -0.158325
   9 C :   -0.151781
  10 O :   -0.339244
  11 H :    0.101852
  12 H :    0.093120
  13 H :    0.105108
  14 H :    0.093219
  15 H :    0.094405
  16 H :    0.092466
  17 H :    0.104370
  18 H :    0.093637
  19 H :    0.100913
  20 H :    0.037753
  21 H :    0.040618
  22 H :    0.021080
  23 H :    0.035125
  24 H :    0.315651
Sum of atomic charges:   -0.0000000

LOEWDIN ATOMIC CHARGES
----------------------
   0 C :   -0.315455
   1 C :   -0.092337
   2 C :   -0.308734
   3 C :   -0.316071
   4 C :   -0.039597
   5 C :   -0.114620
   6 C :   -0.146958
   7 C :    0.019198
   8 C :   -0.175574
   9 C :   -0.117404
  10 O :   -0.239793
  11 H :    0.121007
  12 H :    0.117156
  13 H :    0.115585
  14 H :    0.117222
  15 H :    0.117655
  16 H :    0.114603
  17 H :    0.115202
  18 H :    0.117442
  19 H :    0.120587
  20 H :    0.123598
  21 H :    0.129200
  22 H :    0.118323
  23 H :    0.122771
  24 H :    0.296994

  Mayer bond orders larger than 0.100000
B(  0-C ,  1-C ) :   1.0923 B(  0-C , 11-H ) :   0.9486 B(  0-C , 12-H ) :   0.9429
B(  0-C , 13-H ) :   0.9320 B(  1-C ,  2-C ) :   1.0681 B(  1-C ,  3-C ) :   1.0966
B(  1-C ,  4-C ) :   0.9478 B(  2-C , 14-H ) :   0.9457 B(  2-C , 15-H ) :   0.9457
B(  2-C , 16-H ) :   0.9462 B(  3-C , 17-H ) :   0.9309 B(  3-C , 18-H ) :   0.9427
B(  3-C , 19-H ) :   0.9475 B(  4-C ,  5-C ) :   1.3693 B(  4-C ,  9-C ) :   1.3954
B(  5-C ,  6-C ) :   1.3654 B(  5-C , 20-H ) :   0.9577 B(  6-C ,  7-C ) :   1.3554
B(  6-C , 21-H ) :   0.9639 B(  7-C ,  8-C ) :   1.3072 B(  7-C , 10-O ) :   1.1816
B(  8-C ,  9-C ) :   1.3532 B(  8-C , 22-H ) :   0.9564 B(  9-C , 23-H ) :   0.9522
B( 10-O , 24-H ) :   0.8435

Dispersion correction           -0.027427517
FINAL SINGLE POINT ENERGY      -463.658799052335

DIPOLE MOMENT
-------------

Method             : SCF
Type of density    : Electron Density
Multiplicity       :   1
Irrep              :   0
Energy             :  -463.7362668007671118 Eh
Relativity type    :
Basis              : AO
                                X                 Y                 Z
Electronic contribution:     14.659448125      -0.190897111      -0.116725242
Nuclear contribution   :    -14.648359249       0.554900411       0.494257764
                        -----------------------------------------
Total Dipole Moment    :      0.011088875       0.364003300       0.377532522
                        -----------------------------------------
Magnitude (a.u.)       :      0.524549493
Magnitude (Debye)      :      1.333298852

Rotational constants in cm-1:             0.085824             0.021579             0.019434
Rotational constants in MHz :          2572.939081           646.935723           582.629033

                             ****ORCA TERMINATED NORMALLY****
TOTAL RUN TIME: 0 days 0 hours 0 minutes 11 seconds 893 msec
