                         Program Version 6.0.0  -   RELEASE  -
|  1> ! r2scan-3c def2/J RI DEFGRID2 scfconv6 printgap
|  2> %output
|  3>     printlevel normal
|  4> end
|  5> * xyz 0 1
|  6> C -3.3233424819 0.3152832844 0.1797898698
|  7> C -2.1775975588 -0.5513064514 -0.337736937
|  8> H -2.5974192827 -1.3082328002 -1.007077485
|  9> C -1.4568294503 -1.2488016927 0.8279351584
| 10> C 0.0476837116 -1.3488139567 0.5911620087
| 11> C 0.6392572035 0.0591119761 0.5740797398
| 12> H 0.5770288059 0.4752584642 1.5877823102
| 13> C -0.1737438394 0.981550804 -0.305567619
| 14> O 0.0083150023 2.1858729981 -0.3212812863
| 15> C -1.1979945544 0.3029083444 -1.1660615518
| 16> C 2.1295238831 0.1533106864 0.1619908921
| 17> C 3.0147279633 -0.6573432041 1.1050390601
| 18> C 2.3664121034 -0.2701439055 -1.286230072
| 19> H -3.9916776978 -0.2745176699 0.8024549469
| 20> H -2.9343864071 1.1418775624 0.7721311894
| 21> H -3.8984916132 0.7284449462 -0.6455231397
| 22> H -1.6214025697 -0.6785168527 1.7452838472
| 23> H -1.8785084163 -2.2427219271 0.9792703931
| 24> H 0.5050400435 -1.9249343026 1.3953317107
| 25> H 0.2398596091 -1.8673717662 -0.3471412201
| 26> H -1.739617014 1.0499519083 -1.7478048792
| 27> H -0.6515805053 -0.3431719816 -1.8555376431
| 28> H 2.4006697854 1.2123776386 0.2502658702
| 29> H 2.8272165821 -0.3859805168 2.1409193584
| 30> H 4.0614856944 -0.4631124365 0.8848513782
| 31> H 2.8336695009 -1.7216436265 0.9825450793
| 32> H 2.0995398586 -1.3120733992 -1.441209456
| 33> H 3.4190274238 -0.152531514 -1.5323937293
| 34> H 1.7894232973 0.3510332267 -1.9683028946
| 35> *
| 36>
| 37>                          ****END OF INPUT****

CARTESIAN COORDINATES (ANGSTROEM)
---------------------------------
  C     -3.323342    0.315283    0.179790
  C     -2.177598   -0.551306   -0.337737
  H     -2.597419   -1.308233   -1.007077
  C     -1.456829   -1.248802    0.827935
  C      0.047684   -1.348814    0.591162
  C      0.639257    0.059112    0.574080
  H      0.577029    0.475258    1.587782
  C     -0.173744    0.981551   -0.305568
  O      0.008315    2.185873   -0.321281
  C     -1.197995    0.302908   -1.166062
  C      2.129524    0.153311    0.161991
  C      3.014728   -0.657343    1.105039
  C      2.366412   -0.270144   -1.286230
  H     -3.991678   -0.274518    0.802455
  H     -2.934386    1.141878    0.772131
  H     -3.898492    0.728445   -0.645523
  H     -1.621403   -0.678517    1.745284
  H     -1.878508   -2.242722    0.979270
  H      0.505040   -1.924934    1.395332
  H      0.239860   -1.867372   -0.347141
  H     -1.739617    1.049952   -1.747805
  H     -0.651581   -0.343172   -1.855538
  H      2.400670    1.212378    0.250266
  H      2.827217   -0.385981    2.140919
  H      4.061486   -0.463112    0.884851
  H      2.833670   -1.721644    0.982545
  H      2.099540   -1.312073   -1.441209
  H      3.419027   -0.152532   -1.532394
  H      1.789423    0.351033   -1.968303

 Total Charge           Charge          ....    0
 Multiplicity           Mult            ....    1
 Number of Electrons    NEL             ....   86
 Basis Dimension        Dim             ....  304

ORBITAL ENERGIES
----------------

  NO   OCC          E(Eh)            E(eV)
   0   2.0000     -18.932076      -515.1680
   1   2.0000     -10.109469      -275.0926
   2   2.0000     -10.047166      -273.3973
   3   2.0000     -10.042266      -273.2639
   4   2.0000     -10.038897      -273.1723
   5   2.0000     -10.033821      -273.0341
   6   2.0000     -10.033048      -273.0131
   7   2.0000     -10.032894      -273.0089
   8   2.0000     -10.021447      -272.6974
   9   2.0000     -10.020468      -272.6708
  10   2.0000     -10.020237      -272.6645
  11   2.0000      -0.996856       -27.1258
  12   2.0000      -0.816653       -22.2222
  13   2.0000      -0.777258       -21.1503
  14   2.0000      -0.722720       -19.6662
  15   2.0000      -0.695787       -18.9333
  16   2.0000      -0.656373       -17.8608
  17   2.0000      -0.653126       -17.7725
  18   2.0000      -0.593878       -16.1602
  19   2.0000      -0.554473       -15.0880
  20   2.0000      -0.530791       -14.4436
  21   2.0000      -0.483298       -13.1512
  22   2.0000      -0.459436       -12.5019
  23   2.0000      -0.444696       -12.1008
  24   2.0000      -0.437213       -11.8972
  25   2.0000      -0.411359       -11.1937
  26   2.0000      -0.407226       -11.0812
  27   2.0000      -0.396822       -10.7981
  28   2.0000      -0.384481       -10.4623
  29   2.0000      -0.374724       -10.1967
  30   2.0000      -0.368897       -10.0382
  31   2.0000      -0.360459        -9.8086
  32   2.0000      -0.350992        -9.5510
  33   2.0000      -0.348549        -9.4845
  34   2.0000      -0.334136        -9.0923
  35   2.0000      -0.327630        -8.9153
  36   2.0000      -0.312974        -8.5165
  37   2.0000      -0.308450        -8.3933
  38   2.0000      -0.301563        -8.2059
  39   2.0000      -0.292095        -7.9483
  40   2.0000      -0.283968        -7.7272
  41   2.0000      -0.279372        -7.6021
  42   2.0000      -0.203483        -5.5371
  43   0.0000      -0.047022        -1.2795
  44   0.0000       0.066497         1.8095
  45   0.0000       0.086838         2.3630
  46   0.0000       0.098419         2.6781
  47   0.0000       0.100946         2.7469

MULLIKEN ATOMIC CHARGES
-----------------------
   0 C :   -0.527716
   1 C :   -0.010226
   2 H :    0.160328
   3 C :   -0.380444
   4 C :   -0.328466
   5 C :   -0.116905
   6 H :    0.195539
   7 C :    0.085178
   8 O :   -0.326141
   9 C :   -0.254062
  10 C :   -0.003282
  11 C :   -0.503752
  12 C :   -0.559862
  13 H :    0.149854
  14 H :    0.164060
  15 H :    0.147614
  16 H :    0.155629
  17 H :    0.160884
  18 H :    0.161387
  19 H :    0.170993
  20 H :    0.176013
  21 H :    0.164496
  22 H :    0.184251
  23 H :    0.151631
  24 H :    0.152911
  25 H :    0.156649
  26 H :    0.158598
  27 H :    0.151587
  28 H :    0.163253
Sum of atomic charges:   -0.0000000

LOEWDIN ATOMIC CHARGES
----------------------
   0 C :   -0.408032
   1 C :   -0.219148
   2 H :    0.159493
   3 C :   -0.288645
   4 C :   -0.286809
   5 C :   -0.199942
   6 H :    0.189333
   7 C :    0.226306
   8 O :   -0.461121
   9 C :   -0.264441
  10 C :   -0.213784
  11 C :   -0.410779
  12 C :   -0.409464
  13 H :    0.155194
  14 H :    0.158826
  15 H :    0.154097
  16 H :    0.162942
  17 H :    0.160309
  18 H :    0.163680
  19 H :    0.161156
  20 H :    0.181885
  21 H :    0.180263
  22 H :    0.173926
  23 H :    0.155484
  24 H :    0.155905
  25 H :    0.153854
  26 H :    0.151526
  27 H :    0.157417
  28 H :    0.160570

  Mayer bond orders larger than 0.100000
B(  0-C ,  1-C ) :   0.9210 B(  0-C , 13-H ) :   0.9723 B(  0-C , 14-H ) :   0.9804
B(  0-C , 15-H ) :   0.9734 B(  1-C ,  2-H ) :   0.9417 B(  1-C ,  3-C ) :   0.9122
B(  1-C ,  9-C ) :   0.8857 B(  3-C ,  4-C ) :   0.8802 B(  3-C , 16-H ) :   0.9863
B(  3-C , 17-H ) :   0.9558 B(  4-C ,  5-C ) :   0.8489 B(  4-C , 18-H ) :   0.9481
B(  4-C , 19-H ) :   1.0157 B(  5-C ,  6-H ) :   0.9690 B(  5-C ,  7-C ) :   0.8839
B(  5-C , 10-C ) :   0.8356 B(  7-C ,  8-O ) :   2.0181 B(  7-C ,  9-C ) :   0.9290
B(  9-C , 20-H ) :   0.9674 B(  9-C , 21-H ) :   0.9212 B( 10-C , 11-C ) :   0.8780
B( 10-C , 12-C ) :   0.8755 B( 10-C , 22-H ) :   0.9681 B( 11-C , 23-H ) :   0.9821
B( 11-C , 24-H ) :   0.9719 B( 11-C , 25-H ) :   0.9812 B( 12-C , 26-H ) :   0.9892
B( 12-C , 27-H ) :   0.9697 B( 12-C , 28-H ) :   0.9669

Dispersion correction           -0.010464153
FINAL SINGLE POINT ENERGY      -467.003320724781

DIPOLE MOMENT
-------------

Method             : SCF
Type of density    : Electron Density
Multiplicity       :   1
Irrep              :   0
Energy             :  -467.0058347136980501 Eh
Relativity type    :
Basis              : AO
                                X                 Y                 Z
Electronic contribution:     -1.474019426       6.018440878      -0.867605850
Nuclear contribution   :      1.350966293      -7.206334741       0.929502373
                        -----------------------------------------
Total Dipole Moment    :     -0.123053133      -1.187893864       0.061896522
                        -----------------------------------------
Magnitude (a.u.)       :      1.195853287
Magnitude (Debye)      :      3.039617493

Rotational constants in cm-1:             0.062725             0.025389             0.021736
Rotational constants in MHz :          1880.439861           761.144321           651.640432

                             ****ORCA TERMINATED NORMALLY****
TOTAL RUN TIME: 0 days 0 hours 0 minutes 45 seconds 719 msec
