                         Program Version 6.0.0  -   RELEASE  -
|  1> ! r2scan-3c def2/J RI DEFGRID2 scfconv6 printgap
|  2> %output
|  3>     printlevel normal
|  4> end
|  5> %cpcm
|  6>     smd true
|  7>     smdsolvent "water"
|  8> end
|  9> * xyz 0 1
| 10> C -3.3233424819 0.3152832844 0.1797898698
| 11> C -2.1775975588 -0.5513064514 -0.337736937
| 12> H -2.5974192827 -1.3082328002 -1.007077485
| 13> C -1.4568294503 -1.2488016927 0.8279351584
| 14> C 0.0476837116 -1.3488139567 0.5911620087
| 15> C 0.6392572035 0.0591119761 0.5740797398
| 16> H 0.5770288059 0.4752584642 1.5877823102
| 17> C -0.1737438394 0.981550804 -0.305567619
| 18> O 0.0083150023 2.1858729981 -0.3212812863
| 19> C -1.1979945544 0.3029083444 -1.1660615518
| 20> C 2.1295238831 0.1533106864 0.1619908921
| 21> C 3.0147279633 -0.6573432041 1.1050390601
| 22> C 2.3664121034 -0.2701439055 -1.286230072
| 23> H -3.9916776978 -0.2745176699 0.8024549469
| 24> H -2.9343864071 1.1418775624 0.7721311894
| 25> H -3.8984916132 0.7284449462 -0.6455231397
| 26> H -1.6214025697 -0.6785168527 1.7452838472
| 27> H -1.8785084163 -2.2427219271 0.9792703931
| 28> H 0.5050400435 -1.9249343026 1.3953317107
| 29> H 0.2398596091 -1.8673717662 -0.3471412201
| 30> H -1.739617014 1.0499519083 -1.7478048792
| 31> H -0.6515805053 -0.3431719816 -1.8555376431
| 32> H 2.4006697854 1.2123776386 0.2502658702
| 33> H 2.8272165821 -0.3859805168 2.1409193584
| 34> H 4.0614856944 -0.4631124365 0.8848513782
| 35> H 2.8336695009 -1.7216436265 0.9825450793
| 36> H 2.0995398586 -1.3120733992 -1.441209456
| 37> H 3.4190274238 -0.152531514 -1.5323937293
| 38> H 1.7894232973 0.3510332267 -1.9683028946
| 39> *
| 40>
| 41>                          ****END OF INPUT****

CARTESIAN COORDINATES (ANGSTROEM)
---------------------------------
  C     -3.323342    0.315283    0.179790
  C     -2.177598   -0.551306   -0.337737
  H     -2.597419   -1.308233   -1.007077
  C     -1.456829   -1.248802    0.827935
  C      0.047684   -1.348814    0.591162
  C      0.639257    0.059112    0.574080
  H      0.577029    0.475258    1.587782
  C     -0.173744    0.981551   -0.305568
  O      0.008315    2.185873   -0.321281
  C     -1.197995    0.302908   -1.166062
  C      2.129524    0.153311    0.161991
  C      3.014728   -0.657343    1.105039
  C      2.366412   -0.270144   -1.286230
  H     -3.991678   -0.274518    0.802455
  H     -2.934386    1.141878    0.772131
  H     -3.898492    0.728445   -0.645523
  H     -1.621403   -0.678517    1.745284
  H     -1.878508   -2.242722    0.979270
  H      0.505040   -1.924934    1.395332
  H      0.239860   -1.867372   -0.347141
  H     -1.739617    1.049952   -1.747805
  H     -0.651581   -0.343172   -1.855538
  H      2.400670    1.212378    0.250266
  H      2.827217   -0.385981    2.140919
  H      4.061486   -0.463112    0.884851
  H      2.833670   -1.721644    0.982545
  H      2.099540   -1.312073   -1.441209
  H      3.419027   -0.152532   -1.532394
  H      1.789423    0.351033   -1.968303

 Total Charge           Charge          ....    0
 Multiplicity           Mult            ....    1
 Number of Electrons    NEL             ....   86
 Basis Dimension        Dim             ....  304

ORBITAL ENERGIES
----------------

  NO   OCC          E(Eh)            E(eV)
   0   2.0000     -18.943963      -515.4914
   1   2.0000     -10.118145      -275.3287
   2   2.0000     -10.035222      -273.0723
   3   2.0000     -10.034794      -273.0606
   4   2.0000     -10.032015      -272.9850
   5   2.0000     -10.025356      -272.8038
   6   2.0000     -10.019029      -272.6316
   7   2.0000     -10.017790      -272.5979
   8   2.0000     -10.009505      -272.3725
   9   2.0000     -10.009125      -272.3621
  10   2.0000     -10.008813      -272.3537
  11   2.0000      -1.011425       -27.5223
  12   2.0000      -0.806913       -21.9572
  13   2.0000      -0.767353       -20.8807
  14   2.0000      -0.711031       -19.3481
  15   2.0000      -0.688217       -18.7273
  16   2.0000      -0.645537       -17.5659
  17   2.0000      -0.643347       -17.5064
  18   2.0000      -0.582359       -15.8468
  19   2.0000      -0.546502       -14.8711
  20   2.0000      -0.521553       -14.1922
  21   2.0000      -0.474319       -12.9069
  22   2.0000      -0.449684       -12.2365
  23   2.0000      -0.441860       -12.0236
  24   2.0000      -0.436260       -11.8712
  25   2.0000      -0.401612       -10.9284
  26   2.0000      -0.399194       -10.8626
  27   2.0000      -0.387163       -10.5353
  28   2.0000      -0.381208       -10.3732
  29   2.0000      -0.367604       -10.0030
  30   2.0000      -0.359243        -9.7755
  31   2.0000      -0.350771        -9.5450
  32   2.0000      -0.347965        -9.4686
  33   2.0000      -0.337545        -9.1851
  34   2.0000      -0.328411        -8.9365
  35   2.0000      -0.316020        -8.5993
  36   2.0000      -0.302688        -8.2366
  37   2.0000      -0.299359        -8.1460
  38   2.0000      -0.290080        -7.8935
  39   2.0000      -0.281949        -7.6722
  40   2.0000      -0.275806        -7.5051
  41   2.0000      -0.270606        -7.3636
  42   2.0000      -0.214069        -5.8251
  43   0.0000      -0.051411        -1.3990
  44   0.0000       0.079100         2.1524
  45   0.0000       0.098183         2.6717
  46   0.0000       0.108092         2.9413
  47   0.0000       0.114264         3.1093

MULLIKEN ATOMIC CHARGES
-----------------------
   0 C :   -0.572555
   1 C :    0.020312
   2 H :    0.174290
   3 C :   -0.400254
   4 C :   -0.345259
   5 C :   -0.117551
   6 H :    0.214993
   7 C :    0.132249
   8 O :   -0.437442
   9 C :   -0.287753
  10 C :    0.001999
  11 C :   -0.545009
  12 C :   -0.580631
  13 H :    0.161897
  14 H :    0.167633
  15 H :    0.159956
  16 H :    0.163882
  17 H :    0.171805
  18 H :    0.171664
  19 H :    0.191150
  20 H :    0.179042
  21 H :    0.197131
  22 H :    0.172981
  23 H :    0.163372
  24 H :    0.165166
  25 H :    0.170453
  26 H :    0.176181
  27 H :    0.163508
  28 H :    0.166792
Sum of atomic charges:   -0.0000000

LOEWDIN ATOMIC CHARGES
----------------------
   0 C :   -0.416177
   1 C :   -0.212507
   2 H :    0.165692
   3 C :   -0.289217
   4 C :   -0.284491
   5 C :   -0.196820
   6 H :    0.196657
   7 C :    0.241106
   8 O :   -0.540098
   9 C :   -0.262049
  10 C :   -0.210957
  11 C :   -0.416185
  12 C :   -0.414966
  13 H :    0.158703
  14 H :    0.158254
  15 H :    0.156159
  16 H :    0.165345
  17 H :    0.163931
  18 H :    0.167961
  19 H :    0.168254
  20 H :    0.182444
  21 H :    0.195037
  22 H :    0.168552
  23 H :    0.158785
  24 H :    0.158667
  25 H :    0.158675
  26 H :    0.158758
  27 H :    0.159363
  28 H :    0.161123

  Mayer bond orders larger than 0.100000
B(  0-C ,  1-C ) :   0.9007 B(  0-C , 13-H ) :   0.9689 B(  0-C , 14-H ) :   0.9815
B(  0-C , 15-H ) :   0.9727 B(  1-C ,  2-H ) :   0.9372 B(  1-C ,  3-C ) :   0.9076
B(  1-C ,  9-C ) :   0.8784 B(  3-C ,  4-C ) :   0.8770 B(  3-C , 16-H ) :   0.9847
B(  3-C , 17-H ) :   0.9543 B(  4-C ,  5-C ) :   0.8526 B(  4-C , 18-H ) :   0.9450
B(  4-C , 19-H ) :   1.0121 B(  5-C ,  6-H ) :   0.9588 B(  5-C ,  7-C ) :   0.9061
B(  5-C , 10-C ) :   0.8213 B(  7-C ,  8-O ) :   1.9344 B(  7-C ,  9-C ) :   0.9545
B(  9-C , 20-H ) :   0.9704 B(  9-C , 21-H ) :   0.9046 B( 10-C , 11-C ) :   0.8781
B( 10-C , 12-C ) :   0.8816 B( 10-C , 22-H ) :   0.9740 B( 11-C , 23-H ) :   0.9786
B( 11-C , 24-H ) :   0.9699 B( 11-C , 25-H ) :   0.9777 B( 12-C , 26-H ) :   0.9822
B( 12-C , 27-H ) :   0.9695 B( 12-C , 28-H ) :   0.9631

Dispersion correction           -0.010464153
FINAL SINGLE POINT ENERGY      -467.009693351661

DIPOLE MOMENT
-------------

Method             : SCF
Type of density    : Electron Density
Multiplicity       :   1
Irrep              :   0
Energy             :  -467.0122073405777883 Eh
Relativity type    :
Basis              : AO
                                X                 Y                 Z
Electronic contribution:     -1.534430764       5.371369015      -0.865627810
Nuclear contribution   :      1.350966293      -7.206334741       0.929502373
                        -----------------------------------------
Total Dipole Moment    :     -0.183464470      -1.834965726       0.063874563
                        -----------------------------------------
Magnitude (a.u.)       :      1.845220417
Magnitude (Debye)      :      4.690177567

Rotational constants in cm-1:             0.062725             0.025389             0.021736
Rotational constants in MHz :          1880.439861           761.144321           651.640432

                             ****ORCA TERMINATED NORMALLY****
TOTAL RUN TIME: 0 days 0 hours 0 minutes 53 seconds 722 msec
