                         Program Version 6.0.0  -   RELEASE  -
|  1> ! r2scan-3c def2/J RI DEFGRID2 scfconv6 printgap
|  2> %output
|  3>     printlevel normal
|  4> end
|  5> * xyz 0 1
|  6> C -4.0851087227 0.0042425462 0.0041708004
|  7> C -3.3980461993 0.9346756332 0.7652744573
|  8> C -2.0140744744 0.9249267695 0.7567789861
|  9> C -1.2991776857 0.0005481836 0.0002866837
| 10> C -2.0185453415 -0.9219377585 -0.7542728793
| 11> C -3.4025683401 -0.9279830134 -0.7588774026
| 12> Cl -1.1430408597 -2.0734815447 -1.7112123018
| 13> C 0.180230978 -0.0009768442 -0.0010506934
| 14> C 0.8996953506 0.9203620551 -0.7579559443
| 15> C 2.284458297 0.9332770556 -0.7683918805
| 16> C 2.9612986935 -0.0011927254 -0.0006205002
| 17> C 2.2840605893 -0.9359043107 0.7665016031
| 18> C 0.8992964194 -0.9228017487 0.75563806
| 19> Cl 0.0354252773 -2.0715054721 1.7114576585
| 20> Cl 4.6867792646 -0.0007362071 0.0003494475
| 21> Cl 0.0363166587 2.0687038118 -1.7147184233
| 22> Cl -1.1329322966 2.0742415419 1.7112610301
| 23> H -5.162597373 0.0057236393 0.0055006241
| 24> H -3.9237454659 1.6615572294 1.3615305532
| 25> H -3.9319585555 -1.6531608854 -1.3538351814
| 26> H 2.8195118795 1.6548810018 -1.3624824553
| 27> H 2.8188735526 -1.6575175792 1.3608248929
| 28> *
| 29>
| 30>                          ****END OF INPUT****

CARTESIAN COORDINATES (ANGSTROEM)
---------------------------------
  C     -4.085109    0.004243    0.004171
  C     -3.398046    0.934676    0.765274
  C     -2.014074    0.924927    0.756779
  C     -1.299178    0.000548    0.000287
  C     -2.018545   -0.921938   -0.754273
  C     -3.402568   -0.927983   -0.758877
  Cl    -1.143041   -2.073482   -1.711212
  C      0.180231   -0.000977   -0.001051
  C      0.899695    0.920362   -0.757956
  C      2.284458    0.933277   -0.768392
  C      2.961299   -0.001193   -0.000621
  C      2.284061   -0.935904    0.766502
  C      0.899296   -0.922802    0.755638
  Cl     0.035425   -2.071505    1.711458
  Cl     4.686779   -0.000736    0.000349
  Cl     0.036317    2.068704   -1.714718
  Cl    -1.132932    2.074242    1.711261
  H     -5.162597    0.005724    0.005501
  H     -3.923745    1.661557    1.361531
  H     -3.931959   -1.653161   -1.353835
  H      2.819512    1.654881   -1.362482
  H      2.818874   -1.657518    1.360825

 Total Charge           Charge          ....    0
 Multiplicity           Mult            ....    1
 Number of Electrons    NEL             ....  162
 Basis Dimension        Dim             ....  388

ORBITAL ENERGIES
----------------

  NO   OCC          E(Eh)            E(eV)
   0   2.0000    -101.236034     -2754.7725
   1   2.0000    -101.235490     -2754.7577
   2   2.0000    -101.235488     -2754.7577
   3   2.0000    -101.231771     -2754.6565
   4   2.0000    -101.231770     -2754.6565
   5   2.0000     -10.126844      -275.5654
   6   2.0000     -10.126838      -275.5653
   7   2.0000     -10.126292      -275.5504
   8   2.0000     -10.120466      -275.3919
   9   2.0000     -10.120457      -275.3916
  10   2.0000     -10.084460      -274.4121
  11   2.0000     -10.082912      -274.3700
  12   2.0000     -10.069904      -274.0160
  13   2.0000     -10.069897      -274.0158
  14   2.0000     -10.065953      -273.9085
  15   2.0000     -10.062549      -273.8159
  16   2.0000     -10.062513      -273.8149
  17   2.0000      -9.392040      -255.5704
  18   2.0000      -9.391371      -255.5522
  19   2.0000      -9.391367      -255.5521
  20   2.0000      -9.387573      -255.4488
  21   2.0000      -9.387572      -255.4488
  22   2.0000      -7.138353      -194.2445
  23   2.0000      -7.137751      -194.2281
  24   2.0000      -7.137747      -194.2280
  25   2.0000      -7.133890      -194.1230
  26   2.0000      -7.133890      -194.1230
  27   2.0000      -7.128283      -193.9704
  28   2.0000      -7.127735      -193.9555
  29   2.0000      -7.127644      -193.9531
  30   2.0000      -7.127641      -193.9530
  31   2.0000      -7.126982      -193.9350
  32   2.0000      -7.126979      -193.9350
  33   2.0000      -7.123866      -193.8503
  34   2.0000      -7.123866      -193.8502
  35   2.0000      -7.123249      -193.8335
  36   2.0000      -7.123249      -193.8335
  37   2.0000      -0.912504       -24.8305
  38   2.0000      -0.888057       -24.1652
  39   2.0000      -0.859964       -23.4008
  40   2.0000      -0.858657       -23.3652
  41   2.0000      -0.852395       -23.1948
  42   2.0000      -0.805733       -21.9251
  43   2.0000      -0.791999       -21.5514
  44   2.0000      -0.764122       -20.7928
  45   2.0000      -0.724511       -19.7149
  46   2.0000      -0.715547       -19.4710
  47   2.0000      -0.706223       -19.2173
  48   2.0000      -0.617422       -16.8009
  49   2.0000      -0.599180       -16.3045
  50   2.0000      -0.588727       -16.0201
  51   2.0000      -0.578517       -15.7422
  52   2.0000      -0.522655       -14.2222
  53   2.0000      -0.496195       -13.5021
  54   2.0000      -0.490368       -13.3436
  55   2.0000      -0.478562       -13.0223
  56   2.0000      -0.460815       -12.5394
  57   2.0000      -0.446220       -12.1423
  58   2.0000      -0.431361       -11.7379
  59   2.0000      -0.427380       -11.6296
  60   2.0000      -0.424575       -11.5533
  61   2.0000      -0.411207       -11.1895
  62   2.0000      -0.402153       -10.9431
  63   2.0000      -0.390950       -10.6383
  64   2.0000      -0.372803       -10.1445
  65   2.0000      -0.364671        -9.9232
  66   2.0000      -0.364384        -9.9154
  67   2.0000      -0.357411        -9.7256
  68   2.0000      -0.351582        -9.5670
  69   2.0000      -0.342438        -9.3182
  70   2.0000      -0.311186        -8.4678
  71   2.0000      -0.306268        -8.3340
  72   2.0000      -0.305816        -8.3217
  73   2.0000      -0.301221        -8.1966
  74   2.0000      -0.295395        -8.0381
  75   2.0000      -0.293352        -7.9825
  76   2.0000      -0.291396        -7.9293
  77   2.0000      -0.252972        -6.8837
  78   2.0000      -0.245387        -6.6773
  79   2.0000      -0.240788        -6.5522
  80   2.0000      -0.240210        -6.5364
  81   0.0000      -0.071723        -1.9517
  82   0.0000      -0.067325        -1.8320
  83   0.0000      -0.057836        -1.5738
  84   0.0000      -0.057070        -1.5529
  85   0.0000      -0.038153        -1.0382

MULLIKEN ATOMIC CHARGES
-----------------------
   0 C :   -0.086908
   1 C :   -0.230636
   2 C :    0.150861
   3 C :   -0.017163
   4 C :    0.151111
   5 C :   -0.230561
   6 Cl:   -0.111558
   7 C :    0.008328
   8 C :    0.190586
   9 C :   -0.357619
  10 C :    0.294760
  11 C :   -0.357687
  12 C :    0.190337
  13 Cl:   -0.097576
  14 Cl:   -0.120281
  15 Cl:   -0.097579
  16 Cl:   -0.111601
  17 H :    0.154031
  18 H :    0.163404
  19 H :    0.163391
  20 H :    0.176179
  21 H :    0.176182
Sum of atomic charges:    0.0000000

LOEWDIN ATOMIC CHARGES
----------------------
   0 C :   -0.137836
   1 C :   -0.167758
   2 C :   -0.139582
   3 C :   -0.119130
   4 C :   -0.139626
   5 C :   -0.167757
   6 Cl:    0.170350
   7 C :   -0.121735
   8 C :   -0.136352
   9 C :   -0.179931
  10 C :   -0.152902
  11 C :   -0.179929
  12 C :   -0.136318
  13 Cl:    0.184151
  14 Cl:    0.152841
  15 Cl:    0.184130
  16 Cl:    0.170411
  17 H :    0.174898
  18 H :    0.180955
  19 H :    0.180940
  20 H :    0.190090
  21 H :    0.190093

  Mayer bond orders larger than 0.100000
B(  0-C ,  1-C ) :   1.3787 B(  0-C ,  5-C ) :   1.3786 B(  0-C , 17-H ) :   0.9512
B(  1-C ,  2-C ) :   1.3501 B(  1-C , 18-H ) :   0.9346 B(  2-C ,  3-C ) :   1.3618
B(  2-C ,  7-C ) :  -0.1220 B(  2-C , 16-Cl) :   1.0158 B(  3-C ,  4-C ) :   1.3614
B(  3-C ,  7-C ) :   0.7578 B(  3-C ,  8-C ) :  -0.1097 B(  3-C , 12-C ) :  -0.1097
B(  4-C ,  5-C ) :   1.3500 B(  4-C ,  6-Cl) :   1.0159 B(  4-C ,  7-C ) :  -0.1216
B(  5-C , 19-H ) :   0.9347 B(  7-C ,  8-C ) :   1.3621 B(  7-C , 12-C ) :   1.3623
B(  8-C ,  9-C ) :   1.3436 B(  8-C , 15-Cl) :   1.0175 B(  9-C , 10-C ) :   1.3583
B(  9-C , 20-H ) :   0.9194 B( 10-C , 11-C ) :   1.3583 B( 10-C , 14-Cl) :   0.9218
B( 11-C , 12-C ) :   1.3436 B( 11-C , 21-H ) :   0.9194 B( 12-C , 13-Cl) :   1.0175

Dispersion correction           -0.014694179
FINAL SINGLE POINT ENERGY     -2761.074637866975

DIPOLE MOMENT
-------------

Method             : SCF
Type of density    : Electron Density
Multiplicity       :   1
Irrep              :   0
Energy             : -2761.0705913321980915 Eh
Relativity type    :
Basis              : AO
                                X                 Y                 Z
Electronic contribution:      9.563644125      -0.013328778      -0.013455542
Nuclear contribution   :    -10.255762151       0.014501946       0.014667282
                        -----------------------------------------
Total Dipole Moment    :     -0.692118025       0.001173168       0.001211740
                        -----------------------------------------
Magnitude (a.u.)       :      0.692120080
Magnitude (Debye)      :      1.759229435

Rotational constants in cm-1:             0.014270             0.007426             0.006760
Rotational constants in MHz :           427.803532           222.631210           202.648545

                             ****ORCA TERMINATED NORMALLY****
TOTAL RUN TIME: 0 days 0 hours 1 minutes 7 seconds 369 msec
