                         Program Version 6.0.0  -   RELEASE  -
|  1> ! r2scan-3c def2/J RI DEFGRID2 scfconv6 printgap
|  2> %output
|  3>     printlevel normal
|  4> end
|  5> %cpcm
|  6>     smd true
|  7>     smdsolvent "water"
|  8> end
|  9> * xyz 0 1
| 10> C -4.0851087227 0.0042425462 0.0041708004
| 11> C -3.3980461993 0.9346756332 0.7652744573
| 12> C -2.0140744744 0.9249267695 0.7567789861
| 13> C -1.2991776857 0.0005481836 0.0002866837
| 14> C -2.0185453415 -0.9219377585 -0.7542728793
| 15> C -3.4025683401 -0.9279830134 -0.7588774026
| 16> Cl -1.1430408597 -2.0734815447 -1.7112123018
| 17> C 0.180230978 -0.0009768442 -0.0010506934
| 18> C 0.8996953506 0.9203620551 -0.7579559443
| 19> C 2.284458297 0.9332770556 -0.7683918805
| 20> C 2.9612986935 -0.0011927254 -0.0006205002
| 21> C 2.2840605893 -0.9359043107 0.7665016031
| 22> C 0.8992964194 -0.9228017487 0.75563806
| 23> Cl 0.0354252773 -2.0715054721 1.7114576585
| 24> Cl 4.6867792646 -0.0007362071 0.0003494475
| 25> Cl 0.0363166587 2.0687038118 -1.7147184233
| 26> Cl -1.1329322966 2.0742415419 1.7112610301
| 27> H -5.162597373 0.0057236393 0.0055006241
| 28> H -3.9237454659 1.6615572294 1.3615305532
| 29> H -3.9319585555 -1.6531608854 -1.3538351814
| 30> H 2.8195118795 1.6548810018 -1.3624824553
| 31> H 2.8188735526 -1.6575175792 1.3608248929
| 32> *
| 33>
| 34>                          ****END OF INPUT****

CARTESIAN COORDINATES (ANGSTROEM)
---------------------------------
  C     -4.085109    0.004243    0.004171
  C     -3.398046    0.934676    0.765274
  C     -2.014074    0.924927    0.756779
  C     -1.299178    0.000548    0.000287
  C     -2.018545   -0.921938   -0.754273
  C     -3.402568   -0.927983   -0.758877
  Cl    -1.143041   -2.073482   -1.711212
  C      0.180231   -0.000977   -0.001051
  C      0.899695    0.920362   -0.757956
  C      2.284458    0.933277   -0.768392
  C      2.961299   -0.001193   -0.000621
  C      2.284061   -0.935904    0.766502
  C      0.899296   -0.922802    0.755638
  Cl     0.035425   -2.071505    1.711458
  Cl     4.686779   -0.000736    0.000349
  Cl     0.036317    2.068704   -1.714718
  Cl    -1.132932    2.074242    1.711261
  H     -5.162597    0.005724    0.005501
  H     -3.923745    1.661557    1.361531
  H     -3.931959   -1.653161   -1.353835
  H      2.819512    1.654881   -1.362482
  H      2.818874   -1.657518    1.360825

 Total Charge           Charge          ....    0
 Multiplicity           Mult            ....    1
 Number of Electrons    NEL             ....  162
 Basis Dimension        Dim             ....  388

ORBITAL ENERGIES
----------------

  NO   OCC          E(Eh)            E(eV)
   0   2.0000    -101.236358     -2754.7814
   1   2.0000    -101.236357     -2754.7813
   2   2.0000    -101.234909     -2754.7419
   3   2.0000    -101.232151     -2754.6669
   4   2.0000    -101.232144     -2754.6667
   5   2.0000     -10.123992      -275.4878
   6   2.0000     -10.123987      -275.4877
   7   2.0000     -10.121982      -275.4331
   8   2.0000     -10.115985      -275.2699
   9   2.0000     -10.115975      -275.2697
  10   2.0000     -10.082615      -274.3619
  11   2.0000     -10.079565      -274.2789
  12   2.0000     -10.064919      -273.8804
  13   2.0000     -10.064912      -273.8802
  14   2.0000     -10.055067      -273.6123
  15   2.0000     -10.053979      -273.5827
  16   2.0000     -10.053875      -273.5798
  17   2.0000      -9.392293      -255.5773
  18   2.0000      -9.392291      -255.5772
  19   2.0000      -9.390946      -255.5406
  20   2.0000      -9.388054      -255.4619
  21   2.0000      -9.388048      -255.4618
  22   2.0000      -7.138597      -194.2511
  23   2.0000      -7.138595      -194.2510
  24   2.0000      -7.137201      -194.2131
  25   2.0000      -7.134260      -194.1331
  26   2.0000      -7.134254      -194.1329
  27   2.0000      -7.128617      -193.9795
  28   2.0000      -7.128615      -193.9795
  29   2.0000      -7.127921      -193.9606
  30   2.0000      -7.127919      -193.9605
  31   2.0000      -7.127248      -193.9423
  32   2.0000      -7.126638      -193.9257
  33   2.0000      -7.124406      -193.8650
  34   2.0000      -7.124401      -193.8648
  35   2.0000      -7.123765      -193.8475
  36   2.0000      -7.123758      -193.8473
  37   2.0000      -0.910305       -24.7707
  38   2.0000      -0.884939       -24.0804
  39   2.0000      -0.859723       -23.3943
  40   2.0000      -0.857056       -23.3217
  41   2.0000      -0.851612       -23.1735
  42   2.0000      -0.801779       -21.8175
  43   2.0000      -0.791218       -21.5301
  44   2.0000      -0.760811       -20.7027
  45   2.0000      -0.721071       -19.6213
  46   2.0000      -0.709891       -19.3171
  47   2.0000      -0.701951       -19.1011
  48   2.0000      -0.611965       -16.6524
  49   2.0000      -0.596290       -16.2259
  50   2.0000      -0.583788       -15.8857
  51   2.0000      -0.573213       -15.5979
  52   2.0000      -0.516213       -14.0469
  53   2.0000      -0.493059       -13.4168
  54   2.0000      -0.485098       -13.2002
  55   2.0000      -0.472712       -12.8631
  56   2.0000      -0.456899       -12.4328
  57   2.0000      -0.440416       -11.9843
  58   2.0000      -0.428247       -11.6532
  59   2.0000      -0.422052       -11.4846
  60   2.0000      -0.420011       -11.4291
  61   2.0000      -0.408757       -11.1228
  62   2.0000      -0.399089       -10.8598
  63   2.0000      -0.384612       -10.4658
  64   2.0000      -0.367554       -10.0016
  65   2.0000      -0.364872        -9.9287
  66   2.0000      -0.358805        -9.7636
  67   2.0000      -0.350860        -9.5474
  68   2.0000      -0.348173        -9.4743
  69   2.0000      -0.342545        -9.3211
  70   2.0000      -0.309028        -8.4091
  71   2.0000      -0.306562        -8.3420
  72   2.0000      -0.305705        -8.3187
  73   2.0000      -0.300769        -8.1843
  74   2.0000      -0.295901        -8.0519
  75   2.0000      -0.293545        -7.9878
  76   2.0000      -0.291560        -7.9338
  77   2.0000      -0.250174        -6.8076
  78   2.0000      -0.243663        -6.6304
  79   2.0000      -0.238841        -6.4992
  80   2.0000      -0.237212        -6.4549
  81   0.0000      -0.068545        -1.8652
  82   0.0000      -0.064209        -1.7472
  83   0.0000      -0.053173        -1.4469
  84   0.0000      -0.052658        -1.4329
  85   0.0000      -0.036262        -0.9868

MULLIKEN ATOMIC CHARGES
-----------------------
   0 C :   -0.128150
   1 C :   -0.235601
   2 C :    0.129781
   3 C :   -0.001359
   4 C :    0.130045
   5 C :   -0.235527
   6 Cl:   -0.127223
   7 C :    0.025118
   8 C :    0.152742
   9 C :   -0.331077
  10 C :    0.260061
  11 C :   -0.331132
  12 C :    0.152456
  13 Cl:   -0.108777
  14 Cl:   -0.128991
  15 Cl:   -0.108786
  16 Cl:   -0.127252
  17 H :    0.195428
  18 H :    0.198504
  19 H :    0.198479
  20 H :    0.210628
  21 H :    0.210633
Sum of atomic charges:    0.0000000

LOEWDIN ATOMIC CHARGES
----------------------
   0 C :   -0.131943
   1 C :   -0.163830
   2 C :   -0.148966
   3 C :   -0.124792
   4 C :   -0.149014
   5 C :   -0.163829
   6 Cl:    0.157222
   7 C :   -0.123086
   8 C :   -0.142878
   9 C :   -0.172027
  10 C :   -0.156197
  11 C :   -0.172021
  12 C :   -0.142845
  13 Cl:    0.174659
  14 Cl:    0.145939
  15 Cl:    0.174634
  16 Cl:    0.157296
  17 H :    0.190051
  18 H :    0.193367
  19 H :    0.193348
  20 H :    0.202453
  21 H :    0.202457

  Mayer bond orders larger than 0.100000
B(  0-C ,  1-C ) :   1.3714 B(  0-C ,  5-C ) :   1.3713 B(  0-C , 17-H ) :   0.9529
B(  1-C ,  2-C ) :   1.3186 B(  1-C , 18-H ) :   0.9368 B(  2-C ,  3-C ) :   1.3438
B(  2-C ,  7-C ) :  -0.1242 B(  2-C , 16-Cl) :   1.0111 B(  3-C ,  4-C ) :   1.3434
B(  3-C ,  7-C ) :   0.7598 B(  3-C ,  8-C ) :  -0.1134 B(  3-C , 12-C ) :  -0.1134
B(  4-C ,  5-C ) :   1.3185 B(  4-C ,  6-Cl) :   1.0112 B(  4-C ,  7-C ) :  -0.1238
B(  5-C , 19-H ) :   0.9368 B(  7-C ,  8-C ) :   1.3453 B(  7-C , 12-C ) :   1.3455
B(  8-C ,  9-C ) :   1.3608 B(  8-C , 15-Cl) :   1.0238 B(  9-C , 10-C ) :   1.3577
B(  9-C , 20-H ) :   0.9029 B( 10-C , 11-C ) :   1.3577 B( 10-C , 14-Cl) :   0.9330
B( 11-C , 12-C ) :   1.3608 B( 11-C , 21-H ) :   0.9029 B( 12-C , 13-Cl) :   1.0238

Dispersion correction           -0.014694179
FINAL SINGLE POINT ENERGY     -2761.076675585361

DIPOLE MOMENT
-------------

Method             : SCF
Type of density    : Electron Density
Multiplicity       :   1
Irrep              :   0
Energy             : -2761.0726290505845100 Eh
Relativity type    :
Basis              : AO
                                X                 Y                 Z
Electronic contribution:      9.320471915      -0.012768820      -0.012834192
Nuclear contribution   :    -10.255762151       0.014501946       0.014667282
                        -----------------------------------------
Total Dipole Moment    :     -0.935290235       0.001733126       0.001833090
                        -----------------------------------------
Magnitude (a.u.)       :      0.935293637
Magnitude (Debye)      :      2.377327497

Rotational constants in cm-1:             0.014270             0.007426             0.006760
Rotational constants in MHz :           427.803532           222.631210           202.648545

                             ****ORCA TERMINATED NORMALLY****
TOTAL RUN TIME: 0 days 0 hours 1 minutes 31 seconds 529 msec
