                         Program Version 6.0.0  -   RELEASE  -
|  1> ! pbe def2-sv(p) def2/J RI DEFGRID1 loosescf d4 GCP(DFT/SV(P)) printgap
|  2> %output
|  3>     printlevel normal
|  4> end
|  5> * xyz 0 1
|  6> C -2.0904550584 -1.2193795223 -0.1899456365
|  7> C -1.240094168 -0.3720174795 0.7690638338
|  8> H -1.8306357602 -0.2409195477 1.6825035792
|  9> C -0.9207398847 1.0178824523 0.173071645
| 10> H -1.2038497849 1.04323404 -0.8846547127
| 11> C 0.5865965508 1.2863327558 0.2625891919
| 12> H 0.890839894 1.3534306383 1.3204910943
| 13> C 1.3357369512 0.1189418988 -0.3867544108
| 14> H 0.9962988128 0.0292204418 -1.4307588354
| 15> C 1.010924567 -1.1903144313 0.3643058113
| 16> H 1.8603167257 -1.4341187804 1.0132304068
| 17> O -0.0758538305 -1.0378098763 1.2494254627
| 18> O 0.8572877418 -2.2722789119 -0.4857089666
| 19> O 2.7259357663 0.3073558687 -0.3466174066
| 20> O 0.940356983 2.4663286255 -0.4175244366
| 21> O -1.6587104672 2.0522625647 0.7738225895
| 22> O -1.4949802662 -1.2712740646 -1.474420269
| 23> H -3.0776229703 -0.7504340303 -0.2498152099
| 24> H -2.1836611033 -2.2266887655 0.2318949059
| 25> H 0.105758346 -2.0880218776 -1.0901372772
| 26> H 2.9206392183 1.1855897592 -0.7114216841
| 27> H 0.2817972043 3.1491409875 -0.2171436858
| 28> H -1.4872424647 2.0710524408 1.7272733084
| 29> H -2.1073712935 -1.7011733057 -2.0888852842
| 30> *
| 31>
| 32>                          ****END OF INPUT****

CARTESIAN COORDINATES (ANGSTROEM)
---------------------------------
  C     -2.090455   -1.219380   -0.189946
  C     -1.240094   -0.372017    0.769064
  H     -1.830636   -0.240920    1.682504
  C     -0.920740    1.017882    0.173072
  H     -1.203850    1.043234   -0.884655
  C      0.586597    1.286333    0.262589
  H      0.890840    1.353431    1.320491
  C      1.335737    0.118942   -0.386754
  H      0.996299    0.029220   -1.430759
  C      1.010925   -1.190314    0.364306
  H      1.860317   -1.434119    1.013230
  O     -0.075854   -1.037810    1.249425
  O      0.857288   -2.272279   -0.485709
  O      2.725936    0.307356   -0.346617
  O      0.940357    2.466329   -0.417524
  O     -1.658710    2.052263    0.773823
  O     -1.494980   -1.271274   -1.474420
  H     -3.077623   -0.750434   -0.249815
  H     -2.183661   -2.226689    0.231895
  H      0.105758   -2.088022   -1.090137
  H      2.920639    1.185590   -0.711422
  H      0.281797    3.149141   -0.217144
  H     -1.487242    2.071052    1.727273
  H     -2.107371   -1.701173   -2.088885

 Total Charge           Charge          ....    0
 Multiplicity           Mult            ....    1
 Number of Electrons    NEL             ....   96
 Basis Dimension        Dim             ....  192

ORBITAL ENERGIES
----------------

  NO   OCC          E(Eh)            E(eV)
   0   2.0000     -18.796343      -511.4745
   1   2.0000     -18.768199      -510.7087
   2   2.0000     -18.760494      -510.4990
   3   2.0000     -18.753388      -510.3056
   4   2.0000     -18.738038      -509.8879
   5   2.0000     -18.728140      -509.6186
   6   2.0000      -9.968293      -271.2510
   7   2.0000      -9.956107      -270.9194
   8   2.0000      -9.955516      -270.9034
   9   2.0000      -9.946893      -270.6687
  10   2.0000      -9.937227      -270.4057
  11   2.0000      -9.930042      -270.2102
  12   2.0000      -0.974716       -26.5234
  13   2.0000      -0.957510       -26.0552
  14   2.0000      -0.948471       -25.8092
  15   2.0000      -0.930075       -25.3086
  16   2.0000      -0.908641       -24.7254
  17   2.0000      -0.892018       -24.2730
  18   2.0000      -0.710596       -19.3363
  19   2.0000      -0.688716       -18.7409
  20   2.0000      -0.626843       -17.0573
  21   2.0000      -0.586291       -15.9538
  22   2.0000      -0.565450       -15.3867
  23   2.0000      -0.526476       -14.3262
  24   2.0000      -0.505327       -13.7506
  25   2.0000      -0.486728       -13.2445
  26   2.0000      -0.478491       -13.0204
  27   2.0000      -0.466422       -12.6920
  28   2.0000      -0.436776       -11.8853
  29   2.0000      -0.428925       -11.6716
  30   2.0000      -0.411396       -11.1947
  31   2.0000      -0.404729       -11.0132
  32   2.0000      -0.400024       -10.8852
  33   2.0000      -0.397888       -10.8271
  34   2.0000      -0.351810        -9.5732
  35   2.0000      -0.346323        -9.4239
  36   2.0000      -0.335877        -9.1397
  37   2.0000      -0.314363        -8.5543
  38   2.0000      -0.300358        -8.1732
  39   2.0000      -0.296195        -8.0599
  40   2.0000      -0.284008        -7.7282
  41   2.0000      -0.270623        -7.3640
  42   2.0000      -0.257835        -7.0161
  43   2.0000      -0.249346        -6.7851
  44   2.0000      -0.233087        -6.3426
  45   2.0000      -0.213299        -5.8042
  46   2.0000      -0.210117        -5.7176
  47   2.0000      -0.202444        -5.5088
  48   0.0000      -0.002816        -0.0766
  49   0.0000       0.014502         0.3946
  50   0.0000       0.035696         0.9713
  51   0.0000       0.058999         1.6054
  52   0.0000       0.063349         1.7238

MULLIKEN ATOMIC CHARGES
-----------------------
   0 C :   -0.005366
   1 C :    0.059908
   2 H :    0.066612
   3 C :    0.018457
   4 H :    0.078745
   5 C :    0.056299
   6 H :    0.043736
   7 C :    0.020008
   8 H :    0.052476
   9 C :    0.225846
  10 H :    0.074229
  11 O :   -0.305915
  12 O :   -0.413702
  13 O :   -0.415318
  14 O :   -0.426271
  15 O :   -0.418568
  16 O :   -0.437517
  17 H :    0.096368
  18 H :    0.102942
  19 H :    0.292203
  20 H :    0.307171
  21 H :    0.302467
  22 H :    0.300910
  23 H :    0.324279
Sum of atomic charges:   -0.0000000

LOEWDIN ATOMIC CHARGES
----------------------
   0 C :   -0.137865
   1 C :   -0.066489
   2 H :    0.122349
   3 C :   -0.085344
   4 H :    0.118800
   5 C :   -0.087321
   6 H :    0.099059
   7 C :   -0.082063
   8 H :    0.102829
   9 C :    0.001903
  10 H :    0.116664
  11 O :   -0.149021
  12 O :   -0.317650
  13 O :   -0.315831
  14 O :   -0.327503
  15 O :   -0.312903
  16 O :   -0.322684
  17 H :    0.114634
  18 H :    0.112576
  19 H :    0.261468
  20 H :    0.286267
  21 H :    0.283682
  22 H :    0.284013
  23 H :    0.300431

  Mayer bond orders larger than 0.100000
B(  0-C ,  1-C ) :   1.0634 B(  0-C , 16-O ) :   1.0161 B(  0-C , 17-H ) :   0.9127
B(  0-C , 18-H ) :   0.9104 B(  1-C ,  2-H ) :   0.8883 B(  1-C ,  3-C ) :   0.9581
B(  1-C , 11-O ) :   1.0680 B(  3-C ,  4-H ) :   0.8683 B(  3-C ,  5-C ) :   1.0195
B(  3-C , 15-O ) :   1.0160 B(  5-C ,  6-H ) :   0.8645 B(  5-C ,  7-C ) :   1.0103
B(  5-C , 14-O ) :   1.0771 B(  7-C ,  8-H ) :   0.8786 B(  7-C ,  9-C ) :   0.9892
B(  7-C , 13-O ) :   1.0808 B(  9-C , 10-H ) :   0.8857 B(  9-C , 11-O ) :   1.0192
B(  9-C , 12-O ) :   1.1468 B( 12-O , 19-H ) :   0.7904 B( 13-O , 20-H ) :   0.8373
B( 14-O , 21-H ) :   0.8305 B( 15-O , 22-H ) :   0.8471 B( 16-O , 19-H ) :   0.1241
B( 16-O , 23-H ) :   0.8372

Dispersion correction           -0.025200798
FINAL SINGLE POINT ENERGY      -685.696443743159

DIPOLE MOMENT
-------------

Method             : SCF
Type of density    : Electron Density
Multiplicity       :   1
Irrep              :   0
Energy             :  -685.8289937355290249 Eh
Relativity type    :
Basis              : AO
                                X                 Y                 Z
Electronic contribution:      2.743248786       0.134101658       0.516991344
Nuclear contribution   :     -4.516631710       0.369802446      -0.664687088
                        -----------------------------------------
Total Dipole Moment    :     -1.773382924       0.503904104      -0.147695744
                        -----------------------------------------
Magnitude (a.u.)       :      1.849491923
Magnitude (Debye)      :      4.701034872

Rotational constants in cm-1:             0.036045             0.032568             0.021436
Rotational constants in MHz :          1080.593433           976.365497           642.639869

                             ****ORCA TERMINATED NORMALLY****
TOTAL RUN TIME: 0 days 0 hours 0 minutes 12 seconds 441 msec
