                         Program Version 6.0.0  -   RELEASE  -
|  1> ! pbe def2-sv(p) def2/J RI DEFGRID1 loosescf d4 GCP(DFT/SV(P)) printgap
|  2> %output
|  3>     printlevel normal
|  4> end
|  5> * xyz 0 1
|  6> C 3.6835983905 0.3627632037 0.0704776702
|  7> C 2.2131712658 0.3033222859 -0.3331920027
|  8> H 2.1466043484 0.3686316114 -1.425489083
|  9> C 1.4253428211 1.4644393282 0.2710166862
| 10> C -0.0449947053 1.3815157527 -0.1257788134
| 11> C -0.6741533415 0.0719317251 0.3542785046
| 12> H -0.5327419856 -0.0051528658 1.439161384
| 13> C 0.1043968752 -1.1028590157 -0.2706035641
| 14> H 0.021716536 -1.0543787157 -1.3674519762
| 15> C 1.5835101713 -1.0141453517 0.110894565
| 16> O -0.3480019348 -2.3702614921 0.180034265
| 17> C -2.1933260351 -0.0073889696 0.0946071605
| 18> C -2.9610088824 0.9388696023 1.0189818613
| 19> C -2.5834619233 0.2629953217 -1.3582176109
| 20> H 4.1307753935 1.2973882582 -0.259278635
| 21> H 3.7819746372 0.2962597962 1.1516057627
| 22> H 4.2356823293 -0.4609126215 -0.3753973232
| 23> H 1.5138760836 1.4311492481 1.3591524741
| 24> H 1.8450209732 2.4126357349 -0.0709119214
| 25> H -0.5829046215 2.2269299637 0.3035851605
| 26> H -0.1207317144 1.4449577059 -1.212618906
| 27> H 1.6602512215 -1.1202622196 1.1950017894
| 28> H 2.1055516451 -1.8606717826 -0.3395269865
| 29> H -1.2177114803 -2.5567467508 -0.195536033
| 30> H -2.5090473799 -1.0253416161 0.3522098365
| 31> H -2.7381316957 1.9772229708 0.7879944048
| 32> H -2.7046691369 0.7528311072 2.0592868129
| 33> H -4.0313888341 0.7892255622 0.89793364
| 34> H -2.4201952202 1.3069070842 -1.6121791044
| 35> H -3.6389157126 0.0427615116 -1.5021876037
| 36> H -2.0117455203 -0.3539595873 -2.046719709
| 37> *
| 38>
| 39>                          ****END OF INPUT****

CARTESIAN COORDINATES (ANGSTROEM)
---------------------------------
  C      3.683598    0.362763    0.070478
  C      2.213171    0.303322   -0.333192
  H      2.146604    0.368632   -1.425489
  C      1.425343    1.464439    0.271017
  C     -0.044995    1.381516   -0.125779
  C     -0.674153    0.071932    0.354279
  H     -0.532742   -0.005153    1.439161
  C      0.104397   -1.102859   -0.270604
  H      0.021717   -1.054379   -1.367452
  C      1.583510   -1.014145    0.110895
  O     -0.348002   -2.370261    0.180034
  C     -2.193326   -0.007389    0.094607
  C     -2.961009    0.938870    1.018982
  C     -2.583462    0.262995   -1.358218
  H      4.130775    1.297388   -0.259279
  H      3.781975    0.296260    1.151606
  H      4.235682   -0.460913   -0.375397
  H      1.513876    1.431149    1.359152
  H      1.845021    2.412636   -0.070912
  H     -0.582905    2.226930    0.303585
  H     -0.120732    1.444958   -1.212619
  H      1.660251   -1.120262    1.195002
  H      2.105552   -1.860672   -0.339527
  H     -1.217711   -2.556747   -0.195536
  H     -2.509047   -1.025342    0.352210
  H     -2.738132    1.977223    0.787994
  H     -2.704669    0.752831    2.059287
  H     -4.031389    0.789226    0.897934
  H     -2.420195    1.306907   -1.612179
  H     -3.638916    0.042762   -1.502188
  H     -2.011746   -0.353960   -2.046720

 Total Charge           Charge          ....    0
 Multiplicity           Mult            ....    1
 Number of Electrons    NEL             ....   88
 Basis Dimension        Dim             ....  194

ORBITAL ENERGIES
----------------

  NO   OCC          E(Eh)            E(eV)
   0   2.0000     -18.737369      -509.8697
   1   2.0000      -9.930592      -270.2251
   2   2.0000      -9.895781      -269.2779
   3   2.0000      -9.890787      -269.1420
   4   2.0000      -9.886288      -269.0196
   5   2.0000      -9.881184      -268.8807
   6   2.0000      -9.879127      -268.8247
   7   2.0000      -9.875718      -268.7319
   8   2.0000      -9.873927      -268.6832
   9   2.0000      -9.872885      -268.6549
  10   2.0000      -9.869650      -268.5668
  11   2.0000      -0.914291       -24.8791
  12   2.0000      -0.758997       -20.6534
  13   2.0000      -0.723765       -19.6946
  14   2.0000      -0.669360       -18.2142
  15   2.0000      -0.655618       -17.8403
  16   2.0000      -0.612754       -16.6739
  17   2.0000      -0.600620       -16.3437
  18   2.0000      -0.545066       -14.8320
  19   2.0000      -0.534273       -14.5383
  20   2.0000      -0.502818       -13.6824
  21   2.0000      -0.485735       -13.2175
  22   2.0000      -0.454403       -12.3649
  23   2.0000      -0.424696       -11.5566
  24   2.0000      -0.411092       -11.1864
  25   2.0000      -0.400810       -10.9066
  26   2.0000      -0.395941       -10.7741
  27   2.0000      -0.375678       -10.2227
  28   2.0000      -0.365674        -9.9505
  29   2.0000      -0.360998        -9.8233
  30   2.0000      -0.351872        -9.5749
  31   2.0000      -0.340207        -9.2575
  32   2.0000      -0.330860        -9.0032
  33   2.0000      -0.325803        -8.8656
  34   2.0000      -0.316197        -8.6042
  35   2.0000      -0.303473        -8.2579
  36   2.0000      -0.298656        -8.1268
  37   2.0000      -0.289372        -7.8742
  38   2.0000      -0.282607        -7.6901
  39   2.0000      -0.280386        -7.6297
  40   2.0000      -0.274473        -7.4688
  41   2.0000      -0.260700        -7.0940
  42   2.0000      -0.249637        -6.7930
  43   2.0000      -0.208686        -5.6786
  44   0.0000       0.020920         0.5693
  45   0.0000       0.038446         1.0462
  46   0.0000       0.041003         1.1157
  47   0.0000       0.050799         1.3823
  48   0.0000       0.077676         2.1137

MULLIKEN ATOMIC CHARGES
-----------------------
   0 C :   -0.195464
   1 C :   -0.216081
   2 H :    0.061643
   3 C :   -0.093524
   4 C :   -0.123840
   5 C :   -0.129761
   6 H :    0.051581
   7 C :    0.046726
   8 H :    0.047994
   9 C :   -0.072876
  10 O :   -0.413588
  11 C :   -0.135534
  12 C :   -0.240924
  13 C :   -0.262912
  14 H :    0.094337
  15 H :    0.090173
  16 H :    0.096083
  17 H :    0.065726
  18 H :    0.076147
  19 H :    0.083109
  20 H :    0.073921
  21 H :    0.069347
  22 H :    0.080805
  23 H :    0.299918
  24 H :    0.042527
  25 H :    0.101654
  26 H :    0.098852
  27 H :    0.096348
  28 H :    0.107124
  29 H :    0.099012
  30 H :    0.101474
Sum of atomic charges:    0.0000000

LOEWDIN ATOMIC CHARGES
----------------------
   0 C :   -0.325985
   1 C :   -0.152749
   2 H :    0.112650
   3 C :   -0.213855
   4 C :   -0.217487
   5 C :   -0.148703
   6 H :    0.116144
   7 C :   -0.045868
   8 H :    0.094282
   9 C :   -0.213932
  10 O :   -0.326773
  11 C :   -0.153549
  12 C :   -0.327353
  13 C :   -0.333358
  14 H :    0.116410
  15 H :    0.117045
  16 H :    0.117639
  17 H :    0.114167
  18 H :    0.114526
  19 H :    0.116508
  20 H :    0.115511
  21 H :    0.118771
  22 H :    0.118472
  23 H :    0.279740
  24 H :    0.103180
  25 H :    0.115659
  26 H :    0.118231
  27 H :    0.117832
  28 H :    0.119604
  29 H :    0.119704
  30 H :    0.113538

  Mayer bond orders larger than 0.100000
B(  0-C ,  1-C ) :   1.1149 B(  0-C , 14-H ) :   0.9488 B(  0-C , 15-H ) :   0.9460
B(  0-C , 16-H ) :   0.9486 B(  1-C ,  2-H ) :   0.8901 B(  1-C ,  3-C ) :   1.0932
B(  1-C ,  9-C ) :   1.0846 B(  3-C ,  4-C ) :   1.1460 B(  3-C , 17-H ) :   0.9037
B(  3-C , 18-H ) :   0.9129 B(  4-C ,  5-C ) :   1.0650 B(  4-C , 19-H ) :   0.9073
B(  4-C , 20-H ) :   0.8921 B(  5-C ,  6-H ) :   0.8705 B(  5-C ,  7-C ) :   1.0198
B(  5-C , 11-C ) :   1.0345 B(  7-C ,  8-H ) :   0.8868 B(  7-C ,  9-C ) :   1.1036
B(  7-C , 10-O ) :   1.0830 B(  9-C , 21-H ) :   0.8921 B(  9-C , 22-H ) :   0.9074
B( 10-O , 23-H ) :   0.8416 B( 11-C , 12-C ) :   1.1223 B( 11-C , 13-C ) :   1.0979
B( 11-C , 24-H ) :   0.8825 B( 12-C , 25-H ) :   0.9428 B( 12-C , 26-H ) :   0.9474
B( 12-C , 27-H ) :   0.9492 B( 13-C , 28-H ) :   0.9420 B( 13-C , 29-H ) :   0.9472
B( 13-C , 30-H ) :   0.9465

Dispersion correction           -0.031467284
FINAL SINGLE POINT ENERGY      -467.199945122830

DIPOLE MOMENT
-------------

Method             : SCF
Type of density    : Electron Density
Multiplicity       :   1
Irrep              :   0
Energy             :  -467.3120189307005603 Eh
Relativity type    :
Basis              : AO
                                X                 Y                 Z
Electronic contribution:      0.667054820      -5.193094105       0.469690066
Nuclear contribution   :     -1.005931667       5.508890064      -0.805431698
                        -----------------------------------------
Total Dipole Moment    :     -0.338876847       0.315795960      -0.335741632
                        -----------------------------------------
Magnitude (a.u.)       :      0.572090071
Magnitude (Debye)      :      1.454137398

Rotational constants in cm-1:             0.059119             0.023252             0.019256
Rotational constants in MHz :          1772.333966           697.091539           577.278835

                             ****ORCA TERMINATED NORMALLY****
TOTAL RUN TIME: 0 days 0 hours 0 minutes 14 seconds 571 msec
