                         Program Version 6.0.0  -   RELEASE  -
|  1> ! pbe def2-sv(p) def2/J RI DEFGRID1 loosescf d4 GCP(DFT/SV(P)) printgap
|  2> %output
|  3>     printlevel normal
|  4> end
|  5> * xyz 0 1
|  6> C -2.819281045 -0.406014969 0.0002293318
|  7> O -1.3920404752 -0.6127698824 -0.0009208951
|  8> C -0.6041506771 0.4152091287 -0.0010140734
|  9> O -0.8795073795 1.5844750965 -0.0004189948
| 10> C 0.8760393831 -0.0776955481 -0.0004137329
| 11> F 1.7355502951 0.9415305454 -0.0259693135
| 12> F 1.1507440525 -0.8063651022 1.090327523
| 13> F 1.1391789153 -0.8508279314 -1.06257614
| 14> H -3.0438501363 0.6592675057 -0.0158228364
| 15> H -3.207640166 -0.8745489681 0.9018692978
| 16> H -3.2114601893 -0.9033444301 -0.8840864971
| 17> *
| 18>
| 19>                          ****END OF INPUT****

CARTESIAN COORDINATES (ANGSTROEM)
---------------------------------
  C     -2.819281   -0.406015    0.000229
  O     -1.392040   -0.612770   -0.000921
  C     -0.604151    0.415209   -0.001014
  O     -0.879507    1.584475   -0.000419
  C      0.876039   -0.077696   -0.000414
  F      1.735550    0.941531   -0.025969
  F      1.150744   -0.806365    1.090328
  F      1.139179   -0.850828   -1.062576
  H     -3.043850    0.659268   -0.015823
  H     -3.207640   -0.874549    0.901869
  H     -3.211460   -0.903344   -0.884086

 Total Charge           Charge          ....    0
 Multiplicity           Mult            ....    1
 Number of Electrons    NEL             ....   64
 Basis Dimension        Dim             ....  118

ORBITAL ENERGIES
----------------

  NO   OCC          E(Eh)            E(eV)
   0   2.0000     -24.294851      -661.0965
   1   2.0000     -24.294733      -661.0933
   2   2.0000     -24.294671      -661.0916
   3   2.0000     -18.837537      -512.5954
   4   2.0000     -18.770584      -510.7736
   5   2.0000     -10.131862      -275.7020
   6   2.0000     -10.039876      -273.1989
   7   2.0000      -9.966542      -271.2034
   8   2.0000      -1.199823       -32.6488
   9   2.0000      -1.106681       -30.1143
  10   2.0000      -1.105860       -30.0920
  11   2.0000      -1.045820       -28.4582
  12   2.0000      -0.952381       -25.9156
  13   2.0000      -0.716815       -19.5055
  14   2.0000      -0.640036       -17.4163
  15   2.0000      -0.566828       -15.4242
  16   2.0000      -0.534549       -14.5458
  17   2.0000      -0.533859       -14.5270
  18   2.0000      -0.521170       -14.1817
  19   2.0000      -0.463315       -12.6074
  20   2.0000      -0.443075       -12.0567
  21   2.0000      -0.418790       -11.3959
  22   2.0000      -0.404460       -11.0059
  23   2.0000      -0.403939       -10.9918
  24   2.0000      -0.389841       -10.6081
  25   2.0000      -0.368685       -10.0324
  26   2.0000      -0.361565        -9.8387
  27   2.0000      -0.359864        -9.7924
  28   2.0000      -0.343440        -9.3455
  29   2.0000      -0.326219        -8.8769
  30   2.0000      -0.290175        -7.8961
  31   2.0000      -0.253843        -6.9074
  32   0.0000      -0.058516        -1.5923
  33   0.0000       0.040254         1.0954
  34   0.0000       0.047627         1.2960
  35   0.0000       0.089007         2.4220
  36   0.0000       0.095622         2.6020

MULLIKEN ATOMIC CHARGES
-----------------------
   0 C :   -0.133652
   1 O :   -0.222719
   2 C :    0.051803
   3 O :   -0.162373
   4 C :    0.428538
   5 F :   -0.118401
   6 F :   -0.134489
   7 F :   -0.133859
   8 H :    0.144772
   9 H :    0.140173
  10 H :    0.140207
Sum of atomic charges:    0.0000000

LOEWDIN ATOMIC CHARGES
----------------------
   0 C :   -0.197042
   1 O :   -0.035314
   2 C :   -0.026062
   3 O :   -0.122532
   4 C :    0.090590
   5 F :   -0.023885
   6 F :   -0.038976
   7 F :   -0.038691
   8 H :    0.130585
   9 H :    0.130645
  10 H :    0.130682

  Mayer bond orders larger than 0.100000
B(  0-C ,  1-O ) :   0.9065 B(  0-C ,  8-H ) :   0.9318 B(  0-C ,  9-H ) :   0.9587
B(  0-C , 10-H ) :   0.9588 B(  1-O ,  2-C ) :   1.2568 B(  1-O ,  3-O ) :   0.1206
B(  2-C ,  3-O ) :   2.0952 B(  2-C ,  4-C ) :   0.8231 B(  4-C ,  5-F ) :   1.1969
B(  4-C ,  6-F ) :   1.1683 B(  4-C ,  7-F ) :   1.1693

Dispersion correction           -0.007831393
FINAL SINGLE POINT ENERGY      -565.036082703141

DIPOLE MOMENT
-------------

Method             : SCF
Type of density    : Electron Density
Multiplicity       :   1
Irrep              :   0
Energy             :  -565.0964897961044926 Eh
Relativity type    :
Basis              : AO
                                X                 Y                 Z
Electronic contribution:     11.484619803      -0.163814123      -0.001429578
Nuclear contribution   :    -12.641247551      -0.372012029       0.000167829
                        -----------------------------------------
Total Dipole Moment    :     -1.156627748      -0.535826153      -0.001261749
                        -----------------------------------------
Magnitude (a.u.)       :      1.274715265
Magnitude (Debye)      :      3.240068710

Rotational constants in cm-1:             0.119616             0.050284             0.043801
Rotational constants in MHz :          3585.987036          1507.487948          1313.131135

                             ****ORCA TERMINATED NORMALLY****
TOTAL RUN TIME: 0 days 0 hours 0 minutes 5 seconds 916 msec
