                         Program Version 6.0.0  -   RELEASE  -
|  1> ! r2scan-3c def2/J RI DEFGRID2 scfconv6 printgap
|  2> %output
|  3>     printlevel normal
|  4> end
|  5> * xyz 0 1
|  6> C -2.4722095641 -1.1798267541 -0.0015362982
|  7> C -1.687691628 0.101569185 7.6193e-06
|  8> O -2.2499962928 1.1878413315 0.0018622329
|  9> C -0.2104649852 0.0056839485 -0.0003324866
| 10> C 0.4732799553 -1.2111597456 0.0006064407
| 11> C 1.8555835522 -1.2297761023 0.0009076579
| 12> C 2.5738847652 -0.0439052497 0.0002451379
| 13> C 1.9051254922 1.1704122993 -0.0008400007
| 14> C 0.5246472752 1.1937026754 -0.0011274186
| 15> H -2.2260998182 -1.7637159863 -0.8846305028
| 16> H -3.5342404714 -0.9487245358 -0.0030894362
| 17> H -2.2289665715 -1.7634051982 0.8826160306
| 18> H -0.0661547928 -2.143877951 0.0012194731
| 19> H 2.3775972419 -2.1742604722 0.0017293251
| 20> H 3.6527950007 -0.0658952659 0.0006151241
| 21> H 2.4594207358 2.0962631741 -0.0014249911
| 22> H -0.017495853 2.1282105593 -0.0019359706
| 23> *
| 24>
| 25>                          ****END OF INPUT****

CARTESIAN COORDINATES (ANGSTROEM)
---------------------------------
  C     -2.472210   -1.179827   -0.001536
  C     -1.687692    0.101569    0.000008
  O     -2.249996    1.187841    0.001862
  C     -0.210465    0.005684   -0.000332
  C      0.473280   -1.211160    0.000606
  C      1.855584   -1.229776    0.000908
  C      2.573885   -0.043905    0.000245
  C      1.905125    1.170412   -0.000840
  C      0.524647    1.193703   -0.001127
  H     -2.226100   -1.763716   -0.884631
  H     -3.534240   -0.948725   -0.003089
  H     -2.228967   -1.763405    0.882616
  H     -0.066155   -2.143878    0.001219
  H      2.377597   -2.174260    0.001729
  H      3.652795   -0.065895    0.000615
  H      2.459421    2.096263   -0.001425
  H     -0.017496    2.128211   -0.001936

 Total Charge           Charge          ....    0
 Multiplicity           Mult            ....    1
 Number of Electrons    NEL             ....   64
 Basis Dimension        Dim             ....  216

ORBITAL ENERGIES
----------------

  NO   OCC          E(Eh)            E(eV)
   0   2.0000     -18.935286      -515.2553
   1   2.0000     -10.121241      -275.4130
   2   2.0000     -10.053964      -273.5823
   3   2.0000     -10.052212      -273.5346
   4   2.0000     -10.052199      -273.5343
   5   2.0000     -10.049412      -273.4584
   6   2.0000     -10.047269      -273.4001
   7   2.0000     -10.046115      -273.3687
   8   2.0000     -10.035283      -273.0739
   9   2.0000      -1.000856       -27.2347
  10   2.0000      -0.841443       -22.8968
  11   2.0000      -0.751849       -20.4589
  12   2.0000      -0.730650       -19.8820
  13   2.0000      -0.705721       -19.2036
  14   2.0000      -0.607298       -16.5254
  15   2.0000      -0.585931       -15.9440
  16   2.0000      -0.529892       -14.4191
  17   2.0000      -0.486854       -13.2480
  18   2.0000      -0.442800       -12.0492
  19   2.0000      -0.432477       -11.7683
  20   2.0000      -0.423218       -11.5163
  21   2.0000      -0.421928       -11.4812
  22   2.0000      -0.403082       -10.9684
  23   2.0000      -0.384983       -10.4759
  24   2.0000      -0.363905        -9.9023
  25   2.0000      -0.362709        -9.8698
  26   2.0000      -0.333923        -9.0865
  27   2.0000      -0.330849        -9.0029
  28   2.0000      -0.321059        -8.7365
  29   2.0000      -0.253476        -6.8974
  30   2.0000      -0.248660        -6.7664
  31   2.0000      -0.218515        -5.9461
  32   0.0000      -0.089888        -2.4460
  33   0.0000      -0.044150        -1.2014
  34   0.0000       0.006537         0.1779
  35   0.0000       0.072642         1.9767
  36   0.0000       0.100269         2.7285

MULLIKEN ATOMIC CHARGES
-----------------------
   0 C :   -0.565815
   1 C :    0.291698
   2 O :   -0.353816
   3 C :    0.121816
   4 C :   -0.176719
   5 C :   -0.167900
   6 C :   -0.116304
   7 C :   -0.156901
   8 C :   -0.179000
   9 H :    0.169979
  10 H :    0.183674
  11 H :    0.169999
  12 H :    0.146149
  13 H :    0.148099
  14 H :    0.149563
  15 H :    0.148971
  16 H :    0.186506
Sum of atomic charges:    0.0000000

LOEWDIN ATOMIC CHARGES
----------------------
   0 C :   -0.382714
   1 C :    0.239533
   2 O :   -0.476514
   3 C :   -0.079753
   4 C :   -0.136890
   5 C :   -0.162048
   6 C :   -0.142627
   7 C :   -0.158504
   8 C :   -0.098103
   9 H :    0.173375
  10 H :    0.177332
  11 H :    0.173477
  12 H :    0.173298
  13 H :    0.168852
  14 H :    0.169030
  15 H :    0.169884
  16 H :    0.192371

  Mayer bond orders larger than 0.100000
B(  0-C ,  1-C ) :   0.8849 B(  0-C ,  9-H ) :   0.9603 B(  0-C , 10-H ) :   0.9792
B(  0-C , 11-H ) :   0.9597 B(  1-C ,  2-O ) :   1.9060 B(  1-C ,  3-C ) :   0.9174
B(  2-O ,  3-C ) :  -0.1207 B(  2-O ,  8-C ) :   0.1046 B(  3-C ,  4-C ) :   1.3841
B(  3-C ,  8-C ) :   1.3974 B(  4-C ,  5-C ) :   1.4254 B(  4-C , 12-H ) :   0.9292
B(  5-C ,  6-C ) :   1.4106 B(  5-C , 13-H ) :   0.9475 B(  6-C ,  7-C ) :   1.3832
B(  6-C , 14-H ) :   0.9472 B(  7-C ,  8-C ) :   1.3910 B(  7-C , 15-H ) :   0.9565
B(  8-C , 16-H ) :   0.9626

Dispersion correction           -0.005635053
FINAL SINGLE POINT ENERGY      -384.798424183739

DIPOLE MOMENT
-------------

Method             : SCF
Type of density    : Electron Density
Multiplicity       :   1
Irrep              :   0
Energy             :  -384.7979496984087859 Eh
Relativity type    :
Basis              : AO
                                X                 Y                 Z
Electronic contribution:      0.466445739       3.378052416       0.003245123
Nuclear contribution   :      0.357749167      -4.331202195      -0.004570335
                        -----------------------------------------
Total Dipole Moment    :      0.824194907      -0.953149779      -0.001325213
                        -----------------------------------------
Magnitude (a.u.)       :      1.260076784
Magnitude (Debye)      :      3.202860649

Rotational constants in cm-1:             0.124006             0.041208             0.031110
Rotational constants in MHz :          3717.612715          1235.396793           932.647459

                             ****ORCA TERMINATED NORMALLY****
TOTAL RUN TIME: 0 days 0 hours 0 minutes 31 seconds 595 msec
