                         Program Version 6.0.0  -   RELEASE  -
|  1> ! r2scan-3c def2/J RI DEFGRID2 scfconv6 printgap
|  2> %output
|  3>     printlevel normal
|  4> end
|  5> %cpcm
|  6>     smd true
|  7>     smdsolvent "water"
|  8> end
|  9> * xyz 0 1
| 10> C -2.4722095641 -1.1798267541 -0.0015362982
| 11> C -1.687691628 0.101569185 7.6193e-06
| 12> O -2.2499962928 1.1878413315 0.0018622329
| 13> C -0.2104649852 0.0056839485 -0.0003324866
| 14> C 0.4732799553 -1.2111597456 0.0006064407
| 15> C 1.8555835522 -1.2297761023 0.0009076579
| 16> C 2.5738847652 -0.0439052497 0.0002451379
| 17> C 1.9051254922 1.1704122993 -0.0008400007
| 18> C 0.5246472752 1.1937026754 -0.0011274186
| 19> H -2.2260998182 -1.7637159863 -0.8846305028
| 20> H -3.5342404714 -0.9487245358 -0.0030894362
| 21> H -2.2289665715 -1.7634051982 0.8826160306
| 22> H -0.0661547928 -2.143877951 0.0012194731
| 23> H 2.3775972419 -2.1742604722 0.0017293251
| 24> H 3.6527950007 -0.0658952659 0.0006151241
| 25> H 2.4594207358 2.0962631741 -0.0014249911
| 26> H -0.017495853 2.1282105593 -0.0019359706
| 27> *
| 28>
| 29>                          ****END OF INPUT****

CARTESIAN COORDINATES (ANGSTROEM)
---------------------------------
  C     -2.472210   -1.179827   -0.001536
  C     -1.687692    0.101569    0.000008
  O     -2.249996    1.187841    0.001862
  C     -0.210465    0.005684   -0.000332
  C      0.473280   -1.211160    0.000606
  C      1.855584   -1.229776    0.000908
  C      2.573885   -0.043905    0.000245
  C      1.905125    1.170412   -0.000840
  C      0.524647    1.193703   -0.001127
  H     -2.226100   -1.763716   -0.884631
  H     -3.534240   -0.948725   -0.003089
  H     -2.228967   -1.763405    0.882616
  H     -0.066155   -2.143878    0.001219
  H      2.377597   -2.174260    0.001729
  H      3.652795   -0.065895    0.000615
  H      2.459421    2.096263   -0.001425
  H     -0.017496    2.128211   -0.001936

 Total Charge           Charge          ....    0
 Multiplicity           Mult            ....    1
 Number of Electrons    NEL             ....   64
 Basis Dimension        Dim             ....  216

ORBITAL ENERGIES
----------------

  NO   OCC          E(Eh)            E(eV)
   0   2.0000     -18.946237      -515.5533
   1   2.0000     -10.128529      -275.6113
   2   2.0000     -10.048689      -273.4387
   3   2.0000     -10.046407      -273.3766
   4   2.0000     -10.044563      -273.3264
   5   2.0000     -10.042632      -273.2739
   6   2.0000     -10.040540      -273.2170
   7   2.0000     -10.040038      -273.2033
   8   2.0000     -10.023954      -272.7656
   9   2.0000      -1.013845       -27.5881
  10   2.0000      -0.836785       -22.7701
  11   2.0000      -0.746837       -20.3225
  12   2.0000      -0.724712       -19.7204
  13   2.0000      -0.697987       -18.9932
  14   2.0000      -0.602107       -16.3842
  15   2.0000      -0.578588       -15.7442
  16   2.0000      -0.524336       -14.2679
  17   2.0000      -0.482365       -13.1258
  18   2.0000      -0.438276       -11.9261
  19   2.0000      -0.432090       -11.7578
  20   2.0000      -0.417369       -11.3572
  21   2.0000      -0.413584       -11.2542
  22   2.0000      -0.394812       -10.7434
  23   2.0000      -0.391317       -10.6483
  24   2.0000      -0.357538        -9.7291
  25   2.0000      -0.354823        -9.6552
  26   2.0000      -0.335045        -9.1170
  27   2.0000      -0.327237        -8.9046
  28   2.0000      -0.313198        -8.5226
  29   2.0000      -0.250083        -6.8051
  30   2.0000      -0.246938        -6.7195
  31   2.0000      -0.230705        -6.2778
  32   0.0000      -0.091262        -2.4834
  33   0.0000      -0.039289        -1.0691
  34   0.0000       0.007947         0.2162
  35   0.0000       0.083978         2.2851
  36   0.0000       0.112140         3.0515

MULLIKEN ATOMIC CHARGES
-----------------------
   0 C :   -0.587063
   1 C :    0.330864
   2 O :   -0.452691
   3 C :    0.109833
   4 C :   -0.174269
   5 C :   -0.209617
   6 C :   -0.131072
   7 C :   -0.207955
   8 C :   -0.196158
   9 H :    0.201244
  10 H :    0.185242
  11 H :    0.201308
  12 H :    0.183116
  13 H :    0.183111
  14 H :    0.185423
  15 H :    0.182322
  16 H :    0.196362
Sum of atomic charges:    0.0000000

LOEWDIN ATOMIC CHARGES
----------------------
   0 C :   -0.378973
   1 C :    0.252911
   2 O :   -0.552149
   3 C :   -0.090481
   4 C :   -0.127138
   5 C :   -0.164700
   6 C :   -0.140465
   7 C :   -0.164071
   8 C :   -0.112714
   9 H :    0.188070
  10 H :    0.176973
  11 H :    0.188186
  12 H :    0.188048
  13 H :    0.181231
  14 H :    0.181393
  15 H :    0.181183
  16 H :    0.192696

  Mayer bond orders larger than 0.100000
B(  0-C ,  1-C ) :   0.9022 B(  0-C ,  9-H ) :   0.9428 B(  0-C , 10-H ) :   0.9796
B(  0-C , 11-H ) :   0.9423 B(  1-C ,  2-O ) :   1.8390 B(  1-C ,  3-C ) :   0.9338
B(  2-O ,  3-C ) :  -0.1118 B(  2-O ,  8-C ) :   0.1001 B(  3-C ,  4-C ) :   1.3762
B(  3-C ,  8-C ) :   1.3222 B(  4-C ,  5-C ) :   1.3983 B(  4-C , 12-H ) :   0.9321
B(  5-C ,  6-C ) :   1.3750 B(  5-C , 13-H ) :   0.9573 B(  6-C ,  7-C ) :   1.3595
B(  6-C , 14-H ) :   0.9494 B(  7-C ,  8-C ) :   1.3875 B(  7-C , 15-H ) :   0.9623
B(  8-C , 16-H ) :   0.9661

Dispersion correction           -0.005635053
FINAL SINGLE POINT ENERGY      -384.806532320419

DIPOLE MOMENT
-------------

Method             : SCF
Type of density    : Electron Density
Multiplicity       :   1
Irrep              :   0
Energy             :  -384.8060578350888363 Eh
Relativity type    :
Basis              : AO
                                X                 Y                 Z
Electronic contribution:      0.881243666       2.814911503       0.002704978
Nuclear contribution   :      0.357749167      -4.331202195      -0.004570335
                        -----------------------------------------
Total Dipole Moment    :      1.238992833      -1.516290692      -0.001865357
                        -----------------------------------------
Magnitude (a.u.)       :      1.958122617
Magnitude (Debye)      :      4.977152151

Rotational constants in cm-1:             0.124006             0.041208             0.031110
Rotational constants in MHz :          3717.612715          1235.396793           932.647459

                             ****ORCA TERMINATED NORMALLY****
TOTAL RUN TIME: 0 days 0 hours 0 minutes 34 seconds 628 msec
