                         Program Version 6.0.0  -   RELEASE  -
|  1> ! pbe def2-sv(p) def2/J RI DEFGRID1 loosescf d4 GCP(DFT/SV(P)) printgap
|  2> %output
|  3>     printlevel normal
|  4> end
|  5> * xyz 0 1
|  6> C -1.9545647692 -1.251589654 -0.3504933745
|  7> C -1.2660007495 -0.4113272454 0.7386225874
|  8> H -1.9410968307 -0.3433843118 1.59767987
|  9> C -0.9835224722 1.0256703855 0.2575139572
| 10> H -1.3911069254 1.1430436619 -0.7583117105
| 11> C 0.5275686654 1.2804147073 0.2007171167
| 12> H 0.9044431182 1.4301770193 1.2191950803
| 13> C 1.2438112049 0.074706834 -0.4197950485
| 14> H 0.8220772033 -0.1383887911 -1.4138696598
| 15> C 1.0191586278 -1.158134556 0.4652863982
| 16> H 1.8631132514 -1.2266012659 1.1687685927
| 17> O -0.1142018256 -1.0340411999 1.2928734603
| 18> O 0.9536986562 -2.2858294977 -0.3449740995
| 19> O 2.6276561686 0.3025180422 -0.5143585012
| 20> O 0.8371109669 2.4617217925 -0.4980572978
| 21> O -1.6288942981 1.917710554 1.1356213786
| 22> O -1.3979205976 -0.9881600917 -1.6204491695
| 23> H -3.0202166388 -0.9874733677 -0.3510598126
| 24> H -1.8431708637 -2.3066496157 -0.0829084694
| 25> H 1.0117290146 -3.0879419774 0.1959969032
| 26> H 2.763182329 1.2345383135 -0.7558723541
| 27> H 0.492373416 2.3997999381 -1.402604425
| 28> H -1.3469257958 2.8223403762 0.930669958
| 29> H -1.7475550626 -1.6285482221 -2.2554644563
| 30> *
| 31>
| 32>                          ****END OF INPUT****

CARTESIAN COORDINATES (ANGSTROEM)
---------------------------------
  C     -1.954565   -1.251590   -0.350493
  C     -1.266001   -0.411327    0.738623
  H     -1.941097   -0.343384    1.597680
  C     -0.983522    1.025670    0.257514
  H     -1.391107    1.143044   -0.758312
  C      0.527569    1.280415    0.200717
  H      0.904443    1.430177    1.219195
  C      1.243811    0.074707   -0.419795
  H      0.822077   -0.138389   -1.413870
  C      1.019159   -1.158135    0.465286
  H      1.863113   -1.226601    1.168769
  O     -0.114202   -1.034041    1.292873
  O      0.953699   -2.285829   -0.344974
  O      2.627656    0.302518   -0.514359
  O      0.837111    2.461722   -0.498057
  O     -1.628894    1.917711    1.135621
  O     -1.397921   -0.988160   -1.620449
  H     -3.020217   -0.987473   -0.351060
  H     -1.843171   -2.306650   -0.082908
  H      1.011729   -3.087942    0.195997
  H      2.763182    1.234538   -0.755872
  H      0.492373    2.399800   -1.402604
  H     -1.346926    2.822340    0.930670
  H     -1.747555   -1.628548   -2.255464

 Total Charge           Charge          ....    0
 Multiplicity           Mult            ....    1
 Number of Electrons    NEL             ....   96
 Basis Dimension        Dim             ....  192

ORBITAL ENERGIES
----------------

  NO   OCC          E(Eh)            E(eV)
   0   2.0000     -18.768357      -510.7130
   1   2.0000     -18.758381      -510.4415
   2   2.0000     -18.757938      -510.4294
   3   2.0000     -18.751598      -510.2569
   4   2.0000     -18.745276      -510.0849
   5   2.0000     -18.737273      -509.8671
   6   2.0000      -9.975582      -271.4494
   7   2.0000      -9.942701      -270.5546
   8   2.0000      -9.938685      -270.4454
   9   2.0000      -9.938020      -270.4273
  10   2.0000      -9.935458      -270.3576
  11   2.0000      -9.928045      -270.1558
  12   2.0000      -0.971259       -26.4293
  13   2.0000      -0.950117       -25.8540
  14   2.0000      -0.931202       -25.3393
  15   2.0000      -0.922095       -25.0915
  16   2.0000      -0.908823       -24.7303
  17   2.0000      -0.903212       -24.5777
  18   2.0000      -0.700640       -19.0654
  19   2.0000      -0.686405       -18.6780
  20   2.0000      -0.619879       -16.8678
  21   2.0000      -0.579681       -15.7739
  22   2.0000      -0.564401       -15.3581
  23   2.0000      -0.517370       -14.0783
  24   2.0000      -0.499512       -13.5924
  25   2.0000      -0.471915       -12.8415
  26   2.0000      -0.468981       -12.7616
  27   2.0000      -0.460679       -12.5357
  28   2.0000      -0.455349       -12.3907
  29   2.0000      -0.416867       -11.3435
  30   2.0000      -0.405261       -11.0277
  31   2.0000      -0.396832       -10.7983
  32   2.0000      -0.389498       -10.5988
  33   2.0000      -0.373896       -10.1742
  34   2.0000      -0.354845        -9.6558
  35   2.0000      -0.347693        -9.4612
  36   2.0000      -0.323967        -8.8156
  37   2.0000      -0.313415        -8.5285
  38   2.0000      -0.298957        -8.1350
  39   2.0000      -0.288964        -7.8631
  40   2.0000      -0.282404        -7.6846
  41   2.0000      -0.253336        -6.8936
  42   2.0000      -0.248861        -6.7719
  43   2.0000      -0.240575        -6.5464
  44   2.0000      -0.228123        -6.2075
  45   2.0000      -0.219705        -5.9785
  46   2.0000      -0.212610        -5.7854
  47   2.0000      -0.197549        -5.3756
  48   0.0000       0.015488         0.4214
  49   0.0000       0.019007         0.5172
  50   0.0000       0.039856         1.0845
  51   0.0000       0.053426         1.4538
  52   0.0000       0.060233         1.6390

MULLIKEN ATOMIC CHARGES
-----------------------
   0 C :    0.028721
   1 C :    0.033634
   2 H :    0.086891
   3 C :    0.082774
   4 H :    0.056518
   5 C :    0.006191
   6 H :    0.070018
   7 C :    0.007955
   8 H :    0.070838
   9 C :    0.219427
  10 H :    0.063689
  11 O :   -0.312833
  12 O :   -0.384589
  13 O :   -0.415777
  14 O :   -0.424597
  15 O :   -0.416951
  16 O :   -0.424319
  17 H :    0.078994
  18 H :    0.072523
  19 H :    0.298011
  20 H :    0.296058
  21 H :    0.300255
  22 H :    0.299968
  23 H :    0.306599
Sum of atomic charges:    0.0000000

LOEWDIN ATOMIC CHARGES
----------------------
   0 C :   -0.135863
   1 C :   -0.053436
   2 H :    0.130826
   3 C :   -0.074390
   4 H :    0.100711
   5 C :   -0.087553
   6 H :    0.121501
   7 C :   -0.093462
   8 H :    0.108500
   9 C :    0.001532
  10 H :    0.102031
  11 O :   -0.148990
  12 O :   -0.302893
  13 O :   -0.322104
  14 O :   -0.311625
  15 O :   -0.323337
  16 O :   -0.333202
  17 H :    0.101935
  18 H :    0.102302
  19 H :    0.283529
  20 H :    0.276406
  21 H :    0.284846
  22 H :    0.282676
  23 H :    0.290061

  Mayer bond orders larger than 0.100000
B(  0-C ,  1-C ) :   1.0589 B(  0-C , 16-O ) :   1.0635 B(  0-C , 17-H ) :   0.9109
B(  0-C , 18-H ) :   0.9062 B(  1-C ,  2-H ) :   0.8887 B(  1-C ,  3-C ) :   0.9893
B(  1-C , 11-O ) :   1.0510 B(  3-C ,  4-H ) :   0.8691 B(  3-C ,  5-C ) :   1.0339
B(  3-C , 15-O ) :   1.0646 B(  5-C ,  6-H ) :   0.8513 B(  5-C ,  7-C ) :   1.0287
B(  5-C , 14-O ) :   1.0089 B(  7-C ,  8-H ) :   0.8606 B(  7-C ,  9-C ) :   0.9911
B(  7-C , 13-O ) :   1.0793 B(  9-C , 10-H ) :   0.8858 B(  9-C , 11-O ) :   1.0469
B(  9-C , 12-O ) :   1.1488 B( 12-O , 19-H ) :   0.8434 B( 13-O , 20-H ) :   0.8294
B( 14-O , 21-H ) :   0.8449 B( 15-O , 22-H ) :   0.8419 B( 16-O , 23-H ) :   0.8452

Dispersion correction           -0.025220845
FINAL SINGLE POINT ENERGY      -685.689877642881

DIPOLE MOMENT
-------------

Method             : SCF
Type of density    : Electron Density
Multiplicity       :   1
Irrep              :   0
Energy             :  -685.8203283022345431 Eh
Relativity type    :
Basis              : AO
                                X                 Y                 Z
Electronic contribution:      2.467638137       0.410317656       1.051210289
Nuclear contribution   :     -3.201957533      -0.640942569      -1.797960896
                        -----------------------------------------
Total Dipole Moment    :     -0.734319396      -0.230624913      -0.746750607
                        -----------------------------------------
Magnitude (a.u.)       :      1.072403514
Magnitude (Debye)      :      2.725833106

Rotational constants in cm-1:             0.034838             0.033158             0.022496
Rotational constants in MHz :          1044.422813           994.051815           674.422479

                             ****ORCA TERMINATED NORMALLY****
TOTAL RUN TIME: 0 days 0 hours 0 minutes 12 seconds 46 msec
