                         Program Version 6.0.0  -   RELEASE  -
|  1> ! r2scan-3c def2/J RI DEFGRID2 scfconv6 printgap
|  2> %output
|  3>     printlevel normal
|  4> end
|  5> %cpcm
|  6>     smd true
|  7>     smdsolvent "water"
|  8> end
|  9> * xyz 0 1
| 10> C -2.5831954501 -0.7018065241 0.6285202312
| 11> C -1.4689855588 -0.0225166204 -0.1178949716
| 12> O -1.5022511706 0.1027226571 -1.3259702467
| 13> C -0.3511478401 0.5304506541 0.7476710778
| 14> C 0.5478857469 1.5156110304 -0.0090272556
| 15> C 1.4284158578 0.8235103815 -1.0480143186
| 16> C 2.2524066585 -0.291785378 -0.4136309816
| 17> C 1.3310988846 -1.2945331411 0.2731396908
| 18> C 0.508464257 -0.5945279187 1.3492932125
| 19> H -2.1952140603 -1.4288070704 1.3346979801
| 20> H -3.1352131851 0.0498506762 1.1885944565
| 21> H -3.256202071 -1.1865824921 -0.0734275768
| 22> H -0.8378080348 1.0596698764 1.57447103
| 23> H -0.0748836965 2.2629984657 -0.5054899478
| 24> H 1.1835267172 2.0292919293 0.7156281333
| 25> H 0.7949449505 0.4062615268 -1.8321879637
| 26> H 2.0884215644 1.561200727 -1.5090578103
| 27> H 2.8476874747 -0.7925027926 -1.1792735808
| 28> H 2.9384714532 0.1329983215 0.3231066004
| 29> H 0.6640963385 -1.7401281528 -0.469198422
| 30> H 1.9188555547 -2.0963422558 0.7240762238
| 31> H -0.1173580209 -1.3165034444 1.8738335702
| 32> H 1.1865211704 -0.147813801 2.0792293156
| 33> *
| 34>
| 35>                          ****END OF INPUT****

CARTESIAN COORDINATES (ANGSTROEM)
---------------------------------
  C     -2.583195   -0.701807    0.628520
  C     -1.468986   -0.022517   -0.117895
  O     -1.502251    0.102723   -1.325970
  C     -0.351148    0.530451    0.747671
  C      0.547886    1.515611   -0.009027
  C      1.428416    0.823510   -1.048014
  C      2.252407   -0.291785   -0.413631
  C      1.331099   -1.294533    0.273140
  C      0.508464   -0.594528    1.349293
  H     -2.195214   -1.428807    1.334698
  H     -3.135213    0.049851    1.188594
  H     -3.256202   -1.186582   -0.073428
  H     -0.837808    1.059670    1.574471
  H     -0.074884    2.262998   -0.505490
  H      1.183527    2.029292    0.715628
  H      0.794945    0.406262   -1.832188
  H      2.088422    1.561201   -1.509058
  H      2.847687   -0.792503   -1.179274
  H      2.938471    0.132998    0.323107
  H      0.664096   -1.740128   -0.469198
  H      1.918856   -2.096342    0.724076
  H     -0.117358   -1.316503    1.873834
  H      1.186521   -0.147814    2.079229

 Total Charge           Charge          ....    0
 Multiplicity           Mult            ....    1
 Number of Electrons    NEL             ....   70
 Basis Dimension        Dim             ....  246

ORBITAL ENERGIES
----------------

  NO   OCC          E(Eh)            E(eV)
   0   2.0000     -18.944613      -515.5091
   1   2.0000     -10.121788      -275.4279
   2   2.0000     -10.033936      -273.0373
   3   2.0000     -10.024047      -272.7682
   4   2.0000     -10.020607      -272.6746
   5   2.0000     -10.017349      -272.5859
   6   2.0000     -10.015785      -272.5434
   7   2.0000     -10.012849      -272.4635
   8   2.0000     -10.010779      -272.4071
   9   2.0000      -1.013931       -27.5905
  10   2.0000      -0.798613       -21.7314
  11   2.0000      -0.730000       -19.8643
  12   2.0000      -0.702543       -19.1172
  13   2.0000      -0.687929       -18.7195
  14   2.0000      -0.587704       -15.9922
  15   2.0000      -0.567441       -15.4409
  16   2.0000      -0.531774       -14.4703
  17   2.0000      -0.476571       -12.9682
  18   2.0000      -0.451607       -12.2888
  19   2.0000      -0.429957       -11.6997
  20   2.0000      -0.422113       -11.4863
  21   2.0000      -0.409810       -11.1515
  22   2.0000      -0.391774       -10.6607
  23   2.0000      -0.386639       -10.5210
  24   2.0000      -0.366838        -9.9822
  25   2.0000      -0.347929        -9.4676
  26   2.0000      -0.338775        -9.2185
  27   2.0000      -0.334931        -9.1139
  28   2.0000      -0.327836        -8.9209
  29   2.0000      -0.323723        -8.8090
  30   2.0000      -0.302968        -8.2442
  31   2.0000      -0.286588        -7.7984
  32   2.0000      -0.262154        -7.1336
  33   2.0000      -0.260632        -7.0922
  34   2.0000      -0.216397        -5.8885
  35   0.0000      -0.047812        -1.3010
  36   0.0000       0.076884         2.0921
  37   0.0000       0.106808         2.9064
  38   0.0000       0.120975         3.2919
  39   0.0000       0.121932         3.3179

MULLIKEN ATOMIC CHARGES
-----------------------
   0 C :   -0.561356
   1 C :    0.245612
   2 O :   -0.443314
   3 C :    0.088011
   4 C :   -0.372984
   5 C :   -0.331026
   6 C :   -0.326762
   7 C :   -0.263522
   8 C :   -0.407340
   9 H :    0.185852
  10 H :    0.200301
  11 H :    0.180433
  12 H :    0.182146
  13 H :    0.155585
  14 H :    0.171826
  15 H :    0.175036
  16 H :    0.152944
  17 H :    0.155465
  18 H :    0.153526
  19 H :    0.157989
  20 H :    0.161011
  21 H :    0.167680
  22 H :    0.172887
Sum of atomic charges:   -0.0000000

LOEWDIN ATOMIC CHARGES
----------------------
   0 C :   -0.381436
   1 C :    0.239999
   2 O :   -0.545988
   3 C :   -0.198948
   4 C :   -0.283192
   5 C :   -0.303390
   6 C :   -0.304352
   7 C :   -0.299600
   8 C :   -0.274635
   9 H :    0.181678
  10 H :    0.190203
  11 H :    0.173892
  12 H :    0.188283
  13 H :    0.165890
  14 H :    0.164198
  15 H :    0.168585
  16 H :    0.155202
  17 H :    0.156138
  18 H :    0.156600
  19 H :    0.161039
  20 H :    0.158959
  21 H :    0.163670
  22 H :    0.167202

  Mayer bond orders larger than 0.100000
B(  0-C ,  1-C ) :   0.9318 B(  0-C ,  9-H ) :   0.9403 B(  0-C , 10-H ) :   0.9322
B(  0-C , 11-H ) :   0.9870 B(  1-C ,  2-O ) :   1.8678 B(  1-C ,  3-C ) :   0.8598
B(  3-C ,  4-C ) :   0.9150 B(  3-C ,  8-C ) :   0.8763 B(  3-C , 12-H ) :   0.9053
B(  4-C ,  5-C ) :   0.8974 B(  4-C , 13-H ) :   0.9577 B(  4-C , 14-H ) :   0.9814
B(  5-C ,  6-C ) :   0.9073 B(  5-C , 15-H ) :   0.9926 B(  5-C , 16-H ) :   0.9415
B(  6-C ,  7-C ) :   0.8975 B(  6-C , 17-H ) :   0.9448 B(  6-C , 18-H ) :   1.0017
B(  7-C ,  8-C ) :   0.8820 B(  7-C , 19-H ) :   0.9828 B(  7-C , 20-H ) :   0.9364
B(  8-C , 21-H ) :   0.9505 B(  8-C , 22-H ) :   0.9857

Dispersion correction           -0.007600856
FINAL SINGLE POINT ENERGY      -388.411925543599

DIPOLE MOMENT
-------------

Method             : SCF
Type of density    : Electron Density
Multiplicity       :   1
Irrep              :   0
Energy             :  -388.4143474918376455 Eh
Relativity type    :
Basis              : AO
                                X                 Y                 Z
Electronic contribution:     -3.618423936       0.955443090      -2.263764741
Nuclear contribution   :      3.735868801      -1.130287943       3.962851108
                        -----------------------------------------
Total Dipole Moment    :      0.117444865      -0.174844853       1.699086367
                        -----------------------------------------
Magnitude (a.u.)       :      1.712091850
Magnitude (Debye)      :      4.351791640

Rotational constants in cm-1:             0.086582             0.044120             0.038152
Rotational constants in MHz :          2595.671299          1322.698686          1143.773634

                             ****ORCA TERMINATED NORMALLY****
TOTAL RUN TIME: 0 days 0 hours 0 minutes 39 seconds 208 msec
