                         Program Version 6.0.0  -   RELEASE  -
|  1> ! r2scan-3c def2/J RI DEFGRID2 scfconv6 printgap
|  2> %output
|  3>     printlevel normal
|  4> end
|  5> %cpcm
|  6>     smd true
|  7>     smdsolvent "water"
|  8> end
|  9> * xyz 0 1
| 10> C 1.3856669931 -1.2052290493 0.1662476613
| 11> C 0.430770477 -0.1387465087 -0.3696634893
| 12> C 0.9295407813 1.2558666062 0.0153782544
| 13> C -0.9690282553 -0.3929374551 0.126866403
| 14> C -1.9852153425 0.4445902769 0.0319572407
| 15> H 1.4255195784 -1.1629935708 1.252870846
| 16> H 2.3899074012 -1.046955969 -0.2201191898
| 17> H 1.0571481423 -2.1987819545 -0.1305182049
| 18> H 0.4183441873 -0.2069695474 -1.465505511
| 19> H 0.9060536441 1.3770351034 1.0962154439
| 20> H 1.9520751204 1.3952103089 -0.3274905772
| 21> H 0.3118950328 2.0291228131 -0.4316586136
| 22> H -1.1241442513 -1.3598490572 0.5883253152
| 23> H -2.9616512392 0.1924465955 0.4096460541
| 24> H -1.8934342097 1.4161506436 -0.4236490736
| 25> *
| 26>
| 27>                          ****END OF INPUT****

CARTESIAN COORDINATES (ANGSTROEM)
---------------------------------
  C      1.385667   -1.205229    0.166248
  C      0.430770   -0.138747   -0.369663
  C      0.929541    1.255867    0.015378
  C     -0.969028   -0.392937    0.126866
  C     -1.985215    0.444590    0.031957
  H      1.425520   -1.162994    1.252871
  H      2.389907   -1.046956   -0.220119
  H      1.057148   -2.198782   -0.130518
  H      0.418344   -0.206970   -1.465506
  H      0.906054    1.377035    1.096215
  H      1.952075    1.395210   -0.327491
  H      0.311895    2.029123   -0.431659
  H     -1.124144   -1.359849    0.588325
  H     -2.961651    0.192447    0.409646
  H     -1.893434    1.416151   -0.423649

 Total Charge           Charge          ....    0
 Multiplicity           Mult            ....    1
 Number of Electrons    NEL             ....   40
 Basis Dimension        Dim             ....  145

ORBITAL ENERGIES
----------------

  NO   OCC          E(Eh)            E(eV)
   0   2.0000     -10.032788      -273.0061
   1   2.0000     -10.028476      -272.8887
   2   2.0000     -10.013222      -272.4736
   3   2.0000     -10.009506      -272.3725
   4   2.0000     -10.008840      -272.3544
   5   2.0000      -0.777522       -21.1574
   6   2.0000      -0.701355       -19.0848
   7   2.0000      -0.644543       -17.5389
   8   2.0000      -0.570878       -15.5344
   9   2.0000      -0.503789       -13.7088
  10   2.0000      -0.430620       -11.7178
  11   2.0000      -0.417424       -11.3587
  12   2.0000      -0.402015       -10.9394
  13   2.0000      -0.355610        -9.6766
  14   2.0000      -0.348118        -9.4728
  15   2.0000      -0.334338        -9.0978
  16   2.0000      -0.311893        -8.4870
  17   2.0000      -0.297385        -8.0923
  18   2.0000      -0.284895        -7.7524
  19   2.0000      -0.234643        -6.3850
  20   0.0000      -0.016821        -0.4577
  21   0.0000       0.100044         2.7223
  22   0.0000       0.128279         3.4906
  23   0.0000       0.133491         3.6325
  24   0.0000       0.144968         3.9448

MULLIKEN ATOMIC CHARGES
-----------------------
   0 C :   -0.542060
   1 C :    0.058723
   2 C :   -0.528030
   3 C :   -0.210317
   4 C :   -0.403916
   5 H :    0.162348
   6 H :    0.158434
   7 H :    0.158401
   8 H :    0.164232
   9 H :    0.161641
  10 H :    0.155710
  11 H :    0.159076
  12 H :    0.178158
  13 H :    0.166612
  14 H :    0.160986
Sum of atomic charges:    0.0000000

LOEWDIN ATOMIC CHARGES
----------------------
   0 C :   -0.422992
   1 C :   -0.242271
   2 C :   -0.415110
   3 C :   -0.198193
   4 C :   -0.331425
   5 H :    0.157433
   6 H :    0.156464
   7 H :    0.156751
   8 H :    0.170894
   9 H :    0.158214
  10 H :    0.156698
  11 H :    0.156509
  12 H :    0.171065
  13 H :    0.162953
  14 H :    0.163011

  Mayer bond orders larger than 0.100000
B(  0-C ,  1-C ) :   0.8936 B(  0-C ,  5-H ) :   0.9834 B(  0-C ,  6-H ) :   0.9747
B(  0-C ,  7-H ) :   0.9712 B(  1-C ,  2-C ) :   0.8946 B(  1-C ,  3-C ) :   0.8869
B(  1-C ,  8-H ) :   0.9433 B(  2-C ,  9-H ) :   0.9836 B(  2-C , 10-H ) :   0.9717
B(  2-C , 11-H ) :   0.9654 B(  3-C ,  4-C ) :   1.9151 B(  3-C , 12-H ) :   0.9522
B(  4-C , 13-H ) :   0.9633 B(  4-C , 14-H ) :   0.9747

Dispersion correction           -0.003438394
FINAL SINGLE POINT ENERGY      -196.454308358586

DIPOLE MOMENT
-------------

Method             : SCF
Type of density    : Electron Density
Multiplicity       :   1
Irrep              :   0
Energy             :  -196.4569420679934524 Eh
Relativity type    :
Basis              : AO
                                X                 Y                 Z
Electronic contribution:     -2.136203482      -0.450705127      -0.419180717
Nuclear contribution   :      2.328272678       0.407556096       0.326592953
                        -----------------------------------------
Total Dipole Moment    :      0.192069197      -0.043149031      -0.092587764
                        -----------------------------------------
Magnitude (a.u.)       :      0.217542891
Magnitude (Debye)      :      0.552950084

Rotational constants in cm-1:             0.262400             0.125911             0.092415
Rotational constants in MHz :          7866.560225          3774.724125          2770.524057

                             ****ORCA TERMINATED NORMALLY****
TOTAL RUN TIME: 0 days 0 hours 0 minutes 14 seconds 200 msec
