                         Program Version 6.0.0  -   RELEASE  -
|  1> ! pbe def2-sv(p) def2/J RI DEFGRID1 loosescf d4 GCP(DFT/SV(P)) printgap
|  2> %output
|  3>     printlevel normal
|  4> end
|  5> * xyz 0 1
|  6> C -1.9724338178 -0.2799340887 -0.9763521848
|  7> C -1.4395757531 -0.1724565323 0.4845751862
|  8> H -2.270340345 -0.3302047376 1.1825377503
|  9> C -0.8118296491 1.2038939413 0.7477082263
| 10> H -1.5255936492 1.9806635212 0.4412279427
| 11> C 0.4588058237 1.4024525254 -0.0974682103
| 12> H 1.1793146521 1.9526939989 0.5260363103
| 13> C 1.1082975533 0.0590278884 -0.4597088409
| 14> H 0.6632148173 -0.3408337195 -1.3827695347
| 15> C 0.8404339811 -0.9518594633 0.660456995
| 16> H 1.227573366 -0.5392188336 1.6127065966
| 17> O -0.5364636796 -1.2243355318 0.8040089313
| 18> O 1.4931510243 -2.1301310534 0.3345208139
| 19> O 2.4868098803 0.2722768341 -0.6312333067
| 20> O 0.1164966768 2.1483696602 -1.2380574
| 21> O -0.4497114685 1.3572034094 2.0995236112
| 22> O -1.5410200651 -1.4421093462 -1.6336619691
| 23> H -1.6037288205 0.5573458398 -1.5720401686
| 24> H -3.0688753744 -0.2377330017 -0.957530729
| 25> H 1.2787211363 -2.8152137137 0.9852711638
| 26> H 2.9199720749 -0.5877939217 -0.7416923159
| 27> H 0.9210388213 2.3350245312 -1.7435694
| 28> H -1.2440614453 1.3781108631 2.6535710269
| 29> H -1.7430896558 -2.2102258939 -1.0794061588
| 30> *
| 31>
| 32>                          ****END OF INPUT****

CARTESIAN COORDINATES (ANGSTROEM)
---------------------------------
  C     -1.972434   -0.279934   -0.976352
  C     -1.439576   -0.172457    0.484575
  H     -2.270340   -0.330205    1.182538
  C     -0.811830    1.203894    0.747708
  H     -1.525594    1.980664    0.441228
  C      0.458806    1.402453   -0.097468
  H      1.179315    1.952694    0.526036
  C      1.108298    0.059028   -0.459709
  H      0.663215   -0.340834   -1.382770
  C      0.840434   -0.951859    0.660457
  H      1.227573   -0.539219    1.612707
  O     -0.536464   -1.224336    0.804009
  O      1.493151   -2.130131    0.334521
  O      2.486810    0.272277   -0.631233
  O      0.116497    2.148370   -1.238057
  O     -0.449711    1.357203    2.099524
  O     -1.541020   -1.442109   -1.633662
  H     -1.603729    0.557346   -1.572040
  H     -3.068875   -0.237733   -0.957531
  H      1.278721   -2.815214    0.985271
  H      2.919972   -0.587794   -0.741692
  H      0.921039    2.335025   -1.743569
  H     -1.244061    1.378111    2.653571
  H     -1.743090   -2.210226   -1.079406

 Total Charge           Charge          ....    0
 Multiplicity           Mult            ....    1
 Number of Electrons    NEL             ....   96
 Basis Dimension        Dim             ....  192

ORBITAL ENERGIES
----------------

  NO   OCC          E(Eh)            E(eV)
   0   2.0000     -18.763010      -510.5675
   1   2.0000     -18.762250      -510.5468
   2   2.0000     -18.758738      -510.4512
   3   2.0000     -18.753679      -510.3136
   4   2.0000     -18.745966      -510.1037
   5   2.0000     -18.743306      -510.0313
   6   2.0000      -9.977431      -271.4997
   7   2.0000      -9.947850      -270.6948
   8   2.0000      -9.944764      -270.6108
   9   2.0000      -9.940626      -270.4982
  10   2.0000      -9.929260      -270.1889
  11   2.0000      -9.925202      -270.0785
  12   2.0000      -0.978650       -26.6304
  13   2.0000      -0.941356       -25.6156
  14   2.0000      -0.933442       -25.4002
  15   2.0000      -0.923581       -25.1319
  16   2.0000      -0.915156       -24.9027
  17   2.0000      -0.903092       -24.5744
  18   2.0000      -0.706397       -19.2221
  19   2.0000      -0.682857       -18.5815
  20   2.0000      -0.614868       -16.7314
  21   2.0000      -0.580708       -15.8019
  22   2.0000      -0.565102       -15.3772
  23   2.0000      -0.514082       -13.9889
  24   2.0000      -0.501810       -13.6549
  25   2.0000      -0.490955       -13.3596
  26   2.0000      -0.477783       -13.0011
  27   2.0000      -0.453984       -12.3535
  28   2.0000      -0.434121       -11.8130
  29   2.0000      -0.425713       -11.5842
  30   2.0000      -0.412044       -11.2123
  31   2.0000      -0.394983       -10.7480
  32   2.0000      -0.385522       -10.4906
  33   2.0000      -0.370190       -10.0734
  34   2.0000      -0.362908        -9.8752
  35   2.0000      -0.351119        -9.5544
  36   2.0000      -0.322205        -8.7676
  37   2.0000      -0.321238        -8.7413
  38   2.0000      -0.305024        -8.3001
  39   2.0000      -0.281646        -7.6640
  40   2.0000      -0.276145        -7.5143
  41   2.0000      -0.270070        -7.3490
  42   2.0000      -0.244145        -6.6435
  43   2.0000      -0.233290        -6.3481
  44   2.0000      -0.227222        -6.1830
  45   2.0000      -0.222042        -6.0421
  46   2.0000      -0.207761        -5.6535
  47   2.0000      -0.200954        -5.4682
  48   0.0000       0.014443         0.3930
  49   0.0000       0.024993         0.6801
  50   0.0000       0.037054         1.0083
  51   0.0000       0.041535         1.1302
  52   0.0000       0.060861         1.6561

MULLIKEN ATOMIC CHARGES
-----------------------
   0 C :    0.027717
   1 C :    0.009828
   2 H :    0.047866
   3 C :    0.018904
   4 H :    0.081882
   5 C :    0.084654
   6 H :    0.078228
   7 C :    0.009741
   8 H :    0.074467
   9 C :    0.201201
  10 H :    0.050065
  11 O :   -0.324998
  12 O :   -0.394590
  13 O :   -0.428166
  14 O :   -0.410317
  15 O :   -0.411165
  16 O :   -0.421980
  17 H :    0.112975
  18 H :    0.070375
  19 H :    0.307743
  20 H :    0.307761
  21 H :    0.311034
  22 H :    0.303050
  23 H :    0.293723
Sum of atomic charges:   -0.0000000

LOEWDIN ATOMIC CHARGES
----------------------
   0 C :   -0.149472
   1 C :   -0.075253
   2 H :    0.102579
   3 C :   -0.069549
   4 H :    0.112838
   5 C :   -0.056210
   6 H :    0.117306
   7 C :   -0.097020
   8 H :    0.117112
   9 C :   -0.006479
  10 H :    0.088552
  11 O :   -0.159253
  12 O :   -0.304974
  13 O :   -0.323294
  14 O :   -0.312539
  15 O :   -0.313084
  16 O :   -0.323125
  17 H :    0.117905
  18 H :    0.097078
  19 H :    0.290938
  20 H :    0.286993
  21 H :    0.293143
  22 H :    0.288093
  23 H :    0.277714

  Mayer bond orders larger than 0.100000
B(  0-C ,  1-C ) :   0.9695 B(  0-C , 16-O ) :   1.0762 B(  0-C , 17-H ) :   0.9111
B(  0-C , 18-H ) :   0.9151 B(  1-C ,  2-H ) :   0.8899 B(  1-C ,  3-C ) :   1.0462
B(  1-C , 11-O ) :   1.0518 B(  3-C ,  4-H ) :   0.8903 B(  3-C ,  5-C ) :   1.0104
B(  3-C , 15-O ) :   1.0307 B(  5-C ,  6-H ) :   0.8611 B(  5-C ,  7-C ) :   1.0507
B(  5-C , 14-O ) :   1.0574 B(  7-C ,  8-H ) :   0.8320 B(  7-C ,  9-C ) :   1.0600
B(  7-C , 13-O ) :   1.0665 B(  9-C , 10-H ) :   0.8838 B(  9-C , 11-O ) :   0.9993
B(  9-C , 12-O ) :   1.1488 B( 12-O , 19-H ) :   0.8411 B( 13-O , 20-H ) :   0.8354
B( 14-O , 21-H ) :   0.8424 B( 15-O , 22-H ) :   0.8473 B( 16-O , 23-H ) :   0.8412

Dispersion correction           -0.025415736
FINAL SINGLE POINT ENERGY      -685.684492051973

DIPOLE MOMENT
-------------

Method             : SCF
Type of density    : Electron Density
Multiplicity       :   1
Irrep              :   0
Energy             :  -685.8149113039869462 Eh
Relativity type    :
Basis              : AO
                                X                 Y                 Z
Electronic contribution:      2.505042552      -1.397373093       0.849975984
Nuclear contribution   :     -3.040679205       1.056875278      -0.074903970
                        -----------------------------------------
Total Dipole Moment    :     -0.535636653      -0.340497815       0.775072015
                        -----------------------------------------
Magnitude (a.u.)       :      1.001789406
Magnitude (Debye)      :      2.546346308

Rotational constants in cm-1:             0.032275             0.031643             0.026180
Rotational constants in MHz :           967.570529           948.640780           784.850308

                             ****ORCA TERMINATED NORMALLY****
TOTAL RUN TIME: 0 days 0 hours 0 minutes 11 seconds 771 msec
