                         Program Version 6.0.0  -   RELEASE  -
|  1> ! r2scan-3c def2/J RI DEFGRID2 scfconv6 printgap
|  2> %output
|  3>     printlevel normal
|  4> end
|  5> * xyz 0 1
|  6> C -2.5134169125 -0.1984148207 4.61508e-05
|  7> C -1.1613525913 0.3964042269 -9.92779e-05
|  8> C -0.016322079 -0.2988277379 -1.88185e-05
|  9> C 1.2726146017 0.3481691751 -3.07582e-05
| 10> O 2.3503568733 -0.2209775243 4.48297e-05
| 11> H -3.0638749247 0.1457621957 0.8745975278
| 12> H -2.4734042391 -1.2834346464 0.0004382803
| 13> H -3.0634973904 0.1451809279 -0.874944592
| 14> H -1.1155266037 1.4785910345 0.0006338527
| 15> H -0.0111038424 -1.3797734547 -9.62317e-05
| 16> H 1.2381946899 1.4541071326 -0.0001166063
| 17> *
| 18>
| 19>                          ****END OF INPUT****

CARTESIAN COORDINATES (ANGSTROEM)
---------------------------------
  C     -2.513417   -0.198415    0.000046
  C     -1.161353    0.396404   -0.000099
  C     -0.016322   -0.298828   -0.000019
  C      1.272615    0.348169   -0.000031
  O      2.350357   -0.220978    0.000045
  H     -3.063875    0.145762    0.874598
  H     -2.473404   -1.283435    0.000438
  H     -3.063497    0.145181   -0.874945
  H     -1.115527    1.478591    0.000634
  H     -0.011104   -1.379773   -0.000096
  H      1.238195    1.454107   -0.000117

 Total Charge           Charge          ....    0
 Multiplicity           Mult            ....    1
 Number of Electrons    NEL             ....   38
 Basis Dimension        Dim             ....  130

ORBITAL ENERGIES
----------------

  NO   OCC          E(Eh)            E(eV)
   0   2.0000     -18.939201      -515.3619
   1   2.0000     -10.111926      -275.1595
   2   2.0000     -10.075536      -274.1693
   3   2.0000     -10.051362      -273.5115
   4   2.0000     -10.047121      -273.3961
   5   2.0000      -0.999190       -27.1893
   6   2.0000      -0.796663       -21.6783
   7   2.0000      -0.704910       -19.1816
   8   2.0000      -0.582190       -15.8422
   9   2.0000      -0.543846       -14.7988
  10   2.0000      -0.462293       -12.5796
  11   2.0000      -0.424681       -11.5562
  12   2.0000      -0.413442       -11.2503
  13   2.0000      -0.387084       -10.5331
  14   2.0000      -0.371734       -10.1154
  15   2.0000      -0.365641        -9.9496
  16   2.0000      -0.351543        -9.5660
  17   2.0000      -0.262405        -7.1404
  18   2.0000      -0.218533        -5.9466
  19   0.0000      -0.091696        -2.4952
  20   0.0000       0.021528         0.5858
  21   0.0000       0.084068         2.2876
  22   0.0000       0.105118         2.8604
  23   0.0000       0.116593         3.1727

MULLIKEN ATOMIC CHARGES
-----------------------
   0 C :   -0.482549
   1 C :   -0.056068
   2 C :   -0.090440
   3 C :    0.056213
   4 O :   -0.342905
   5 H :    0.162185
   6 H :    0.160254
   7 H :    0.162205
   8 H :    0.160994
   9 H :    0.173835
  10 H :    0.096278
Sum of atomic charges:    0.0000000

LOEWDIN ATOMIC CHARGES
----------------------
   0 C :   -0.397303
   1 C :   -0.132481
   2 C :   -0.189629
   3 C :    0.186216
   4 O :   -0.462356
   5 H :    0.169383
   6 H :    0.162175
   7 H :    0.169396
   8 H :    0.166149
   9 H :    0.178228
  10 H :    0.150223

  Mayer bond orders larger than 0.100000
B(  0-C ,  1-C ) :   0.9016 B(  0-C ,  5-H ) :   0.9559 B(  0-C ,  6-H ) :   0.9939
B(  0-C ,  7-H ) :   0.9559 B(  1-C ,  2-C ) :   1.7393 B(  1-C ,  4-O ) :   0.1271
B(  1-C ,  8-H ) :   0.9297 B(  2-C ,  3-C ) :   1.0075 B(  2-C ,  9-H ) :   0.9355
B(  2-C , 10-H ) :  -0.1184 B(  3-C ,  4-O ) :   1.8623 B(  3-C , 10-H ) :   1.0207

Dispersion correction           -0.002175106
FINAL SINGLE POINT ENERGY      -231.174120315602

DIPOLE MOMENT
-------------

Method             : SCF
Type of density    : Electron Density
Multiplicity       :   1
Irrep              :   0
Energy             :  -231.1762276247444561 Eh
Relativity type    :
Basis              : AO
                                X                 Y                 Z
Electronic contribution:      6.250824557      -0.148128820      -0.000381099
Nuclear contribution   :     -7.929450090       0.522501961       0.000481227
                        -----------------------------------------
Total Dipole Moment    :     -1.678625533       0.374373140       0.000100128
                        -----------------------------------------
Magnitude (a.u.)       :      1.719865965
Magnitude (Debye)      :      4.371551871

Rotational constants in cm-1:             1.111261             0.073503             0.069824
Rotational constants in MHz :         33314.781143          2203.577087          2093.279883

                             ****ORCA TERMINATED NORMALLY****
TOTAL RUN TIME: 0 days 0 hours 0 minutes 13 seconds 514 msec
