                         Program Version 6.0.0  -   RELEASE  -
|  1> ! r2scan-3c def2/J RI DEFGRID2 scfconv6 printgap
|  2> %output
|  3>     printlevel normal
|  4> end
|  5> %cpcm
|  6>     smd true
|  7>     smdsolvent "water"
|  8> end
|  9> * xyz 0 1
| 10> C -2.5134169125 -0.1984148207 4.61508e-05
| 11> C -1.1613525913 0.3964042269 -9.92779e-05
| 12> C -0.016322079 -0.2988277379 -1.88185e-05
| 13> C 1.2726146017 0.3481691751 -3.07582e-05
| 14> O 2.3503568733 -0.2209775243 4.48297e-05
| 15> H -3.0638749247 0.1457621957 0.8745975278
| 16> H -2.4734042391 -1.2834346464 0.0004382803
| 17> H -3.0634973904 0.1451809279 -0.874944592
| 18> H -1.1155266037 1.4785910345 0.0006338527
| 19> H -0.0111038424 -1.3797734547 -9.62317e-05
| 20> H 1.2381946899 1.4541071326 -0.0001166063
| 21> *
| 22>
| 23>                          ****END OF INPUT****

CARTESIAN COORDINATES (ANGSTROEM)
---------------------------------
  C     -2.513417   -0.198415    0.000046
  C     -1.161353    0.396404   -0.000099
  C     -0.016322   -0.298828   -0.000019
  C      1.272615    0.348169   -0.000031
  O      2.350357   -0.220978    0.000045
  H     -3.063875    0.145762    0.874598
  H     -2.473404   -1.283435    0.000438
  H     -3.063497    0.145181   -0.874945
  H     -1.115527    1.478591    0.000634
  H     -0.011104   -1.379773   -0.000096
  H      1.238195    1.454107   -0.000117

 Total Charge           Charge          ....    0
 Multiplicity           Mult            ....    1
 Number of Electrons    NEL             ....   38
 Basis Dimension        Dim             ....  130

ORBITAL ENERGIES
----------------

  NO   OCC          E(Eh)            E(eV)
   0   2.0000     -18.949429      -515.6402
   1   2.0000     -10.116289      -275.2782
   2   2.0000     -10.064772      -273.8764
   3   2.0000     -10.035459      -273.0787
   4   2.0000     -10.027319      -272.8572
   5   2.0000      -1.012364       -27.5478
   6   2.0000      -0.783221       -21.3125
   7   2.0000      -0.689874       -18.7724
   8   2.0000      -0.572647       -15.5825
   9   2.0000      -0.533349       -14.5132
  10   2.0000      -0.453755       -12.3473
  11   2.0000      -0.427817       -11.6415
  12   2.0000      -0.392693       -10.6857
  13   2.0000      -0.382333       -10.4038
  14   2.0000      -0.372711       -10.1420
  15   2.0000      -0.360315        -9.8047
  16   2.0000      -0.332123        -9.0375
  17   2.0000      -0.256030        -6.9669
  18   2.0000      -0.230971        -6.2851
  19   0.0000      -0.088994        -2.4217
  20   0.0000       0.027204         0.7403
  21   0.0000       0.107903         2.9362
  22   0.0000       0.118269         3.2183
  23   0.0000       0.130161         3.5419

MULLIKEN ATOMIC CHARGES
-----------------------
   0 C :   -0.522322
   1 C :   -0.027421
   2 C :   -0.167720
   3 C :    0.101123
   4 O :   -0.459147
   5 H :    0.185307
   6 H :    0.177243
   7 H :    0.185320
   8 H :    0.197319
   9 H :    0.197881
  10 H :    0.132418
Sum of atomic charges:    0.0000000

LOEWDIN ATOMIC CHARGES
----------------------
   0 C :   -0.398959
   1 C :   -0.093440
   2 C :   -0.212187
   3 C :    0.198182
   4 O :   -0.555101
   5 H :    0.180626
   6 H :    0.167052
   7 H :    0.180640
   8 H :    0.180582
   9 H :    0.184563
  10 H :    0.168041

  Mayer bond orders larger than 0.100000
B(  0-C ,  1-C ) :   0.9034 B(  0-C ,  5-H ) :   0.9439 B(  0-C ,  6-H ) :   0.9909
B(  0-C ,  7-H ) :   0.9439 B(  1-C ,  2-C ) :   1.7303 B(  1-C ,  4-O ) :   0.1132
B(  1-C ,  8-H ) :   0.9211 B(  2-C ,  3-C ) :   1.0518 B(  2-C ,  9-H ) :   0.9227
B(  3-C ,  4-O ) :   1.7785 B(  3-C , 10-H ) :   0.9983

Dispersion correction           -0.002175106
FINAL SINGLE POINT ENERGY      -231.181820224172

DIPOLE MOMENT
-------------

Method             : SCF
Type of density    : Electron Density
Multiplicity       :   1
Irrep              :   0
Energy             :  -231.1839275333144883 Eh
Relativity type    :
Basis              : AO
                                X                 Y                 Z
Electronic contribution:      5.511125318       0.114656964      -0.000381774
Nuclear contribution   :     -7.929450090       0.522501961       0.000481227
                        -----------------------------------------
Total Dipole Moment    :     -2.418324772       0.637158924       0.000099453
                        -----------------------------------------
Magnitude (a.u.)       :      2.500853096
Magnitude (Debye)      :      6.356663398

Rotational constants in cm-1:             1.111261             0.073503             0.069824
Rotational constants in MHz :         33314.781143          2203.577087          2093.279883

                             ****ORCA TERMINATED NORMALLY****
TOTAL RUN TIME: 0 days 0 hours 0 minutes 15 seconds 529 msec
