                         Program Version 6.0.0  -   RELEASE  -
|  1> ! wb97x-v def2-tzvp def2/J RIJCOSX DEFGRID2 scfconv7 GCP(DFT/TZ) printgap
|  2> %output
|  3>     printlevel normal
|  4> end
|  5> * xyz 0 1
|  6> C -2.927329485608411 -0.0008500970638223047 -0.014536662997181512
|  7> C -1.423553975914725 0.0010481642217335177 0.010786186157336307
|  8> C -0.6955989045853114 1.194687082276554 0.008453853479699121
|  9> C 0.6951844979929539 1.2029509974600288 -0.0042871883540093435
| 10> C 1.4148973641614284 -3.844835470663627e-05 -0.01581774249126613
| 11> C 0.6938985996726238 -1.2029924594879675 -0.004149244011732314
| 12> C -0.6961599574230728 -1.1937713656845792 0.00888133745612681
| 13> N 2.807599721759412 -0.0012359899531918304 -0.09608239457777554
| 14> H -3.331341334386166 0.9223281669988831 0.4104924210406495
| 15> H -3.3075432084495016 -0.0829002838350377 -1.0402958510995837
| 16> H -3.3331320876914416 -0.8462100169927435 0.5491545981353365
| 17> H -1.2276255702150958 2.142828253323165 0.0210604194500978
| 18> H 1.2338899858938503 2.1470865851688608 -0.0012154090078918456
| 19> H 1.2321808049941378 -2.147390311930812 -0.0010921811495461908
| 20> H -1.2290002631796335 -2.1415459546344526 0.021617637231729988
| 21> H 3.2394443504351096 -0.8366409005880374 0.27420573850175295
| 22> H 3.2408273077609002 0.8340553140625793 0.2728346614278345
| 23> *
| 24>
| 25>                          ****END OF INPUT****

CARTESIAN COORDINATES (ANGSTROEM)
---------------------------------
  C     -2.927329   -0.000850   -0.014537
  C     -1.423554    0.001048    0.010786
  C     -0.695599    1.194687    0.008454
  C      0.695184    1.202951   -0.004287
  C      1.414897   -0.000038   -0.015818
  C      0.693899   -1.202992   -0.004149
  C     -0.696160   -1.193771    0.008881
  N      2.807600   -0.001236   -0.096082
  H     -3.331341    0.922328    0.410492
  H     -3.307543   -0.082900   -1.040296
  H     -3.333132   -0.846210    0.549155
  H     -1.227626    2.142828    0.021060
  H      1.233890    2.147087   -0.001215
  H      1.232181   -2.147390   -0.001092
  H     -1.229000   -2.141546    0.021618
  H      3.239444   -0.836641    0.274206
  H      3.240827    0.834055    0.272835

 Total Charge           Charge          ....    0
 Multiplicity           Mult            ....    1
 Number of Electrons    NEL             ....   58
 Basis Dimension        Dim             ....  302

ORBITAL ENERGIES
----------------

  NO   OCC          E(Eh)            E(eV)
   0   2.0000     -16.527935      -449.7480
   1   2.0000     -12.085367      -328.8596
   2   2.0000     -12.045240      -327.7676
   3   2.0000     -12.044054      -327.7354
   4   2.0000     -12.042576      -327.6952
   5   2.0000     -12.039944      -327.6235
   6   2.0000     -12.039548      -327.6128
   7   2.0000     -12.036542      -327.5310
   8   2.0000      -1.485996       -40.4360
   9   2.0000      -1.367970       -37.2243
  10   2.0000      -1.276479       -34.7347
  11   2.0000      -1.265151       -34.4265
  12   2.0000      -1.183337       -32.2002
  13   2.0000      -1.108660       -30.1682
  14   2.0000      -1.085422       -29.5358
  15   2.0000      -1.002588       -27.2818
  16   2.0000      -0.998368       -27.1670
  17   2.0000      -0.929586       -25.2953
  18   2.0000      -0.923842       -25.1390
  19   2.0000      -0.887550       -24.1515
  20   2.0000      -0.865016       -23.5383
  21   2.0000      -0.832630       -22.6570
  22   2.0000      -0.827146       -22.5078
  23   2.0000      -0.818434       -22.2707
  24   2.0000      -0.814336       -22.1592
  25   2.0000      -0.787711       -21.4347
  26   2.0000      -0.734607       -19.9897
  27   2.0000      -0.632789       -17.2191
  28   2.0000      -0.609141       -16.5756
  29   0.0000      -0.230886        -6.2827
  30   0.0000      -0.230278        -6.2662
  31   0.0000      -0.069701        -1.8966
  32   0.0000      -0.065349        -1.7782
  33   0.0000      -0.043092        -1.1726

MULLIKEN ATOMIC CHARGES
-----------------------
   0 C :   -0.363073
   1 C :    0.121771
   2 C :   -0.168642
   3 C :   -0.241011
   4 C :    0.282999
   5 C :   -0.239626
   6 C :   -0.168824
   7 N :   -0.448372
   8 H :    0.114582
   9 H :    0.120632
  10 H :    0.116022
  11 H :    0.109149
  12 H :    0.103307
  13 H :    0.103428
  14 H :    0.109954
  15 H :    0.223861
  16 H :    0.223842
Sum of atomic charges:    0.0000000

LOEWDIN ATOMIC CHARGES
----------------------
   0 C :   -0.258040
   1 C :   -0.188055
   2 C :   -0.117415
   3 C :   -0.136973
   4 C :   -0.242484
   5 C :   -0.136592
   6 C :   -0.116327
   7 N :   -0.059173
   8 H :    0.123103
   9 H :    0.124806
  10 H :    0.123369
  11 H :    0.143037
  12 H :    0.138951
  13 H :    0.138988
  14 H :    0.143349
  15 H :    0.159721
  16 H :    0.159733

  Mayer bond orders larger than 0.100000
B(  0-C ,  1-C ) :   0.9174 B(  0-C ,  8-H ) :   0.9948 B(  0-C ,  9-H ) :   0.9647
B(  0-C , 10-H ) :   0.9923 B(  1-C ,  2-C ) :   1.4013 B(  1-C ,  6-C ) :   1.3901
B(  2-C ,  3-C ) :   1.4871 B(  2-C , 11-H ) :   0.9725 B(  3-C ,  4-C ) :   1.3827
B(  3-C , 12-H ) :   0.9669 B(  4-C ,  5-C ) :   1.3782 B(  4-C ,  7-N ) :   1.0522
B(  5-C ,  6-C ) :   1.4915 B(  5-C , 13-H ) :   0.9671 B(  6-C , 14-H ) :   0.9745
B(  7-N , 15-H ) :   0.9307 B(  7-N , 16-H ) :   0.9308

FINAL SINGLE POINT ENERGY      -326.934305203964

DIPOLE MOMENT
-------------

Method             : SCF
Type of density    : Electron Density
Multiplicity       :   1
Irrep              :   0
Energy             :  -326.9438519716641167 Eh
Relativity type    :
Basis              : AO
                                X                 Y                 Z
Electronic contribution:      3.632578953       0.002401103      -0.153882795
Nuclear contribution   :     -3.292522807      -0.006824607       0.550846927
                        -----------------------------------------
Total Dipole Moment    :      0.340056146      -0.004423504       0.396964133
                        -----------------------------------------
Magnitude (a.u.)       :      0.522721984
Magnitude (Debye)      :      1.328653692

Rotational constants in cm-1:             0.182447             0.048515             0.038647
Rotational constants in MHz :          5469.616998          1454.449329          1158.599394

                             ****ORCA TERMINATED NORMALLY****
TOTAL RUN TIME: 0 days 0 hours 2 minutes 21 seconds 891 msec
