                         Program Version 6.0.0  -   RELEASE  -
|  1> ! wb97x-v def2-tzvp def2/J RIJCOSX DEFGRID2 scfconv7 GCP(DFT/TZ) printgap
|  2> %output
|  3>     printlevel normal
|  4> end
|  5> %cpcm
|  6>     smd true
|  7>     smdsolvent "water"
|  8> end
|  9> * xyz 0 1
| 10> C -2.927329485608411 -0.0008500970638223047 -0.014536662997181512
| 11> C -1.423553975914725 0.0010481642217335177 0.010786186157336307
| 12> C -0.6955989045853114 1.194687082276554 0.008453853479699121
| 13> C 0.6951844979929539 1.2029509974600288 -0.0042871883540093435
| 14> C 1.4148973641614284 -3.844835470663627e-05 -0.01581774249126613
| 15> C 0.6938985996726238 -1.2029924594879675 -0.004149244011732314
| 16> C -0.6961599574230728 -1.1937713656845792 0.00888133745612681
| 17> N 2.807599721759412 -0.0012359899531918304 -0.09608239457777554
| 18> H -3.331341334386166 0.9223281669988831 0.4104924210406495
| 19> H -3.3075432084495016 -0.0829002838350377 -1.0402958510995837
| 20> H -3.3331320876914416 -0.8462100169927435 0.5491545981353365
| 21> H -1.2276255702150958 2.142828253323165 0.0210604194500978
| 22> H 1.2338899858938503 2.1470865851688608 -0.0012154090078918456
| 23> H 1.2321808049941378 -2.147390311930812 -0.0010921811495461908
| 24> H -1.2290002631796335 -2.1415459546344526 0.021617637231729988
| 25> H 3.2394443504351096 -0.8366409005880374 0.27420573850175295
| 26> H 3.2408273077609002 0.8340553140625793 0.2728346614278345
| 27> *
| 28>
| 29>                          ****END OF INPUT****

CARTESIAN COORDINATES (ANGSTROEM)
---------------------------------
  C     -2.927329   -0.000850   -0.014537
  C     -1.423554    0.001048    0.010786
  C     -0.695599    1.194687    0.008454
  C      0.695184    1.202951   -0.004287
  C      1.414897   -0.000038   -0.015818
  C      0.693899   -1.202992   -0.004149
  C     -0.696160   -1.193771    0.008881
  N      2.807600   -0.001236   -0.096082
  H     -3.331341    0.922328    0.410492
  H     -3.307543   -0.082900   -1.040296
  H     -3.333132   -0.846210    0.549155
  H     -1.227626    2.142828    0.021060
  H      1.233890    2.147087   -0.001215
  H      1.232181   -2.147390   -0.001092
  H     -1.229000   -2.141546    0.021618
  H      3.239444   -0.836641    0.274206
  H      3.240827    0.834055    0.272835

 Total Charge           Charge          ....    0
 Multiplicity           Mult            ....    1
 Number of Electrons    NEL             ....   58
 Basis Dimension        Dim             ....  302

ORBITAL ENERGIES
----------------

  NO   OCC          E(Eh)            E(eV)
   0   2.0000     -16.518488      -449.4909
   1   2.0000     -12.085111      -328.8526
   2   2.0000     -12.046060      -327.7900
   3   2.0000     -12.043995      -327.7338
   4   2.0000     -12.042857      -327.7028
   5   2.0000     -12.039016      -327.5983
   6   2.0000     -12.038623      -327.5876
   7   2.0000     -12.031066      -327.3819
   8   2.0000      -1.478794       -40.2400
   9   2.0000      -1.369147       -37.2564
  10   2.0000      -1.275559       -34.7097
  11   2.0000      -1.266134       -34.4533
  12   2.0000      -1.180506       -32.1232
  13   2.0000      -1.107702       -30.1421
  14   2.0000      -1.082959       -29.4688
  15   2.0000      -0.998783       -27.1783
  16   2.0000      -0.991429       -26.9782
  17   2.0000      -0.925968       -25.1969
  18   2.0000      -0.920961       -25.0606
  19   2.0000      -0.885757       -24.1027
  20   2.0000      -0.863392       -23.4941
  21   2.0000      -0.830202       -22.5910
  22   2.0000      -0.824606       -22.4387
  23   2.0000      -0.813862       -22.1463
  24   2.0000      -0.811001       -22.0685
  25   2.0000      -0.784943       -21.3594
  26   2.0000      -0.735151       -20.0045
  27   2.0000      -0.635886       -17.3033
  28   2.0000      -0.610309       -16.6074
  29   0.0000      -0.233109        -6.3432
  30   0.0000      -0.232651        -6.3308
  31   0.0000      -0.066069        -1.7978
  32   0.0000      -0.062588        -1.7031
  33   0.0000      -0.030673        -0.8347

MULLIKEN ATOMIC CHARGES
-----------------------
   0 C :   -0.392704
   1 C :    0.078498
   2 C :   -0.199572
   3 C :   -0.300070
   4 C :    0.240386
   5 C :   -0.298988
   6 C :   -0.198981
   7 N :   -0.500186
   8 H :    0.137940
   9 H :    0.134896
  10 H :    0.137763
  11 H :    0.154082
  12 H :    0.153878
  13 H :    0.153922
  14 H :    0.154096
  15 H :    0.272541
  16 H :    0.272499
Sum of atomic charges:    0.0000000

LOEWDIN ATOMIC CHARGES
----------------------
   0 C :   -0.261780
   1 C :   -0.201757
   2 C :   -0.130409
   3 C :   -0.146910
   4 C :   -0.256218
   5 C :   -0.146324
   6 C :   -0.129002
   7 N :   -0.067858
   8 H :    0.128130
   9 H :    0.128351
  10 H :    0.128205
  11 H :    0.152354
  12 H :    0.150882
  13 H :    0.150952
  14 H :    0.152587
  15 H :    0.174400
  16 H :    0.174397

  Mayer bond orders larger than 0.100000
B(  0-C ,  1-C ) :   0.9322 B(  0-C ,  8-H ) :   0.9897 B(  0-C ,  9-H ) :   0.9603
B(  0-C , 10-H ) :   0.9868 B(  1-C ,  2-C ) :   1.3763 B(  1-C ,  6-C ) :   1.3649
B(  2-C ,  3-C ) :   1.4505 B(  2-C , 11-H ) :   0.9779 B(  3-C ,  4-C ) :   1.3648
B(  3-C , 12-H ) :   0.9794 B(  4-C ,  5-C ) :   1.3601 B(  4-C ,  7-N ) :   1.1035
B(  5-C ,  6-C ) :   1.4560 B(  5-C , 13-H ) :   0.9795 B(  6-C , 14-H ) :   0.9797
B(  7-N , 15-H ) :   0.9106 B(  7-N , 16-H ) :   0.9106

FINAL SINGLE POINT ENERGY      -326.942158368262

DIPOLE MOMENT
-------------

Method             : SCF
Type of density    : Electron Density
Multiplicity       :   1
Irrep              :   0
Energy             :  -326.9517051359624702 Eh
Relativity type    :
Basis              : AO
                                X                 Y                 Z
Electronic contribution:      3.746336506       0.000235799      -0.013479477
Nuclear contribution   :     -3.292522807      -0.006824607       0.550846927
                        -----------------------------------------
Total Dipole Moment    :      0.453813699      -0.006588808       0.537367451
                        -----------------------------------------
Magnitude (a.u.)       :      0.703387562
Magnitude (Debye)      :      1.787869098

Rotational constants in cm-1:             0.182447             0.048515             0.038647
Rotational constants in MHz :          5469.616998          1454.449329          1158.599394

                             ****ORCA TERMINATED NORMALLY****
TOTAL RUN TIME: 0 days 0 hours 2 minutes 38 seconds 310 msec
