                         Program Version 6.0.0  -   RELEASE  -
|  1> ! wb97x-v def2-tzvp def2/J RIJCOSX DEFGRID2 scfconv7 GCP(DFT/TZ) printgap
|  2> %output
|  3>     printlevel normal
|  4> end
|  5> * xyz 0 1
|  6> C -2.5499436979714054 -0.9517458041516804 0.35853114166872957
|  7> C -1.1308434286496505 -0.4801308252730816 0.6123537158102723
|  8> H -0.9719130947539822 -0.43785629090968253 1.7027992238323955
|  9> C -0.8199991060936258 0.8926356018335706 0.0064626390391047915
| 10> H -1.0207448100390337 0.8694116538581054 -1.0729060807131845
| 11> C 0.6439095956379128 1.2476296242177316 0.23156916226467003
| 12> H 0.814253845081388 1.3664471734400307 1.3144610304242064
| 13> C 1.541098756278623 0.13895768827949143 -0.28512000900971507
| 14> H 1.4376175698539586 0.06489190602474772 -1.3804198553439826
| 15> C 1.1214610339410551 -1.2011586345088052 0.3258428229982691
| 16> H 1.2724491722375202 -1.1920970325433398 1.4155959541733756
| 17> O -0.2521378511593971 -1.46185952650653 0.028844751983250514
| 18> O 1.8838236641753008 -2.267948087469733 -0.17488763569960253
| 19> O 2.8865973705568284 0.4550635894363947 0.07622855693307432
| 20> O 0.9940367528996997 2.4561719172009306 -0.45222568340534447
| 21> O -1.5939812067626362 1.9198445898016578 0.6391996728653664
| 22> O -2.8884750799559353 -0.9933322571573616 -1.0327071660131901
| 23> H -3.249236441040433 -0.2572783905944787 0.8330001074844902
| 24> H -2.681706237404306 -1.9396225540360599 0.8202047023844564
| 25> H 1.8724939638710396 -2.2195245192957893 -1.1433385421155817
| 26> H 3.457198784687647 -0.2194452597823305 -0.3164651131169726
| 27> H 0.41395540341741827 3.149364836485034 -0.10832950034689481
| 28> H -2.4620417267913295 1.944069342937406 0.21704338900116618
| 29> H -2.303878971790899 -1.6379666456508626 -1.4530425722088252
| 30> *
| 31>
| 32>                          ****END OF INPUT****

CARTESIAN COORDINATES (ANGSTROEM)
---------------------------------
  C     -2.549944   -0.951746    0.358531
  C     -1.130843   -0.480131    0.612354
  H     -0.971913   -0.437856    1.702799
  C     -0.819999    0.892636    0.006463
  H     -1.020745    0.869412   -1.072906
  C      0.643910    1.247630    0.231569
  H      0.814254    1.366447    1.314461
  C      1.541099    0.138958   -0.285120
  H      1.437618    0.064892   -1.380420
  C      1.121461   -1.201159    0.325843
  H      1.272449   -1.192097    1.415596
  O     -0.252138   -1.461860    0.028845
  O      1.883824   -2.267948   -0.174888
  O      2.886597    0.455064    0.076229
  O      0.994037    2.456172   -0.452226
  O     -1.593981    1.919845    0.639200
  O     -2.888475   -0.993332   -1.032707
  H     -3.249236   -0.257278    0.833000
  H     -2.681706   -1.939623    0.820205
  H      1.872494   -2.219525   -1.143339
  H      3.457199   -0.219445   -0.316465
  H      0.413955    3.149365   -0.108330
  H     -2.462042    1.944069    0.217043
  H     -2.303879   -1.637967   -1.453043

 Total Charge           Charge          ....    0
 Multiplicity           Mult            ....    1
 Number of Electrons    NEL             ....   96
 Basis Dimension        Dim             ....  444

ORBITAL ENERGIES
----------------

  NO   OCC          E(Eh)            E(eV)
   0   2.0000     -21.701777      -590.5354
   1   2.0000     -21.698936      -590.4581
   2   2.0000     -21.695683      -590.3695
   3   2.0000     -21.684698      -590.0706
   4   2.0000     -21.681571      -589.9855
   5   2.0000     -21.673413      -589.7636
   6   2.0000     -12.162318      -330.9535
   7   2.0000     -12.116507      -329.7069
   8   2.0000     -12.113354      -329.6211
   9   2.0000     -12.111757      -329.5777
  10   2.0000     -12.108940      -329.5010
  11   2.0000     -12.108191      -329.4806
  12   2.0000      -1.731733       -47.1228
  13   2.0000      -1.698605       -46.2214
  14   2.0000      -1.690444       -45.9993
  15   2.0000      -1.685461       -45.8637
  16   2.0000      -1.683220       -45.8027
  17   2.0000      -1.673644       -45.5422
  18   2.0000      -1.342540       -36.5324
  19   2.0000      -1.327598       -36.1258
  20   2.0000      -1.242676       -33.8149
  21   2.0000      -1.210512       -32.9397
  22   2.0000      -1.169401       -31.8210
  23   2.0000      -1.130098       -30.7515
  24   2.0000      -1.096300       -29.8318
  25   2.0000      -1.066995       -29.0344
  26   2.0000      -1.063177       -28.9305
  27   2.0000      -1.054415       -28.6921
  28   2.0000      -1.038482       -28.2585
  29   2.0000      -1.009317       -27.4649
  30   2.0000      -1.002346       -27.2752
  31   2.0000      -0.989040       -26.9131
  32   2.0000      -0.979562       -26.6552
  33   2.0000      -0.970161       -26.3994
  34   2.0000      -0.962219       -26.1833
  35   2.0000      -0.955565       -26.0022
  36   2.0000      -0.951649       -25.8957
  37   2.0000      -0.935646       -25.4602
  38   2.0000      -0.922850       -25.1120
  39   2.0000      -0.912099       -24.8195
  40   2.0000      -0.904598       -24.6154
  41   2.0000      -0.887529       -24.1509
  42   2.0000      -0.857693       -23.3390
  43   2.0000      -0.847328       -23.0570
  44   2.0000      -0.823791       -22.4165
  45   2.0000      -0.809104       -22.0168
  46   2.0000      -0.803572       -21.8663
  47   2.0000      -0.779041       -21.1988
  48   0.0000      -0.244054        -6.6411
  49   0.0000      -0.201544        -5.4843
  50   0.0000      -0.180472        -4.9109
  51   0.0000      -0.161684        -4.3997
  52   0.0000      -0.133409        -3.6302

MULLIKEN ATOMIC CHARGES
-----------------------
   0 C :   -0.048665
   1 C :    0.003834
   2 H :    0.078600
   3 C :    0.024435
   4 H :    0.093941
   5 C :    0.111451
   6 H :    0.088619
   7 C :    0.036693
   8 H :    0.074616
   9 C :    0.081765
  10 H :    0.090498
  11 O :   -0.265369
  12 O :   -0.406670
  13 O :   -0.402242
  14 O :   -0.427539
  15 O :   -0.456887
  16 O :   -0.456912
  17 H :    0.110107
  18 H :    0.115418
  19 H :    0.306788
  20 H :    0.303696
  21 H :    0.309505
  22 H :    0.320247
  23 H :    0.314069
Sum of atomic charges:    0.0000000

LOEWDIN ATOMIC CHARGES
----------------------
   0 C :   -0.314385
   1 C :   -0.306053
   2 H :    0.147075
   3 C :   -0.308546
   4 H :    0.144291
   5 C :   -0.304758
   6 H :    0.147313
   7 C :   -0.319154
   8 H :    0.139809
   9 C :   -0.407505
  10 H :    0.135683
  11 O :    0.177109
  12 O :    0.010146
  13 O :    0.001323
  14 O :   -0.007171
  15 O :   -0.012364
  16 O :   -0.047951
  17 H :    0.129781
  18 H :    0.125245
  19 H :    0.176108
  20 H :    0.171310
  21 H :    0.174059
  22 H :    0.175681
  23 H :    0.172954

  Mayer bond orders larger than 0.100000
B(  0-C ,  1-C ) :   0.9563 B(  0-C , 16-O ) :   0.9970 B(  0-C , 17-H ) :   0.9759
B(  0-C , 18-H ) :   0.9826 B(  1-C ,  2-H ) :   0.9576 B(  1-C ,  3-C ) :   0.9380
B(  1-C , 11-O ) :   0.9797 B(  3-C ,  4-H ) :   0.9654 B(  3-C ,  5-C ) :   0.9325
B(  3-C , 15-O ) :   1.0713 B(  5-C ,  6-H ) :   0.9767 B(  5-C ,  7-C ) :   0.9466
B(  5-C , 14-O ) :   1.1011 B(  7-C ,  8-H ) :   0.9500 B(  7-C ,  9-C ) :   0.9710
B(  7-C , 13-O ) :   1.1405 B(  9-C , 10-H ) :   0.9785 B(  9-C , 11-O ) :   1.0340
B(  9-C , 12-O ) :   1.1243 B( 12-O , 19-H ) :   0.8882 B( 13-O , 20-H ) :   0.8921
B( 14-O , 21-H ) :   0.8888 B( 15-O , 22-H ) :   0.8949 B( 16-O , 23-H ) :   0.8902

FINAL SINGLE POINT ENERGY      -687.246408016124

DIPOLE MOMENT
-------------

Method             : SCF
Type of density    : Electron Density
Multiplicity       :   1
Irrep              :   0
Energy             :  -687.2652992449237672 Eh
Relativity type    :
Basis              : AO
                                X                 Y                 Z
Electronic contribution:      2.581992863      -0.095288282      -0.887674811
Nuclear contribution   :     -3.111834901      -0.285261522       0.688456186
                        -----------------------------------------
Total Dipole Moment    :     -0.529842037      -0.380549804      -0.199218624
                        -----------------------------------------
Magnitude (a.u.)       :      0.682084158
Magnitude (Debye)      :      1.733720148

Rotational constants in cm-1:             0.039231             0.026566             0.017493
Rotational constants in MHz :          1176.123598           796.418971           524.414897

                             ****ORCA TERMINATED NORMALLY****
TOTAL RUN TIME: 0 days 0 hours 4 minutes 51 seconds 367 msec
