                         Program Version 6.0.0  -   RELEASE  -
|  1> ! wb97x-v def2-tzvp def2/J RIJCOSX DEFGRID2 scfconv7 GCP(DFT/TZ) printgap
|  2> %output
|  3>     printlevel normal
|  4> end
|  5> %cpcm
|  6>     smd true
|  7>     smdsolvent "water"
|  8> end
|  9> * xyz 0 1
| 10> C -2.5499436979714054 -0.9517458041516804 0.35853114166872957
| 11> C -1.1308434286496505 -0.4801308252730816 0.6123537158102723
| 12> H -0.9719130947539822 -0.43785629090968253 1.7027992238323955
| 13> C -0.8199991060936258 0.8926356018335706 0.0064626390391047915
| 14> H -1.0207448100390337 0.8694116538581054 -1.0729060807131845
| 15> C 0.6439095956379128 1.2476296242177316 0.23156916226467003
| 16> H 0.814253845081388 1.3664471734400307 1.3144610304242064
| 17> C 1.541098756278623 0.13895768827949143 -0.28512000900971507
| 18> H 1.4376175698539586 0.06489190602474772 -1.3804198553439826
| 19> C 1.1214610339410551 -1.2011586345088052 0.3258428229982691
| 20> H 1.2724491722375202 -1.1920970325433398 1.4155959541733756
| 21> O -0.2521378511593971 -1.46185952650653 0.028844751983250514
| 22> O 1.8838236641753008 -2.267948087469733 -0.17488763569960253
| 23> O 2.8865973705568284 0.4550635894363947 0.07622855693307432
| 24> O 0.9940367528996997 2.4561719172009306 -0.45222568340534447
| 25> O -1.5939812067626362 1.9198445898016578 0.6391996728653664
| 26> O -2.8884750799559353 -0.9933322571573616 -1.0327071660131901
| 27> H -3.249236441040433 -0.2572783905944787 0.8330001074844902
| 28> H -2.681706237404306 -1.9396225540360599 0.8202047023844564
| 29> H 1.8724939638710396 -2.2195245192957893 -1.1433385421155817
| 30> H 3.457198784687647 -0.2194452597823305 -0.3164651131169726
| 31> H 0.41395540341741827 3.149364836485034 -0.10832950034689481
| 32> H -2.4620417267913295 1.944069342937406 0.21704338900116618
| 33> H -2.303878971790899 -1.6379666456508626 -1.4530425722088252
| 34> *
| 35>
| 36>                          ****END OF INPUT****

CARTESIAN COORDINATES (ANGSTROEM)
---------------------------------
  C     -2.549944   -0.951746    0.358531
  C     -1.130843   -0.480131    0.612354
  H     -0.971913   -0.437856    1.702799
  C     -0.819999    0.892636    0.006463
  H     -1.020745    0.869412   -1.072906
  C      0.643910    1.247630    0.231569
  H      0.814254    1.366447    1.314461
  C      1.541099    0.138958   -0.285120
  H      1.437618    0.064892   -1.380420
  C      1.121461   -1.201159    0.325843
  H      1.272449   -1.192097    1.415596
  O     -0.252138   -1.461860    0.028845
  O      1.883824   -2.267948   -0.174888
  O      2.886597    0.455064    0.076229
  O      0.994037    2.456172   -0.452226
  O     -1.593981    1.919845    0.639200
  O     -2.888475   -0.993332   -1.032707
  H     -3.249236   -0.257278    0.833000
  H     -2.681706   -1.939623    0.820205
  H      1.872494   -2.219525   -1.143339
  H      3.457199   -0.219445   -0.316465
  H      0.413955    3.149365   -0.108330
  H     -2.462042    1.944069    0.217043
  H     -2.303879   -1.637967   -1.453043

 Total Charge           Charge          ....    0
 Multiplicity           Mult            ....    1
 Number of Electrons    NEL             ....   96
 Basis Dimension        Dim             ....  444

ORBITAL ENERGIES
----------------

  NO   OCC          E(Eh)            E(eV)
   0   2.0000     -21.692559      -590.2845
   1   2.0000     -21.691772      -590.2631
   2   2.0000     -21.683725      -590.0441
   3   2.0000     -21.682950      -590.0231
   4   2.0000     -21.679697      -589.9345
   5   2.0000     -21.677862      -589.8846
   6   2.0000     -12.152122      -330.6761
   7   2.0000     -12.104415      -329.3779
   8   2.0000     -12.102847      -329.3352
   9   2.0000     -12.102498      -329.3257
  10   2.0000     -12.100347      -329.2672
  11   2.0000     -12.092041      -329.0412
  12   2.0000      -1.723681       -46.9037
  13   2.0000      -1.690038       -45.9883
  14   2.0000      -1.686932       -45.9037
  15   2.0000      -1.681483       -45.7555
  16   2.0000      -1.677880       -45.6574
  17   2.0000      -1.676182       -45.6112
  18   2.0000      -1.333880       -36.2967
  19   2.0000      -1.317310       -35.8458
  20   2.0000      -1.231721       -33.5168
  21   2.0000      -1.203215       -32.7411
  22   2.0000      -1.162202       -31.6251
  23   2.0000      -1.124203       -30.5911
  24   2.0000      -1.089865       -29.6567
  25   2.0000      -1.060775       -28.8651
  26   2.0000      -1.053678       -28.6720
  27   2.0000      -1.050176       -28.5767
  28   2.0000      -1.035147       -28.1678
  29   2.0000      -1.002300       -27.2740
  30   2.0000      -0.997896       -27.1541
  31   2.0000      -0.988503       -26.8985
  32   2.0000      -0.974625       -26.5209
  33   2.0000      -0.969193       -26.3731
  34   2.0000      -0.957178       -26.0461
  35   2.0000      -0.951766       -25.8989
  36   2.0000      -0.947218       -25.7751
  37   2.0000      -0.932601       -25.3774
  38   2.0000      -0.921405       -25.0727
  39   2.0000      -0.902613       -24.5613
  40   2.0000      -0.901949       -24.5433
  41   2.0000      -0.883387       -24.0382
  42   2.0000      -0.852305       -23.1924
  43   2.0000      -0.833425       -22.6786
  44   2.0000      -0.814884       -22.1741
  45   2.0000      -0.798872       -21.7384
  46   2.0000      -0.793359       -21.5884
  47   2.0000      -0.769475       -20.9385
  48   0.0000      -0.234242        -6.3740
  49   0.0000      -0.192411        -5.2358
  50   0.0000      -0.172379        -4.6907
  51   0.0000      -0.148459        -4.0398
  52   0.0000      -0.124332        -3.3833

MULLIKEN ATOMIC CHARGES
-----------------------
   0 C :   -0.030808
   1 C :    0.021940
   2 H :    0.111116
   3 C :    0.023118
   4 H :    0.103031
   5 C :    0.137982
   6 H :    0.107041
   7 C :    0.053372
   8 H :    0.114065
   9 C :    0.103754
  10 H :    0.118531
  11 O :   -0.327647
  12 O :   -0.496190
  13 O :   -0.517744
  14 O :   -0.528665
  15 O :   -0.532198
  16 O :   -0.553806
  17 H :    0.135628
  18 H :    0.133271
  19 H :    0.370926
  20 H :    0.362029
  21 H :    0.358887
  22 H :    0.372427
  23 H :    0.359940
Sum of atomic charges:    0.0000000

LOEWDIN ATOMIC CHARGES
----------------------
   0 C :   -0.308826
   1 C :   -0.298109
   2 H :    0.158145
   3 C :   -0.301536
   4 H :    0.148839
   5 C :   -0.306274
   6 H :    0.153493
   7 C :   -0.311271
   8 H :    0.153486
   9 C :   -0.405667
  10 H :    0.143378
  11 O :    0.160942
  12 O :   -0.019317
  13 O :   -0.039830
  14 O :   -0.047721
  15 O :   -0.035035
  16 O :   -0.082112
  17 H :    0.138978
  18 H :    0.130391
  19 H :    0.201540
  20 H :    0.192619
  21 H :    0.189934
  22 H :    0.195748
  23 H :    0.188208

  Mayer bond orders larger than 0.100000
B(  0-C ,  1-C ) :   0.9578 B(  0-C , 16-O ) :   0.9628 B(  0-C , 17-H ) :   0.9670
B(  0-C , 18-H ) :   0.9808 B(  1-C ,  2-H ) :   0.9492 B(  1-C ,  3-C ) :   0.9675
B(  1-C , 11-O ) :   0.9511 B(  3-C ,  4-H ) :   0.9634 B(  3-C ,  5-C ) :   0.9616
B(  3-C , 15-O ) :   1.0484 B(  5-C ,  6-H ) :   0.9584 B(  5-C ,  7-C ) :   0.9559
B(  5-C , 14-O ) :   1.0454 B(  7-C ,  8-H ) :   0.9575 B(  7-C ,  9-C ) :   0.9808
B(  7-C , 13-O ) :   1.0729 B(  9-C , 10-H ) :   0.9743 B(  9-C , 11-O ) :   1.0151
B(  9-C , 12-O ) :   1.1149 B( 12-O , 19-H ) :   0.8488 B( 13-O , 20-H ) :   0.8592
B( 14-O , 21-H ) :   0.8591 B( 15-O , 22-H ) :   0.8609 B( 16-O , 23-H ) :   0.8619

FINAL SINGLE POINT ENERGY      -687.288026951951

DIPOLE MOMENT
-------------

Method             : SCF
Type of density    : Electron Density
Multiplicity       :   1
Irrep              :   0
Energy             :  -687.3069181807508130 Eh
Relativity type    :
Basis              : AO
                                X                 Y                 Z
Electronic contribution:      2.354618473      -0.276253203      -0.930276374
Nuclear contribution   :     -3.111834901      -0.285261522       0.688456186
                        -----------------------------------------
Total Dipole Moment    :     -0.757216428      -0.561514725      -0.241820188
                        -----------------------------------------
Magnitude (a.u.)       :      0.973217606
Magnitude (Debye)      :      2.473722564

Rotational constants in cm-1:             0.039231             0.026566             0.017493
Rotational constants in MHz :          1176.123598           796.418971           524.414897

                             ****ORCA TERMINATED NORMALLY****
TOTAL RUN TIME: 0 days 0 hours 5 minutes 30 seconds 34 msec
