                         Program Version 6.0.0  -   RELEASE  -
|  1> ! pbe def2-sv(p) def2/J RI DEFGRID1 loosescf d4 GCP(DFT/SV(P)) printgap
|  2> %output
|  3>     printlevel normal
|  4> end
|  5> * xyz 0 1
|  6> C 0.987047018 2.1107408009 -0.3808528055
|  7> C 0.3425188709 0.8648346042 0.1987461116
|  8> H 0.1009827962 0.9972509554 1.2549645741
|  9> C -0.8930510017 0.4650600632 -0.5838423158
| 10> Cl -1.7171675873 -0.9395539261 0.1734676732
| 11> Cl 1.5330140044 -0.5018552708 0.1568949333
| 12> H 0.296258245 2.9450318076 -0.298648289
| 13> H 1.8937244282 2.3491430451 0.1665112777
| 14> H 1.2394197964 1.9575060122 -1.425848885
| 15> H -1.6135623316 1.2811977359 -0.5888047792
| 16> H -0.6410332078 0.1704667824 -1.6010918605
| 17> *
| 18>
| 19>                          ****END OF INPUT****

CARTESIAN COORDINATES (ANGSTROEM)
---------------------------------
  C      0.987047    2.110741   -0.380853
  C      0.342519    0.864835    0.198746
  H      0.100983    0.997251    1.254965
  C     -0.893051    0.465060   -0.583842
  Cl    -1.717168   -0.939554    0.173468
  Cl     1.533014   -0.501855    0.156895
  H      0.296258    2.945032   -0.298648
  H      1.893724    2.349143    0.166511
  H      1.239420    1.957506   -1.425849
  H     -1.613562    1.281198   -0.588805
  H     -0.641033    0.170467   -1.601092

 Total Charge           Charge          ....    0
 Multiplicity           Mult            ....    1
 Number of Electrons    NEL             ....   58
 Basis Dimension        Dim             ....   90

ORBITAL ENERGIES
----------------

  NO   OCC          E(Eh)            E(eV)
   0   2.0000    -100.623164     -2738.0955
   1   2.0000    -100.621358     -2738.0464
   2   2.0000      -9.964840      -271.1571
   3   2.0000      -9.954290      -270.8700
   4   2.0000      -9.901785      -269.4413
   5   2.0000      -9.158902      -249.2264
   6   2.0000      -9.157076      -249.1767
   7   2.0000      -6.990769      -190.2285
   8   2.0000      -6.988700      -190.1722
   9   2.0000      -6.978514      -189.8950
  10   2.0000      -6.978264      -189.8882
  11   2.0000      -6.976825      -189.8491
  12   2.0000      -6.976606      -189.8431
  13   2.0000      -0.806694       -21.9513
  14   2.0000      -0.755223       -20.5507
  15   2.0000      -0.684366       -18.6226
  16   2.0000      -0.615538       -16.7497
  17   2.0000      -0.536430       -14.5970
  18   2.0000      -0.450990       -12.2721
  19   2.0000      -0.419461       -11.4141
  20   2.0000      -0.408550       -11.1172
  21   2.0000      -0.386537       -10.5182
  22   2.0000      -0.347758        -9.4630
  23   2.0000      -0.343901        -9.3580
  24   2.0000      -0.333757        -9.0820
  25   2.0000      -0.258094        -7.0231
  26   2.0000      -0.256613        -6.9828
  27   2.0000      -0.248798        -6.7702
  28   2.0000      -0.243517        -6.6264
  29   0.0000      -0.013941        -0.3794
  30   0.0000       0.012299         0.3347
  31   0.0000       0.038988         1.0609
  32   0.0000       0.065623         1.7857
  33   0.0000       0.078841         2.1454

MULLIKEN ATOMIC CHARGES
-----------------------
   0 C :   -0.223167
   1 C :   -0.173729
   2 H :    0.136350
   3 C :   -0.122667
   4 Cl:   -0.130648
   5 Cl:   -0.124359
   6 H :    0.111202
   7 H :    0.127887
   8 H :    0.115275
   9 H :    0.140248
  10 H :    0.143607
Sum of atomic charges:   -0.0000000

LOEWDIN ATOMIC CHARGES
----------------------
   0 C :   -0.347343
   1 C :   -0.212031
   2 H :    0.128946
   3 C :   -0.288642
   4 Cl:    0.034711
   5 Cl:    0.035257
   6 H :    0.127801
   7 H :    0.132427
   8 H :    0.127422
   9 H :    0.130880
  10 H :    0.130572

  Mayer bond orders larger than 0.100000
B(  0-C ,  1-C ) :   1.0920 B(  0-C ,  6-H ) :   0.9340 B(  0-C ,  7-H ) :   0.9425
B(  0-C ,  8-H ) :   0.9442 B(  1-C ,  2-H ) :   0.9035 B(  1-C ,  3-C ) :   1.0371
B(  1-C ,  5-Cl) :   1.0311 B(  3-C ,  4-Cl) :   1.0629 B(  3-C ,  9-H ) :   0.9169
B(  3-C , 10-H ) :   0.9151

Dispersion correction           -0.009569155
FINAL SINGLE POINT ENERGY     -1037.364075419174

DIPOLE MOMENT
-------------

Method             : SCF
Type of density    : Electron Density
Multiplicity       :   1
Irrep              :   0
Energy             : -1037.3987868196513773 Eh
Relativity type    :
Basis              : AO
                                X                 Y                 Z
Electronic contribution:     -1.525911467      -9.974891661       2.527725751
Nuclear contribution   :      1.444083469      11.035504552      -2.782203406
                        -----------------------------------------
Total Dipole Moment    :     -0.081827998       1.060612890      -0.254477655
                        -----------------------------------------
Magnitude (a.u.)       :      1.093779869
Magnitude (Debye)      :      2.780167483

Rotational constants in cm-1:             0.150645             0.065398             0.048131
Rotational constants in MHz :          4516.233847          1960.586483          1442.917177

                             ****ORCA TERMINATED NORMALLY****
TOTAL RUN TIME: 0 days 0 hours 0 minutes 5 seconds 498 msec
