                         Program Version 6.0.0  -   RELEASE  -
|  1> ! r2scan-3c def2/J RI DEFGRID2 scfconv6 printgap
|  2> %output
|  3>     printlevel normal
|  4> end
|  5> * xyz 0 1
|  6> C -2.3869179179 0.0425732597 0.1377084142
|  7> C -0.9532906596 0.4878742863 -0.1314019935
|  8> C -0.0026501176 -0.6742274662 -0.1520354526
|  9> C 1.3147644378 -0.6133038155 -0.0303057699
| 10> C 2.1370023813 0.6216444706 0.1458539056
| 11> H -2.4534920294 -0.4607693194 1.0997672943
| 12> H -2.724845308 -0.6450581529 -0.634579644
| 13> H -3.056072845 0.8997579251 0.1508912888
| 14> H -0.9117739966 1.0021005447 -1.0970005051
| 15> H -0.649408781 1.2057969604 0.6335651646
| 16> H -0.4687028186 -1.64111756 -0.2907317131
| 17> H 1.88678967 -1.5323938359 -0.0644442305
| 18> H 2.7427752594 0.5405883098 1.0477674077
| 19> H 1.5198015964 1.5118912458 0.2124025504
| 20> H 2.817167738 0.7331134723 -0.697998644
| 21> *
| 22>
| 23>                          ****END OF INPUT****

CARTESIAN COORDINATES (ANGSTROEM)
---------------------------------
  C     -2.386918    0.042573    0.137708
  C     -0.953291    0.487874   -0.131402
  C     -0.002650   -0.674227   -0.152035
  C      1.314764   -0.613304   -0.030306
  C      2.137002    0.621644    0.145854
  H     -2.453492   -0.460769    1.099767
  H     -2.724845   -0.645058   -0.634580
  H     -3.056073    0.899758    0.150891
  H     -0.911774    1.002101   -1.097001
  H     -0.649409    1.205797    0.633565
  H     -0.468703   -1.641118   -0.290732
  H      1.886790   -1.532394   -0.064444
  H      2.742775    0.540588    1.047767
  H      1.519802    1.511891    0.212403
  H      2.817168    0.733113   -0.697999

 Total Charge           Charge          ....    0
 Multiplicity           Mult            ....    1
 Number of Electrons    NEL             ....   40
 Basis Dimension        Dim             ....  145

ORBITAL ENERGIES
----------------

  NO   OCC          E(Eh)            E(eV)
   0   2.0000     -10.027920      -272.8736
   1   2.0000     -10.022672      -272.7308
   2   2.0000     -10.021835      -272.7080
   3   2.0000     -10.019300      -272.6390
   4   2.0000     -10.017411      -272.5876
   5   2.0000      -0.771548       -20.9949
   6   2.0000      -0.719010       -19.5653
   7   2.0000      -0.647221       -17.6118
   8   2.0000      -0.581571       -15.8253
   9   2.0000      -0.495074       -13.4716
  10   2.0000      -0.439915       -11.9707
  11   2.0000      -0.414166       -11.2700
  12   2.0000      -0.397384       -10.8134
  13   2.0000      -0.380090       -10.3428
  14   2.0000      -0.348707        -9.4888
  15   2.0000      -0.338028        -9.1982
  16   2.0000      -0.323889        -8.8135
  17   2.0000      -0.316033        -8.5997
  18   2.0000      -0.290419        -7.9027
  19   2.0000      -0.216953        -5.9036
  20   0.0000      -0.001369        -0.0373
  21   0.0000       0.093259         2.5377
  22   0.0000       0.112191         3.0529
  23   0.0000       0.130544         3.5523
  24   0.0000       0.143180         3.8961

MULLIKEN ATOMIC CHARGES
-----------------------
   0 C :   -0.479854
   1 C :   -0.237028
   2 C :   -0.172270
   3 C :   -0.119005
   4 C :   -0.468954
   5 H :    0.151730
   6 H :    0.141319
   7 H :    0.144457
   8 H :    0.153543
   9 H :    0.141858
  10 H :    0.148843
  11 H :    0.147938
  12 H :    0.149225
  13 H :    0.145784
  14 H :    0.152412
Sum of atomic charges:   -0.0000000

LOEWDIN ATOMIC CHARGES
----------------------
   0 C :   -0.421817
   1 C :   -0.312620
   2 C :   -0.215723
   3 C :   -0.210486
   4 C :   -0.410367
   5 H :    0.152347
   6 H :    0.150430
   7 H :    0.149993
   8 H :    0.161467
   9 H :    0.157723
  10 H :    0.164117
  11 H :    0.159233
  12 H :    0.159353
  13 H :    0.155301
  14 H :    0.161048

  Mayer bond orders larger than 0.100000
B(  0-C ,  1-C ) :   0.8926 B(  0-C ,  5-H ) :   0.9863 B(  0-C ,  6-H ) :   0.9755
B(  0-C ,  7-H ) :   0.9759 B(  1-C ,  2-C ) :   0.9054 B(  1-C ,  8-H ) :   0.9635
B(  1-C ,  9-H ) :   0.9857 B(  2-C ,  3-C ) :   1.9464 B(  2-C , 10-H ) :   0.9509
B(  3-C ,  4-C ) :   0.9061 B(  3-C , 11-H ) :   0.9433 B(  4-C , 12-H ) :   0.9686
B(  4-C , 13-H ) :   0.9887 B(  4-C , 14-H ) :   0.9658

Dispersion correction           -0.003214950
FINAL SINGLE POINT ENERGY      -196.459427877459

DIPOLE MOMENT
-------------

Method             : SCF
Type of density    : Electron Density
Multiplicity       :   1
Irrep              :   0
Energy             :  -196.4623947485140150 Eh
Relativity type    :
Basis              : AO
                                X                 Y                 Z
Electronic contribution:      1.249660385      -1.374177440      -0.342909425
Nuclear contribution   :     -1.217522809       1.514123909       0.337403015
                        -----------------------------------------
Total Dipole Moment    :      0.032137576       0.139946469      -0.005506410
                        -----------------------------------------
Magnitude (a.u.)       :      0.143694672
Magnitude (Debye)      :      0.365242829

Rotational constants in cm-1:             0.473492             0.081578             0.073031
Rotational constants in MHz :         14194.939127          2445.640242          2189.420700

                             ****ORCA TERMINATED NORMALLY****
TOTAL RUN TIME: 0 days 0 hours 0 minutes 11 seconds 167 msec
