                         Program Version 6.0.0  -   RELEASE  -
|  1> ! r2scan-3c def2/J RI DEFGRID2 scfconv6 printgap
|  2> %output
|  3>     printlevel normal
|  4> end
|  5> %cpcm
|  6>     smd true
|  7>     smdsolvent "water"
|  8> end
|  9> * xyz 0 1
| 10> C -2.3869179179 0.0425732597 0.1377084142
| 11> C -0.9532906596 0.4878742863 -0.1314019935
| 12> C -0.0026501176 -0.6742274662 -0.1520354526
| 13> C 1.3147644378 -0.6133038155 -0.0303057699
| 14> C 2.1370023813 0.6216444706 0.1458539056
| 15> H -2.4534920294 -0.4607693194 1.0997672943
| 16> H -2.724845308 -0.6450581529 -0.634579644
| 17> H -3.056072845 0.8997579251 0.1508912888
| 18> H -0.9117739966 1.0021005447 -1.0970005051
| 19> H -0.649408781 1.2057969604 0.6335651646
| 20> H -0.4687028186 -1.64111756 -0.2907317131
| 21> H 1.88678967 -1.5323938359 -0.0644442305
| 22> H 2.7427752594 0.5405883098 1.0477674077
| 23> H 1.5198015964 1.5118912458 0.2124025504
| 24> H 2.817167738 0.7331134723 -0.697998644
| 25> *
| 26>
| 27>                          ****END OF INPUT****

CARTESIAN COORDINATES (ANGSTROEM)
---------------------------------
  C     -2.386918    0.042573    0.137708
  C     -0.953291    0.487874   -0.131402
  C     -0.002650   -0.674227   -0.152035
  C      1.314764   -0.613304   -0.030306
  C      2.137002    0.621644    0.145854
  H     -2.453492   -0.460769    1.099767
  H     -2.724845   -0.645058   -0.634580
  H     -3.056073    0.899758    0.150891
  H     -0.911774    1.002101   -1.097001
  H     -0.649409    1.205797    0.633565
  H     -0.468703   -1.641118   -0.290732
  H      1.886790   -1.532394   -0.064444
  H      2.742775    0.540588    1.047767
  H      1.519802    1.511891    0.212403
  H      2.817168    0.733113   -0.697999

 Total Charge           Charge          ....    0
 Multiplicity           Mult            ....    1
 Number of Electrons    NEL             ....   40
 Basis Dimension        Dim             ....  145

ORBITAL ENERGIES
----------------

  NO   OCC          E(Eh)            E(eV)
   0   2.0000     -10.021792      -272.7068
   1   2.0000     -10.021136      -272.6890
   2   2.0000     -10.018156      -272.6079
   3   2.0000     -10.014683      -272.5134
   4   2.0000     -10.010124      -272.3893
   5   2.0000      -0.768710       -20.9177
   6   2.0000      -0.713784       -19.4231
   7   2.0000      -0.642795       -17.4913
   8   2.0000      -0.576375       -15.6840
   9   2.0000      -0.490662       -13.3516
  10   2.0000      -0.435686       -11.8556
  11   2.0000      -0.408404       -11.1132
  12   2.0000      -0.392442       -10.6789
  13   2.0000      -0.374088       -10.1794
  14   2.0000      -0.341841        -9.3020
  15   2.0000      -0.332151        -9.0383
  16   2.0000      -0.318306        -8.6616
  17   2.0000      -0.309878        -8.4322
  18   2.0000      -0.285487        -7.7685
  19   2.0000      -0.217867        -5.9285
  20   0.0000      -0.001341        -0.0365
  21   0.0000       0.098973         2.6932
  22   0.0000       0.118795         3.2326
  23   0.0000       0.137293         3.7359
  24   0.0000       0.147164         4.0045

MULLIKEN ATOMIC CHARGES
-----------------------
   0 C :   -0.509484
   1 C :   -0.238412
   2 C :   -0.230239
   3 C :   -0.155894
   4 C :   -0.497482
   5 H :    0.158888
   6 H :    0.153077
   7 H :    0.156891
   8 H :    0.164919
   9 H :    0.159643
  10 H :    0.171506
  11 H :    0.171027
  12 H :    0.164488
  13 H :    0.162852
  14 H :    0.168218
Sum of atomic charges:   -0.0000000

LOEWDIN ATOMIC CHARGES
----------------------
   0 C :   -0.428654
   1 C :   -0.315406
   2 C :   -0.231702
   3 C :   -0.222885
   4 C :   -0.417576
   5 H :    0.153814
   6 H :    0.153621
   7 H :    0.153411
   8 H :    0.165734
   9 H :    0.163220
  10 H :    0.169545
  11 H :    0.165196
  12 H :    0.164977
  13 H :    0.160046
  14 H :    0.166658

  Mayer bond orders larger than 0.100000
B(  0-C ,  1-C ) :   0.8842 B(  0-C ,  5-H ) :   0.9844 B(  0-C ,  6-H ) :   0.9722
B(  0-C ,  7-H ) :   0.9734 B(  1-C ,  2-C ) :   0.8935 B(  1-C ,  8-H ) :   0.9581
B(  1-C ,  9-H ) :   0.9858 B(  2-C ,  3-C ) :   1.9150 B(  2-C , 10-H ) :   0.9534
B(  3-C ,  4-C ) :   0.8963 B(  3-C , 11-H ) :   0.9468 B(  4-C , 12-H ) :   0.9627
B(  4-C , 13-H ) :   0.9866 B(  4-C , 14-H ) :   0.9598

Dispersion correction           -0.003214950
FINAL SINGLE POINT ENERGY      -196.458125725278

DIPOLE MOMENT
-------------

Method             : SCF
Type of density    : Electron Density
Multiplicity       :   1
Irrep              :   0
Energy             :  -196.4610925963324632 Eh
Relativity type    :
Basis              : AO
                                X                 Y                 Z
Electronic contribution:      1.270399926      -1.309388742      -0.347745408
Nuclear contribution   :     -1.217522809       1.514123909       0.337403015
                        -----------------------------------------
Total Dipole Moment    :      0.052877117       0.204735167      -0.010342393
                        -----------------------------------------
Magnitude (a.u.)       :      0.211706030
Magnitude (Debye)      :      0.538113964

Rotational constants in cm-1:             0.473492             0.081578             0.073031
Rotational constants in MHz :         14194.939127          2445.640242          2189.420700

                             ****ORCA TERMINATED NORMALLY****
TOTAL RUN TIME: 0 days 0 hours 0 minutes 13 seconds 933 msec
