                         Program Version 6.0.0  -   RELEASE  -
|  1> ! pbe def2-sv(p) def2/J RI DEFGRID1 loosescf d4 GCP(DFT/SV(P)) printgap
|  2> %output
|  3>     printlevel normal
|  4> end
|  5> * xyz 0 1
|  6> C -0.6436960761 0.9711288898 6.2211e-06
|  7> C 0.719530373 0.9063199228 2.4659e-06
|  8> N 1.1262237205 -0.3935434047 4.6728e-06
|  9> C 0.0274076909 -1.1009006176 7.254e-07
| 10> N -1.0768304585 -0.3231466114 1.20767e-05
| 11> H -1.3140667696 1.8041658563 -9.51654e-05
| 12> H 1.4352703675 1.7034119605 -7.52593e-05
| 13> H -0.0018074894 -2.1713805925 -0.0001171856
| 14> H -2.0360256443 -0.6302538794 -5.73056e-05
| 15> *
| 16>
| 17>                          ****END OF INPUT****

CARTESIAN COORDINATES (ANGSTROEM)
---------------------------------
  C     -0.643696    0.971129    0.000006
  C      0.719530    0.906320    0.000002
  N      1.126224   -0.393543    0.000005
  C      0.027408   -1.100901    0.000001
  N     -1.076830   -0.323147    0.000012
  H     -1.314067    1.804166   -0.000095
  H      1.435270    1.703412   -0.000075
  H     -0.001807   -2.171381   -0.000117
  H     -2.036026   -0.630254   -0.000057

 Total Charge           Charge          ....    0
 Multiplicity           Mult            ....    1
 Number of Electrons    NEL             ....   36
 Basis Dimension        Dim             ....   78

ORBITAL ENERGIES
----------------

  NO   OCC          E(Eh)            E(eV)
   0   2.0000     -14.051598      -382.3634
   1   2.0000     -13.959525      -379.8580
   2   2.0000      -9.931243      -270.2429
   3   2.0000      -9.913089      -269.7489
   4   2.0000      -9.895055      -269.2581
   5   2.0000      -0.931498       -25.3474
   6   2.0000      -0.787610       -21.4320
   7   2.0000      -0.667018       -18.1505
   8   2.0000      -0.560604       -15.2548
   9   2.0000      -0.531630       -14.4664
  10   2.0000      -0.507189       -13.8013
  11   2.0000      -0.396403       -10.7867
  12   2.0000      -0.390063       -10.6142
  13   2.0000      -0.390016       -10.6129
  14   2.0000      -0.357898        -9.7389
  15   2.0000      -0.250717        -6.8224
  16   2.0000      -0.212379        -5.7791
  17   2.0000      -0.202420        -5.5081
  18   0.0000      -0.000640        -0.0174
  19   0.0000       0.023435         0.6377
  20   0.0000       0.037835         1.0296
  21   0.0000       0.084738         2.3058
  22   0.0000       0.093835         2.5534

MULLIKEN ATOMIC CHARGES
-----------------------
   0 C :   -0.043850
   1 C :   -0.084582
   2 N :   -0.133964
   3 C :   -0.002659
   4 N :   -0.173624
   5 H :    0.067058
   6 H :    0.064674
   7 H :    0.074473
   8 H :    0.232474
Sum of atomic charges:    0.0000000

LOEWDIN ATOMIC CHARGES
----------------------
   0 C :   -0.158154
   1 C :   -0.149554
   2 N :   -0.117971
   3 C :   -0.113038
   4 N :   -0.059028
   5 H :    0.123028
   6 H :    0.116561
   7 H :    0.115118
   8 H :    0.243037

  Mayer bond orders larger than 0.100000
B(  0-C ,  1-C ) :   1.4951 B(  0-C ,  3-C ) :   0.1022 B(  0-C ,  4-N ) :   1.2147
B(  0-C ,  5-H ) :   0.9660 B(  1-C ,  2-N ) :   1.4105 B(  1-C ,  6-H ) :   0.9773
B(  2-N ,  3-C ) :   1.6449 B(  3-C ,  4-N ) :   1.2308 B(  3-C ,  7-H ) :   0.9595
B(  4-N ,  8-H ) :   0.8702

Dispersion correction           -0.006662543
FINAL SINGLE POINT ENERGY      -225.738991224333

DIPOLE MOMENT
-------------

Method             : SCF
Type of density    : Electron Density
Multiplicity       :   1
Irrep              :   0
Energy             :  -225.7702592881248336 Eh
Relativity type    :
Basis              : AO
                                X                 Y                 Z
Electronic contribution:      0.347926385      -0.685032513       0.000201788
Nuclear contribution   :     -1.797860677       0.658350943      -0.000323499
                        -----------------------------------------
Total Dipole Moment    :     -1.449934292      -0.026681570      -0.000121711
                        -----------------------------------------
Magnitude (a.u.)       :      1.450179773
Magnitude (Debye)      :      3.686064046

Rotational constants in cm-1:             0.332226             0.316826             0.162172
Rotational constants in MHz :          9959.880514          9498.196788          4861.780725

                             ****ORCA TERMINATED NORMALLY****
TOTAL RUN TIME: 0 days 0 hours 0 minutes 4 seconds 888 msec
