                         Program Version 6.0.0  -   RELEASE  -
|  1> ! wb97x-v def2-tzvp def2/J RIJCOSX DEFGRID2 scfconv7 GCP(DFT/TZ) printgap
|  2> %output
|  3>     printlevel normal
|  4> end
|  5> * xyz 0 1
|  6> C -2.6251557603978193 1.558820658736915 0.11259691641482172
|  7> C -1.971010342302505 0.18847121446986007 -0.009240385456188521
|  8> C -0.460895185477673 0.18192247530508726 0.011410873835384893
|  9> C 0.3067583833898562 1.3417676296065606 0.13692666632709072
| 10> C 1.7006062245615854 1.3038738494166873 0.15319793611285956
| 11> C 2.357373561064717 0.08229582851223621 0.04182046139152752
| 12> C 1.6216290491821044 -1.091579318321222 -0.08492183370532087
| 13> C 0.23061015653624947 -1.0371671796977278 -0.09939834817989969
| 14> O -0.430661645908907 -2.2429839898663455 -0.22936468132411006
| 15> H -2.359353942818265 2.049309425321565 1.0542316396115936
| 16> H -3.7131438784841206 1.4520192734594672 0.08660296311329808
| 17> H -2.333855938441051 2.2189891745363175 -0.7104167508123439
| 18> H -2.314116793527635 -0.2864190566962603 -0.9402480013346209
| 19> H -2.339075181917933 -0.45280392723195995 0.8054070625591643
| 20> H -0.19469974259843129 2.299707185930871 0.223915615538212
| 21> H 2.265519856793683 2.225027903647329 0.2518782988850318
| 22> H 3.4418736470849414 0.03657878844538554 0.0530428528172544
| 23> H 2.1137507909647835 -2.0551273762587394 -0.17267447418997015
| 24> H -1.3863404337489298 -2.0972499203037107 -0.21960276709750715
| 25> *
| 26>
| 27>                          ****END OF INPUT****

CARTESIAN COORDINATES (ANGSTROEM)
---------------------------------
  C     -2.625156    1.558821    0.112597
  C     -1.971010    0.188471   -0.009240
  C     -0.460895    0.181922    0.011411
  C      0.306758    1.341768    0.136927
  C      1.700606    1.303874    0.153198
  C      2.357374    0.082296    0.041820
  C      1.621629   -1.091579   -0.084922
  C      0.230610   -1.037167   -0.099398
  O     -0.430662   -2.242984   -0.229365
  H     -2.359354    2.049309    1.054232
  H     -3.713144    1.452019    0.086603
  H     -2.333856    2.218989   -0.710417
  H     -2.314117   -0.286419   -0.940248
  H     -2.339075   -0.452804    0.805407
  H     -0.194700    2.299707    0.223916
  H      2.265520    2.225028    0.251878
  H      3.441874    0.036579    0.053043
  H      2.113751   -2.055127   -0.172674
  H     -1.386340   -2.097250   -0.219603

 Total Charge           Charge          ....    0
 Multiplicity           Mult            ....    1
 Number of Electrons    NEL             ....   66
 Basis Dimension        Dim             ....  339

ORBITAL ENERGIES
----------------

  NO   OCC          E(Eh)            E(eV)
   0   2.0000     -21.700328      -590.4959
   1   2.0000     -12.108960      -329.5016
   2   2.0000     -12.065474      -328.3182
   3   2.0000     -12.058301      -328.1230
   4   2.0000     -12.050069      -327.8990
   5   2.0000     -12.049169      -327.8746
   6   2.0000     -12.048018      -327.8432
   7   2.0000     -12.042913      -327.7043
   8   2.0000     -12.041403      -327.6632
   9   2.0000      -1.712055       -46.5874
  10   2.0000      -1.384874       -37.6843
  11   2.0000      -1.311143       -35.6780
  12   2.0000      -1.276093       -34.7242
  13   2.0000      -1.247680       -33.9511
  14   2.0000      -1.160648       -31.5828
  15   2.0000      -1.130784       -30.7702
  16   2.0000      -1.089527       -29.6475
  17   2.0000      -1.052686       -28.6450
  18   2.0000      -1.000072       -27.2133
  19   2.0000      -0.944774       -25.7086
  20   2.0000      -0.943638       -25.6777
  21   2.0000      -0.934536       -25.4300
  22   2.0000      -0.897485       -24.4218
  23   2.0000      -0.885401       -24.0930
  24   2.0000      -0.883472       -24.0405
  25   2.0000      -0.843818       -22.9615
  26   2.0000      -0.833623       -22.6840
  27   2.0000      -0.808336       -21.9959
  28   2.0000      -0.797330       -21.6964
  29   2.0000      -0.794505       -21.6196
  30   2.0000      -0.756640       -20.5892
  31   2.0000      -0.636256       -17.3134
  32   2.0000      -0.630609       -17.1597
  33   0.0000      -0.243293        -6.6203
  34   0.0000      -0.236556        -6.4370
  35   0.0000      -0.150543        -4.0965
  36   0.0000      -0.073946        -2.0122
  37   0.0000      -0.070420        -1.9162

MULLIKEN ATOMIC CHARGES
-----------------------
   0 C :   -0.382622
   1 C :   -0.252822
   2 C :    0.113316
   3 C :   -0.189584
   4 C :   -0.157308
   5 C :   -0.092351
   6 C :   -0.226504
   7 C :    0.174021
   8 O :   -0.388835
   9 H :    0.123812
  10 H :    0.123790
  11 H :    0.124146
  12 H :    0.116259
  13 H :    0.115779
  14 H :    0.130134
  15 H :    0.112894
  16 H :    0.115889
  17 H :    0.119170
  18 H :    0.320816
Sum of atomic charges:   -0.0000000

LOEWDIN ATOMIC CHARGES
----------------------
   0 C :   -0.298013
   1 C :   -0.257636
   2 C :   -0.141909
   3 C :   -0.116404
   4 C :   -0.159669
   5 C :   -0.140564
   6 C :   -0.123381
   7 C :   -0.225152
   8 O :    0.066551
   9 H :    0.120964
  10 H :    0.119837
  11 H :    0.121019
  12 H :    0.139984
  13 H :    0.139947
  14 H :    0.146243
  15 H :    0.139646
  16 H :    0.141710
  17 H :    0.147241
  18 H :    0.179587

  Mayer bond orders larger than 0.100000
B(  0-C ,  1-C ) :   1.0026 B(  0-C ,  9-H ) :   0.9810 B(  0-C , 10-H ) :   0.9799
B(  0-C , 11-H ) :   0.9811 B(  1-C ,  2-C ) :   0.8873 B(  1-C , 12-H ) :   0.9733
B(  1-C , 13-H ) :   0.9728 B(  2-C ,  3-C ) :   1.3542 B(  2-C ,  7-C ) :   1.2892
B(  3-C ,  4-C ) :   1.4602 B(  3-C , 14-H ) :   0.9606 B(  4-C ,  5-C ) :   1.4360
B(  4-C , 15-H ) :   0.9764 B(  5-C ,  6-C ) :   1.4290 B(  5-C , 16-H ) :   0.9765
B(  6-C ,  7-C ) :   1.4544 B(  6-C , 17-H ) :   0.9751 B(  7-C ,  8-O ) :   1.1599
B(  8-O , 18-H ) :   0.8848

FINAL SINGLE POINT ENERGY      -386.117638329525

DIPOLE MOMENT
-------------

Method             : SCF
Type of density    : Electron Density
Multiplicity       :   1
Irrep              :   0
Energy             :  -386.1290302571251232 Eh
Relativity type    :
Basis              : AO
                                X                 Y                 Z
Electronic contribution:      5.771891330      -4.668806156      -0.376776993
Nuclear contribution   :     -6.417099488       5.030064150       0.408367326
                        -----------------------------------------
Total Dipole Moment    :     -0.645208158       0.361257995       0.031590333
                        -----------------------------------------
Magnitude (a.u.)       :      0.740134349
Magnitude (Debye)      :      1.881272009

Rotational constants in cm-1:             0.082890             0.048913             0.031117
Rotational constants in MHz :          2484.979120          1466.362555           932.859803

                             ****ORCA TERMINATED NORMALLY****
TOTAL RUN TIME: 0 days 0 hours 3 minutes 9 seconds 862 msec
