                         Program Version 6.0.0  -   RELEASE  -
|  1> ! wb97x-v def2-tzvp def2/J RIJCOSX DEFGRID2 scfconv7 GCP(DFT/TZ) printgap
|  2> %output
|  3>     printlevel normal
|  4> end
|  5> %cpcm
|  6>     smd true
|  7>     smdsolvent "water"
|  8> end
|  9> * xyz 0 1
| 10> C -2.6251557603978193 1.558820658736915 0.11259691641482172
| 11> C -1.971010342302505 0.18847121446986007 -0.009240385456188521
| 12> C -0.460895185477673 0.18192247530508726 0.011410873835384893
| 13> C 0.3067583833898562 1.3417676296065606 0.13692666632709072
| 14> C 1.7006062245615854 1.3038738494166873 0.15319793611285956
| 15> C 2.357373561064717 0.08229582851223621 0.04182046139152752
| 16> C 1.6216290491821044 -1.091579318321222 -0.08492183370532087
| 17> C 0.23061015653624947 -1.0371671796977278 -0.09939834817989969
| 18> O -0.430661645908907 -2.2429839898663455 -0.22936468132411006
| 19> H -2.359353942818265 2.049309425321565 1.0542316396115936
| 20> H -3.7131438784841206 1.4520192734594672 0.08660296311329808
| 21> H -2.333855938441051 2.2189891745363175 -0.7104167508123439
| 22> H -2.314116793527635 -0.2864190566962603 -0.9402480013346209
| 23> H -2.339075181917933 -0.45280392723195995 0.8054070625591643
| 24> H -0.19469974259843129 2.299707185930871 0.223915615538212
| 25> H 2.265519856793683 2.225027903647329 0.2518782988850318
| 26> H 3.4418736470849414 0.03657878844538554 0.0530428528172544
| 27> H 2.1137507909647835 -2.0551273762587394 -0.17267447418997015
| 28> H -1.3863404337489298 -2.0972499203037107 -0.21960276709750715
| 29> *
| 30>
| 31>                          ****END OF INPUT****

CARTESIAN COORDINATES (ANGSTROEM)
---------------------------------
  C     -2.625156    1.558821    0.112597
  C     -1.971010    0.188471   -0.009240
  C     -0.460895    0.181922    0.011411
  C      0.306758    1.341768    0.136927
  C      1.700606    1.303874    0.153198
  C      2.357374    0.082296    0.041820
  C      1.621629   -1.091579   -0.084922
  C      0.230610   -1.037167   -0.099398
  O     -0.430662   -2.242984   -0.229365
  H     -2.359354    2.049309    1.054232
  H     -3.713144    1.452019    0.086603
  H     -2.333856    2.218989   -0.710417
  H     -2.314117   -0.286419   -0.940248
  H     -2.339075   -0.452804    0.805407
  H     -0.194700    2.299707    0.223916
  H      2.265520    2.225028    0.251878
  H      3.441874    0.036579    0.053043
  H      2.113751   -2.055127   -0.172674
  H     -1.386340   -2.097250   -0.219603

 Total Charge           Charge          ....    0
 Multiplicity           Mult            ....    1
 Number of Electrons    NEL             ....   66
 Basis Dimension        Dim             ....  339

ORBITAL ENERGIES
----------------

  NO   OCC          E(Eh)            E(eV)
   0   2.0000     -21.700604      -590.5035
   1   2.0000     -12.109836      -329.5254
   2   2.0000     -12.056813      -328.0826
   3   2.0000     -12.048846      -327.8658
   4   2.0000     -12.047761      -327.8362
   5   2.0000     -12.047200      -327.8210
   6   2.0000     -12.044027      -327.7346
   7   2.0000     -12.041016      -327.6527
   8   2.0000     -12.029985      -327.3525
   9   2.0000      -1.712665       -46.6040
  10   2.0000      -1.385211       -37.6935
  11   2.0000      -1.304097       -35.4863
  12   2.0000      -1.277117       -34.7521
  13   2.0000      -1.238871       -33.7114
  14   2.0000      -1.156399       -31.4672
  15   2.0000      -1.127147       -30.6712
  16   2.0000      -1.082765       -29.4635
  17   2.0000      -1.050330       -28.5809
  18   2.0000      -1.002734       -27.2858
  19   2.0000      -0.946742       -25.7622
  20   2.0000      -0.942703       -25.6523
  21   2.0000      -0.933160       -25.3926
  22   2.0000      -0.891850       -24.2685
  23   2.0000      -0.879275       -23.9263
  24   2.0000      -0.868068       -23.6213
  25   2.0000      -0.833985       -22.6939
  26   2.0000      -0.825735       -22.4694
  27   2.0000      -0.803419       -21.8621
  28   2.0000      -0.781716       -21.2716
  29   2.0000      -0.781451       -21.2644
  30   2.0000      -0.754000       -20.5174
  31   2.0000      -0.638027       -17.3616
  32   2.0000      -0.631944       -17.1961
  33   0.0000      -0.244773        -6.6606
  34   0.0000      -0.237825        -6.4715
  35   0.0000      -0.147991        -4.0270
  36   0.0000      -0.070349        -1.9143
  37   0.0000      -0.050540        -1.3753

MULLIKEN ATOMIC CHARGES
-----------------------
   0 C :   -0.409346
   1 C :   -0.218139
   2 C :    0.045361
   3 C :   -0.222026
   4 C :   -0.210981
   5 C :   -0.149285
   6 C :   -0.280744
   7 C :    0.210403
   8 O :   -0.461660
   9 H :    0.131668
  10 H :    0.140263
  11 H :    0.131845
  12 H :    0.136338
  13 H :    0.136439
  14 H :    0.171748
  15 H :    0.157645
  16 H :    0.160172
  17 H :    0.152474
  18 H :    0.377824
Sum of atomic charges:   -0.0000000

LOEWDIN ATOMIC CHARGES
----------------------
   0 C :   -0.301983
   1 C :   -0.248953
   2 C :   -0.141313
   3 C :   -0.122439
   4 C :   -0.172961
   5 C :   -0.155032
   6 C :   -0.140389
   7 C :   -0.236379
   8 O :    0.042147
   9 H :    0.122274
  10 H :    0.122870
  11 H :    0.122286
  12 H :    0.149558
  13 H :    0.149752
  14 H :    0.156099
  15 H :    0.148432
  16 H :    0.150884
  17 H :    0.153492
  18 H :    0.201654

  Mayer bond orders larger than 0.100000
B(  0-C ,  1-C ) :   0.9880 B(  0-C ,  9-H ) :   0.9771 B(  0-C , 10-H ) :   0.9779
B(  0-C , 11-H ) :   0.9771 B(  1-C ,  2-C ) :   0.9368 B(  1-C , 12-H ) :   0.9664
B(  1-C , 13-H ) :   0.9658 B(  2-C ,  3-C ) :   1.3287 B(  2-C ,  7-C ) :   1.2843
B(  3-C ,  4-C ) :   1.4255 B(  3-C , 14-H ) :   0.9627 B(  4-C ,  5-C ) :   1.4189
B(  4-C , 15-H ) :   0.9815 B(  5-C ,  6-C ) :   1.4147 B(  5-C , 16-H ) :   0.9775
B(  6-C ,  7-C ) :   1.4220 B(  6-C , 17-H ) :   0.9850 B(  7-C ,  8-O ) :   1.1247
B(  8-O , 18-H ) :   0.8471

FINAL SINGLE POINT ENERGY      -386.126269134696

DIPOLE MOMENT
-------------

Method             : SCF
Type of density    : Electron Density
Multiplicity       :   1
Irrep              :   0
Energy             :  -386.1376610622958765 Eh
Relativity type    :
Basis              : AO
                                X                 Y                 Z
Electronic contribution:      5.471315638      -4.568675768      -0.367687848
Nuclear contribution   :     -6.417099488       5.030064150       0.408367326
                        -----------------------------------------
Total Dipole Moment    :     -0.945783850       0.461388382       0.040679478
                        -----------------------------------------
Magnitude (a.u.)       :      1.053110227
Magnitude (Debye)      :      2.676793469

Rotational constants in cm-1:             0.082890             0.048913             0.031117
Rotational constants in MHz :          2484.979120          1466.362555           932.859803

                             ****ORCA TERMINATED NORMALLY****
TOTAL RUN TIME: 0 days 0 hours 3 minutes 31 seconds 905 msec
