                         Program Version 6.0.0  -   RELEASE  -
|  1> ! wb97x-v def2-tzvp def2/J RIJCOSX DEFGRID2 scfconv7 GCP(DFT/TZ) printgap
|  2> %output
|  3>     printlevel normal
|  4> end
|  5> * xyz 0 1
|  6> C -2.393733669819266 0.08185399114152318 -0.00973764699640369
|  7> C -0.9168720695648213 0.46227678510795667 0.052548769993621
|  8> C 0.003095485910648983 -0.7172188102530768 -0.11198203375651139
|  9> C 1.3374149754321218 -0.6396905957805508 -0.08029145100918807
| 10> C 2.0916881362484556 0.6422030225274846 0.1250548580687407
| 11> H -2.638975482177124 -0.3810642361248025 -0.9718484322909704
| 12> H -3.0350208884722236 0.959886729951652 0.11402450050925574
| 13> H -2.6471580333629543 -0.6339234662123179 0.7799242338829383
| 14> H -0.692993597359394 1.2111440351275529 -0.7207776427950944
| 15> H -0.7028424375014866 0.9634305251566411 1.007477290915655
| 16> H -0.4664996786472925 -1.6888238165306144 -0.2673644101931983
| 17> H 1.9196336547460695 -1.5499756355349732 -0.21096679495375736
| 18> H 1.8175196360566472 1.1200400290068298 1.0743062264517311
| 19> H 1.8649628097700652 1.370369715773515 -0.6644106588671859
| 20> H 3.171616574452335 0.47854117282112524 0.13037004389911946
| 21> *
| 22>
| 23>                          ****END OF INPUT****

CARTESIAN COORDINATES (ANGSTROEM)
---------------------------------
  C     -2.393734    0.081854   -0.009738
  C     -0.916872    0.462277    0.052549
  C      0.003095   -0.717219   -0.111982
  C      1.337415   -0.639691   -0.080291
  C      2.091688    0.642203    0.125055
  H     -2.638975   -0.381064   -0.971848
  H     -3.035021    0.959887    0.114025
  H     -2.647158   -0.633923    0.779924
  H     -0.692994    1.211144   -0.720778
  H     -0.702842    0.963431    1.007477
  H     -0.466500   -1.688824   -0.267364
  H      1.919634   -1.549976   -0.210967
  H      1.817520    1.120040    1.074306
  H      1.864963    1.370370   -0.664411
  H      3.171617    0.478541    0.130370

 Total Charge           Charge          ....    0
 Multiplicity           Mult            ....    1
 Number of Electrons    NEL             ....   40
 Basis Dimension        Dim             ....  215

ORBITAL ENERGIES
----------------

  NO   OCC          E(Eh)            E(eV)
   0   2.0000     -12.044590      -327.7500
   1   2.0000     -12.040647      -327.6427
   2   2.0000     -12.038441      -327.5826
   3   2.0000     -12.037008      -327.5436
   4   2.0000     -12.035148      -327.4930
   5   2.0000      -1.320235       -35.9254
   6   2.0000      -1.255629       -34.1674
   7   2.0000      -1.180282       -32.1171
   8   2.0000      -1.102229       -29.9932
   9   2.0000      -0.991175       -26.9713
  10   2.0000      -0.912551       -24.8318
  11   2.0000      -0.882001       -24.0005
  12   2.0000      -0.867004       -23.5924
  13   2.0000      -0.825862       -22.4729
  14   2.0000      -0.821945       -22.3663
  15   2.0000      -0.811513       -22.0824
  16   2.0000      -0.794909       -21.6306
  17   2.0000      -0.772945       -21.0329
  18   2.0000      -0.763962       -20.7885
  19   2.0000      -0.632934       -17.2230
  20   0.0000      -0.191351        -5.2069
  21   0.0000      -0.037367        -1.0168
  22   0.0000      -0.012469        -0.3393
  23   0.0000       0.002499         0.0680
  24   0.0000       0.011687         0.3180

MULLIKEN ATOMIC CHARGES
-----------------------
   0 C :   -0.351362
   1 C :   -0.109372
   2 C :   -0.185605
   3 C :   -0.136453
   4 C :   -0.319037
   5 H :    0.110518
   6 H :    0.114451
   7 H :    0.110819
   8 H :    0.096621
   9 H :    0.096261
  10 H :    0.109844
  11 H :    0.111805
  12 H :    0.116359
  13 H :    0.116771
  14 H :    0.118382
Sum of atomic charges:    0.0000000

LOEWDIN ATOMIC CHARGES
----------------------
   0 C :   -0.306046
   1 C :   -0.276950
   2 C :   -0.186258
   3 C :   -0.207240
   4 C :   -0.293765
   5 H :    0.117183
   6 H :    0.115725
   7 H :    0.117275
   8 H :    0.138209
   9 H :    0.138087
  10 H :    0.139568
  11 H :    0.135303
  12 H :    0.124593
  13 H :    0.124793
  14 H :    0.119523

  Mayer bond orders larger than 0.100000
B(  0-C ,  1-C ) :   0.9857 B(  0-C ,  5-H ) :   0.9817 B(  0-C ,  6-H ) :   0.9851
B(  0-C ,  7-H ) :   0.9817 B(  1-C ,  2-C ) :   0.9601 B(  1-C ,  8-H ) :   0.9660
B(  1-C ,  9-H ) :   0.9665 B(  2-C ,  3-C ) :   1.9283 B(  2-C , 10-H ) :   0.9708
B(  3-C ,  4-C ) :   0.9765 B(  3-C , 11-H ) :   0.9708 B(  4-C , 12-H ) :   0.9715
B(  4-C , 13-H ) :   0.9708 B(  4-C , 14-H ) :   0.9847

FINAL SINGLE POINT ENERGY      -196.534483744466

DIPOLE MOMENT
-------------

Method             : SCF
Type of density    : Electron Density
Multiplicity       :   1
Irrep              :   0
Energy             :  -196.5440879601661663 Eh
Relativity type    :
Basis              : AO
                                X                 Y                 Z
Electronic contribution:      1.324110427      -1.627862199      -0.238729447
Nuclear contribution   :     -1.327873797       1.759936139       0.256706484
                        -----------------------------------------
Total Dipole Moment    :     -0.003763370       0.132073940       0.017977037
                        -----------------------------------------
Magnitude (a.u.)       :      0.133344900
Magnitude (Debye)      :      0.338935800

Rotational constants in cm-1:             0.461097             0.083076             0.073252
Rotational constants in MHz :         13823.341758          2490.567250          2196.052641

                             ****ORCA TERMINATED NORMALLY****
TOTAL RUN TIME: 0 days 0 hours 1 minutes 6 seconds 379 msec
