                         Program Version 6.0.0  -   RELEASE  -
|  1> ! wb97x-v def2-tzvp def2/J RIJCOSX DEFGRID2 scfconv7 GCP(DFT/TZ) printgap
|  2> %output
|  3>     printlevel normal
|  4> end
|  5> %cpcm
|  6>     smd true
|  7>     smdsolvent "water"
|  8> end
|  9> * xyz 0 1
| 10> C -2.393733669819266 0.08185399114152318 -0.00973764699640369
| 11> C -0.9168720695648213 0.46227678510795667 0.052548769993621
| 12> C 0.003095485910648983 -0.7172188102530768 -0.11198203375651139
| 13> C 1.3374149754321218 -0.6396905957805508 -0.08029145100918807
| 14> C 2.0916881362484556 0.6422030225274846 0.1250548580687407
| 15> H -2.638975482177124 -0.3810642361248025 -0.9718484322909704
| 16> H -3.0350208884722236 0.959886729951652 0.11402450050925574
| 17> H -2.6471580333629543 -0.6339234662123179 0.7799242338829383
| 18> H -0.692993597359394 1.2111440351275529 -0.7207776427950944
| 19> H -0.7028424375014866 0.9634305251566411 1.007477290915655
| 20> H -0.4664996786472925 -1.6888238165306144 -0.2673644101931983
| 21> H 1.9196336547460695 -1.5499756355349732 -0.21096679495375736
| 22> H 1.8175196360566472 1.1200400290068298 1.0743062264517311
| 23> H 1.8649628097700652 1.370369715773515 -0.6644106588671859
| 24> H 3.171616574452335 0.47854117282112524 0.13037004389911946
| 25> *
| 26>
| 27>                          ****END OF INPUT****

CARTESIAN COORDINATES (ANGSTROEM)
---------------------------------
  C     -2.393734    0.081854   -0.009738
  C     -0.916872    0.462277    0.052549
  C      0.003095   -0.717219   -0.111982
  C      1.337415   -0.639691   -0.080291
  C      2.091688    0.642203    0.125055
  H     -2.638975   -0.381064   -0.971848
  H     -3.035021    0.959887    0.114025
  H     -2.647158   -0.633923    0.779924
  H     -0.692994    1.211144   -0.720778
  H     -0.702842    0.963431    1.007477
  H     -0.466500   -1.688824   -0.267364
  H      1.919634   -1.549976   -0.210967
  H      1.817520    1.120040    1.074306
  H      1.864963    1.370370   -0.664411
  H      3.171617    0.478541    0.130370

 Total Charge           Charge          ....    0
 Multiplicity           Mult            ....    1
 Number of Electrons    NEL             ....   40
 Basis Dimension        Dim             ....  215

ORBITAL ENERGIES
----------------

  NO   OCC          E(Eh)            E(eV)
   0   2.0000     -12.037789      -327.5649
   1   2.0000     -12.037115      -327.5466
   2   2.0000     -12.034353      -327.4714
   3   2.0000     -12.030488      -327.3662
   4   2.0000     -12.026619      -327.2609
   5   2.0000      -1.316656       -35.8280
   6   2.0000      -1.249278       -33.9946
   7   2.0000      -1.174648       -31.9638
   8   2.0000      -1.095898       -29.8209
   9   2.0000      -0.986013       -26.8308
  10   2.0000      -0.908294       -24.7159
  11   2.0000      -0.876611       -23.8538
  12   2.0000      -0.859588       -23.3906
  13   2.0000      -0.818999       -22.2861
  14   2.0000      -0.814532       -22.1645
  15   2.0000      -0.804821       -21.9003
  16   2.0000      -0.788006       -21.4427
  17   2.0000      -0.765185       -20.8217
  18   2.0000      -0.757908       -20.6237
  19   2.0000      -0.631560       -17.1856
  20   0.0000      -0.189777        -5.1641
  21   0.0000      -0.030666        -0.8345
  22   0.0000      -0.005270        -0.1434
  23   0.0000       0.010690         0.2909
  24   0.0000       0.020028         0.5450

MULLIKEN ATOMIC CHARGES
-----------------------
   0 C :   -0.391120
   1 C :   -0.122399
   2 C :   -0.245968
   3 C :   -0.191137
   4 C :   -0.358088
   5 H :    0.123033
   6 H :    0.131098
   7 H :    0.123196
   8 H :    0.114511
   9 H :    0.114536
  10 H :    0.144478
  11 H :    0.148715
  12 H :    0.134786
  13 H :    0.134940
  14 H :    0.139420
Sum of atomic charges:    0.0000000

LOEWDIN ATOMIC CHARGES
----------------------
   0 C :   -0.311422
   1 C :   -0.278736
   2 C :   -0.198948
   3 C :   -0.221001
   4 C :   -0.298649
   5 H :    0.119238
   6 H :    0.118465
   7 H :    0.119276
   8 H :    0.142415
   9 H :    0.142358
  10 H :    0.144793
  11 H :    0.140806
  12 H :    0.128873
  13 H :    0.129019
  14 H :    0.123513

  Mayer bond orders larger than 0.100000
B(  0-C ,  1-C ) :   0.9809 B(  0-C ,  5-H ) :   0.9786 B(  0-C ,  6-H ) :   0.9826
B(  0-C ,  7-H ) :   0.9786 B(  1-C ,  2-C ) :   0.9548 B(  1-C ,  8-H ) :   0.9639
B(  1-C ,  9-H ) :   0.9646 B(  2-C ,  3-C ) :   1.9044 B(  2-C , 10-H ) :   0.9694
B(  3-C ,  4-C ) :   0.9781 B(  3-C , 11-H ) :   0.9720 B(  4-C , 12-H ) :   0.9668
B(  4-C , 13-H ) :   0.9661 B(  4-C , 14-H ) :   0.9805

FINAL SINGLE POINT ENERGY      -196.533099771552

DIPOLE MOMENT
-------------

Method             : SCF
Type of density    : Electron Density
Multiplicity       :   1
Irrep              :   0
Energy             :  -196.5427039872522812 Eh
Relativity type    :
Basis              : AO
                                X                 Y                 Z
Electronic contribution:      1.323661062      -1.561177043      -0.229391013
Nuclear contribution   :     -1.327873797       1.759936139       0.256706484
                        -----------------------------------------
Total Dipole Moment    :     -0.004212735       0.198759096       0.027315471
                        -----------------------------------------
Magnitude (a.u.)       :      0.200671523
Magnitude (Debye)      :      0.510066476

Rotational constants in cm-1:             0.461097             0.083076             0.073252
Rotational constants in MHz :         13823.341758          2490.567250          2196.052641

                             ****ORCA TERMINATED NORMALLY****
TOTAL RUN TIME: 0 days 0 hours 1 minutes 3 seconds 213 msec
