                         Program Version 6.0.0  -   RELEASE  -
|  1> ! pbe def2-sv(p) def2/J RI DEFGRID1 loosescf d4 GCP(DFT/SV(P)) printgap
|  2> %output
|  3>     printlevel normal
|  4> end
|  5> * xyz 0 1
|  6> C -2.2399460609 -0.156048351 -0.4352064501
|  7> N -1.056846647 0.0960165536 0.3574174854
|  8> C -0.2873874823 1.2067863928 -0.1921114807
|  9> C 1.1367707669 1.1986591598 0.346790502
| 10> C 1.8967029475 -0.0256544595 -0.1803511593
| 11> C 0.9349642231 -1.2020339409 -0.3922374226
| 12> C -0.2370743296 -1.0924591208 0.5836174876
| 13> H -2.0136800783 -0.4830383851 -1.4636213035
| 14> H -2.8227109302 0.7627546958 -0.4908793417
| 15> H -2.8433497125 -0.9200296143 0.0516573962
| 16> H -0.2536213903 1.1692326293 -1.295909134
| 17> H -0.7984390761 2.1332251617 0.0908267644
| 18> H 1.6447265519 2.1160038927 0.048472765
| 19> H 1.0925215832 1.1791096388 1.4358361347
| 20> H 2.3864895682 0.2180067633 -1.1247983681
| 21> H 2.6740046272 -0.302695574 0.5328245963
| 22> H 0.5443346093 -1.1922630645 -1.4124475252
| 23> H 1.4510778275 -2.1511947842 -0.2467639469
| 24> H -0.8753609612 -1.9749162943 0.5129055011
| 25> H 0.1526608436 -1.0454074597 1.6064715867
| 26> *
| 27>
| 28>                          ****END OF INPUT****

CARTESIAN COORDINATES (ANGSTROEM)
---------------------------------
  C     -2.239946   -0.156048   -0.435206
  N     -1.056847    0.096017    0.357417
  C     -0.287387    1.206786   -0.192111
  C      1.136771    1.198659    0.346791
  C      1.896703   -0.025654   -0.180351
  C      0.934964   -1.202034   -0.392237
  C     -0.237074   -1.092459    0.583617
  H     -2.013680   -0.483038   -1.463621
  H     -2.822711    0.762755   -0.490879
  H     -2.843350   -0.920030    0.051657
  H     -0.253621    1.169233   -1.295909
  H     -0.798439    2.133225    0.090827
  H      1.644727    2.116004    0.048473
  H      1.092522    1.179110    1.435836
  H      2.386490    0.218007   -1.124798
  H      2.674005   -0.302696    0.532825
  H      0.544335   -1.192263   -1.412448
  H      1.451078   -2.151195   -0.246764
  H     -0.875361   -1.974916    0.512906
  H      0.152661   -1.045407    1.606472

 Total Charge           Charge          ....    0
 Multiplicity           Mult            ....    1
 Number of Electrons    NEL             ....   56
 Basis Dimension        Dim             ....  124

ORBITAL ENERGIES
----------------

  NO   OCC          E(Eh)            E(eV)
   0   2.0000     -13.969496      -380.1293
   1   2.0000      -9.901555      -269.4350
   2   2.0000      -9.901467      -269.4326
   3   2.0000      -9.895039      -269.2577
   4   2.0000      -9.882023      -268.9035
   5   2.0000      -9.881537      -268.8903
   6   2.0000      -9.880642      -268.8659
   7   2.0000      -0.833626       -22.6841
   8   2.0000      -0.715071       -19.4581
   9   2.0000      -0.669764       -18.2252
  10   2.0000      -0.615645       -16.7526
  11   2.0000      -0.563943       -15.3457
  12   2.0000      -0.539646       -14.6845
  13   2.0000      -0.465386       -12.6638
  14   2.0000      -0.447012       -12.1638
  15   2.0000      -0.437482       -11.9045
  16   2.0000      -0.398545       -10.8450
  17   2.0000      -0.377298       -10.2668
  18   2.0000      -0.370865       -10.0918
  19   2.0000      -0.354214        -9.6386
  20   2.0000      -0.335588        -9.1318
  21   2.0000      -0.330560        -8.9950
  22   2.0000      -0.322138        -8.7658
  23   2.0000      -0.310229        -8.4418
  24   2.0000      -0.286209        -7.7881
  25   2.0000      -0.272360        -7.4113
  26   2.0000      -0.267789        -7.2869
  27   2.0000      -0.155394        -4.2285
  28   0.0000       0.028010         0.7622
  29   0.0000       0.053370         1.4523
  30   0.0000       0.068143         1.8543
  31   0.0000       0.079394         2.1604
  32   0.0000       0.085612         2.3296

MULLIKEN ATOMIC CHARGES
-----------------------
   0 C :   -0.168138
   1 N :   -0.309050
   2 C :   -0.054831
   3 C :   -0.157072
   4 C :   -0.164823
   5 C :   -0.160992
   6 C :   -0.051081
   7 H :    0.068371
   8 H :    0.100384
   9 H :    0.103817
  10 H :    0.048523
  11 H :    0.083202
  12 H :    0.089399
  13 H :    0.086676
  14 H :    0.083192
  15 H :    0.083511
  16 H :    0.078338
  17 H :    0.086106
  18 H :    0.079529
  19 H :    0.074940
Sum of atomic charges:    0.0000000

LOEWDIN ATOMIC CHARGES
----------------------
   0 C :   -0.257438
   1 N :   -0.157483
   2 C :   -0.155564
   3 C :   -0.236349
   4 C :   -0.229929
   5 C :   -0.245545
   6 C :   -0.156613
   7 H :    0.084675
   8 H :    0.112963
   9 H :    0.111662
  10 H :    0.086863
  11 H :    0.109582
  12 H :    0.122325
  13 H :    0.121227
  14 H :    0.116773
  15 H :    0.117094
  16 H :    0.116607
  17 H :    0.119746
  18 H :    0.113374
  19 H :    0.106029

  Mayer bond orders larger than 0.100000
B(  0-C ,  1-N ) :   1.0500 B(  0-C ,  7-H ) :   0.9217 B(  0-C ,  8-H ) :   0.9536
B(  0-C ,  9-H ) :   0.9564 B(  1-N ,  2-C ) :   1.0431 B(  1-N ,  6-C ) :   1.0508
B(  2-C ,  3-C ) :   1.1821 B(  2-C , 10-H ) :   0.8900 B(  2-C , 11-H ) :   0.9211
B(  3-C ,  4-C ) :   1.1522 B(  3-C , 12-H ) :   0.9206 B(  3-C , 13-H ) :   0.8951
B(  4-C ,  5-C ) :   1.1461 B(  4-C , 14-H ) :   0.9215 B(  4-C , 15-H ) :   0.9221
B(  5-C ,  6-C ) :   1.1760 B(  5-C , 16-H ) :   0.8955 B(  5-C , 17-H ) :   0.9176
B(  6-C , 18-H ) :   0.9190 B(  6-C , 19-H ) :   0.9187

Dispersion correction           -0.017757818
FINAL SINGLE POINT ENERGY      -290.483969148964

DIPOLE MOMENT
-------------

Method             : SCF
Type of density    : Electron Density
Multiplicity       :   1
Irrep              :   0
Energy             :  -290.5564722076544513 Eh
Relativity type    :
Basis              : AO
                                X                 Y                 Z
Electronic contribution:     -0.165125677       0.363516794       1.463765913
Nuclear contribution   :      0.311931844      -0.460312655      -1.644921639
                        -----------------------------------------
Total Dipole Moment    :      0.146806167      -0.096795860      -0.181155726
                        -----------------------------------------
Magnitude (a.u.)       :      0.252465614
Magnitude (Debye)      :      0.641716593

Rotational constants in cm-1:             0.145133             0.079082             0.060258
Rotational constants in MHz :          4350.968116          2370.823679          1806.491951

                             ****ORCA TERMINATED NORMALLY****
TOTAL RUN TIME: 0 days 0 hours 0 minutes 7 seconds 291 msec
