                         Program Version 6.0.0  -   RELEASE  -
|  1> ! pbe def2-sv(p) def2/J RI DEFGRID1 loosescf d4 GCP(DFT/SV(P)) printgap
|  2> %output
|  3>     printlevel normal
|  4> end
|  5> * xyz 0 1
|  6> C 1.5396332269 1.4022439281 -1.3962887385
|  7> C 2.9098091547 1.510664395 -1.5401874436
|  8> C 3.7486329188 0.8154358218 -0.6827801915
|  9> C 3.2161709362 0.0215192677 0.3301403963
| 10> C 1.8345211855 -0.0804303708 0.4663448598
| 11> C 0.984725495 0.5988391563 -0.4057663385
| 12> C -0.483163211 0.4780768537 -0.2768484967
| 13> C -1.2427932223 1.5911031236 0.0601414071
| 14> C -2.6169718174 1.4898563041 0.2010712431
| 15> C -3.2580366893 0.2688271369 0.0002418401
| 16> C -2.5052970465 -0.8473504307 -0.3588270143
| 17> C -1.1238898479 -0.7411442963 -0.5007868628
| 18> Cl -0.2212932049 -2.1219475885 -0.9930983343
| 19> Cl -3.2889718511 -2.3558801725 -0.6274662394
| 20> Cl -4.9630420309 0.1321473258 0.1847981873
| 21> Cl -3.5429065845 2.8734201718 0.6317260096
| 22> Cl 1.1817652704 -1.02461294 1.7565609738
| 23> Cl 4.258123515 -0.8293618131 1.4134903013
| 24> Cl 5.4603752394 0.9339375197 -0.8577883442
| 25> H 0.8826981727 1.9330508872 -2.0652107787
| 26> H 3.3369326028 2.1276673981 -2.3127515553
| 27> H -0.7563575571 2.53800027 0.2274204769
| 28> *
| 29>
| 30>                          ****END OF INPUT****

CARTESIAN COORDINATES (ANGSTROEM)
---------------------------------
  C      1.539633    1.402244   -1.396289
  C      2.909809    1.510664   -1.540187
  C      3.748633    0.815436   -0.682780
  C      3.216171    0.021519    0.330140
  C      1.834521   -0.080430    0.466345
  C      0.984725    0.598839   -0.405766
  C     -0.483163    0.478077   -0.276848
  C     -1.242793    1.591103    0.060141
  C     -2.616972    1.489856    0.201071
  C     -3.258037    0.268827    0.000242
  C     -2.505297   -0.847350   -0.358827
  C     -1.123890   -0.741144   -0.500787
  Cl    -0.221293   -2.121948   -0.993098
  Cl    -3.288972   -2.355880   -0.627466
  Cl    -4.963042    0.132147    0.184798
  Cl    -3.542907    2.873420    0.631726
  Cl     1.181765   -1.024613    1.756561
  Cl     4.258124   -0.829362    1.413490
  Cl     5.460375    0.933938   -0.857788
  H      0.882698    1.933051   -2.065211
  H      3.336933    2.127667   -2.312752
  H     -0.756358    2.538000    0.227420

 Total Charge           Charge          ....    0
 Multiplicity           Mult            ....    1
 Number of Electrons    NEL             ....  194
 Basis Dimension        Dim             ....  300

ORBITAL ENERGIES
----------------

  NO   OCC          E(Eh)            E(eV)
   0   2.0000    -100.661109     -2739.1280
   1   2.0000    -100.660997     -2739.1250
   2   2.0000    -100.660399     -2739.1087
   3   2.0000    -100.659583     -2739.0865
   4   2.0000    -100.658696     -2739.0624
   5   2.0000    -100.657510     -2739.0301
   6   2.0000    -100.656756     -2739.0096
   7   2.0000      -9.984401      -271.6894
   8   2.0000      -9.982153      -271.6282
   9   2.0000      -9.981727      -271.6166
  10   2.0000      -9.981187      -271.6019
  11   2.0000      -9.981136      -271.6005
  12   2.0000      -9.977719      -271.5075
  13   2.0000      -9.977384      -271.4984
  14   2.0000      -9.946187      -270.6495
  15   2.0000      -9.943354      -270.5724
  16   2.0000      -9.931517      -270.2503
  17   2.0000      -9.928410      -270.1658
  18   2.0000      -9.927620      -270.1443
  19   2.0000      -9.196837      -250.2586
  20   2.0000      -9.196719      -250.2554
  21   2.0000      -9.195894      -250.2330
  22   2.0000      -9.195449      -250.2209
  23   2.0000      -9.194267      -250.1887
  24   2.0000      -9.193234      -250.1606
  25   2.0000      -9.192766      -250.1479
  26   2.0000      -7.028617      -191.2584
  27   2.0000      -7.028515      -191.2556
  28   2.0000      -7.027543      -191.2292
  29   2.0000      -7.027045      -191.2156
  30   2.0000      -7.025891      -191.1842
  31   2.0000      -7.025012      -191.1603
  32   2.0000      -7.024337      -191.1419
  33   2.0000      -7.016875      -190.9389
  34   2.0000      -7.016779      -190.9363
  35   2.0000      -7.015911      -190.9126
  36   2.0000      -7.015709      -190.9071
  37   2.0000      -7.015615      -190.9046
  38   2.0000      -7.015451      -190.9001
  39   2.0000      -7.014969      -190.8870
  40   2.0000      -7.014554      -190.8757
  41   2.0000      -7.014292      -190.8686
  42   2.0000      -7.013337      -190.8426
  43   2.0000      -7.013272      -190.8408
  44   2.0000      -7.012795      -190.8279
  45   2.0000      -7.012146      -190.8102
  46   2.0000      -7.011840      -190.8019
  47   2.0000      -0.874831       -23.8054
  48   2.0000      -0.863653       -23.5012
  49   2.0000      -0.834168       -22.6989
  50   2.0000      -0.821124       -22.3439
  51   2.0000      -0.810430       -22.0529
  52   2.0000      -0.792953       -21.5773
  53   2.0000      -0.783627       -21.3236
  54   2.0000      -0.775399       -21.0997
  55   2.0000      -0.762703       -20.7542
  56   2.0000      -0.708281       -19.2733
  57   2.0000      -0.680311       -18.5122
  58   2.0000      -0.671084       -18.2611
  59   2.0000      -0.655648       -17.8411
  60   2.0000      -0.589279       -16.0351
  61   2.0000      -0.573540       -15.6068
  62   2.0000      -0.564001       -15.3473
  63   2.0000      -0.545892       -14.8545
  64   2.0000      -0.497467       -13.5368
  65   2.0000      -0.490501       -13.3472
  66   2.0000      -0.474668       -12.9164
  67   2.0000      -0.468566       -12.7503
  68   2.0000      -0.441353       -12.0098
  69   2.0000      -0.430841       -11.7238
  70   2.0000      -0.420645       -11.4463
  71   2.0000      -0.418180       -11.3793
  72   2.0000      -0.416379       -11.3302
  73   2.0000      -0.411880       -11.2078
  74   2.0000      -0.404319       -11.0021
  75   2.0000      -0.389865       -10.6088
  76   2.0000      -0.375316       -10.2129
  77   2.0000      -0.365130        -9.9357
  78   2.0000      -0.359698        -9.7879
  79   2.0000      -0.355189        -9.6652
  80   2.0000      -0.340441        -9.2639
  81   2.0000      -0.333090        -9.0638
  82   2.0000      -0.317606        -8.6425
  83   2.0000      -0.305654        -8.3173
  84   2.0000      -0.303562        -8.2603
  85   2.0000      -0.300148        -8.1674
  86   2.0000      -0.296846        -8.0776
  87   2.0000      -0.295277        -8.0349
  88   2.0000      -0.287493        -7.8231
  89   2.0000      -0.286039        -7.7835
  90   2.0000      -0.279941        -7.6176
  91   2.0000      -0.263803        -7.1785
  92   2.0000      -0.262121        -7.1327
  93   2.0000      -0.242113        -6.5882
  94   2.0000      -0.235263        -6.4018
  95   2.0000      -0.231109        -6.2888
  96   2.0000      -0.224282        -6.1030
  97   0.0000      -0.084533        -2.3003
  98   0.0000      -0.074489        -2.0270
  99   0.0000      -0.066574        -1.8116
 100   0.0000      -0.057481        -1.5641
 101   0.0000      -0.052225        -1.4211

MULLIKEN ATOMIC CHARGES
-----------------------
   0 C :   -0.105835
   1 C :   -0.091307
   2 C :    0.070613
   3 C :    0.038608
   4 C :    0.024267
   5 C :    0.036986
   6 C :    0.031783
   7 C :   -0.174958
   8 C :    0.088285
   9 C :    0.030570
  10 C :    0.008818
  11 C :    0.041326
  12 Cl:   -0.018338
  13 Cl:   -0.014034
  14 Cl:   -0.013901
  15 Cl:   -0.040475
  16 Cl:   -0.020558
  17 Cl:   -0.020025
  18 Cl:   -0.041735
  19 H :    0.061010
  20 H :    0.058220
  21 H :    0.050681
Sum of atomic charges:   -0.0000000

LOEWDIN ATOMIC CHARGES
----------------------
   0 C :   -0.104308
   1 C :   -0.134650
   2 C :   -0.150642
   3 C :   -0.173541
   4 C :   -0.142889
   5 C :   -0.055813
   6 C :   -0.050582
   7 C :   -0.124236
   8 C :   -0.157543
   9 C :   -0.176111
  10 C :   -0.172089
  11 C :   -0.152751
  12 Cl:    0.176082
  13 Cl:    0.172950
  14 Cl:    0.172585
  15 Cl:    0.161484
  16 Cl:    0.172610
  17 Cl:    0.164597
  18 Cl:    0.157791
  19 H :    0.137060
  20 H :    0.138505
  21 H :    0.141491

  Mayer bond orders larger than 0.100000
B(  0-C ,  1-C ) :   1.3005 B(  0-C ,  5-C ) :   1.3648 B(  0-C , 19-H ) :   0.9674
B(  1-C ,  2-C ) :   1.3688 B(  1-C , 20-H ) :   0.9715 B(  2-C ,  3-C ) :   1.4068
B(  2-C , 18-Cl) :   1.0451 B(  3-C ,  4-C ) :   1.3971 B(  3-C , 17-Cl) :   1.1167
B(  4-C ,  5-C ) :   1.4147 B(  4-C , 16-Cl) :   1.1163 B(  5-C ,  6-C ) :   0.9478
B(  6-C ,  7-C ) :   1.3203 B(  6-C , 11-C ) :   1.3956 B(  7-C ,  8-C ) :   1.3144
B(  7-C , 21-H ) :   0.9799 B(  8-C ,  9-C ) :   1.3980 B(  8-C , 15-Cl) :   1.0356
B(  9-C , 10-C ) :   1.4157 B(  9-C , 14-Cl) :   1.1197 B( 10-C , 11-C ) :   1.3920
B( 10-C , 13-Cl) :   1.1204 B( 11-C , 12-Cl) :   1.1178

Dispersion correction           -0.050063327
FINAL SINGLE POINT ENERGY     -3677.237439730694

DIPOLE MOMENT
-------------

Method             : SCF
Type of density    : Electron Density
Multiplicity       :   1
Irrep              :   0
Energy             : -3677.2543752129927270 Eh
Relativity type    :
Basis              : AO
                                X                 Y                 Z
Electronic contribution:     -4.648496717      -8.824273222       5.496617050
Nuclear contribution   :      4.747002948       9.401732628      -5.918294939
                        -----------------------------------------
Total Dipole Moment    :      0.098506231       0.577459406      -0.421677889
                        -----------------------------------------
Magnitude (a.u.)       :      0.721786038
Magnitude (Debye)      :      1.834634308

Rotational constants in cm-1:             0.013528             0.003655             0.003268
Rotational constants in MHz :           405.552007           109.575012            97.964037

                             ****ORCA TERMINATED NORMALLY****
TOTAL RUN TIME: 0 days 0 hours 0 minutes 22 seconds 44 msec
