                         Program Version 6.0.0  -   RELEASE  -
|  1> ! wb97x-v def2-tzvp def2/J RIJCOSX DEFGRID2 scfconv7 GCP(DFT/TZ) printgap
|  2> %output
|  3>     printlevel normal
|  4> end
|  5> * xyz 0 1
|  6> C -2.8532974128371116 0.2675810555764496 0.36382084354611577
|  7> C -2.189535036996585 -0.06114558043177597 -0.966900454680641
|  8> C -0.9676852966067273 -0.9408985225404767 -0.8608092954634351
|  9> I 0.7050573401483429 0.04233515281073747 0.20022172225291263
| 10> H -2.1936825023216686 0.87190381551072 0.9950965144300721
| 11> H -3.776665172991116 0.8325909212307664 0.2053484457941257
| 12> H -3.10365348717173 -0.6469365023701328 0.9126152847178948
| 13> H -1.9476251396426254 0.854604014314031 -1.5169612890163977
| 14> H -2.8942029133261533 -0.6262374785547937 -1.595609480501893
| 15> H -0.5369625499127676 -1.1905282542133944 -1.8290224800776418
| 16> H -1.1414484522189017 -1.8438617894570826 -0.2751201959555341
| 17> *
| 18>
| 19>                          ****END OF INPUT****

CARTESIAN COORDINATES (ANGSTROEM)
---------------------------------
  C     -2.853297    0.267581    0.363821
  C     -2.189535   -0.061146   -0.966900
  C     -0.967685   -0.940899   -0.860809
  I      0.705057    0.042335    0.200222
  H     -2.193683    0.871904    0.995097
  H     -3.776665    0.832591    0.205348
  H     -3.103653   -0.646937    0.912615
  H     -1.947625    0.854604   -1.516961
  H     -2.894203   -0.626237   -1.595609
  H     -0.536963   -1.190528   -1.829022
  H     -1.141448   -1.843862   -0.275120

 Total Charge           Charge          ....    0
 Multiplicity           Mult            ....    1
 Number of Electrons    NEL             ....   50
 Basis Dimension        Dim             ....  185

ORBITAL ENERGIES
----------------

  NO   OCC          E(Eh)            E(eV)
   0   2.0000     -12.102561      -329.3274
   1   2.0000     -12.062787      -328.2451
   2   2.0000     -12.042731      -327.6994
   3   2.0000      -8.111988      -220.7384
   4   2.0000      -6.082842      -165.5225
   5   2.0000      -6.073246      -165.2614
   6   2.0000      -6.073000      -165.2547
   7   2.0000      -3.003063       -81.7175
   8   2.0000      -3.000385       -81.6446
   9   2.0000      -3.000180       -81.6391
  10   2.0000      -2.991228       -81.3954
  11   2.0000      -2.991202       -81.3947
  12   2.0000      -1.312225       -35.7075
  13   2.0000      -1.206724       -32.8366
  14   2.0000      -1.142929       -31.1007
  15   2.0000      -1.062528       -28.9129
  16   2.0000      -0.903320       -24.5806
  17   2.0000      -0.890019       -24.2186
  18   2.0000      -0.864647       -23.5282
  19   2.0000      -0.815933       -22.2027
  20   2.0000      -0.797242       -21.6941
  21   2.0000      -0.784632       -21.3509
  22   2.0000      -0.720540       -19.6069
  23   2.0000      -0.620962       -16.8972
  24   2.0000      -0.618676       -16.8350
  25   0.0000      -0.268635        -7.3099
  26   0.0000      -0.028190        -0.7671
  27   0.0000      -0.025798        -0.7020
  28   0.0000      -0.006576        -0.1789
  29   0.0000       0.013705         0.3729

MULLIKEN ATOMIC CHARGES
-----------------------
   0 C :   -0.343024
   1 C :   -0.164818
   2 C :   -0.238764
   3 I :   -0.113683
   4 H :    0.131207
   5 H :    0.117248
   6 H :    0.105008
   7 H :    0.116158
   8 H :    0.099420
   9 H :    0.150516
  10 H :    0.140732
Sum of atomic charges:    0.0000000

LOEWDIN ATOMIC CHARGES
----------------------
   0 C :   -0.308914
   1 C :   -0.330789
   2 C :   -0.420834
   3 I :    0.177463
   4 H :    0.118849
   5 H :    0.118909
   6 H :    0.118053
   7 H :    0.136932
   8 H :    0.141473
   9 H :    0.124144
  10 H :    0.124714

  Mayer bond orders larger than 0.100000
B(  0-C ,  1-C ) :   0.9842 B(  0-C ,  4-H ) :   0.9730 B(  0-C ,  5-H ) :   0.9792
B(  0-C ,  6-H ) :   0.9764 B(  1-C ,  2-C ) :   0.9946 B(  1-C ,  7-H ) :   0.9717
B(  1-C ,  8-H ) :   0.9533 B(  2-C ,  3-I ) :   1.0241 B(  2-C ,  9-H ) :   0.9625
B(  2-C , 10-H ) :   0.9617

FINAL SINGLE POINT ENERGY      -416.234169824872

DIPOLE MOMENT
-------------

Method             : SCF
Type of density    : Electron Density
Multiplicity       :   1
Irrep              :   0
Energy             :  -416.2425563628722216 Eh
Relativity type    :
Basis              : AO
                                X                 Y                 Z
Electronic contribution:     64.443142567       6.453894009      15.227615949
Nuclear contribution   :    -65.176465111      -6.734786681     -15.614749570
                        -----------------------------------------
Total Dipole Moment    :     -0.733322544      -0.280892672      -0.387133621
                        -----------------------------------------
Magnitude (a.u.)       :      0.875519896
Magnitude (Debye)      :      2.225394720

Rotational constants in cm-1:             0.350614             0.058167             0.052709
Rotational constants in MHz :         10511.133834          1743.789436          1580.166404

                             ****ORCA TERMINATED NORMALLY****
TOTAL RUN TIME: 0 days 0 hours 1 minutes 4 seconds 427 msec
