                         Program Version 6.0.0  -   RELEASE  -
|  1> ! wb97x-v def2-tzvp def2/J RIJCOSX DEFGRID2 scfconv7 GCP(DFT/TZ) printgap
|  2> %output
|  3>     printlevel normal
|  4> end
|  5> %cpcm
|  6>     smd true
|  7>     smdsolvent "water"
|  8> end
|  9> * xyz 0 1
| 10> C -2.8532974128371116 0.2675810555764496 0.36382084354611577
| 11> C -2.189535036996585 -0.06114558043177597 -0.966900454680641
| 12> C -0.9676852966067273 -0.9408985225404767 -0.8608092954634351
| 13> I 0.7050573401483429 0.04233515281073747 0.20022172225291263
| 14> H -2.1936825023216686 0.87190381551072 0.9950965144300721
| 15> H -3.776665172991116 0.8325909212307664 0.2053484457941257
| 16> H -3.10365348717173 -0.6469365023701328 0.9126152847178948
| 17> H -1.9476251396426254 0.854604014314031 -1.5169612890163977
| 18> H -2.8942029133261533 -0.6262374785547937 -1.595609480501893
| 19> H -0.5369625499127676 -1.1905282542133944 -1.8290224800776418
| 20> H -1.1414484522189017 -1.8438617894570826 -0.2751201959555341
| 21> *
| 22>
| 23>                          ****END OF INPUT****

CARTESIAN COORDINATES (ANGSTROEM)
---------------------------------
  C     -2.853297    0.267581    0.363821
  C     -2.189535   -0.061146   -0.966900
  C     -0.967685   -0.940899   -0.860809
  I      0.705057    0.042335    0.200222
  H     -2.193683    0.871904    0.995097
  H     -3.776665    0.832591    0.205348
  H     -3.103653   -0.646937    0.912615
  H     -1.947625    0.854604   -1.516961
  H     -2.894203   -0.626237   -1.595609
  H     -0.536963   -1.190528   -1.829022
  H     -1.141448   -1.843862   -0.275120

 Total Charge           Charge          ....    0
 Multiplicity           Mult            ....    1
 Number of Electrons    NEL             ....   50
 Basis Dimension        Dim             ....  185

ORBITAL ENERGIES
----------------

  NO   OCC          E(Eh)            E(eV)
   0   2.0000     -12.087206      -328.9096
   1   2.0000     -12.045126      -327.7645
   2   2.0000     -12.027740      -327.2914
   3   2.0000      -8.108866      -220.6535
   4   2.0000      -6.079179      -165.4229
   5   2.0000      -6.070421      -165.1846
   6   2.0000      -6.070188      -165.1782
   7   2.0000      -2.999393       -81.6176
   8   2.0000      -2.997028       -81.5533
   9   2.0000      -2.996834       -81.5480
  10   2.0000      -2.988626       -81.3247
  11   2.0000      -2.988601       -81.3240
  12   2.0000      -1.295898       -35.2632
  13   2.0000      -1.194627       -32.5074
  14   2.0000      -1.135002       -30.8850
  15   2.0000      -1.046973       -28.4896
  16   2.0000      -0.886132       -24.1129
  17   2.0000      -0.873584       -23.7714
  18   2.0000      -0.848250       -23.0821
  19   2.0000      -0.799730       -21.7618
  20   2.0000      -0.782388       -21.2898
  21   2.0000      -0.768487       -20.9116
  22   2.0000      -0.708918       -19.2906
  23   2.0000      -0.620129       -16.8746
  24   2.0000      -0.618101       -16.8194
  25   0.0000      -0.257903        -7.0179
  26   0.0000      -0.012487        -0.3398
  27   0.0000      -0.007665        -0.2086
  28   0.0000       0.010604         0.2886
  29   0.0000       0.032215         0.8766

MULLIKEN ATOMIC CHARGES
-----------------------
   0 C :   -0.388243
   1 C :   -0.174730
   2 C :   -0.221947
   3 I :   -0.181982
   4 H :    0.127577
   5 H :    0.132937
   6 H :    0.124135
   7 H :    0.124483
   8 H :    0.120399
   9 H :    0.173409
  10 H :    0.163962
Sum of atomic charges:    0.0000000

LOEWDIN ATOMIC CHARGES
----------------------
   0 C :   -0.315548
   1 C :   -0.327155
   2 C :   -0.403000
   3 I :    0.136199
   4 H :    0.115524
   5 H :    0.121242
   6 H :    0.121339
   7 H :    0.138564
   8 H :    0.148910
   9 H :    0.131594
  10 H :    0.132332

  Mayer bond orders larger than 0.100000
B(  0-C ,  1-C ) :   0.9776 B(  0-C ,  4-H ) :   0.9731 B(  0-C ,  5-H ) :   0.9772
B(  0-C ,  6-H ) :   0.9749 B(  1-C ,  2-C ) :   0.9993 B(  1-C ,  7-H ) :   0.9712
B(  1-C ,  8-H ) :   0.9495 B(  2-C ,  3-I ) :   0.9757 B(  2-C ,  9-H ) :   0.9559
B(  2-C , 10-H ) :   0.9570

FINAL SINGLE POINT ENERGY      -416.236298560814

DIPOLE MOMENT
-------------

Method             : SCF
Type of density    : Electron Density
Multiplicity       :   1
Irrep              :   0
Energy             :  -416.2446850988137612 Eh
Relativity type    :
Basis              : AO
                                X                 Y                 Z
Electronic contribution:     64.201715638       6.290115430      15.046040622
Nuclear contribution   :    -65.176465111      -6.734786681     -15.614749570
                        -----------------------------------------
Total Dipole Moment    :     -0.974749473      -0.444671251      -0.568708948
                        -----------------------------------------
Magnitude (a.u.)       :      1.212971114
Magnitude (Debye)      :      3.083127552

Rotational constants in cm-1:             0.350614             0.058167             0.052709
Rotational constants in MHz :         10511.133834          1743.789436          1580.166404

                             ****ORCA TERMINATED NORMALLY****
TOTAL RUN TIME: 0 days 0 hours 1 minutes 12 seconds 902 msec
