                         Program Version 6.0.0  -   RELEASE  -
|  1> ! pbe def2-sv(p) def2/J RI DEFGRID1 loosescf d4 GCP(DFT/SV(P)) printgap
|  2> %output
|  3>     printlevel normal
|  4> end
|  5> * xyz 0 1
|  6> C -2.5583499624 -0.6787898414 -0.3227785154
|  7> C -1.1728703427 -0.3115013824 0.2214936495
|  8> H -1.2041359488 -0.3073114691 1.3234621454
|  9> C -0.7150146948 1.0645647102 -0.2847712377
| 10> H -0.7482087246 1.0688517025 -1.3801709579
| 11> C 0.7330578783 1.3518069744 0.1566601598
| 12> H 0.7650616208 1.4957653943 1.2498915536
| 13> C 1.6560998711 0.1781548608 -0.1821510961
| 14> H 1.7942824648 0.1564453229 -1.2735479225
| 15> C 1.0297268926 -1.1553163276 0.285101365
| 16> H 1.0262969083 -1.1654373502 1.3891243575
| 17> O -0.2731977475 -1.3160842393 -0.214550173
| 18> O 1.7875291514 -2.2395087185 -0.1159072531
| 19> O 2.8840528084 0.3773671615 0.4697628852
| 20> O 1.2231390547 2.4990056462 -0.4909509728
| 21> O -1.5718323401 2.0996997473 0.1199967112
| 22> O -3.1122678144 -1.7877900247 0.3334104704
| 23> H -2.468838965 -0.8624358915 -1.399921778
| 24> H -3.2414162879 0.155552381 -0.1562252442
| 25> H 1.5849949479 -2.4464468734 -1.042338003
| 26> H 3.4556523961 -0.3888675436 0.3064084926
| 27> H 0.5608596326 3.2039150232 -0.4122499286
| 28> H -1.6325532732 2.1204889429 1.0870120434
| 29> H -2.5298578505 -2.5495389683 0.2000259944
| 30> *
| 31>
| 32>                          ****END OF INPUT****

CARTESIAN COORDINATES (ANGSTROEM)
---------------------------------
  C     -2.558350   -0.678790   -0.322779
  C     -1.172870   -0.311501    0.221494
  H     -1.204136   -0.307311    1.323462
  C     -0.715015    1.064565   -0.284771
  H     -0.748209    1.068852   -1.380171
  C      0.733058    1.351807    0.156660
  H      0.765062    1.495765    1.249892
  C      1.656100    0.178155   -0.182151
  H      1.794282    0.156445   -1.273548
  C      1.029727   -1.155316    0.285101
  H      1.026297   -1.165437    1.389124
  O     -0.273198   -1.316084   -0.214550
  O      1.787529   -2.239509   -0.115907
  O      2.884053    0.377367    0.469763
  O      1.223139    2.499006   -0.490951
  O     -1.571832    2.099700    0.119997
  O     -3.112268   -1.787790    0.333410
  H     -2.468839   -0.862436   -1.399922
  H     -3.241416    0.155552   -0.156225
  H      1.584995   -2.446447   -1.042338
  H      3.455652   -0.388868    0.306408
  H      0.560860    3.203915   -0.412250
  H     -1.632553    2.120489    1.087012
  H     -2.529858   -2.549539    0.200026

 Total Charge           Charge          ....    0
 Multiplicity           Mult            ....    1
 Number of Electrons    NEL             ....   96
 Basis Dimension        Dim             ....  192

ORBITAL ENERGIES
----------------

  NO   OCC          E(Eh)            E(eV)
   0   2.0000     -18.787050      -511.2216
   1   2.0000     -18.774793      -510.8881
   2   2.0000     -18.773929      -510.8646
   3   2.0000     -18.750835      -510.2362
   4   2.0000     -18.749491      -510.1996
   5   2.0000     -18.747592      -510.1479
   6   2.0000      -9.993853      -271.9466
   7   2.0000      -9.953237      -270.8413
   8   2.0000      -9.951734      -270.8005
   9   2.0000      -9.946924      -270.6696
  10   2.0000      -9.943391      -270.5734
  11   2.0000      -9.936594      -270.3885
  12   2.0000      -0.997750       -27.1502
  13   2.0000      -0.957256       -26.0483
  14   2.0000      -0.939267       -25.5588
  15   2.0000      -0.929991       -25.3063
  16   2.0000      -0.921339       -25.0709
  17   2.0000      -0.915233       -24.9048
  18   2.0000      -0.709851       -19.3160
  19   2.0000      -0.695793       -18.9335
  20   2.0000      -0.619727       -16.8636
  21   2.0000      -0.598224       -16.2785
  22   2.0000      -0.564419       -15.3586
  23   2.0000      -0.545228       -14.8364
  24   2.0000      -0.513084       -13.9617
  25   2.0000      -0.493023       -13.4158
  26   2.0000      -0.481856       -13.1120
  27   2.0000      -0.466921       -12.7056
  28   2.0000      -0.450687       -12.2638
  29   2.0000      -0.447452       -12.1758
  30   2.0000      -0.419594       -11.4177
  31   2.0000      -0.398777       -10.8513
  32   2.0000      -0.392867       -10.6905
  33   2.0000      -0.380402       -10.3513
  34   2.0000      -0.365622        -9.9491
  35   2.0000      -0.358799        -9.7634
  36   2.0000      -0.331366        -9.0169
  37   2.0000      -0.325357        -8.8534
  38   2.0000      -0.306415        -8.3380
  39   2.0000      -0.299295        -8.1442
  40   2.0000      -0.289628        -7.8812
  41   2.0000      -0.283916        -7.7257
  42   2.0000      -0.264354        -7.1934
  43   2.0000      -0.246562        -6.7093
  44   2.0000      -0.241549        -6.5729
  45   2.0000      -0.227878        -6.2009
  46   2.0000      -0.221238        -6.0202
  47   2.0000      -0.202002        -5.4968
  48   0.0000       0.004805         0.1308
  49   0.0000       0.020751         0.5647
  50   0.0000       0.031177         0.8484
  51   0.0000       0.042307         1.1512
  52   0.0000       0.052588         1.4310

MULLIKEN ATOMIC CHARGES
-----------------------
   0 C :    0.107595
   1 C :   -0.029928
   2 H :    0.046787
   3 C :    0.029923
   4 H :    0.068820
   5 C :    0.090289
   6 H :    0.041494
   7 C :    0.056886
   8 H :    0.045076
   9 C :    0.174829
  10 H :    0.056289
  11 O :   -0.315832
  12 O :   -0.386747
  13 O :   -0.405262
  14 O :   -0.402829
  15 O :   -0.413894
  16 O :   -0.431453
  17 H :    0.071864
  18 H :    0.088314
  19 H :    0.304613
  20 H :    0.300825
  21 H :    0.299421
  22 H :    0.303082
  23 H :    0.299837
Sum of atomic charges:   -0.0000000

LOEWDIN ATOMIC CHARGES
----------------------
   0 C :   -0.125040
   1 C :   -0.081901
   2 H :    0.100442
   3 C :   -0.083700
   4 H :    0.120290
   5 C :   -0.071853
   6 H :    0.099339
   7 C :   -0.085517
   8 H :    0.103363
   9 C :   -0.006885
  10 H :    0.098191
  11 O :   -0.156073
  12 O :   -0.293740
  13 O :   -0.312830
  14 O :   -0.315651
  15 O :   -0.303757
  16 O :   -0.334259
  17 H :    0.103191
  18 H :    0.118953
  19 H :    0.289705
  20 H :    0.284644
  21 H :    0.281803
  22 H :    0.287476
  23 H :    0.283809

  Mayer bond orders larger than 0.100000
B(  0-C ,  1-C ) :   1.0434 B(  0-C , 16-O ) :   1.0838 B(  0-C , 17-H ) :   0.9068
B(  0-C , 18-H ) :   0.9117 B(  1-C ,  2-H ) :   0.8697 B(  1-C ,  3-C ) :   0.9770
B(  1-C , 11-O ) :   0.9717 B(  3-C ,  4-H ) :   0.8623 B(  3-C ,  5-C ) :   1.0066
B(  3-C , 15-O ) :   1.0137 B(  5-C ,  6-H ) :   0.8695 B(  5-C ,  7-C ) :   0.9988
B(  5-C , 14-O ) :   1.1056 B(  7-C ,  8-H ) :   0.8635 B(  7-C ,  9-C ) :   0.9798
B(  7-C , 13-O ) :   1.0869 B(  9-C , 10-H ) :   0.8772 B(  9-C , 11-O ) :   1.0050
B(  9-C , 12-O ) :   1.1237 B( 12-O , 19-H ) :   0.8409 B( 13-O , 20-H ) :   0.8373
B( 14-O , 21-H ) :   0.8355 B( 15-O , 22-H ) :   0.8435 B( 16-O , 23-H ) :   0.8480

Dispersion correction           -0.023557806
FINAL SINGLE POINT ENERGY      -685.698529059991

DIPOLE MOMENT
-------------

Method             : SCF
Type of density    : Electron Density
Multiplicity       :   1
Irrep              :   0
Energy             :  -685.8281278079266485 Eh
Relativity type    :
Basis              : AO
                                X                 Y                 Z
Electronic contribution:      2.374900214      -0.719519451      -0.031174257
Nuclear contribution   :     -2.460876870       0.445800175      -0.100311349
                        -----------------------------------------
Total Dipole Moment    :     -0.085976656      -0.273719275      -0.131485606
                        -----------------------------------------
Magnitude (a.u.)       :      0.315598941
Magnitude (Debye)      :      0.802188758

Rotational constants in cm-1:             0.038973             0.025852             0.016378
Rotational constants in MHz :          1168.367106           775.024360           491.002870

                             ****ORCA TERMINATED NORMALLY****
TOTAL RUN TIME: 0 days 0 hours 0 minutes 11 seconds 979 msec
