                         Program Version 6.0.0  -   RELEASE  -
|  1> ! pbe def2-sv(p) def2/J RI DEFGRID1 loosescf d4 GCP(DFT/SV(P)) printgap
|  2> %output
|  3>     printlevel normal
|  4> end
|  5> * xyz 0 1
|  6> C -3.5617314907 0.153643168 0.0178342285
|  7> O -2.2602597201 0.4142827022 -0.5185763262
|  8> C -1.2113117293 -0.1985389181 0.0200213373
|  9> O -1.2948756811 -0.9787587805 0.9451745067
| 10> C 0.0732857972 0.2377683482 -0.6432467853
| 11> C 0.9980196607 -0.9649145002 -0.9027218519
| 12> C 1.9408791944 -1.18936137 0.2736882953
| 13> C 2.908184673 -0.0093537058 0.4239849033
| 14> C 2.2492781869 1.3109518985 0.0054252959
| 15> C 0.750885773 1.2704854426 0.2811663278
| 16> H -4.0580452924 -0.5880976913 -0.6073213035
| 17> H -4.1018529015 1.0962168877 -0.0076131171
| 18> H -3.473721898 -0.2224351154 1.0377261263
| 19> H -0.1947896212 0.7150743992 -1.5886727348
| 20> H 0.39272994 -1.8581840873 -1.0678711678
| 21> H 1.581881565 -0.7820659261 -1.8050619127
| 22> H 1.3401500178 -1.3112103404 1.1763062411
| 23> H 2.5019203646 -2.1129868623 0.127026029
| 24> H 3.2351141625 0.0513475741 1.4629028487
| 25> H 3.7942715583 -0.1777670639 -0.1895675317
| 26> H 2.7011654575 2.140676539 0.5494768113
| 27> H 2.405032568 1.489412134 -1.0593071097
| 28> H 0.584446854 0.9927400932 1.3241668465
| 29> H 0.3008550432 2.2503796916 0.1186169909
| 30> *
| 31>
| 32>                          ****END OF INPUT****

CARTESIAN COORDINATES (ANGSTROEM)
---------------------------------
  C     -3.561731    0.153643    0.017834
  O     -2.260260    0.414283   -0.518576
  C     -1.211312   -0.198539    0.020021
  O     -1.294876   -0.978759    0.945175
  C      0.073286    0.237768   -0.643247
  C      0.998020   -0.964915   -0.902722
  C      1.940879   -1.189361    0.273688
  C      2.908185   -0.009354    0.423985
  C      2.249278    1.310952    0.005425
  C      0.750886    1.270485    0.281166
  H     -4.058045   -0.588098   -0.607321
  H     -4.101853    1.096217   -0.007613
  H     -3.473722   -0.222435    1.037726
  H     -0.194790    0.715074   -1.588673
  H      0.392730   -1.858184   -1.067871
  H      1.581882   -0.782066   -1.805062
  H      1.340150   -1.311210    1.176306
  H      2.501920   -2.112987    0.127026
  H      3.235114    0.051348    1.462903
  H      3.794272   -0.177767   -0.189568
  H      2.701165    2.140677    0.549477
  H      2.405033    1.489412   -1.059307
  H      0.584447    0.992740    1.324167
  H      0.300855    2.250380    0.118617

 Total Charge           Charge          ....    0
 Multiplicity           Mult            ....    1
 Number of Electrons    NEL             ....   78
 Basis Dimension        Dim             ....  168

ORBITAL ENERGIES
----------------

  NO   OCC          E(Eh)            E(eV)
   0   2.0000     -18.796951      -511.4910
   1   2.0000     -18.733428      -509.7625
   2   2.0000     -10.001972      -272.1675
   3   2.0000      -9.938884      -270.4508
   4   2.0000      -9.901347      -269.4293
   5   2.0000      -9.889326      -269.1022
   6   2.0000      -9.884922      -268.9824
   7   2.0000      -9.883687      -268.9488
   8   2.0000      -9.879572      -268.8368
   9   2.0000      -9.875372      -268.7225
  10   2.0000      -1.003308       -27.3014
  11   2.0000      -0.909187       -24.7402
  12   2.0000      -0.759954       -20.6794
  13   2.0000      -0.691529       -18.8174
  14   2.0000      -0.664265       -18.0756
  15   2.0000      -0.649942       -17.6858
  16   2.0000      -0.558985       -15.2107
  17   2.0000      -0.553764       -15.0687
  18   2.0000      -0.503395       -13.6981
  19   2.0000      -0.471480       -12.8296
  20   2.0000      -0.454963       -12.3802
  21   2.0000      -0.438691       -11.9374
  22   2.0000      -0.433637       -11.7999
  23   2.0000      -0.412337       -11.2203
  24   2.0000      -0.409691       -11.1482
  25   2.0000      -0.379717       -10.3326
  26   2.0000      -0.364093        -9.9075
  27   2.0000      -0.355028        -9.6608
  28   2.0000      -0.333447        -9.0735
  29   2.0000      -0.332350        -9.0437
  30   2.0000      -0.328226        -8.9315
  31   2.0000      -0.320260        -8.7147
  32   2.0000      -0.310702        -8.4546
  33   2.0000      -0.298579        -8.1247
  34   2.0000      -0.270269        -7.3544
  35   2.0000      -0.263681        -7.1751
  36   2.0000      -0.260295        -7.0830
  37   2.0000      -0.254298        -6.9198
  38   2.0000      -0.216462        -5.8902
  39   0.0000      -0.016666        -0.4535
  40   0.0000       0.030416         0.8277
  41   0.0000       0.052914         1.4399
  42   0.0000       0.057108         1.5540
  43   0.0000       0.077815         2.1174

MULLIKEN ATOMIC CHARGES
-----------------------
   0 C :   -0.124888
   1 O :   -0.238895
   2 C :    0.130089
   3 O :   -0.203515
   4 C :   -0.160458
   5 C :   -0.116085
   6 C :   -0.154757
   7 C :   -0.163627
   8 C :   -0.131167
   9 C :   -0.140792
  10 H :    0.120739
  11 H :    0.121845
  12 H :    0.130320
  13 H :    0.075773
  14 H :    0.093546
  15 H :    0.077359
  16 H :    0.095677
  17 H :    0.083829
  18 H :    0.082669
  19 H :    0.079272
  20 H :    0.087037
  21 H :    0.075054
  22 H :    0.091679
  23 H :    0.089299
Sum of atomic charges:    0.0000000

LOEWDIN ATOMIC CHARGES
----------------------
   0 C :   -0.208377
   1 O :   -0.072150
   2 C :    0.047220
   3 O :   -0.171172
   4 C :   -0.163532
   5 C :   -0.211301
   6 C :   -0.232301
   7 C :   -0.229411
   8 C :   -0.227798
   9 C :   -0.210478
  10 H :    0.119862
  11 H :    0.120607
  12 H :    0.123184
  13 H :    0.126107
  14 H :    0.123126
  15 H :    0.116787
  16 H :    0.121849
  17 H :    0.118157
  18 H :    0.117143
  19 H :    0.114941
  20 H :    0.119596
  21 H :    0.114924
  22 H :    0.122413
  23 H :    0.120603

  Mayer bond orders larger than 0.100000
B(  0-C ,  1-O ) :   0.9358 B(  0-C , 10-H ) :   0.9601 B(  0-C , 11-H ) :   0.9610
B(  0-C , 12-H ) :   0.9328 B(  1-O ,  2-C ) :   1.2282 B(  2-C ,  3-O ) :   2.0587
B(  2-C ,  4-C ) :   0.9485 B(  4-C ,  5-C ) :   1.0748 B(  4-C ,  9-C ) :   1.0918
B(  4-C , 13-H ) :   0.8791 B(  5-C ,  6-C ) :   1.1760 B(  5-C , 14-H ) :   0.9185
B(  5-C , 15-H ) :   0.9067 B(  6-C ,  7-C ) :   1.1450 B(  6-C , 16-H ) :   0.9006
B(  6-C , 17-H ) :   0.9200 B(  7-C ,  8-C ) :   1.1412 B(  7-C , 18-H ) :   0.9217
B(  7-C , 19-H ) :   0.9223 B(  8-C ,  9-C ) :   1.1824 B(  8-C , 20-H ) :   0.9206
B(  8-C , 21-H ) :   0.9057 B(  9-C , 22-H ) :   0.9001 B(  9-C , 23-H ) :   0.9174

Dispersion correction           -0.022949927
FINAL SINGLE POINT ENERGY      -462.697160249980

DIPOLE MOMENT
-------------

Method             : SCF
Type of density    : Electron Density
Multiplicity       :   1
Irrep              :   0
Energy             :  -462.7850993868203204 Eh
Relativity type    :
Basis              : AO
                                X                 Y                 Z
Electronic contribution:     -6.766940524      -1.110789288       0.086469640
Nuclear contribution   :      6.523052072       1.570660255      -0.490146593
                        -----------------------------------------
Total Dipole Moment    :     -0.243888452       0.459870967      -0.403676954
                        -----------------------------------------
Magnitude (a.u.)       :      0.658724500
Magnitude (Debye)      :      1.674344616

Rotational constants in cm-1:             0.101944             0.025853             0.023592
Rotational constants in MHz :          3056.200461           775.065600           707.279814

                             ****ORCA TERMINATED NORMALLY****
TOTAL RUN TIME: 0 days 0 hours 0 minutes 11 seconds 48 msec
