                         Program Version 6.0.0  -   RELEASE  -
|  1> ! pbe def2-sv(p) def2/J RI DEFGRID1 loosescf d4 GCP(DFT/SV(P)) printgap
|  2> %output
|  3>     printlevel normal
|  4> end
|  5> * xyz 0 1
|  6> C -2.1472254569 -1.0260967732 -0.4965451704
|  7> C -1.1796862576 -0.2394347959 0.3970718638
|  8> H -1.7413309549 0.0957542817 1.2777993539
|  9> C -0.6176927421 0.9717399484 -0.3625187303
| 10> H -0.4910841676 0.7230469244 -1.4229810988
| 11> C 0.7604030446 1.3262559039 0.2106809261
| 12> H 0.6898968616 1.4396544487 1.3054116657
| 13> C 1.7152496147 0.1687746151 -0.099661574
| 14> H 1.9375914065 0.1861534217 -1.1771181608
| 15> C 1.0389640587 -1.1808870145 0.2188540054
| 16> H 1.706384463 -1.7269923674 0.9000467768
| 17> O -0.1479665959 -1.047457184 0.9571281464
| 18> O 0.8487079104 -1.8685524616 -0.9779164925
| 19> O 2.899521541 0.2449610137 0.6489333591
| 20> O 1.2708957678 2.5052723174 -0.3606622551
| 21> O -1.482441172 2.0764357182 -0.3431327971
| 22> O -2.8767778448 -1.9322542947 0.2986606699
| 23> H -1.5756519765 -1.5458145423 -1.2732924996
| 24> H -2.8185924761 -0.2959284144 -0.9685863072
| 25> H 0.6539023349 -2.8008385557 -0.7947016713
| 26> H 3.3181346118 1.102409378 0.476110265
| 27> H 0.5228726878 3.0804320498 -0.5917542038
| 28> H -1.7321420293 2.286355942 0.56991122
| 29> H -3.4724054179 -2.4439658532 -0.2664756883
| 30> *
| 31>
| 32>                          ****END OF INPUT****

CARTESIAN COORDINATES (ANGSTROEM)
---------------------------------
  C     -2.147225   -1.026097   -0.496545
  C     -1.179686   -0.239435    0.397072
  H     -1.741331    0.095754    1.277799
  C     -0.617693    0.971740   -0.362519
  H     -0.491084    0.723047   -1.422981
  C      0.760403    1.326256    0.210681
  H      0.689897    1.439654    1.305412
  C      1.715250    0.168775   -0.099662
  H      1.937591    0.186153   -1.177118
  C      1.038964   -1.180887    0.218854
  H      1.706384   -1.726992    0.900047
  O     -0.147967   -1.047457    0.957128
  O      0.848708   -1.868552   -0.977916
  O      2.899522    0.244961    0.648933
  O      1.270896    2.505272   -0.360662
  O     -1.482441    2.076436   -0.343133
  O     -2.876778   -1.932254    0.298661
  H     -1.575652   -1.545815   -1.273292
  H     -2.818592   -0.295928   -0.968586
  H      0.653902   -2.800839   -0.794702
  H      3.318135    1.102409    0.476110
  H      0.522873    3.080432   -0.591754
  H     -1.732142    2.286356    0.569911
  H     -3.472405   -2.443966   -0.266476

 Total Charge           Charge          ....    0
 Multiplicity           Mult            ....    1
 Number of Electrons    NEL             ....   96
 Basis Dimension        Dim             ....  192

ORBITAL ENERGIES
----------------

  NO   OCC          E(Eh)            E(eV)
   0   2.0000     -18.773481      -510.8524
   1   2.0000     -18.765167      -510.6262
   2   2.0000     -18.761342      -510.5221
   3   2.0000     -18.748683      -510.1776
   4   2.0000     -18.746820      -510.1269
   5   2.0000     -18.746194      -510.1099
   6   2.0000      -9.982202      -271.6295
   7   2.0000      -9.949410      -270.7372
   8   2.0000      -9.947264      -270.6788
   9   2.0000      -9.937115      -270.4026
  10   2.0000      -9.935910      -270.3698
  11   2.0000      -9.930030      -270.2099
  12   2.0000      -0.978468       -26.6255
  13   2.0000      -0.955288       -25.9947
  14   2.0000      -0.930957       -25.3326
  15   2.0000      -0.923153       -25.1203
  16   2.0000      -0.913201       -24.8495
  17   2.0000      -0.909248       -24.7419
  18   2.0000      -0.707317       -19.2471
  19   2.0000      -0.691637       -18.8204
  20   2.0000      -0.619817       -16.8661
  21   2.0000      -0.588604       -16.0167
  22   2.0000      -0.560733       -15.2583
  23   2.0000      -0.519282       -14.1304
  24   2.0000      -0.510034       -13.8787
  25   2.0000      -0.490528       -13.3480
  26   2.0000      -0.479379       -13.0446
  27   2.0000      -0.457722       -12.4553
  28   2.0000      -0.432208       -11.7610
  29   2.0000      -0.427190       -11.6244
  30   2.0000      -0.408775       -11.1233
  31   2.0000      -0.396906       -10.8003
  32   2.0000      -0.394412       -10.7325
  33   2.0000      -0.376964       -10.2577
  34   2.0000      -0.362368        -9.8605
  35   2.0000      -0.352537        -9.5930
  36   2.0000      -0.332508        -9.0480
  37   2.0000      -0.310065        -8.4373
  38   2.0000      -0.301026        -8.1913
  39   2.0000      -0.295993        -8.0544
  40   2.0000      -0.290119        -7.8945
  41   2.0000      -0.260200        -7.0804
  42   2.0000      -0.253418        -6.8959
  43   2.0000      -0.246437        -6.7059
  44   2.0000      -0.229727        -6.2512
  45   2.0000      -0.215016        -5.8509
  46   2.0000      -0.213933        -5.8214
  47   2.0000      -0.206001        -5.6056
  48   0.0000       0.010861         0.2955
  49   0.0000       0.021395         0.5822
  50   0.0000       0.033005         0.8981
  51   0.0000       0.041991         1.1426
  52   0.0000       0.057020         1.5516

MULLIKEN ATOMIC CHARGES
-----------------------
   0 C :    0.027301
   1 C :    0.092735
   2 H :    0.059366
   3 C :   -0.036640
   4 H :    0.080212
   5 C :    0.053547
   6 H :    0.044589
   7 C :    0.077676
   8 H :    0.066971
   9 C :    0.180616
  10 H :    0.076321
  11 O :   -0.310887
  12 O :   -0.398565
  13 O :   -0.416456
  14 O :   -0.424694
  15 O :   -0.411985
  16 O :   -0.429887
  17 H :    0.072551
  18 H :    0.073980
  19 H :    0.309342
  20 H :    0.310088
  21 H :    0.300732
  22 H :    0.303531
  23 H :    0.299555
Sum of atomic charges:   -0.0000000

LOEWDIN ATOMIC CHARGES
----------------------
   0 C :   -0.141125
   1 C :   -0.059108
   2 H :    0.115362
   3 C :   -0.084650
   4 H :    0.121364
   5 C :   -0.086590
   6 H :    0.100498
   7 C :   -0.073005
   8 H :    0.110075
   9 C :    0.002018
  10 H :    0.107714
  11 O :   -0.141586
  12 O :   -0.307267
  13 O :   -0.316723
  14 O :   -0.330350
  15 O :   -0.304061
  16 O :   -0.344869
  17 H :    0.099146
  18 H :    0.099638
  19 H :    0.289726
  20 H :    0.290959
  21 H :    0.279802
  22 H :    0.286955
  23 H :    0.286079

  Mayer bond orders larger than 0.100000
B(  0-C ,  1-C ) :   1.0687 B(  0-C , 16-O ) :   1.1061 B(  0-C , 17-H ) :   0.8941
B(  0-C , 18-H ) :   0.9097 B(  1-C ,  2-H ) :   0.8829 B(  1-C ,  3-C ) :   0.9659
B(  1-C , 11-O ) :   0.9929 B(  3-C ,  4-H ) :   0.8750 B(  3-C ,  5-C ) :   1.0172
B(  3-C , 15-O ) :   1.0055 B(  5-C ,  6-H ) :   0.8556 B(  5-C ,  7-C ) :   1.0356
B(  5-C , 14-O ) :   1.1020 B(  7-C ,  8-H ) :   0.8814 B(  7-C ,  9-C ) :   0.9831
B(  7-C , 13-O ) :   1.0867 B(  9-C , 10-H ) :   0.8926 B(  9-C , 11-O ) :   1.0800
B(  9-C , 12-O ) :   1.1024 B( 12-O , 19-H ) :   0.8366 B( 13-O , 20-H ) :   0.8429
B( 14-O , 21-H ) :   0.8225 B( 15-O , 22-H ) :   0.8431 B( 16-O , 23-H ) :   0.8522

Dispersion correction           -0.024272995
FINAL SINGLE POINT ENERGY      -685.691441614713

DIPOLE MOMENT
-------------

Method             : SCF
Type of density    : Electron Density
Multiplicity       :   1
Irrep              :   0
Energy             :  -685.8210832633674272 Eh
Relativity type    :
Basis              : AO
                                X                 Y                 Z
Electronic contribution:      2.059866868      -0.113163497       1.491501685
Nuclear contribution   :     -2.809200970       0.093747317      -1.840791867
                        -----------------------------------------
Total Dipole Moment    :     -0.749334101      -0.019416180      -0.349290182
                        -----------------------------------------
Magnitude (a.u.)       :      0.826971713
Magnitude (Debye)      :      2.101995047

Rotational constants in cm-1:             0.042375             0.026025             0.018204
Rotational constants in MHz :          1270.374364           780.205511           545.729884

                             ****ORCA TERMINATED NORMALLY****
TOTAL RUN TIME: 0 days 0 hours 0 minutes 12 seconds 180 msec
