                         Program Version 6.0.0  -   RELEASE  -
|  1> ! wb97x-v def2-tzvp def2/J RIJCOSX DEFGRID2 scfconv7 GCP(DFT/TZ) printgap
|  2> %output
|  3>     printlevel normal
|  4> end
|  5> * xyz 0 1
|  6> C -1.8684067146306405 -5.554727247821104e-07 0.0011248869411301574
|  7> C -1.158690149648166 -1.200606731842165 -0.0003115114272960487
|  8> C 0.23123498155355932 -1.2074000048731233 -0.00621850382064914
|  9> C 0.9481826240187345 2.308415796994468e-06 -0.01272087858341167
| 10> C 0.23123240921354957 1.2074033162709208 -0.006221063756051857
| 11> C -1.1586927941191256 1.2006071251009922 -0.0003145812119234875
| 12> N 2.3362000994753522 3.924555950245556e-06 -0.08592015136521083
| 13> H -2.9531829958139246 -1.610949078275807e-06 0.006425477703975879
| 14> H -1.6924246746432372 -2.1465434649578716 0.006086344486899392
| 15> H 0.7746134923670276 -2.148592692316599 -0.006038644660503563
| 16> H 0.774609145831575 2.148597009181011 -0.0060428103619266154
| 17> H -1.692429343443457 2.146542605634392 0.006080347827474865
| 18> H 2.7751691919021013 -0.8382516511343964 0.2679977666924635
| 19> H 2.775166922217573 0.8382627728399795 0.26799239239368905
| 20> *
| 21>
| 22>                          ****END OF INPUT****

CARTESIAN COORDINATES (ANGSTROEM)
---------------------------------
  C     -1.868407   -0.000001    0.001125
  C     -1.158690   -1.200607   -0.000312
  C      0.231235   -1.207400   -0.006219
  C      0.948183    0.000002   -0.012721
  C      0.231232    1.207403   -0.006221
  C     -1.158693    1.200607   -0.000315
  N      2.336200    0.000004   -0.085920
  H     -2.953183   -0.000002    0.006425
  H     -1.692425   -2.146543    0.006086
  H      0.774613   -2.148593   -0.006039
  H      0.774609    2.148597   -0.006043
  H     -1.692429    2.146543    0.006080
  H      2.775169   -0.838252    0.267998
  H      2.775167    0.838263    0.267992

 Total Charge           Charge          ....    0
 Multiplicity           Mult            ....    1
 Number of Electrons    NEL             ....   50
 Basis Dimension        Dim             ....  259

ORBITAL ENERGIES
----------------

  NO   OCC          E(Eh)            E(eV)
   0   2.0000     -16.531238      -449.8379
   1   2.0000     -12.090205      -328.9912
   2   2.0000     -12.048430      -327.8545
   3   2.0000     -12.048198      -327.8481
   4   2.0000     -12.041619      -327.6691
   5   2.0000     -12.041351      -327.6618
   6   2.0000     -12.036163      -327.5206
   7   2.0000      -1.490795       -40.5666
   8   2.0000      -1.365499       -37.1571
   9   2.0000      -1.268134       -34.5077
  10   2.0000      -1.255568       -34.1657
  11   2.0000      -1.108924       -30.1753
  12   2.0000      -1.107324       -30.1318
  13   2.0000      -1.006869       -27.3983
  14   2.0000      -1.000066       -27.2132
  15   2.0000      -0.940882       -25.6027
  16   2.0000      -0.926699       -25.2168
  17   2.0000      -0.890874       -24.2419
  18   2.0000      -0.868781       -23.6407
  19   2.0000      -0.827420       -22.5152
  20   2.0000      -0.817402       -22.2426
  21   2.0000      -0.799555       -21.7570
  22   2.0000      -0.743050       -20.2194
  23   2.0000      -0.635075       -17.2813
  24   2.0000      -0.612702       -16.6725
  25   0.0000      -0.231323        -6.2946
  26   0.0000      -0.231314        -6.2944
  27   0.0000      -0.068712        -1.8698
  28   0.0000      -0.062861        -1.7105
  29   0.0000      -0.035891        -0.9766

MULLIKEN ATOMIC CHARGES
-----------------------
   0 C :   -0.172619
   1 C :   -0.081211
   2 C :   -0.263066
   3 C :    0.308561
   4 C :   -0.263021
   5 C :   -0.081252
   6 N :   -0.445850
   7 H :    0.111395
   8 H :    0.113405
   9 H :    0.104542
  10 H :    0.104543
  11 H :    0.113386
  12 H :    0.225593
  13 H :    0.225593
Sum of atomic charges:    0.0000000

LOEWDIN ATOMIC CHARGES
----------------------
   0 C :   -0.168282
   1 C :   -0.140346
   2 C :   -0.139575
   3 C :   -0.239284
   4 C :   -0.139575
   5 C :   -0.140346
   6 N :   -0.052320
   7 H :    0.137971
   8 H :    0.141503
   9 H :    0.138714
  10 H :    0.138714
  11 H :    0.141503
  12 H :    0.160661
  13 H :    0.160661

  Mayer bond orders larger than 0.100000
B(  0-C ,  1-C ) :   1.4269 B(  0-C ,  5-C ) :   1.4269 B(  0-C ,  7-H ) :   0.9751
B(  1-C ,  2-C ) :   1.4831 B(  1-C ,  8-H ) :   0.9710 B(  2-C ,  3-C ) :   1.3754
B(  2-C ,  9-H ) :   0.9660 B(  3-C ,  4-C ) :   1.3754 B(  3-C ,  6-N ) :   1.0659
B(  4-C ,  5-C ) :   1.4831 B(  4-C , 10-H ) :   0.9660 B(  5-C , 11-H ) :   0.9711
B(  6-N , 12-H ) :   0.9297 B(  6-N , 13-H ) :   0.9297

FINAL SINGLE POINT ENERGY      -287.617033376354

DIPOLE MOMENT
-------------

Method             : SCF
Type of density    : Electron Density
Multiplicity       :   1
Irrep              :   0
Energy             :  -287.6243407943544526 Eh
Relativity type    :
Basis              : AO
                                X                 Y                 Z
Electronic contribution:     -0.219991519      -0.000002019      -0.180583716
Nuclear contribution   :      0.716115276       0.000002759       0.575737710
                        -----------------------------------------
Total Dipole Moment    :      0.496123758       0.000000741       0.395153995
                        -----------------------------------------
Magnitude (a.u.)       :      0.634259775
Magnitude (Debye)      :      1.612160228

Rotational constants in cm-1:             0.187541             0.086781             0.059424
Rotational constants in MHz :          5622.334880          2601.637818          1781.486696

                             ****ORCA TERMINATED NORMALLY****
TOTAL RUN TIME: 0 days 0 hours 1 minutes 29 seconds 420 msec
