                         Program Version 6.0.0  -   RELEASE  -
|  1> ! wb97x-v def2-tzvp def2/J RIJCOSX DEFGRID2 scfconv7 GCP(DFT/TZ) printgap
|  2> %output
|  3>     printlevel normal
|  4> end
|  5> %cpcm
|  6>     smd true
|  7>     smdsolvent "water"
|  8> end
|  9> * xyz 0 1
| 10> C -1.8684067146306405 -5.554727247821104e-07 0.0011248869411301574
| 11> C -1.158690149648166 -1.200606731842165 -0.0003115114272960487
| 12> C 0.23123498155355932 -1.2074000048731233 -0.00621850382064914
| 13> C 0.9481826240187345 2.308415796994468e-06 -0.01272087858341167
| 14> C 0.23123240921354957 1.2074033162709208 -0.006221063756051857
| 15> C -1.1586927941191256 1.2006071251009922 -0.0003145812119234875
| 16> N 2.3362000994753522 3.924555950245556e-06 -0.08592015136521083
| 17> H -2.9531829958139246 -1.610949078275807e-06 0.006425477703975879
| 18> H -1.6924246746432372 -2.1465434649578716 0.006086344486899392
| 19> H 0.7746134923670276 -2.148592692316599 -0.006038644660503563
| 20> H 0.774609145831575 2.148597009181011 -0.0060428103619266154
| 21> H -1.692429343443457 2.146542605634392 0.006080347827474865
| 22> H 2.7751691919021013 -0.8382516511343964 0.2679977666924635
| 23> H 2.775166922217573 0.8382627728399795 0.26799239239368905
| 24> *
| 25>
| 26>                          ****END OF INPUT****

CARTESIAN COORDINATES (ANGSTROEM)
---------------------------------
  C     -1.868407   -0.000001    0.001125
  C     -1.158690   -1.200607   -0.000312
  C      0.231235   -1.207400   -0.006219
  C      0.948183    0.000002   -0.012721
  C      0.231232    1.207403   -0.006221
  C     -1.158693    1.200607   -0.000315
  N      2.336200    0.000004   -0.085920
  H     -2.953183   -0.000002    0.006425
  H     -1.692425   -2.146543    0.006086
  H      0.774613   -2.148593   -0.006039
  H      0.774609    2.148597   -0.006043
  H     -1.692429    2.146543    0.006080
  H      2.775169   -0.838252    0.267998
  H      2.775167    0.838263    0.267992

 Total Charge           Charge          ....    0
 Multiplicity           Mult            ....    1
 Number of Electrons    NEL             ....   50
 Basis Dimension        Dim             ....  259

ORBITAL ENERGIES
----------------

  NO   OCC          E(Eh)            E(eV)
   0   2.0000     -16.520554      -449.5471
   1   2.0000     -12.089672      -328.9767
   2   2.0000     -12.048672      -327.8610
   3   2.0000     -12.048464      -327.8554
   4   2.0000     -12.040240      -327.6316
   5   2.0000     -12.039971      -327.6243
   6   2.0000     -12.036814      -327.5384
   7   2.0000      -1.482467       -40.3400
   8   2.0000      -1.366666       -37.1889
   9   2.0000      -1.268966       -34.5303
  10   2.0000      -1.255252       -34.1571
  11   2.0000      -1.107706       -30.1422
  12   2.0000      -1.104869       -30.0650
  13   2.0000      -1.002406       -27.2768
  14   2.0000      -0.991757       -26.9871
  15   2.0000      -0.938755       -25.5448
  16   2.0000      -0.923452       -25.1284
  17   2.0000      -0.888960       -24.1898
  18   2.0000      -0.866978       -23.5917
  19   2.0000      -0.825298       -22.4575
  20   2.0000      -0.814802       -22.1719
  21   2.0000      -0.797390       -21.6981
  22   2.0000      -0.744144       -20.2492
  23   2.0000      -0.637988       -17.3605
  24   2.0000      -0.613742       -16.7008
  25   0.0000      -0.233874        -6.3640
  26   0.0000      -0.233606        -6.3568
  27   0.0000      -0.063729        -1.7341
  28   0.0000      -0.059971        -1.6319
  29   0.0000      -0.017588        -0.4786

MULLIKEN ATOMIC CHARGES
-----------------------
   0 C :   -0.237577
   1 C :   -0.112661
   2 C :   -0.322744
   3 C :    0.268297
   4 C :   -0.322707
   5 C :   -0.112699
   6 N :   -0.493772
   7 H :    0.155729
   8 H :    0.158586
   9 H :    0.155720
  10 H :    0.155721
  11 H :    0.158566
  12 H :    0.274770
  13 H :    0.274771
Sum of atomic charges:    0.0000000

LOEWDIN ATOMIC CHARGES
----------------------
   0 C :   -0.187613
   1 C :   -0.154610
   2 C :   -0.147629
   3 C :   -0.250669
   4 C :   -0.147630
   5 C :   -0.154610
   6 N :   -0.057967
   7 H :    0.145809
   8 H :    0.150632
   9 H :    0.151122
  10 H :    0.151122
  11 H :    0.150632
  12 H :    0.175706
  13 H :    0.175706

  Mayer bond orders larger than 0.100000
B(  0-C ,  1-C ) :   1.3984 B(  0-C ,  5-C ) :   1.3984 B(  0-C ,  7-H ) :   0.9797
B(  1-C ,  2-C ) :   1.4469 B(  1-C ,  8-H ) :   0.9722 B(  2-C ,  3-C ) :   1.3543
B(  2-C ,  9-H ) :   0.9763 B(  3-C ,  4-C ) :   1.3543 B(  3-C ,  6-N ) :   1.1201
B(  4-C ,  5-C ) :   1.4469 B(  4-C , 10-H ) :   0.9763 B(  5-C , 11-H ) :   0.9723
B(  6-N , 12-H ) :   0.9087 B(  6-N , 13-H ) :   0.9087

FINAL SINGLE POINT ENERGY      -287.625660592399

DIPOLE MOMENT
-------------

Method             : SCF
Type of density    : Electron Density
Multiplicity       :   1
Irrep              :   0
Energy             :  -287.6329680103985993 Eh
Relativity type    :
Basis              : AO
                                X                 Y                 Z
Electronic contribution:     -0.003569070      -0.000002184      -0.043722905
Nuclear contribution   :      0.716115276       0.000002759       0.575737710
                        -----------------------------------------
Total Dipole Moment    :      0.712546207       0.000000576       0.532014805
                        -----------------------------------------
Magnitude (a.u.)       :      0.889247912
Magnitude (Debye)      :      2.260288565

Rotational constants in cm-1:             0.187541             0.086781             0.059424
Rotational constants in MHz :          5622.334880          2601.637818          1781.486696

                             ****ORCA TERMINATED NORMALLY****
TOTAL RUN TIME: 0 days 0 hours 1 minutes 48 seconds 934 msec
