                         Program Version 6.0.0  -   RELEASE  -
|  1> ! r2scan-3c def2/J RI DEFGRID2 scfconv6 printgap
|  2> %output
|  3>     printlevel normal
|  4> end
|  5> * xyz 0 1
|  6> C -2.4244183653 -1.0808788633 -0.3492495602
|  7> C -1.0764140141 -0.5942055909 0.2014865278
|  8> H -1.1310659407 -0.5815258348 1.3014375846
|  9> C -0.7418863502 0.8239478593 -0.2865856318
| 10> H -0.7225886669 0.8258677639 -1.3884071794
| 11> C 0.6521526292 1.2293005813 0.2085442663
| 12> H 0.6415407668 1.2902447336 1.3084967926
| 13> C 1.673774456 0.1675899697 -0.2064835646
| 14> H 1.7441799576 0.1522160317 -1.3057298047
| 15> C 1.1967678795 -1.2173391489 0.2804116259
| 16> H 1.1908180908 -1.2163066185 1.3848066441
| 17> O -0.0838039937 -1.5064641442 -0.2235026572
| 18> O 2.0635203138 -2.2189805882 -0.118397683
| 19> O 2.914420903 0.5039321058 0.3614979313
| 20> O 0.9468250477 2.4895751645 -0.3419303351
| 21> O -1.7294508672 1.7039105851 0.1828326285
| 22> O -3.5140319201 -0.4958422562 0.3084865836
| 23> H -2.4975316412 -2.1579467297 -0.1845292099
| 24> H -2.4632013472 -0.8864743454 -1.4292714477
| 25> H 1.7955625872 -2.5390142876 -0.9943944176
| 26> H 3.5221964404 -0.2442885757 0.2600767877
| 27> H 1.858242293 2.7226748248 -0.1125481601
| 28> H -1.447893526 2.6109660917 -0.0134331642
| 29> H -3.3942254872 0.4686723355 0.3008937118
| 30> *
| 31>
| 32>                          ****END OF INPUT****

CARTESIAN COORDINATES (ANGSTROEM)
---------------------------------
  C     -2.424418   -1.080879   -0.349250
  C     -1.076414   -0.594206    0.201487
  H     -1.131066   -0.581526    1.301438
  C     -0.741886    0.823948   -0.286586
  H     -0.722589    0.825868   -1.388407
  C      0.652153    1.229301    0.208544
  H      0.641541    1.290245    1.308497
  C      1.673774    0.167590   -0.206484
  H      1.744180    0.152216   -1.305730
  C      1.196768   -1.217339    0.280412
  H      1.190818   -1.216307    1.384807
  O     -0.083804   -1.506464   -0.223503
  O      2.063520   -2.218981   -0.118398
  O      2.914421    0.503932    0.361498
  O      0.946825    2.489575   -0.341930
  O     -1.729451    1.703911    0.182833
  O     -3.514032   -0.495842    0.308487
  H     -2.497532   -2.157947   -0.184529
  H     -2.463201   -0.886474   -1.429271
  H      1.795563   -2.539014   -0.994394
  H      3.522196   -0.244289    0.260077
  H      1.858242    2.722675   -0.112548
  H     -1.447894    2.610966   -0.013433
  H     -3.394225    0.468672    0.300894

 Total Charge           Charge          ....    0
 Multiplicity           Mult            ....    1
 Number of Electrons    NEL             ....   96
 Basis Dimension        Dim             ....  318

ORBITAL ENERGIES
----------------

  NO   OCC          E(Eh)            E(eV)
   0   2.0000     -18.983419      -516.5651
   1   2.0000     -18.980214      -516.4779
   2   2.0000     -18.976126      -516.3666
   3   2.0000     -18.971847      -516.2502
   4   2.0000     -18.970315      -516.2085
   5   2.0000     -18.941676      -515.4292
   6   2.0000     -10.149403      -276.1793
   7   2.0000     -10.101229      -274.8684
   8   2.0000     -10.099608      -274.8243
   9   2.0000     -10.099485      -274.8209
  10   2.0000     -10.097284      -274.7611
  11   2.0000     -10.079148      -274.2676
  12   2.0000      -1.064671       -28.9712
  13   2.0000      -1.026371       -27.9290
  14   2.0000      -1.015069       -27.6214
  15   2.0000      -0.997822       -27.1521
  16   2.0000      -0.994852       -27.0713
  17   2.0000      -0.980837       -26.6899
  18   2.0000      -0.761725       -20.7276
  19   2.0000      -0.742358       -20.2006
  20   2.0000      -0.657716       -17.8974
  21   2.0000      -0.630039       -17.1442
  22   2.0000      -0.599789       -16.3211
  23   2.0000      -0.572659       -15.5828
  24   2.0000      -0.536217       -14.5912
  25   2.0000      -0.521396       -14.1879
  26   2.0000      -0.498633       -13.5685
  27   2.0000      -0.484515       -13.1843
  28   2.0000      -0.478257       -13.0140
  29   2.0000      -0.467825       -12.7302
  30   2.0000      -0.447815       -12.1857
  31   2.0000      -0.427425       -11.6308
  32   2.0000      -0.420326       -11.4377
  33   2.0000      -0.397444       -10.8150
  34   2.0000      -0.385271       -10.4837
  35   2.0000      -0.372752       -10.1431
  36   2.0000      -0.360109        -9.7991
  37   2.0000      -0.356492        -9.7006
  38   2.0000      -0.346471        -9.4280
  39   2.0000      -0.333394        -9.0721
  40   2.0000      -0.320803        -8.7295
  41   2.0000      -0.291649        -7.9362
  42   2.0000      -0.286238        -7.7889
  43   2.0000      -0.270049        -7.3484
  44   2.0000      -0.261303        -7.1104
  45   2.0000      -0.254664        -6.9298
  46   2.0000      -0.239620        -6.5204
  47   2.0000      -0.230257        -6.2656
  48   0.0000       0.019083         0.5193
  49   0.0000       0.042825         1.1653
  50   0.0000       0.069899         1.9021
  51   0.0000       0.077752         2.1157
  52   0.0000       0.080176         2.1817

MULLIKEN ATOMIC CHARGES
-----------------------
   0 C :   -0.241033
   1 C :   -0.108030
   2 H :    0.187081
   3 C :   -0.006546
   4 H :    0.169974
   5 C :   -0.025032
   6 H :    0.170334
   7 C :    0.111711
   8 H :    0.163576
   9 C :   -0.141579
  10 H :    0.158980
  11 O :   -0.197541
  12 O :   -0.385315
  13 O :   -0.444100
  14 O :   -0.446310
  15 O :   -0.433981
  16 O :   -0.414172
  17 H :    0.151249
  18 H :    0.134903
  19 H :    0.328435
  20 H :    0.312002
  21 H :    0.316572
  22 H :    0.318838
  23 H :    0.319982
Sum of atomic charges:    0.0000000

LOEWDIN ATOMIC CHARGES
----------------------
   0 C :    0.049795
   1 C :    0.125347
   2 H :    0.190281
   3 C :    0.115159
   4 H :    0.184739
   5 C :    0.107025
   6 H :    0.186277
   7 C :    0.106304
   8 H :    0.182538
   9 C :    0.294330
  10 H :    0.195315
  11 O :   -0.681791
  12 O :   -0.496070
  13 O :   -0.577331
  14 O :   -0.576510
  15 O :   -0.585342
  16 O :   -0.596641
  17 H :    0.188190
  18 H :    0.164131
  19 H :    0.286264
  20 H :    0.283892
  21 H :    0.284258
  22 H :    0.288317
  23 H :    0.281524

  Mayer bond orders larger than 0.100000
B(  0-C ,  1-C ) :   0.9242 B(  0-C , 16-O ) :   1.0136 B(  0-C , 17-H ) :   0.9730
B(  0-C , 18-H ) :   0.9860 B(  1-C ,  2-H ) :   0.9559 B(  1-C ,  3-C ) :   0.8265
B(  1-C , 11-O ) :   0.7886 B(  3-C ,  4-H ) :   0.9595 B(  3-C ,  5-C ) :   0.8661
B(  3-C , 15-O ) :   0.8781 B(  5-C ,  6-H ) :   0.9896 B(  5-C ,  7-C ) :   0.8604
B(  5-C , 14-O ) :   0.9140 B(  7-C ,  8-H ) :   0.9506 B(  7-C ,  9-C ) :   0.7625
B(  7-C , 13-O ) :   0.8938 B(  9-C , 10-H ) :   1.0106 B(  9-C , 11-O ) :   0.9486
B(  9-C , 12-O ) :   1.0974 B( 12-O , 19-H ) :   0.8675 B( 13-O , 20-H ) :   0.8757
B( 14-O , 21-H ) :   0.8786 B( 15-O , 22-H ) :   0.8739 B( 16-O , 23-H ) :   0.8498

Dispersion correction           -0.008013184
FINAL SINGLE POINT ENERGY      -687.079103026335

DIPOLE MOMENT
-------------

Method             : SCF
Type of density    : Electron Density
Multiplicity       :   1
Irrep              :   0
Energy             :  -687.0909661950288410 Eh
Relativity type    :
Basis              : AO
                                X                 Y                 Z
Electronic contribution:      1.811923495      -0.111266790       0.331539597
Nuclear contribution   :     -0.839222978       0.424619449      -0.816145544
                        -----------------------------------------
Total Dipole Moment    :      0.972700516       0.313352659      -0.484605947
                        -----------------------------------------
Magnitude (a.u.)       :      1.131008005
Magnitude (Debye)      :      2.874793885

Rotational constants in cm-1:             0.043618             0.024527             0.016441
Rotational constants in MHz :          1307.620974           735.305589           492.898735

                             ****ORCA TERMINATED NORMALLY****
TOTAL RUN TIME: 0 days 0 hours 0 minutes 49 seconds 179 msec
