                         Program Version 6.0.0  -   RELEASE  -
|  1> ! r2scan-3c def2/J RI DEFGRID2 scfconv6 printgap
|  2> %output
|  3>     printlevel normal
|  4> end
|  5> %cpcm
|  6>     smd true
|  7>     smdsolvent "water"
|  8> end
|  9> * xyz 0 1
| 10> C -2.4244183653 -1.0808788633 -0.3492495602
| 11> C -1.0764140141 -0.5942055909 0.2014865278
| 12> H -1.1310659407 -0.5815258348 1.3014375846
| 13> C -0.7418863502 0.8239478593 -0.2865856318
| 14> H -0.7225886669 0.8258677639 -1.3884071794
| 15> C 0.6521526292 1.2293005813 0.2085442663
| 16> H 0.6415407668 1.2902447336 1.3084967926
| 17> C 1.673774456 0.1675899697 -0.2064835646
| 18> H 1.7441799576 0.1522160317 -1.3057298047
| 19> C 1.1967678795 -1.2173391489 0.2804116259
| 20> H 1.1908180908 -1.2163066185 1.3848066441
| 21> O -0.0838039937 -1.5064641442 -0.2235026572
| 22> O 2.0635203138 -2.2189805882 -0.118397683
| 23> O 2.914420903 0.5039321058 0.3614979313
| 24> O 0.9468250477 2.4895751645 -0.3419303351
| 25> O -1.7294508672 1.7039105851 0.1828326285
| 26> O -3.5140319201 -0.4958422562 0.3084865836
| 27> H -2.4975316412 -2.1579467297 -0.1845292099
| 28> H -2.4632013472 -0.8864743454 -1.4292714477
| 29> H 1.7955625872 -2.5390142876 -0.9943944176
| 30> H 3.5221964404 -0.2442885757 0.2600767877
| 31> H 1.858242293 2.7226748248 -0.1125481601
| 32> H -1.447893526 2.6109660917 -0.0134331642
| 33> H -3.3942254872 0.4686723355 0.3008937118
| 34> *
| 35>
| 36>                          ****END OF INPUT****

CARTESIAN COORDINATES (ANGSTROEM)
---------------------------------
  C     -2.424418   -1.080879   -0.349250
  C     -1.076414   -0.594206    0.201487
  H     -1.131066   -0.581526    1.301438
  C     -0.741886    0.823948   -0.286586
  H     -0.722589    0.825868   -1.388407
  C      0.652153    1.229301    0.208544
  H      0.641541    1.290245    1.308497
  C      1.673774    0.167590   -0.206484
  H      1.744180    0.152216   -1.305730
  C      1.196768   -1.217339    0.280412
  H      1.190818   -1.216307    1.384807
  O     -0.083804   -1.506464   -0.223503
  O      2.063520   -2.218981   -0.118398
  O      2.914421    0.503932    0.361498
  O      0.946825    2.489575   -0.341930
  O     -1.729451    1.703911    0.182833
  O     -3.514032   -0.495842    0.308487
  H     -2.497532   -2.157947   -0.184529
  H     -2.463201   -0.886474   -1.429271
  H      1.795563   -2.539014   -0.994394
  H      3.522196   -0.244289    0.260077
  H      1.858242    2.722675   -0.112548
  H     -1.447894    2.610966   -0.013433
  H     -3.394225    0.468672    0.300894

 Total Charge           Charge          ....    0
 Multiplicity           Mult            ....    1
 Number of Electrons    NEL             ....   96
 Basis Dimension        Dim             ....  318

ORBITAL ENERGIES
----------------

  NO   OCC          E(Eh)            E(eV)
   0   2.0000     -18.979087      -516.4472
   1   2.0000     -18.969856      -516.1960
   2   2.0000     -18.967014      -516.1187
   3   2.0000     -18.962802      -516.0041
   4   2.0000     -18.961635      -515.9723
   5   2.0000     -18.954281      -515.7722
   6   2.0000     -10.138218      -275.8749
   7   2.0000     -10.092121      -274.6206
   8   2.0000     -10.089610      -274.5523
   9   2.0000     -10.087172      -274.4859
  10   2.0000     -10.084517      -274.4137
  11   2.0000     -10.077246      -274.2158
  12   2.0000      -1.056829       -28.7578
  13   2.0000      -1.017195       -27.6793
  14   2.0000      -1.006884       -27.3987
  15   2.0000      -0.992427       -27.0053
  16   2.0000      -0.989006       -26.9122
  17   2.0000      -0.983823       -26.7712
  18   2.0000      -0.751259       -20.4428
  19   2.0000      -0.734324       -19.9820
  20   2.0000      -0.651342       -17.7239
  21   2.0000      -0.619163       -16.8483
  22   2.0000      -0.593811       -16.1584
  23   2.0000      -0.561782       -15.2869
  24   2.0000      -0.525929       -14.3113
  25   2.0000      -0.511385       -13.9155
  26   2.0000      -0.489135       -13.3100
  27   2.0000      -0.480866       -13.0850
  28   2.0000      -0.470257       -12.7963
  29   2.0000      -0.456723       -12.4281
  30   2.0000      -0.437582       -11.9072
  31   2.0000      -0.424222       -11.5437
  32   2.0000      -0.414698       -11.2845
  33   2.0000      -0.393367       -10.7041
  34   2.0000      -0.382111       -10.3978
  35   2.0000      -0.368033       -10.0147
  36   2.0000      -0.353611        -9.6222
  37   2.0000      -0.350696        -9.5429
  38   2.0000      -0.340913        -9.2767
  39   2.0000      -0.332295        -9.0422
  40   2.0000      -0.314917        -8.5693
  41   2.0000      -0.289789        -7.8856
  42   2.0000      -0.282032        -7.6745
  43   2.0000      -0.264088        -7.1862
  44   2.0000      -0.253537        -6.8991
  45   2.0000      -0.247946        -6.7470
  46   2.0000      -0.245654        -6.6846
  47   2.0000      -0.226206        -6.1554
  48   0.0000       0.031090         0.8460
  49   0.0000       0.061182         1.6648
  50   0.0000       0.087131         2.3709
  51   0.0000       0.091633         2.4935
  52   0.0000       0.095632         2.6023

MULLIKEN ATOMIC CHARGES
-----------------------
   0 C :   -0.249016
   1 C :   -0.106757
   2 H :    0.208230
   3 C :   -0.004452
   4 H :    0.188967
   5 C :   -0.009565
   6 H :    0.184097
   7 C :    0.082871
   8 H :    0.184701
   9 C :   -0.122309
  10 H :    0.179003
  11 O :   -0.240333
  12 O :   -0.436139
  13 O :   -0.498208
  14 O :   -0.497910
  15 O :   -0.481984
  16 O :   -0.489570
  17 H :    0.165564
  18 H :    0.157937
  19 H :    0.374882
  20 H :    0.348717
  21 H :    0.352563
  22 H :    0.353493
  23 H :    0.355219
Sum of atomic charges:    0.0000000

LOEWDIN ATOMIC CHARGES
----------------------
   0 C :    0.046003
   1 C :    0.126440
   2 H :    0.197145
   3 C :    0.116941
   4 H :    0.192453
   5 C :    0.108034
   6 H :    0.193005
   7 C :    0.109982
   8 H :    0.191529
   9 C :    0.296345
  10 H :    0.204108
  11 O :   -0.695324
  12 O :   -0.512787
  13 O :   -0.595963
  14 O :   -0.595912
  15 O :   -0.597535
  16 O :   -0.633930
  17 H :    0.192224
  18 H :    0.174128
  19 H :    0.301899
  20 H :    0.296046
  21 H :    0.295748
  22 H :    0.299807
  23 H :    0.289613

  Mayer bond orders larger than 0.100000
B(  0-C ,  1-C ) :   0.9122 B(  0-C , 16-O ) :   0.9912 B(  0-C , 17-H ) :   0.9695
B(  0-C , 18-H ) :   0.9758 B(  1-C ,  2-H ) :   0.9543 B(  1-C ,  3-C ) :   0.8338
B(  1-C , 11-O ) :   0.7989 B(  3-C ,  4-H ) :   0.9526 B(  3-C ,  5-C ) :   0.8813
B(  3-C , 15-O ) :   0.8663 B(  5-C ,  6-H ) :   0.9689 B(  5-C ,  7-C ) :   0.8811
B(  5-C , 14-O ) :   0.8988 B(  7-C ,  8-H ) :   0.9506 B(  7-C ,  9-C ) :   0.7901
B(  7-C , 13-O ) :   0.8826 B(  9-C , 10-H ) :   0.9950 B(  9-C , 11-O ) :   0.9332
B(  9-C , 12-O ) :   1.0925 B( 12-O , 19-H ) :   0.8406 B( 13-O , 20-H ) :   0.8590
B( 14-O , 21-H ) :   0.8606 B( 15-O , 22-H ) :   0.8562 B( 16-O , 23-H ) :   0.8317

Dispersion correction           -0.008013184
FINAL SINGLE POINT ENERGY      -687.107699449030

DIPOLE MOMENT
-------------

Method             : SCF
Type of density    : Electron Density
Multiplicity       :   1
Irrep              :   0
Energy             :  -687.1195626177236591 Eh
Relativity type    :
Basis              : AO
                                X                 Y                 Z
Electronic contribution:      2.114009136      -0.030022872       0.133739016
Nuclear contribution   :     -0.839222978       0.424619449      -0.816145544
                        -----------------------------------------
Total Dipole Moment    :      1.274786158       0.394596577      -0.682406528
                        -----------------------------------------
Magnitude (a.u.)       :      1.498821162
Magnitude (Debye)      :      3.809700631

Rotational constants in cm-1:             0.043618             0.024527             0.016441
Rotational constants in MHz :          1307.620974           735.305589           492.898735

                             ****ORCA TERMINATED NORMALLY****
TOTAL RUN TIME: 0 days 0 hours 0 minutes 57 seconds 805 msec
