                         Program Version 6.0.0  -   RELEASE  -
|  1> ! pbe def2-sv(p) def2/J RI DEFGRID1 loosescf d4 GCP(DFT/SV(P)) printgap
|  2> %output
|  3>     printlevel normal
|  4> end
|  5> * xyz 0 1
|  6> C -2.5605968565 -0.8704671109 0.3238198438
|  7> C -1.126349389 -0.4242653159 0.6460248745
|  8> H -1.0004656415 -0.3499945441 1.7376490397
|  9> C -0.8195972096 0.9451962402 0.0057202632
| 10> H -1.0539422889 0.8782490845 -1.0636483091
| 11> C 0.6678421265 1.2948875565 0.1929583933
| 12> H 0.8836742371 1.4289321282 1.2607783856
| 13> C 1.5429402089 0.1416169504 -0.3200176059
| 14> H 1.4068716322 0.0272094054 -1.4065733839
| 15> C 1.1001708773 -1.1734334881 0.3470284988
| 16> H 1.2948685691 -1.0952772464 1.4378793223
| 17> O -0.2666942911 -1.4285192216 0.1360696812
| 18> O 1.8268469115 -2.2001711798 -0.2214697679
| 19> O 2.8819736757 0.42245987 -0.0116724969
| 20> O 0.9956235056 2.5270951391 -0.3868181383
| 21> O -1.6621407031 1.9467739526 0.5093443167
| 22> O -2.740064746 -1.1164507405 -1.0452955084
| 23> H -3.2473790262 -0.064837812 0.5880325123
| 24> H -2.7961143915 -1.765817311 0.9117010176
| 25> H 1.4811120669 -3.056959044 0.0737943289
| 26> H 3.4348402057 -0.3143788792 -0.3132818323
| 27> H 0.8564035733 2.4940288103 -1.3441944445
| 28> H -1.3485944239 2.2422695239 1.376282551
| 29> H -2.1018230923 -1.7929858526 -1.316464012
| 30> *
| 31>
| 32>                          ****END OF INPUT****

CARTESIAN COORDINATES (ANGSTROEM)
---------------------------------
  C     -2.560597   -0.870467    0.323820
  C     -1.126349   -0.424265    0.646025
  H     -1.000466   -0.349995    1.737649
  C     -0.819597    0.945196    0.005720
  H     -1.053942    0.878249   -1.063648
  C      0.667842    1.294888    0.192958
  H      0.883674    1.428932    1.260778
  C      1.542940    0.141617   -0.320018
  H      1.406872    0.027209   -1.406573
  C      1.100171   -1.173433    0.347028
  H      1.294869   -1.095277    1.437879
  O     -0.266694   -1.428519    0.136070
  O      1.826847   -2.200171   -0.221470
  O      2.881974    0.422460   -0.011672
  O      0.995624    2.527095   -0.386818
  O     -1.662141    1.946774    0.509344
  O     -2.740065   -1.116451   -1.045296
  H     -3.247379   -0.064838    0.588033
  H     -2.796114   -1.765817    0.911701
  H      1.481112   -3.056959    0.073794
  H      3.434840   -0.314379   -0.313282
  H      0.856404    2.494029   -1.344194
  H     -1.348594    2.242270    1.376283
  H     -2.101823   -1.792986   -1.316464

 Total Charge           Charge          ....    0
 Multiplicity           Mult            ....    1
 Number of Electrons    NEL             ....   96
 Basis Dimension        Dim             ....  192

ORBITAL ENERGIES
----------------

  NO   OCC          E(Eh)            E(eV)
   0   2.0000     -18.785137      -511.1696
   1   2.0000     -18.777040      -510.9492
   2   2.0000     -18.755230      -510.3558
   3   2.0000     -18.752818      -510.2901
   4   2.0000     -18.748458      -510.1715
   5   2.0000     -18.747770      -510.1528
   6   2.0000      -9.995802      -271.9996
   7   2.0000      -9.948889      -270.7230
   8   2.0000      -9.946881      -270.6684
   9   2.0000      -9.945444      -270.6293
  10   2.0000      -9.942937      -270.5611
  11   2.0000      -9.931920      -270.2613
  12   2.0000      -0.996832       -27.1252
  13   2.0000      -0.945352       -25.7243
  14   2.0000      -0.940843       -25.6017
  15   2.0000      -0.927245       -25.2316
  16   2.0000      -0.918722       -24.9997
  17   2.0000      -0.915073       -24.9004
  18   2.0000      -0.704784       -19.1781
  19   2.0000      -0.695693       -18.9308
  20   2.0000      -0.620335       -16.8802
  21   2.0000      -0.590634       -16.0720
  22   2.0000      -0.563778       -15.3412
  23   2.0000      -0.544243       -14.8096
  24   2.0000      -0.512001       -13.9323
  25   2.0000      -0.497175       -13.5288
  26   2.0000      -0.475113       -12.9285
  27   2.0000      -0.459728       -12.5098
  28   2.0000      -0.445910       -12.1338
  29   2.0000      -0.433146       -11.7865
  30   2.0000      -0.428589       -11.6625
  31   2.0000      -0.404263       -11.0006
  32   2.0000      -0.388937       -10.5835
  33   2.0000      -0.374703       -10.1962
  34   2.0000      -0.365594        -9.9483
  35   2.0000      -0.349696        -9.5157
  36   2.0000      -0.328452        -8.9376
  37   2.0000      -0.327381        -8.9085
  38   2.0000      -0.310105        -8.4384
  39   2.0000      -0.290491        -7.9047
  40   2.0000      -0.279848        -7.6151
  41   2.0000      -0.272676        -7.4199
  42   2.0000      -0.266120        -7.2415
  43   2.0000      -0.251372        -6.8402
  44   2.0000      -0.229667        -6.2496
  45   2.0000      -0.224193        -6.1006
  46   2.0000      -0.217505        -5.9186
  47   2.0000      -0.205435        -5.5902
  48   0.0000       0.015924         0.4333
  49   0.0000       0.018332         0.4989
  50   0.0000       0.026382         0.7179
  51   0.0000       0.037739         1.0269
  52   0.0000       0.059523         1.6197

MULLIKEN ATOMIC CHARGES
-----------------------
   0 C :    0.106382
   1 C :   -0.023081
   2 H :    0.038050
   3 C :    0.059111
   4 H :    0.052905
   5 C :    0.086746
   6 H :    0.049790
   7 C :    0.041442
   8 H :    0.046005
   9 C :    0.170782
  10 H :    0.040474
  11 O :   -0.322985
  12 O :   -0.385802
  13 O :   -0.403133
  14 O :   -0.397100
  15 O :   -0.403007
  16 O :   -0.438243
  17 H :    0.091998
  18 H :    0.075223
  19 H :    0.311052
  20 H :    0.306374
  21 H :    0.298414
  22 H :    0.300208
  23 H :    0.298397
Sum of atomic charges:    0.0000000

LOEWDIN ATOMIC CHARGES
----------------------
   0 C :   -0.123021
   1 C :   -0.082788
   2 H :    0.098036
   3 C :   -0.080896
   4 H :    0.113884
   5 C :   -0.076212
   6 H :    0.112131
   7 C :   -0.088009
   8 H :    0.101610
   9 C :   -0.006982
  10 H :    0.081689
  11 O :   -0.159169
  12 O :   -0.299364
  13 O :   -0.311479
  14 O :   -0.302750
  15 O :   -0.301316
  16 O :   -0.330053
  17 H :    0.122662
  18 H :    0.098144
  19 H :    0.293024
  20 H :    0.288297
  21 H :    0.286787
  22 H :    0.286228
  23 H :    0.279546

  Mayer bond orders larger than 0.100000
B(  0-C ,  1-C ) :   1.0361 B(  0-C , 16-O ) :   1.0668 B(  0-C , 17-H ) :   0.9109
B(  0-C , 18-H ) :   0.9173 B(  1-C ,  2-H ) :   0.8703 B(  1-C ,  3-C ) :   0.9645
B(  1-C , 11-O ) :   0.9748 B(  3-C ,  4-H ) :   0.8587 B(  3-C ,  5-C ) :   0.9998
B(  3-C , 15-O ) :   1.0521 B(  5-C ,  6-H ) :   0.8634 B(  5-C ,  7-C ) :   0.9890
B(  5-C , 14-O ) :   1.0851 B(  7-C ,  8-H ) :   0.8648 B(  7-C ,  9-C ) :   0.9851
B(  7-C , 13-O ) :   1.0959 B(  9-C , 10-H ) :   0.8869 B(  9-C , 11-O ) :   1.0074
B(  9-C , 12-O ) :   1.1666 B( 12-O , 19-H ) :   0.8372 B( 13-O , 20-H ) :   0.8398
B( 14-O , 21-H ) :   0.8493 B( 15-O , 22-H ) :   0.8462 B( 16-O , 23-H ) :   0.8406

Dispersion correction           -0.023933315
FINAL SINGLE POINT ENERGY      -685.697255350671

DIPOLE MOMENT
-------------

Method             : SCF
Type of density    : Electron Density
Multiplicity       :   1
Irrep              :   0
Energy             :  -685.8266001708467456 Eh
Relativity type    :
Basis              : AO
                                X                 Y                 Z
Electronic contribution:      2.391210201       0.137232094      -1.364024478
Nuclear contribution   :     -2.039766157      -1.282642126       1.806775877
                        -----------------------------------------
Total Dipole Moment    :      0.351444044      -1.145410032       0.442751399
                        -----------------------------------------
Magnitude (a.u.)       :      1.277304137
Magnitude (Debye)      :      3.246649102

Rotational constants in cm-1:             0.038783             0.027304             0.017726
Rotational constants in MHz :          1162.687930           818.544292           531.405956

                             ****ORCA TERMINATED NORMALLY****
TOTAL RUN TIME: 0 days 0 hours 0 minutes 12 seconds 119 msec
