                         Program Version 6.0.0  -   RELEASE  -
|  1> ! pbe def2-sv(p) def2/J RI DEFGRID1 loosescf d4 GCP(DFT/SV(P)) printgap
|  2> %output
|  3>     printlevel normal
|  4> end
|  5> * xyz 0 1
|  6> C -1.8132027437 -1.4608730866 -9.92936e-05
|  7> C -0.5230876999 -0.6994046598 3.32061e-05
|  8> C 0.6891607783 -1.3754484047 7.48985e-05
|  9> C 1.8922368619 -0.6914939826 2.98408e-05
| 10> C 1.892235234 0.6915034362 -7.91814e-05
| 11> C 0.689156398 1.375448318 -2.81854e-05
| 12> C -0.5230902785 0.6993975356 5.74724e-05
| 13> C -1.8132119704 1.4608690567 4.75303e-05
| 14> H -1.627009839 -2.531481093 -0.0001504331
| 15> H -2.4048910027 -1.2103786486 0.8792631576
| 16> H -2.4047359852 -1.2102431665 -0.8795262065
| 17> H 0.6913420345 -2.4564863374 0.0001310114
| 18> H 2.8245319032 -1.2368089263 5.96329e-05
| 19> H 2.8245270728 1.2368262842 -0.0001753492
| 20> H 0.6913260497 2.4564869675 -0.0001374128
| 21> H -2.4053257238 1.2095184457 0.8788899918
| 22> H -1.6270124134 2.5314776983 0.0011160791
| 23> H -2.4043545562 1.2111100751 -0.8799029078
| 24> *
| 25>
| 26>                          ****END OF INPUT****

CARTESIAN COORDINATES (ANGSTROEM)
---------------------------------
  C     -1.813203   -1.460873   -0.000099
  C     -0.523088   -0.699405    0.000033
  C      0.689161   -1.375448    0.000075
  C      1.892237   -0.691494    0.000030
  C      1.892235    0.691503   -0.000079
  C      0.689156    1.375448   -0.000028
  C     -0.523090    0.699398    0.000057
  C     -1.813212    1.460869    0.000048
  H     -1.627010   -2.531481   -0.000150
  H     -2.404891   -1.210379    0.879263
  H     -2.404736   -1.210243   -0.879526
  H      0.691342   -2.456486    0.000131
  H      2.824532   -1.236809    0.000060
  H      2.824527    1.236826   -0.000175
  H      0.691326    2.456487   -0.000137
  H     -2.405326    1.209518    0.878890
  H     -1.627012    2.531478    0.001116
  H     -2.404355    1.211110   -0.879903

 Total Charge           Charge          ....    0
 Multiplicity           Mult            ....    1
 Number of Electrons    NEL             ....   58
 Basis Dimension        Dim             ....  132

ORBITAL ENERGIES
----------------

  NO   OCC          E(Eh)            E(eV)
   0   2.0000      -9.896489      -269.2972
   1   2.0000      -9.896345      -269.2932
   2   2.0000      -9.882894      -268.9272
   3   2.0000      -9.882840      -268.9258
   4   2.0000      -9.882331      -268.9119
   5   2.0000      -9.882247      -268.9096
   6   2.0000      -9.882141      -268.9067
   7   2.0000      -9.881904      -268.9003
   8   2.0000      -0.775942       -21.1145
   9   2.0000      -0.698157       -18.9978
  10   2.0000      -0.683498       -18.5989
  11   2.0000      -0.621891       -16.9225
  12   2.0000      -0.600184       -16.3318
  13   2.0000      -0.531064       -14.4510
  14   2.0000      -0.507403       -13.8071
  15   2.0000      -0.447197       -12.1689
  16   2.0000      -0.421410       -11.4671
  17   2.0000      -0.392086       -10.6692
  18   2.0000      -0.390625       -10.6295
  19   2.0000      -0.363074        -9.8798
  20   2.0000      -0.357333        -9.7235
  21   2.0000      -0.355347        -9.6695
  22   2.0000      -0.342164        -9.3108
  23   2.0000      -0.337970        -9.1966
  24   2.0000      -0.310592        -8.4516
  25   2.0000      -0.290041        -7.8924
  26   2.0000      -0.288697        -7.8559
  27   2.0000      -0.218538        -5.9467
  28   2.0000      -0.210338        -5.7236
  29   0.0000      -0.026398        -0.7183
  30   0.0000      -0.024610        -0.6697
  31   0.0000       0.041118         1.1189
  32   0.0000       0.052195         1.4203
  33   0.0000       0.070762         1.9255

MULLIKEN ATOMIC CHARGES
-----------------------
   0 C :   -0.206646
   1 C :   -0.011334
   2 C :   -0.138775
   3 C :   -0.041489
   4 C :   -0.041485
   5 C :   -0.138775
   6 C :   -0.011328
   7 C :   -0.206664
   8 H :    0.100904
   9 H :    0.109087
  10 H :    0.109072
  11 H :    0.032827
  12 H :    0.046355
  13 H :    0.046356
  14 H :    0.032828
  15 H :    0.109060
  16 H :    0.100905
  17 H :    0.109103
Sum of atomic charges:    0.0000000

LOEWDIN ATOMIC CHARGES
----------------------
   0 C :   -0.321412
   1 C :   -0.048161
   2 C :   -0.125667
   3 C :   -0.128955
   4 C :   -0.128956
   5 C :   -0.125666
   6 C :   -0.048161
   7 C :   -0.321412
   8 H :    0.124312
   9 H :    0.129680
  10 H :    0.129682
  11 H :    0.119134
  12 H :    0.121389
  13 H :    0.121390
  14 H :    0.119134
  15 H :    0.129667
  16 H :    0.124312
  17 H :    0.129692

  Mayer bond orders larger than 0.100000
B(  0-C ,  1-C ) :   1.1449 B(  0-C ,  8-H ) :   0.9368 B(  0-C ,  9-H ) :   0.9233
B(  0-C , 10-H ) :   0.9232 B(  1-C ,  2-C ) :   1.4061 B(  1-C ,  6-C ) :   1.4003
B(  2-C ,  3-C ) :   1.3623 B(  2-C , 11-H ) :   0.9577 B(  3-C ,  4-C ) :   1.3760
B(  3-C , 12-H ) :   0.9643 B(  4-C ,  5-C ) :   1.3623 B(  4-C , 13-H ) :   0.9643
B(  5-C ,  6-C ) :   1.4061 B(  5-C , 14-H ) :   0.9577 B(  6-C ,  7-C ) :   1.1449
B(  7-C , 15-H ) :   0.9233 B(  7-C , 16-H ) :   0.9368 B(  7-C , 17-H ) :   0.9233

Dispersion correction           -0.017919653
FINAL SINGLE POINT ENERGY      -310.159641059878

DIPOLE MOMENT
-------------

Method             : SCF
Type of density    : Electron Density
Multiplicity       :   1
Irrep              :   0
Energy             :  -310.2092499392014133 Eh
Relativity type    :
Basis              : AO
                                X                 Y                 Z
Electronic contribution:      5.216876966      -0.000022775       0.000302412
Nuclear contribution   :     -5.480402041       0.000019982      -0.000405698
                        -----------------------------------------
Total Dipole Moment    :     -0.263525075      -0.000002793      -0.000103286
                        -----------------------------------------
Magnitude (a.u.)       :      0.263525095
Magnitude (Debye)      :      0.669827560

Rotational constants in cm-1:             0.107276             0.072728             0.044049
Rotational constants in MHz :          3216.054215          2180.319753          1320.570049

                             ****ORCA TERMINATED NORMALLY****
TOTAL RUN TIME: 0 days 0 hours 0 minutes 6 seconds 414 msec
