                         Program Version 6.0.0  -   RELEASE  -
|  1> ! pbe def2-sv(p) def2/J RI DEFGRID1 loosescf d4 GCP(DFT/SV(P)) printgap
|  2> %output
|  3>     printlevel normal
|  4> end
|  5> * xyz 0 1
|  6> C -0.7616464782 -1.7226082745 -8.152e-07
|  7> C 0.5525045932 -1.3007734354 -3.67279e-05
|  8> C 0.8395536763 0.0676084267 -6.89348e-05
|  9> C -0.1974177436 0.9980912941 -9.87738e-05
| 10> C -1.5193896136 0.5676723858 -6.71377e-05
| 11> C -1.7947997523 -0.7993310694 7.0531e-05
| 12> O -2.4933283007 1.5057033797 4.72875e-05
| 13> C 2.222752913 0.5273100826 3.64915e-05
| 14> O 3.2057815938 -0.1863030874 2.79026e-05
| 15> H -0.9904942686 -2.7765568973 0.0001472349
| 16> H 1.3730234688 -2.0012237724 0.0005026992
| 17> H 0.0082291762 2.0570100955 3.39831e-05
| 18> H -2.8191820588 -1.1411162725 0.0001422074
| 19> H -3.3729404955 1.0966362985 0.0002152185
| 20> H 2.3384117274 1.6268810037 -0.0002643321
| 21> *
| 22>
| 23>                          ****END OF INPUT****

CARTESIAN COORDINATES (ANGSTROEM)
---------------------------------
  C     -0.761646   -1.722608   -0.000001
  C      0.552505   -1.300773   -0.000037
  C      0.839554    0.067608   -0.000069
  C     -0.197418    0.998091   -0.000099
  C     -1.519390    0.567672   -0.000067
  C     -1.794800   -0.799331    0.000071
  O     -2.493328    1.505703    0.000047
  C      2.222753    0.527310    0.000036
  O      3.205782   -0.186303    0.000028
  H     -0.990494   -2.776557    0.000147
  H      1.373023   -2.001224    0.000503
  H      0.008229    2.057010    0.000034
  H     -2.819182   -1.141116    0.000142
  H     -3.372940    1.096636    0.000215
  H      2.338412    1.626881   -0.000264

 Total Charge           Charge          ....    0
 Multiplicity           Mult            ....    1
 Number of Electrons    NEL             ....   64
 Basis Dimension        Dim             ....  138

ORBITAL ENERGIES
----------------

  NO   OCC          E(Eh)            E(eV)
   0   2.0000     -18.800750      -511.5944
   1   2.0000     -18.747643      -510.1493
   2   2.0000      -9.972236      -271.3583
   3   2.0000      -9.968030      -271.2439
   4   2.0000      -9.912638      -269.7366
   5   2.0000      -9.910588      -269.6808
   6   2.0000      -9.909633      -269.6548
   7   2.0000      -9.908234      -269.6167
   8   2.0000      -9.900085      -269.3950
   9   2.0000      -0.983007       -26.7490
  10   2.0000      -0.938457       -25.5367
  11   2.0000      -0.789821       -21.4921
  12   2.0000      -0.701344       -19.0845
  13   2.0000      -0.682177       -18.5630
  14   2.0000      -0.601841       -16.3769
  15   2.0000      -0.560488       -15.2517
  16   2.0000      -0.548200       -14.9173
  17   2.0000      -0.480644       -13.0790
  18   2.0000      -0.461336       -12.5536
  19   2.0000      -0.434938       -11.8353
  20   2.0000      -0.418937       -11.3999
  21   2.0000      -0.393803       -10.7159
  22   2.0000      -0.386516       -10.5176
  23   2.0000      -0.373095       -10.1524
  24   2.0000      -0.356854        -9.7105
  25   2.0000      -0.349269        -9.5041
  26   2.0000      -0.335413        -9.1271
  27   2.0000      -0.313523        -8.5314
  28   2.0000      -0.306355        -8.3363
  29   2.0000      -0.247642        -6.7387
  30   2.0000      -0.212819        -5.7911
  31   2.0000      -0.205822        -5.6007
  32   0.0000      -0.095634        -2.6023
  33   0.0000      -0.040610        -1.1050
  34   0.0000       0.006423         0.1748
  35   0.0000       0.009335         0.2540
  36   0.0000       0.045386         1.2350

MULLIKEN ATOMIC CHARGES
-----------------------
   0 C :   -0.045953
   1 C :   -0.087872
   2 C :    0.095584
   3 C :   -0.183512
   4 C :    0.257759
   5 C :   -0.155485
   6 O :   -0.324723
   7 C :    0.036896
   8 O :   -0.160408
   9 H :    0.062226
  10 H :    0.060093
  11 H :    0.048963
  12 H :    0.038471
  13 H :    0.321357
  14 H :    0.036606
Sum of atomic charges:    0.0000000

LOEWDIN ATOMIC CHARGES
----------------------
   0 C :   -0.109661
   1 C :   -0.106639
   2 C :   -0.086981
   3 C :   -0.121429
   4 C :    0.021345
   5 C :   -0.157066
   6 O :   -0.225641
   7 C :    0.007234
   8 O :   -0.124069
   9 H :    0.129153
  10 H :    0.133650
  11 H :    0.134525
  12 H :    0.124174
  13 H :    0.301316
  14 H :    0.080089

  Mayer bond orders larger than 0.100000
B(  0-C ,  1-C ) :   1.3681 B(  0-C ,  5-C ) :   1.3478 B(  0-C ,  9-H ) :   0.9640
B(  1-C ,  2-C ) :   1.3348 B(  1-C , 10-H ) :   0.9629 B(  2-C ,  3-C ) :   1.2999
B(  2-C ,  7-C ) :   0.9926 B(  3-C ,  4-C ) :   1.3327 B(  3-C , 11-H ) :   0.9638
B(  4-C ,  5-C ) :   1.3121 B(  4-C ,  6-O ) :   1.2021 B(  5-C , 12-H ) :   0.9578
B(  6-O , 13-H ) :   0.8387 B(  7-C ,  8-O ) :   2.1444 B(  7-C , 14-H ) :   0.9175

Dispersion correction           -0.015439904
FINAL SINGLE POINT ENERGY      -419.924873048226

DIPOLE MOMENT
-------------

Method             : SCF
Type of density    : Electron Density
Multiplicity       :   1
Irrep              :   0
Energy             :  -419.9711282574754136 Eh
Relativity type    :
Basis              : AO
                                X                 Y                 Z
Electronic contribution:      1.522417178       0.986191181      -0.000464656
Nuclear contribution   :     -3.238292704      -1.048430237       0.000730087
                        -----------------------------------------
Total Dipole Moment    :     -1.715875526      -0.062239056       0.000265431
                        -----------------------------------------
Magnitude (a.u.)       :      1.717003958
Magnitude (Debye)      :      4.364277227

Rotational constants in cm-1:             0.124236             0.038108             0.029163
Rotational constants in MHz :          3724.505268          1142.452351           874.277145

                             ****ORCA TERMINATED NORMALLY****
TOTAL RUN TIME: 0 days 0 hours 0 minutes 7 seconds 946 msec
