                         Program Version 6.0.0  -   RELEASE  -
|  1> ! r2scan-3c def2/J RI DEFGRID2 scfconv6 printgap
|  2> %output
|  3>     printlevel normal
|  4> end
|  5> * xyz 0 1
|  6> C 3.3573322739 -0.0689168049 0.1721618995
|  7> N 1.9296896228 -0.2800467723 0.2754206633
|  8> C 1.4805758579 -1.398964957 1.080868436
|  9> C 1.0738317694 0.5283701717 -0.3600473134
| 10> O 1.4338745297 1.4808643297 -1.0592901097
| 11> C -0.3791951314 0.2134484595 -0.1741039361
| 12> C -1.0416021321 -0.5900007743 -1.0932924811
| 13> C -2.3939647729 -0.8445205901 -0.9427335024
| 14> C -3.0902679372 -0.2952870809 0.1208974513
| 15> C -2.4345513968 0.516062177 1.0319046163
| 16> C -1.0822103675 0.7721891747 0.8859835209
| 17> H 3.524785807 0.8008198187 -0.4606821576
| 18> H 3.8350157685 -0.9404293741 -0.2761650334
| 19> H 3.7818750495 0.1140366098 1.1595445179
| 20> H 0.8564769358 -1.057637304 1.9072472368
| 21> H 2.3534617049 -1.9059385971 1.4812440559
| 22> H 0.9038595543 -2.1027989596 0.4798043454
| 23> H -0.4956968636 -1.0080464033 -1.9265465096
| 24> H -2.9036388066 -1.4705755843 -1.6589814553
| 25> H -4.1444268498 -0.4948204948 0.2367081725
| 26> H -2.9759326403 0.9522858994 1.857329461
| 27> H -0.5681868238 1.4120198396 1.5885013934
| 28> *
| 29>
| 30>                          ****END OF INPUT****

CARTESIAN COORDINATES (ANGSTROEM)
---------------------------------
  C      3.357332   -0.068917    0.172162
  N      1.929690   -0.280047    0.275421
  C      1.480576   -1.398965    1.080868
  C      1.073832    0.528370   -0.360047
  O      1.433875    1.480864   -1.059290
  C     -0.379195    0.213448   -0.174104
  C     -1.041602   -0.590001   -1.093292
  C     -2.393965   -0.844521   -0.942734
  C     -3.090268   -0.295287    0.120897
  C     -2.434551    0.516062    1.031905
  C     -1.082210    0.772189    0.885984
  H      3.524786    0.800820   -0.460682
  H      3.835016   -0.940429   -0.276165
  H      3.781875    0.114037    1.159545
  H      0.856477   -1.057637    1.907247
  H      2.353462   -1.905939    1.481244
  H      0.903860   -2.102799    0.479804
  H     -0.495697   -1.008046   -1.926547
  H     -2.903639   -1.470576   -1.658981
  H     -4.144427   -0.494820    0.236708
  H     -2.975933    0.952286    1.857329
  H     -0.568187    1.412020    1.588501

 Total Charge           Charge          ....    0
 Multiplicity           Mult            ....    1
 Number of Electrons    NEL             ....   80
 Basis Dimension        Dim             ....  274

ORBITAL ENERGIES
----------------

  NO   OCC          E(Eh)            E(eV)
   0   2.0000     -18.906066      -514.4602
   1   2.0000     -14.196761      -386.3135
   2   2.0000     -10.122115      -275.4368
   3   2.0000     -10.070797      -274.0403
   4   2.0000     -10.061877      -273.7976
   5   2.0000     -10.048923      -273.4451
   6   2.0000     -10.042572      -273.2723
   7   2.0000     -10.042388      -273.2673
   8   2.0000     -10.041654      -273.2473
   9   2.0000     -10.041523      -273.2437
  10   2.0000     -10.040074      -273.2043
  11   2.0000      -0.993765       -27.0417
  12   2.0000      -0.907414       -24.6920
  13   2.0000      -0.834114       -22.6974
  14   2.0000      -0.738819       -20.1043
  15   2.0000      -0.723841       -19.6967
  16   2.0000      -0.697075       -18.9684
  17   2.0000      -0.672504       -18.2998
  18   2.0000      -0.589664       -16.0456
  19   2.0000      -0.583746       -15.8845
  20   2.0000      -0.525619       -14.3028
  21   2.0000      -0.500429       -13.6174
  22   2.0000      -0.462617       -12.5884
  23   2.0000      -0.454291       -12.3619
  24   2.0000      -0.441417       -12.0116
  25   2.0000      -0.426329       -11.6010
  26   2.0000      -0.416645       -11.3375
  27   2.0000      -0.397465       -10.8156
  28   2.0000      -0.384527       -10.4635
  29   2.0000      -0.382169       -10.3993
  30   2.0000      -0.370656       -10.0860
  31   2.0000      -0.358584        -9.7576
  32   2.0000      -0.345140        -9.3917
  33   2.0000      -0.340171        -9.2565
  34   2.0000      -0.326590        -8.8870
  35   2.0000      -0.314955        -8.5704
  36   2.0000      -0.247093        -6.7237
  37   2.0000      -0.244337        -6.6487
  38   2.0000      -0.216296        -5.8857
  39   2.0000      -0.208521        -5.6741
  40   0.0000      -0.039569        -1.0767
  41   0.0000      -0.039070        -1.0632
  42   0.0000      -0.001907        -0.0519
  43   0.0000       0.056151         1.5279
  44   0.0000       0.087260         2.3745

MULLIKEN ATOMIC CHARGES
-----------------------
   0 C :   -0.429892
   1 N :    0.108347
   2 C :   -0.409713
   3 C :    0.179447
   4 O :   -0.445576
   5 C :    0.136520
   6 C :   -0.220742
   7 C :   -0.144810
   8 C :   -0.134395
   9 C :   -0.144931
  10 C :   -0.225803
  11 H :    0.202137
  12 H :    0.146186
  13 H :    0.145934
  14 H :    0.170342
  15 H :    0.152151
  16 H :    0.170688
  17 H :    0.152588
  18 H :    0.145712
  19 H :    0.147606
  20 H :    0.145648
  21 H :    0.152556
Sum of atomic charges:    0.0000000

LOEWDIN ATOMIC CHARGES
----------------------
   0 C :   -0.111256
   1 N :   -0.828201
   2 C :   -0.104832
   3 C :    0.340261
   4 O :   -0.467731
   5 C :   -0.027093
   6 C :   -0.138276
   7 C :   -0.157405
   8 C :   -0.164805
   9 C :   -0.157612
  10 C :   -0.140294
  11 H :    0.210202
  12 H :    0.172903
  13 H :    0.172930
  14 H :    0.181061
  15 H :    0.182315
  16 H :    0.181343
  17 H :    0.176328
  18 H :    0.168346
  19 H :    0.167698
  20 H :    0.168300
  21 H :    0.175818

  Mayer bond orders larger than 0.100000
B(  0-C ,  1-N ) :   0.9127 B(  0-C , 11-H ) :   0.9539 B(  0-C , 12-H ) :   0.9556
B(  0-C , 13-H ) :   0.9555 B(  1-N ,  2-C ) :   0.9079 B(  1-N ,  3-C ) :   1.2362
B(  2-C , 14-H ) :   0.9555 B(  2-C , 15-H ) :   0.9573 B(  2-C , 16-H ) :   0.9558
B(  3-C ,  4-O ) :   1.8891 B(  3-C ,  5-C ) :   0.8809 B(  4-O ,  5-C ) :  -0.1019
B(  5-C ,  6-C ) :   1.4275 B(  5-C , 10-C ) :   1.4232 B(  6-C ,  7-C ) :   1.4142
B(  6-C , 17-H ) :   0.9496 B(  7-C ,  8-C ) :   1.4183 B(  7-C , 18-H ) :   0.9486
B(  8-C ,  9-C ) :   1.4185 B(  8-C , 19-H ) :   0.9462 B(  9-C , 10-C ) :   1.4174
B(  9-C , 20-H ) :   0.9484 B( 10-C , 21-H ) :   0.9485

Dispersion correction           -0.008083286
FINAL SINGLE POINT ENERGY      -479.434190396952

DIPOLE MOMENT
-------------

Method             : SCF
Type of density    : Electron Density
Multiplicity       :   1
Irrep              :   0
Energy             :  -479.4401221542094618 Eh
Relativity type    :
Basis              : AO
                                X                 Y                 Z
Electronic contribution:     -3.923273489       4.030938894      -3.139394969
Nuclear contribution   :      3.941740185      -5.328177859       4.102506876
                        -----------------------------------------
Total Dipole Moment    :      0.018466696      -1.297238965       0.963111907
                        -----------------------------------------
Magnitude (a.u.)       :      1.615782936
Magnitude (Debye)      :      4.106993836

Rotational constants in cm-1:             0.081269             0.023436             0.022591
Rotational constants in MHz :          2436.381446           702.597436           677.270977

                             ****ORCA TERMINATED NORMALLY****
TOTAL RUN TIME: 0 days 0 hours 0 minutes 43 seconds 760 msec
