                         Program Version 6.0.0  -   RELEASE  -
|  1> ! r2scan-3c def2/J RI DEFGRID2 scfconv6 printgap
|  2> %output
|  3>     printlevel normal
|  4> end
|  5> %cpcm
|  6>     smd true
|  7>     smdsolvent "water"
|  8> end
|  9> * xyz 0 1
| 10> C 3.3573322739 -0.0689168049 0.1721618995
| 11> N 1.9296896228 -0.2800467723 0.2754206633
| 12> C 1.4805758579 -1.398964957 1.080868436
| 13> C 1.0738317694 0.5283701717 -0.3600473134
| 14> O 1.4338745297 1.4808643297 -1.0592901097
| 15> C -0.3791951314 0.2134484595 -0.1741039361
| 16> C -1.0416021321 -0.5900007743 -1.0932924811
| 17> C -2.3939647729 -0.8445205901 -0.9427335024
| 18> C -3.0902679372 -0.2952870809 0.1208974513
| 19> C -2.4345513968 0.516062177 1.0319046163
| 20> C -1.0822103675 0.7721891747 0.8859835209
| 21> H 3.524785807 0.8008198187 -0.4606821576
| 22> H 3.8350157685 -0.9404293741 -0.2761650334
| 23> H 3.7818750495 0.1140366098 1.1595445179
| 24> H 0.8564769358 -1.057637304 1.9072472368
| 25> H 2.3534617049 -1.9059385971 1.4812440559
| 26> H 0.9038595543 -2.1027989596 0.4798043454
| 27> H -0.4956968636 -1.0080464033 -1.9265465096
| 28> H -2.9036388066 -1.4705755843 -1.6589814553
| 29> H -4.1444268498 -0.4948204948 0.2367081725
| 30> H -2.9759326403 0.9522858994 1.857329461
| 31> H -0.5681868238 1.4120198396 1.5885013934
| 32> *
| 33>
| 34>                          ****END OF INPUT****

CARTESIAN COORDINATES (ANGSTROEM)
---------------------------------
  C      3.357332   -0.068917    0.172162
  N      1.929690   -0.280047    0.275421
  C      1.480576   -1.398965    1.080868
  C      1.073832    0.528370   -0.360047
  O      1.433875    1.480864   -1.059290
  C     -0.379195    0.213448   -0.174104
  C     -1.041602   -0.590001   -1.093292
  C     -2.393965   -0.844521   -0.942734
  C     -3.090268   -0.295287    0.120897
  C     -2.434551    0.516062    1.031905
  C     -1.082210    0.772189    0.885984
  H      3.524786    0.800820   -0.460682
  H      3.835016   -0.940429   -0.276165
  H      3.781875    0.114037    1.159545
  H      0.856477   -1.057637    1.907247
  H      2.353462   -1.905939    1.481244
  H      0.903860   -2.102799    0.479804
  H     -0.495697   -1.008046   -1.926547
  H     -2.903639   -1.470576   -1.658981
  H     -4.144427   -0.494820    0.236708
  H     -2.975933    0.952286    1.857329
  H     -0.568187    1.412020    1.588501

 Total Charge           Charge          ....    0
 Multiplicity           Mult            ....    1
 Number of Electrons    NEL             ....   80
 Basis Dimension        Dim             ....  274

ORBITAL ENERGIES
----------------

  NO   OCC          E(Eh)            E(eV)
   0   2.0000     -18.924324      -514.9570
   1   2.0000     -14.200186      -386.4067
   2   2.0000     -10.133587      -275.7489
   3   2.0000     -10.054518      -273.5973
   4   2.0000     -10.051653      -273.5194
   5   2.0000     -10.050357      -273.4841
   6   2.0000     -10.040243      -273.2089
   7   2.0000     -10.040184      -273.2073
   8   2.0000     -10.037242      -273.1272
   9   2.0000     -10.037163      -273.1251
  10   2.0000     -10.035832      -273.0889
  11   2.0000      -1.009969       -27.4827
  12   2.0000      -0.910609       -24.7789
  13   2.0000      -0.833445       -22.6792
  14   2.0000      -0.737964       -20.0810
  15   2.0000      -0.721113       -19.6225
  16   2.0000      -0.687118       -18.6974
  17   2.0000      -0.667724       -18.1697
  18   2.0000      -0.587227       -15.9793
  19   2.0000      -0.580179       -15.7875
  20   2.0000      -0.520933       -14.1753
  21   2.0000      -0.495871       -13.4933
  22   2.0000      -0.457656       -12.4535
  23   2.0000      -0.449224       -12.2240
  24   2.0000      -0.445220       -12.1150
  25   2.0000      -0.421251       -11.4628
  26   2.0000      -0.412912       -11.2359
  27   2.0000      -0.391529       -10.6540
  28   2.0000      -0.382044       -10.3959
  29   2.0000      -0.369645       -10.0585
  30   2.0000      -0.368805       -10.0357
  31   2.0000      -0.356103        -9.6901
  32   2.0000      -0.349096        -9.4994
  33   2.0000      -0.341906        -9.3037
  34   2.0000      -0.325163        -8.8481
  35   2.0000      -0.311873        -8.4865
  36   2.0000      -0.252806        -6.8792
  37   2.0000      -0.244259        -6.6466
  38   2.0000      -0.226138        -6.1535
  39   2.0000      -0.221320        -6.0224
  40   0.0000      -0.040141        -1.0923
  41   0.0000      -0.038169        -1.0386
  42   0.0000      -0.010843        -0.2951
  43   0.0000       0.065353         1.7784
  44   0.0000       0.100489         2.7344

MULLIKEN ATOMIC CHARGES
-----------------------
   0 C :   -0.440466
   1 N :    0.118458
   2 C :   -0.440277
   3 C :    0.239976
   4 O :   -0.569149
   5 C :    0.075714
   6 C :   -0.226939
   7 C :   -0.187091
   8 C :   -0.159084
   9 C :   -0.186962
  10 C :   -0.227267
  11 H :    0.186269
  12 H :    0.175691
  13 H :    0.175391
  14 H :    0.187106
  15 H :    0.181355
  16 H :    0.186872
  17 H :    0.184540
  18 H :    0.179530
  19 H :    0.181699
  20 H :    0.179480
  21 H :    0.185150
Sum of atomic charges:    0.0000000

LOEWDIN ATOMIC CHARGES
----------------------
   0 C :   -0.106699
   1 N :   -0.806547
   2 C :   -0.098720
   3 C :    0.341224
   4 O :   -0.562452
   5 C :   -0.044612
   6 C :   -0.142149
   7 C :   -0.164198
   8 C :   -0.168981
   9 C :   -0.164108
  10 C :   -0.142567
  11 H :    0.202672
  12 H :    0.186245
  13 H :    0.186318
  14 H :    0.188027
  15 H :    0.194969
  16 H :    0.188070
  17 H :    0.187113
  18 H :    0.180100
  19 H :    0.179029
  20 H :    0.180107
  21 H :    0.187159

  Mayer bond orders larger than 0.100000
B(  0-C ,  1-N ) :   0.9054 B(  0-C , 11-H ) :   0.9558 B(  0-C , 12-H ) :   0.9458
B(  0-C , 13-H ) :   0.9457 B(  1-N ,  2-C ) :   0.9032 B(  1-N ,  3-C ) :   1.3130
B(  2-C , 14-H ) :   0.9485 B(  2-C , 15-H ) :   0.9472 B(  2-C , 16-H ) :   0.9488
B(  3-C ,  4-O ) :   1.7999 B(  3-C ,  5-C ) :   0.8746 B(  4-O ,  5-C ) :  -0.1041
B(  5-C ,  6-C ) :   1.3996 B(  5-C , 10-C ) :   1.4012 B(  6-C ,  7-C ) :   1.3890
B(  6-C , 17-H ) :   0.9505 B(  7-C ,  8-C ) :   1.3838 B(  7-C , 18-H ) :   0.9572
B(  8-C ,  9-C ) :   1.3833 B(  8-C , 19-H ) :   0.9513 B(  9-C , 10-C ) :   1.3909
B(  9-C , 20-H ) :   0.9571 B( 10-C , 21-H ) :   0.9487

Dispersion correction           -0.008083286
FINAL SINGLE POINT ENERGY      -479.447948018098

DIPOLE MOMENT
-------------

Method             : SCF
Type of density    : Electron Density
Multiplicity       :   1
Irrep              :   0
Energy             :  -479.4538797753552331 Eh
Relativity type    :
Basis              : AO
                                X                 Y                 Z
Electronic contribution:     -3.908946269       3.341187945      -2.619417588
Nuclear contribution   :      3.941740185      -5.328177859       4.102506876
                        -----------------------------------------
Total Dipole Moment    :      0.032793916      -1.986989914       1.483089288
                        -----------------------------------------
Magnitude (a.u.)       :      2.479668970
Magnitude (Debye)      :      6.302817627

Rotational constants in cm-1:             0.081269             0.023436             0.022591
Rotational constants in MHz :          2436.381446           702.597436           677.270977

                             ****ORCA TERMINATED NORMALLY****
TOTAL RUN TIME: 0 days 0 hours 0 minutes 52 seconds 841 msec
