                         Program Version 6.0.0  -   RELEASE  -
|  1> ! wb97x-v def2-tzvp def2/J RIJCOSX DEFGRID2 scfconv7 GCP(DFT/TZ) printgap
|  2> %output
|  3>     printlevel normal
|  4> end
|  5> * xyz 0 1
|  6> C -2.581404452455432 -0.8714128478313082 0.35568774392169455
|  7> C -1.1530131123303744 -0.4283314130188722 0.6106893044582421
|  8> H -1.0044350483287474 -0.35980505540433866 1.7012105677282565
|  9> C -0.8077282562789246 0.9167217815694318 -0.028151729888272223
| 10> H -0.9956655541484649 0.8610477917900023 -1.1105952212913912
| 11> C 0.6620481541135999 1.2366692332166906 0.20036095232920545
| 12> H 0.8311005052256654 1.383095981718499 1.2789650268364225
| 13> C 1.5366574643181665 0.08873558497744448 -0.28191858148031884
| 14> H 1.432178232290787 -0.01812522706363694 -1.3738414688849034
| 15> C 1.0862445959706974 -1.2178686674094614 0.37208817923597665
| 16> H 1.2231575315720917 -1.1760698516343537 1.4628553305878509
| 17> O -0.29378442839282715 -1.446006841256199 0.06614824469454031
| 18> O 1.8200372646257856 -2.3241257919840104 -0.08278499845237558
| 19> O 2.8857823741171424 0.40200932517454546 0.07067052125329275
| 20> O 0.9461401359544153 2.449567198800831 -0.5086099007269712
| 21> O -1.6490598618263819 1.9043344543774787 0.5744295801166319
| 22> O -2.910630208119799 -0.9374628893491553 -1.0364809693245944
| 23> H -3.2668385773764013 -0.1507778184181846 0.8080840568832727
| 24> H -2.7370833868280076 -1.8457711545314717 0.8380386884717447
| 25> H 1.8339825183621363 -2.3009858577308147 -1.05208968731004
| 26> H 3.458527168887279 -0.25378858464029463 -0.3485003065819269
| 27> H 1.8345404344818779 2.7339125056468476 -0.2575493996683814
| 28> H -1.3996938871023816 2.7591182090373056 0.197960203448004
| 29> H -2.341843436703749 -1.6084727219868202 -1.4366288972860397
| 30> *
| 31>
| 32>                          ****END OF INPUT****

CARTESIAN COORDINATES (ANGSTROEM)
---------------------------------
  C     -2.581404   -0.871413    0.355688
  C     -1.153013   -0.428331    0.610689
  H     -1.004435   -0.359805    1.701211
  C     -0.807728    0.916722   -0.028152
  H     -0.995666    0.861048   -1.110595
  C      0.662048    1.236669    0.200361
  H      0.831101    1.383096    1.278965
  C      1.536657    0.088736   -0.281919
  H      1.432178   -0.018125   -1.373841
  C      1.086245   -1.217869    0.372088
  H      1.223158   -1.176070    1.462855
  O     -0.293784   -1.446007    0.066148
  O      1.820037   -2.324126   -0.082785
  O      2.885782    0.402009    0.070671
  O      0.946140    2.449567   -0.508610
  O     -1.649060    1.904334    0.574430
  O     -2.910630   -0.937463   -1.036481
  H     -3.266839   -0.150778    0.808084
  H     -2.737083   -1.845771    0.838039
  H      1.833983   -2.300986   -1.052090
  H      3.458527   -0.253789   -0.348500
  H      1.834540    2.733913   -0.257549
  H     -1.399694    2.759118    0.197960
  H     -2.341843   -1.608473   -1.436629

 Total Charge           Charge          ....    0
 Multiplicity           Mult            ....    1
 Number of Electrons    NEL             ....   96
 Basis Dimension        Dim             ....  444

ORBITAL ENERGIES
----------------

  NO   OCC          E(Eh)            E(eV)
   0   2.0000     -21.703787      -590.5901
   1   2.0000     -21.697487      -590.4186
   2   2.0000     -21.696322      -590.3869
   3   2.0000     -21.688723      -590.1801
   4   2.0000     -21.678234      -589.8947
   5   2.0000     -21.671738      -589.7180
   6   2.0000     -12.164312      -331.0078
   7   2.0000     -12.118668      -329.7657
   8   2.0000     -12.113603      -329.6279
   9   2.0000     -12.111843      -329.5800
  10   2.0000     -12.106167      -329.4256
  11   2.0000     -12.094162      -329.0989
  12   2.0000      -1.731822       -47.1253
  13   2.0000      -1.701157       -46.2908
  14   2.0000      -1.692202       -46.0471
  15   2.0000      -1.688142       -45.9367
  16   2.0000      -1.678838       -45.6835
  17   2.0000      -1.671161       -45.4746
  18   2.0000      -1.342852       -36.5409
  19   2.0000      -1.326694       -36.1012
  20   2.0000      -1.237548       -33.6754
  21   2.0000      -1.209158       -32.9029
  22   2.0000      -1.171231       -31.8708
  23   2.0000      -1.132370       -30.8134
  24   2.0000      -1.098257       -29.8851
  25   2.0000      -1.069339       -29.0982
  26   2.0000      -1.059285       -28.8246
  27   2.0000      -1.042426       -28.3659
  28   2.0000      -1.035921       -28.1888
  29   2.0000      -1.014948       -27.6181
  30   2.0000      -1.008233       -27.4354
  31   2.0000      -0.993371       -27.0310
  32   2.0000      -0.976505       -26.5720
  33   2.0000      -0.974555       -26.5190
  34   2.0000      -0.964594       -26.2479
  35   2.0000      -0.950971       -25.8772
  36   2.0000      -0.940646       -25.5963
  37   2.0000      -0.933021       -25.3888
  38   2.0000      -0.928712       -25.2715
  39   2.0000      -0.912053       -24.8182
  40   2.0000      -0.904198       -24.6045
  41   2.0000      -0.896141       -24.3852
  42   2.0000      -0.847940       -23.0736
  43   2.0000      -0.837826       -22.7984
  44   2.0000      -0.821125       -22.3439
  45   2.0000      -0.808554       -22.0019
  46   2.0000      -0.801198       -21.8017
  47   2.0000      -0.778862       -21.1939
  48   0.0000      -0.243932        -6.6377
  49   0.0000      -0.203264        -5.5311
  50   0.0000      -0.181217        -4.9312
  51   0.0000      -0.153944        -4.1890
  52   0.0000      -0.131717        -3.5842

MULLIKEN ATOMIC CHARGES
-----------------------
   0 C :    0.005945
   1 C :   -0.012650
   2 H :    0.074925
   3 C :    0.123343
   4 H :    0.077130
   5 C :    0.052721
   6 H :    0.092601
   7 C :    0.004663
   8 H :    0.080293
   9 C :    0.093906
  10 H :    0.088677
  11 O :   -0.263360
  12 O :   -0.404014
  13 O :   -0.433543
  14 O :   -0.456437
  15 O :   -0.451542
  16 O :   -0.458473
  17 H :    0.116265
  18 H :    0.106446
  19 H :    0.305511
  20 H :    0.312836
  21 H :    0.320176
  22 H :    0.317362
  23 H :    0.307221
Sum of atomic charges:    0.0000000

LOEWDIN ATOMIC CHARGES
----------------------
   0 C :   -0.306891
   1 C :   -0.299331
   2 H :    0.146970
   3 C :   -0.301428
   4 H :    0.145456
   5 C :   -0.311997
   6 H :    0.145834
   7 C :   -0.327415
   8 H :    0.139826
   9 C :   -0.406522
  10 H :    0.135559
  11 O :    0.178977
  12 O :    0.010819
  13 O :   -0.012388
  14 O :   -0.017593
  15 O :   -0.008051
  16 O :   -0.044482
  17 H :    0.137176
  18 H :    0.121829
  19 H :    0.175741
  20 H :    0.174085
  21 H :    0.177081
  22 H :    0.177509
  23 H :    0.169234

  Mayer bond orders larger than 0.100000
B(  0-C ,  1-C ) :   0.9820 B(  0-C , 16-O ) :   0.9883 B(  0-C , 17-H ) :   0.9631
B(  0-C , 18-H ) :   0.9793 B(  1-C ,  2-H ) :   0.9516 B(  1-C ,  3-C ) :   0.9617
B(  1-C , 11-O ) :   0.9849 B(  1-C , 16-O ) :   0.1193 B(  3-C ,  4-H ) :   0.9532
B(  3-C ,  5-C ) :   0.9428 B(  3-C , 15-O ) :   1.0694 B(  5-C ,  6-H ) :   0.9744
B(  5-C ,  7-C ) :   0.9568 B(  5-C , 14-O ) :   1.0817 B(  7-C ,  8-H ) :   0.9500
B(  7-C ,  9-C ) :   0.9606 B(  7-C , 13-O ) :   1.0988 B(  9-C , 10-H ) :   0.9766
B(  9-C , 11-O ) :   1.0382 B(  9-C , 12-O ) :   1.1257 B( 12-O , 19-H ) :   0.8891
B( 13-O , 20-H ) :   0.8901 B( 14-O , 21-H ) :   0.8885 B( 15-O , 22-H ) :   0.8855
B( 16-O , 23-H ) :   0.8939

FINAL SINGLE POINT ENERGY      -687.250209967971

DIPOLE MOMENT
-------------

Method             : SCF
Type of density    : Electron Density
Multiplicity       :   1
Irrep              :   0
Energy             :  -687.2690651432712912 Eh
Relativity type    :
Basis              : AO
                                X                 Y                 Z
Electronic contribution:      1.890604913      -0.262430021      -0.827716436
Nuclear contribution   :     -0.831953411       0.180880984       0.599757263
                        -----------------------------------------
Total Dipole Moment    :      1.058651502      -0.081549037      -0.227959173
                        -----------------------------------------
Magnitude (a.u.)       :      1.085982795
Magnitude (Debye)      :      2.760348897

Rotational constants in cm-1:             0.039301             0.026558             0.017510
Rotational constants in MHz :          1178.200568           796.198377           524.949515

                             ****ORCA TERMINATED NORMALLY****
TOTAL RUN TIME: 0 days 0 hours 4 minutes 48 seconds 913 msec
