                         Program Version 6.0.0  -   RELEASE  -
|  1> ! wb97x-v def2-tzvp def2/J RIJCOSX DEFGRID2 scfconv7 GCP(DFT/TZ) printgap
|  2> %output
|  3>     printlevel normal
|  4> end
|  5> %cpcm
|  6>     smd true
|  7>     smdsolvent "water"
|  8> end
|  9> * xyz 0 1
| 10> C -2.581404452455432 -0.8714128478313082 0.35568774392169455
| 11> C -1.1530131123303744 -0.4283314130188722 0.6106893044582421
| 12> H -1.0044350483287474 -0.35980505540433866 1.7012105677282565
| 13> C -0.8077282562789246 0.9167217815694318 -0.028151729888272223
| 14> H -0.9956655541484649 0.8610477917900023 -1.1105952212913912
| 15> C 0.6620481541135999 1.2366692332166906 0.20036095232920545
| 16> H 0.8311005052256654 1.383095981718499 1.2789650268364225
| 17> C 1.5366574643181665 0.08873558497744448 -0.28191858148031884
| 18> H 1.432178232290787 -0.01812522706363694 -1.3738414688849034
| 19> C 1.0862445959706974 -1.2178686674094614 0.37208817923597665
| 20> H 1.2231575315720917 -1.1760698516343537 1.4628553305878509
| 21> O -0.29378442839282715 -1.446006841256199 0.06614824469454031
| 22> O 1.8200372646257856 -2.3241257919840104 -0.08278499845237558
| 23> O 2.8857823741171424 0.40200932517454546 0.07067052125329275
| 24> O 0.9461401359544153 2.449567198800831 -0.5086099007269712
| 25> O -1.6490598618263819 1.9043344543774787 0.5744295801166319
| 26> O -2.910630208119799 -0.9374628893491553 -1.0364809693245944
| 27> H -3.2668385773764013 -0.1507778184181846 0.8080840568832727
| 28> H -2.7370833868280076 -1.8457711545314717 0.8380386884717447
| 29> H 1.8339825183621363 -2.3009858577308147 -1.05208968731004
| 30> H 3.458527168887279 -0.25378858464029463 -0.3485003065819269
| 31> H 1.8345404344818779 2.7339125056468476 -0.2575493996683814
| 32> H -1.3996938871023816 2.7591182090373056 0.197960203448004
| 33> H -2.341843436703749 -1.6084727219868202 -1.4366288972860397
| 34> *
| 35>
| 36>                          ****END OF INPUT****

CARTESIAN COORDINATES (ANGSTROEM)
---------------------------------
  C     -2.581404   -0.871413    0.355688
  C     -1.153013   -0.428331    0.610689
  H     -1.004435   -0.359805    1.701211
  C     -0.807728    0.916722   -0.028152
  H     -0.995666    0.861048   -1.110595
  C      0.662048    1.236669    0.200361
  H      0.831101    1.383096    1.278965
  C      1.536657    0.088736   -0.281919
  H      1.432178   -0.018125   -1.373841
  C      1.086245   -1.217869    0.372088
  H      1.223158   -1.176070    1.462855
  O     -0.293784   -1.446007    0.066148
  O      1.820037   -2.324126   -0.082785
  O      2.885782    0.402009    0.070671
  O      0.946140    2.449567   -0.508610
  O     -1.649060    1.904334    0.574430
  O     -2.910630   -0.937463   -1.036481
  H     -3.266839   -0.150778    0.808084
  H     -2.737083   -1.845771    0.838039
  H      1.833983   -2.300986   -1.052090
  H      3.458527   -0.253789   -0.348500
  H      1.834540    2.733913   -0.257549
  H     -1.399694    2.759118    0.197960
  H     -2.341843   -1.608473   -1.436629

 Total Charge           Charge          ....    0
 Multiplicity           Mult            ....    1
 Number of Electrons    NEL             ....   96
 Basis Dimension        Dim             ....  444

ORBITAL ENERGIES
----------------

  NO   OCC          E(Eh)            E(eV)
   0   2.0000     -21.692532      -590.2838
   1   2.0000     -21.691674      -590.2605
   2   2.0000     -21.684238      -590.0581
   3   2.0000     -21.681875      -589.9938
   4   2.0000     -21.681057      -589.9716
   5   2.0000     -21.677412      -589.8724
   6   2.0000     -12.151730      -330.6654
   7   2.0000     -12.104172      -329.3713
   8   2.0000     -12.103044      -329.3406
   9   2.0000     -12.102017      -329.3126
  10   2.0000     -12.100673      -329.2761
  11   2.0000     -12.091183      -329.0178
  12   2.0000      -1.723394       -46.8959
  13   2.0000      -1.690625       -46.0042
  14   2.0000      -1.686923       -45.9035
  15   2.0000      -1.681381       -45.7527
  16   2.0000      -1.678396       -45.6715
  17   2.0000      -1.675968       -45.6054
  18   2.0000      -1.333900       -36.2973
  19   2.0000      -1.317997       -35.8645
  20   2.0000      -1.231495       -33.5107
  21   2.0000      -1.200756       -32.6742
  22   2.0000      -1.166584       -31.7444
  23   2.0000      -1.126742       -30.6602
  24   2.0000      -1.088814       -29.6281
  25   2.0000      -1.060149       -28.8481
  26   2.0000      -1.055179       -28.7129
  27   2.0000      -1.037110       -28.2212
  28   2.0000      -1.034970       -28.1630
  29   2.0000      -1.009772       -27.4773
  30   2.0000      -1.001253       -27.2455
  31   2.0000      -0.989288       -26.9199
  32   2.0000      -0.974567       -26.5193
  33   2.0000      -0.968501       -26.3542
  34   2.0000      -0.964813       -26.2539
  35   2.0000      -0.949586       -25.8396
  36   2.0000      -0.941747       -25.6262
  37   2.0000      -0.925407       -25.1816
  38   2.0000      -0.925172       -25.1752
  39   2.0000      -0.909320       -24.7439
  40   2.0000      -0.898857       -24.4591
  41   2.0000      -0.889355       -24.2006
  42   2.0000      -0.842501       -22.9256
  43   2.0000      -0.835729       -22.7413
  44   2.0000      -0.811755       -22.0890
  45   2.0000      -0.798905       -21.7393
  46   2.0000      -0.796969       -21.6866
  47   2.0000      -0.769501       -20.9392
  48   0.0000      -0.234375        -6.3777
  49   0.0000      -0.193442        -5.2638
  50   0.0000      -0.171430        -4.6649
  51   0.0000      -0.148865        -4.0508
  52   0.0000      -0.123084        -3.3493

MULLIKEN ATOMIC CHARGES
-----------------------
   0 C :   -0.013464
   1 C :    0.044232
   2 H :    0.111233
   3 C :    0.090285
   4 H :    0.091382
   5 C :    0.093458
   6 H :    0.107974
   7 C :    0.016848
   8 H :    0.113137
   9 C :    0.108055
  10 H :    0.118182
  11 O :   -0.328811
  12 O :   -0.494806
  13 O :   -0.520870
  14 O :   -0.531351
  15 O :   -0.532382
  16 O :   -0.555189
  17 H :    0.129706
  18 H :    0.132079
  19 H :    0.370774
  20 H :    0.364882
  21 H :    0.364126
  22 H :    0.360820
  23 H :    0.359699
Sum of atomic charges:    0.0000000

LOEWDIN ATOMIC CHARGES
----------------------
   0 C :   -0.307984
   1 C :   -0.294462
   2 H :    0.159113
   3 C :   -0.301344
   4 H :    0.147421
   5 C :   -0.306582
   6 H :    0.153455
   7 C :   -0.314726
   8 H :    0.152985
   9 C :   -0.404414
  10 H :    0.143351
  11 O :    0.161490
  12 O :   -0.019388
  13 O :   -0.038293
  14 O :   -0.043565
  15 O :   -0.038518
  16 O :   -0.081950
  17 H :    0.137399
  18 H :    0.129858
  19 H :    0.201430
  20 H :    0.193588
  21 H :    0.191874
  22 H :    0.191195
  23 H :    0.188067

  Mayer bond orders larger than 0.100000
B(  0-C ,  1-C ) :   0.9668 B(  0-C , 16-O ) :   0.9626 B(  0-C , 17-H ) :   0.9670
B(  0-C , 18-H ) :   0.9807 B(  1-C ,  2-H ) :   0.9459 B(  1-C ,  3-C ) :   0.9757
B(  1-C , 11-O ) :   0.9624 B(  3-C ,  4-H ) :   0.9500 B(  3-C ,  5-C ) :   0.9762
B(  3-C , 15-O ) :   1.0298 B(  5-C ,  6-H ) :   0.9573 B(  5-C ,  7-C ) :   0.9730
B(  5-C , 14-O ) :   1.0523 B(  7-C ,  8-H ) :   0.9569 B(  7-C ,  9-C ) :   0.9732
B(  7-C , 13-O ) :   1.0702 B(  9-C , 10-H ) :   0.9729 B(  9-C , 11-O ) :   1.0082
B(  9-C , 12-O ) :   1.1191 B( 12-O , 19-H ) :   0.8489 B( 13-O , 20-H ) :   0.8587
B( 14-O , 21-H ) :   0.8602 B( 15-O , 22-H ) :   0.8579 B( 16-O , 23-H ) :   0.8622

FINAL SINGLE POINT ENERGY      -687.288043363227

DIPOLE MOMENT
-------------

Method             : SCF
Type of density    : Electron Density
Multiplicity       :   1
Irrep              :   0
Energy             :  -687.3068985385272072 Eh
Relativity type    :
Basis              : AO
                                X                 Y                 Z
Electronic contribution:      2.300437763      -0.371148847      -0.877014791
Nuclear contribution   :     -0.831953411       0.180880984       0.599757263
                        -----------------------------------------
Total Dipole Moment    :      1.468484351      -0.190267863      -0.277257528
                        -----------------------------------------
Magnitude (a.u.)       :      1.506492578
Magnitude (Debye)      :      3.829199821

Rotational constants in cm-1:             0.039301             0.026558             0.017510
Rotational constants in MHz :          1178.200568           796.198377           524.949515

                             ****ORCA TERMINATED NORMALLY****
TOTAL RUN TIME: 0 days 0 hours 5 minutes 26 seconds 333 msec
