                         Program Version 6.0.0  -   RELEASE  -
|  1> ! pbe def2-sv(p) def2/J RI DEFGRID1 loosescf d4 GCP(DFT/SV(P)) printgap
|  2> %output
|  3>     printlevel normal
|  4> end
|  5> * xyz 0 1
|  6> C 1.158954641 -0.6978541465 0.0006352596
|  7> C 1.1589759956 0.6978775651 0.0004155106
|  8> C 2.3643755584 1.3918063498 -0.0002115067
|  9> C 3.5754959141 0.6958446821 -0.0004872697
| 10> C 3.5754257708 -0.6957686333 5.50829e-05
| 11> C 2.3643729443 -1.391779979 0.0005893263
| 12> Cl 2.3324857812 -3.1055450025 0.0011059865
| 13> Cl 5.0535934047 -1.5591556199 2.8508e-06
| 14> Cl 5.0535516392 1.5591535675 -0.0012346148
| 15> Cl 2.3324644244 3.1056011973 -0.0006015173
| 16> O 2.2848e-06 1.4223380763 0.00072564
| 17> C -1.1589450254 0.697903611 0.0006113404
| 18> C -1.1589705643 -0.6978184184 0.0004125793
| 19> C -2.3643482415 -1.3918159162 -0.0002085656
| 20> C -3.5754428988 -0.695849847 -0.0005284351
| 21> C -3.5754295101 0.6957686263 -1.01918e-05
| 22> C -2.364391126 1.3917986079 0.0005613934
| 23> Cl -2.3325947967 3.1055765711 0.0011897745
| 24> Cl -5.0536061756 1.5590993403 1.48581e-05
| 25> Cl -5.0535674189 -1.5592231262 -0.001293477
| 26> Cl -2.3323549389 -3.1055676057 -0.000515485
| 27> O 4.7928e-06 -1.4222880772 0.0008478943
| 28> *
| 29>
| 30>                          ****END OF INPUT****

CARTESIAN COORDINATES (ANGSTROEM)
---------------------------------
  C      1.158955   -0.697854    0.000635
  C      1.158976    0.697878    0.000416
  C      2.364376    1.391806   -0.000212
  C      3.575496    0.695845   -0.000487
  C      3.575426   -0.695769    0.000055
  C      2.364373   -1.391780    0.000589
  Cl     2.332486   -3.105545    0.001106
  Cl     5.053593   -1.559156    0.000003
  Cl     5.053552    1.559154   -0.001235
  Cl     2.332464    3.105601   -0.000602
  O      0.000002    1.422338    0.000726
  C     -1.158945    0.697904    0.000611
  C     -1.158971   -0.697818    0.000413
  C     -2.364348   -1.391816   -0.000209
  C     -3.575443   -0.695850   -0.000528
  C     -3.575430    0.695769   -0.000010
  C     -2.364391    1.391799    0.000561
  Cl    -2.332595    3.105577    0.001190
  Cl    -5.053606    1.559099    0.000015
  Cl    -5.053567   -1.559223   -0.001293
  Cl    -2.332355   -3.105568   -0.000515
  O      0.000005   -1.422288    0.000848

 Total Charge           Charge          ....    0
 Multiplicity           Mult            ....    1
 Number of Electrons    NEL             ....  224
 Basis Dimension        Dim             ....  340

ORBITAL ENERGIES
----------------

  NO   OCC          E(Eh)            E(eV)
   0   2.0000    -100.666066     -2739.2629
   1   2.0000    -100.666061     -2739.2628
   2   2.0000    -100.666019     -2739.2616
   3   2.0000    -100.666017     -2739.2616
   4   2.0000    -100.665336     -2739.2431
   5   2.0000    -100.665333     -2739.2430
   6   2.0000    -100.665250     -2739.2407
   7   2.0000    -100.665247     -2739.2406
   8   2.0000     -18.854900      -513.0679
   9   2.0000     -18.854712      -513.0628
  10   2.0000     -10.005116      -272.2531
  11   2.0000     -10.005080      -272.2521
  12   2.0000     -10.004893      -272.2470
  13   2.0000     -10.004822      -272.2451
  14   2.0000      -9.986634      -271.7501
  15   2.0000      -9.986613      -271.7496
  16   2.0000      -9.986438      -271.7448
  17   2.0000      -9.986424      -271.7444
  18   2.0000      -9.986244      -271.7395
  19   2.0000      -9.986178      -271.7377
  20   2.0000      -9.986125      -271.7363
  21   2.0000      -9.986105      -271.7357
  22   2.0000      -9.201627      -250.3890
  23   2.0000      -9.201622      -250.3889
  24   2.0000      -9.201589      -250.3880
  25   2.0000      -9.201587      -250.3879
  26   2.0000      -9.201071      -250.3739
  27   2.0000      -9.201067      -250.3738
  28   2.0000      -9.200998      -250.3719
  29   2.0000      -9.200996      -250.3718
  30   2.0000      -7.033481      -191.3908
  31   2.0000      -7.033479      -191.3907
  32   2.0000      -7.033473      -191.3905
  33   2.0000      -7.033471      -191.3905
  34   2.0000      -7.032858      -191.3738
  35   2.0000      -7.032853      -191.3737
  36   2.0000      -7.032837      -191.3732
  37   2.0000      -7.032836      -191.3732
  38   2.0000      -7.021536      -191.0657
  39   2.0000      -7.021533      -191.0656
  40   2.0000      -7.021533      -191.0656
  41   2.0000      -7.021531      -191.0656
  42   2.0000      -7.021031      -191.0520
  43   2.0000      -7.021025      -191.0518
  44   2.0000      -7.021013      -191.0515
  45   2.0000      -7.021013      -191.0515
  46   2.0000      -7.020513      -191.0379
  47   2.0000      -7.020510      -191.0378
  48   2.0000      -7.020507      -191.0377
  49   2.0000      -7.020505      -191.0377
  50   2.0000      -7.019953      -191.0226
  51   2.0000      -7.019949      -191.0225
  52   2.0000      -7.019914      -191.0216
  53   2.0000      -7.019913      -191.0215
  54   2.0000      -1.062675       -28.9169
  55   2.0000      -1.027623       -27.9630
  56   2.0000      -0.883645       -24.0452
  57   2.0000      -0.874773       -23.8038
  58   2.0000      -0.842738       -22.9321
  59   2.0000      -0.836360       -22.7585
  60   2.0000      -0.825561       -22.4647
  61   2.0000      -0.811979       -22.0951
  62   2.0000      -0.792514       -21.5654
  63   2.0000      -0.789721       -21.4894
  64   2.0000      -0.780677       -21.2433
  65   2.0000      -0.766648       -20.8615
  66   2.0000      -0.707201       -19.2439
  67   2.0000      -0.705750       -19.2044
  68   2.0000      -0.668736       -18.1972
  69   2.0000      -0.664031       -18.0692
  70   2.0000      -0.627414       -17.0728
  71   2.0000      -0.595884       -16.2148
  72   2.0000      -0.581942       -15.8354
  73   2.0000      -0.555845       -15.1253
  74   2.0000      -0.550165       -14.9708
  75   2.0000      -0.526747       -14.3335
  76   2.0000      -0.490711       -13.3529
  77   2.0000      -0.488156       -13.2834
  78   2.0000      -0.474133       -12.9018
  79   2.0000      -0.467687       -12.7264
  80   2.0000      -0.454684       -12.3726
  81   2.0000      -0.435020       -11.8375
  82   2.0000      -0.432931       -11.7807
  83   2.0000      -0.421616       -11.4727
  84   2.0000      -0.417391       -11.3578
  85   2.0000      -0.416059       -11.3215
  86   2.0000      -0.411890       -11.2081
  87   2.0000      -0.401116       -10.9149
  88   2.0000      -0.400436       -10.8964
  89   2.0000      -0.395908       -10.7732
  90   2.0000      -0.395709       -10.7678
  91   2.0000      -0.362608        -9.8671
  92   2.0000      -0.347066        -9.4442
  93   2.0000      -0.343922        -9.3586
  94   2.0000      -0.335761        -9.1365
  95   2.0000      -0.321605        -8.7513
  96   2.0000      -0.309032        -8.4092
  97   2.0000      -0.307389        -8.3645
  98   2.0000      -0.306902        -8.3512
  99   2.0000      -0.305499        -8.3130
 100   2.0000      -0.302256        -8.2248
 101   2.0000      -0.302041        -8.2190
 102   2.0000      -0.298593        -8.1251
 103   2.0000      -0.290301        -7.8995
 104   2.0000      -0.286874        -7.8062
 105   2.0000      -0.269855        -7.3431
 106   2.0000      -0.267612        -7.2821
 107   2.0000      -0.266841        -7.2611
 108   2.0000      -0.243921        -6.6374
 109   2.0000      -0.236184        -6.4269
 110   2.0000      -0.221217        -6.0196
 111   2.0000      -0.202895        -5.5210
 112   0.0000      -0.087929        -2.3927
 113   0.0000      -0.074747        -2.0340
 114   0.0000      -0.072715        -1.9787
 115   0.0000      -0.067375        -1.8334
 116   0.0000      -0.055750        -1.5170

MULLIKEN ATOMIC CHARGES
-----------------------
   0 C :    0.130957
   1 C :    0.130975
   2 C :   -0.021579
   3 C :   -0.017906
   4 C :   -0.017957
   5 C :   -0.021530
   6 Cl:    0.004818
   7 Cl:   -0.009173
   8 Cl:   -0.009131
   9 Cl:    0.004807
  10 O :   -0.174275
  11 C :    0.131001
  12 C :    0.130952
  13 C :   -0.021549
  14 C :   -0.017955
  15 C :   -0.017900
  16 C :   -0.021582
  17 Cl:    0.004813
  18 Cl:   -0.009164
  19 Cl:   -0.009155
  20 Cl:    0.004823
  21 O :   -0.174290
Sum of atomic charges:   -0.0000000

LOEWDIN ATOMIC CHARGES
----------------------
   0 C :   -0.003518
   1 C :   -0.003515
   2 C :   -0.177559
   3 C :   -0.185044
   4 C :   -0.184982
   5 C :   -0.177577
   6 Cl:    0.186579
   7 Cl:    0.181084
   8 Cl:    0.181190
   9 Cl:    0.186554
  10 O :   -0.003211
  11 C :   -0.003518
  12 C :   -0.003511
  13 C :   -0.177576
  14 C :   -0.185003
  15 C :   -0.184990
  16 C :   -0.177570
  17 Cl:    0.186570
  18 Cl:    0.181103
  19 Cl:    0.181124
  20 Cl:    0.186590
  21 O :   -0.003219

  Mayer bond orders larger than 0.100000
B(  0-C ,  1-C ) :   1.2398 B(  0-C ,  5-C ) :   1.3826 B(  0-C , 21-O ) :   1.1180
B(  1-C ,  2-C ) :   1.3826 B(  1-C , 10-O ) :   1.1179 B(  2-C ,  3-C ) :   1.4246
B(  2-C ,  9-Cl) :   1.1100 B(  3-C ,  4-C ) :   1.4248 B(  3-C ,  8-Cl) :   1.1170
B(  4-C ,  5-C ) :   1.4247 B(  4-C ,  7-Cl) :   1.1169 B(  5-C ,  6-Cl) :   1.1100
B( 10-O , 11-C ) :   1.1180 B( 11-C , 12-C ) :   1.2399 B( 11-C , 16-C ) :   1.3826
B( 12-C , 13-C ) :   1.3826 B( 12-C , 21-O ) :   1.1179 B( 13-C , 14-C ) :   1.4246
B( 13-C , 20-Cl) :   1.1100 B( 14-C , 15-C ) :   1.4248 B( 14-C , 19-Cl) :   1.1169
B( 15-C , 16-C ) :   1.4247 B( 15-C , 18-Cl) :   1.1169 B( 16-C , 17-Cl) :   1.1100

Dispersion correction           -0.054113969
FINAL SINGLE POINT ENERGY     -4285.489910999293

DIPOLE MOMENT
-------------

Method             : SCF
Type of density    : Electron Density
Multiplicity       :   1
Irrep              :   0
Energy             : -4285.5061784322988387 Eh
Relativity type    :
Basis              : AO
                                X                 Y                 Z
Electronic contribution:      0.000043671      -0.000079303      -0.001776080
Nuclear contribution   :      0.000037795       0.000082181       0.001810573
                        -----------------------------------------
Total Dipole Moment    :      0.000081466       0.000002878       0.000034492
                        -----------------------------------------
Magnitude (a.u.)       :      0.000088514
Magnitude (Debye)      :      0.000224984

Rotational constants in cm-1:             0.008794             0.003157             0.002323
Rotational constants in MHz :           263.642109            94.631379            69.636239

                             ****ORCA TERMINATED NORMALLY****
TOTAL RUN TIME: 0 days 0 hours 0 minutes 25 seconds 193 msec
