                         Program Version 6.0.0  -   RELEASE  -
|  1> ! r2scan-3c def2/J RI DEFGRID2 scfconv6 printgap
|  2> %output
|  3>     printlevel normal
|  4> end
|  5> * xyz 0 1
|  6> C -0.4879035365 0.4462932721 -0.0007107693
|  7> C 0.4879012439 -0.4462599249 -0.0005235021
|  8> Cl 2.1375159226 0.0413049548 0.0002039902
|  9> Cl -2.1375131809 -0.0413170318 0.000215464
| 10> H -0.337915908 1.5133391714 0.0003116455
| 11> H 0.3378467895 -1.5133117469 -0.000357657
| 12> *
| 13>
| 14>                          ****END OF INPUT****

CARTESIAN COORDINATES (ANGSTROEM)
---------------------------------
  C     -0.487904    0.446293   -0.000711
  C      0.487901   -0.446260   -0.000524
  Cl     2.137516    0.041305    0.000204
  Cl    -2.137513   -0.041317    0.000215
  H     -0.337916    1.513339    0.000312
  H      0.337847   -1.513312   -0.000358

 Total Charge           Charge          ....    0
 Multiplicity           Mult            ....    1
 Number of Electrons    NEL             ....   48
 Basis Dimension        Dim             ....  102

ORBITAL ENERGIES
----------------

  NO   OCC          E(Eh)            E(eV)
   0   2.0000    -101.235874     -2754.7682
   1   2.0000    -101.235870     -2754.7681
   2   2.0000     -10.111475      -275.1472
   3   2.0000     -10.110671      -275.1253
   4   2.0000      -9.391691      -255.5609
   5   2.0000      -9.391686      -255.5608
   6   2.0000      -7.138038      -194.2359
   7   2.0000      -7.138035      -194.2358
   8   2.0000      -7.127914      -193.9604
   9   2.0000      -7.127912      -193.9603
  10   2.0000      -7.127405      -193.9466
  11   2.0000      -7.127403      -193.9465
  12   2.0000      -0.873952       -23.7814
  13   2.0000      -0.836088       -22.7511
  14   2.0000      -0.704303       -19.1651
  15   2.0000      -0.570080       -15.5127
  16   2.0000      -0.471032       -12.8174
  17   2.0000      -0.458745       -12.4831
  18   2.0000      -0.389759       -10.6059
  19   2.0000      -0.375503       -10.2179
  20   2.0000      -0.329136        -8.9562
  21   2.0000      -0.303067        -8.2469
  22   2.0000      -0.297976        -8.1083
  23   2.0000      -0.236053        -6.4233
  24   0.0000      -0.052197        -1.4203
  25   0.0000      -0.018300        -0.4980
  26   0.0000       0.038399         1.0449
  27   0.0000       0.108947         2.9646
  28   0.0000       0.122365         3.3297

MULLIKEN ATOMIC CHARGES
-----------------------
   0 C :   -0.076857
   1 C :   -0.076868
   2 Cl:   -0.105121
   3 Cl:   -0.105131
   4 H :    0.181989
   5 H :    0.181988
Sum of atomic charges:    0.0000000

LOEWDIN ATOMIC CHARGES
----------------------
   0 C :   -0.287595
   1 C :   -0.287603
   2 Cl:    0.114480
   3 Cl:    0.114469
   4 H :    0.173123
   5 H :    0.173126

  Mayer bond orders larger than 0.100000
B(  0-C ,  1-C ) :   1.8384 B(  0-C ,  2-Cl) :   0.1095 B(  0-C ,  3-Cl) :   0.9920
B(  0-C ,  4-H ) :   0.9445 B(  1-C ,  2-Cl) :   0.9920 B(  1-C ,  3-Cl) :   0.1095
B(  1-C ,  5-H ) :   0.9445

Dispersion correction           -0.001445059
FINAL SINGLE POINT ENERGY      -997.716274671962

DIPOLE MOMENT
-------------

Method             : SCF
Type of density    : Electron Density
Multiplicity       :   1
Irrep              :   0
Energy             :  -997.7198355489583719 Eh
Relativity type    :
Basis              : AO
                                X                 Y                 Z
Electronic contribution:      0.000085530      -0.000027423       0.000942644
Nuclear contribution   :     -0.000068525       0.000041939      -0.000606164
                        -----------------------------------------
Total Dipole Moment    :      0.000017005       0.000014516       0.000336480
                        -----------------------------------------
Magnitude (a.u.)       :      0.000337222
Magnitude (Debye)      :      0.000857150

Rotational constants in cm-1:             1.770341             0.051097             0.049663
Rotational constants in MHz :         53073.480651          1531.843582          1488.870874

                             ****ORCA TERMINATED NORMALLY****
TOTAL RUN TIME: 0 days 0 hours 0 minutes 8 seconds 195 msec
