                         Program Version 6.0.0  -   RELEASE  -
|  1> ! r2scan-3c def2/J RI DEFGRID2 scfconv6 printgap
|  2> %output
|  3>     printlevel normal
|  4> end
|  5> %cpcm
|  6>     smd true
|  7>     smdsolvent "water"
|  8> end
|  9> * xyz 0 1
| 10> C -0.4879035365 0.4462932721 -0.0007107693
| 11> C 0.4879012439 -0.4462599249 -0.0005235021
| 12> Cl 2.1375159226 0.0413049548 0.0002039902
| 13> Cl -2.1375131809 -0.0413170318 0.000215464
| 14> H -0.337915908 1.5133391714 0.0003116455
| 15> H 0.3378467895 -1.5133117469 -0.000357657
| 16> *
| 17>
| 18>                          ****END OF INPUT****

CARTESIAN COORDINATES (ANGSTROEM)
---------------------------------
  C     -0.487904    0.446293   -0.000711
  C      0.487901   -0.446260   -0.000524
  Cl     2.137516    0.041305    0.000204
  Cl    -2.137513   -0.041317    0.000215
  H     -0.337916    1.513339    0.000312
  H      0.337847   -1.513312   -0.000358

 Total Charge           Charge          ....    0
 Multiplicity           Mult            ....    1
 Number of Electrons    NEL             ....   48
 Basis Dimension        Dim             ....  102

ORBITAL ENERGIES
----------------

  NO   OCC          E(Eh)            E(eV)
   0   2.0000    -101.231668     -2754.6537
   1   2.0000    -101.231665     -2754.6536
   2   2.0000     -10.101607      -274.8787
   3   2.0000     -10.100803      -274.8568
   4   2.0000      -9.387651      -255.4510
   5   2.0000      -9.387646      -255.4508
   6   2.0000      -7.133859      -194.1222
   7   2.0000      -7.133857      -194.1221
   8   2.0000      -7.123959      -193.8528
   9   2.0000      -7.123957      -193.8527
  10   2.0000      -7.123387      -193.8372
  11   2.0000      -7.123385      -193.8372
  12   2.0000      -0.867822       -23.6146
  13   2.0000      -0.831590       -22.6287
  14   2.0000      -0.697362       -18.9762
  15   2.0000      -0.557922       -15.1818
  16   2.0000      -0.464397       -12.6369
  17   2.0000      -0.448737       -12.2108
  18   2.0000      -0.380797       -10.3620
  19   2.0000      -0.370321       -10.0769
  20   2.0000      -0.326359        -8.8807
  21   2.0000      -0.298928        -8.1343
  22   2.0000      -0.293108        -7.9759
  23   2.0000      -0.230835        -6.2813
  24   0.0000      -0.043720        -1.1897
  25   0.0000      -0.013380        -0.3641
  26   0.0000       0.047055         1.2804
  27   0.0000       0.127436         3.4677
  28   0.0000       0.128042         3.4842

MULLIKEN ATOMIC CHARGES
-----------------------
   0 C :   -0.098205
   1 C :   -0.098218
   2 Cl:   -0.125237
   3 Cl:   -0.125248
   4 H :    0.223455
   5 H :    0.223453
Sum of atomic charges:    0.0000000

LOEWDIN ATOMIC CHARGES
----------------------
   0 C :   -0.287874
   1 C :   -0.287882
   2 Cl:    0.100440
   3 Cl:    0.100429
   4 H :    0.187442
   5 H :    0.187445

  Mayer bond orders larger than 0.100000
B(  0-C ,  1-C ) :   1.8436 B(  0-C ,  2-Cl) :   0.1050 B(  0-C ,  3-Cl) :   0.9792
B(  0-C ,  4-H ) :   0.9275 B(  1-C ,  2-Cl) :   0.9792 B(  1-C ,  3-Cl) :   0.1050
B(  1-C ,  5-H ) :   0.9275

Dispersion correction           -0.001445059
FINAL SINGLE POINT ENERGY      -997.716686050158

DIPOLE MOMENT
-------------

Method             : SCF
Type of density    : Electron Density
Multiplicity       :   1
Irrep              :   0
Energy             :  -997.7202469271539940 Eh
Relativity type    :
Basis              : AO
                                X                 Y                 Z
Electronic contribution:      0.000086480      -0.000023644       0.001034100
Nuclear contribution   :     -0.000068525       0.000041939      -0.000606164
                        -----------------------------------------
Total Dipole Moment    :      0.000017955       0.000018295       0.000427936
                        -----------------------------------------
Magnitude (a.u.)       :      0.000428703
Magnitude (Debye)      :      0.001089676

Rotational constants in cm-1:             1.770341             0.051097             0.049663
Rotational constants in MHz :         53073.480651          1531.843582          1488.870874

                             ****ORCA TERMINATED NORMALLY****
TOTAL RUN TIME: 0 days 0 hours 0 minutes 8 seconds 807 msec
