                         Program Version 6.0.0  -   RELEASE  -
|  1> ! pbe def2-sv(p) def2/J RI DEFGRID1 loosescf d4 GCP(DFT/SV(P)) printgap
|  2> %output
|  3>     printlevel normal
|  4> end
|  5> * xyz 0 1
|  6> C -2.2074093625 -0.9941163681 -0.4381139659
|  7> C -1.1715943932 -0.2248538726 0.3884459597
|  8> H -1.6844433997 0.1973704402 1.2600066527
|  9> C -0.5741848722 0.9195233629 -0.4403073318
| 10> H -0.4026864468 0.574234333 -1.4739865237
| 11> C 0.7765563804 1.3135121533 0.1803314321
| 12> H 0.6272347082 1.4881454883 1.2529339424
| 13> C 1.7572606783 0.1536174968 -0.0240886432
| 14> H 2.1143437324 0.1537574338 -1.0605903536
| 15> C 1.0220256391 -1.1970604721 0.1921032414
| 16> H 1.6573962598 -1.8366088172 0.8218013798
| 17> O -0.1615010417 -1.0661000291 0.9386303637
| 18> O 0.8102111411 -1.7737550524 -1.0591592643
| 19> O 2.9106081139 0.2626655236 0.7632610126
| 20> O 1.2319982119 2.5376900151 -0.3341165397
| 21> O -1.4731685508 1.9971300334 -0.4485918508
| 22> O -2.8953050585 -1.8952181764 0.3981405412
| 23> H -1.6997001749 -1.5223831195 -1.2539525889
| 24> H -2.8907664818 -0.2460034018 -0.859454247
| 25> H 0.5511440713 -2.7025583359 -0.956550436
| 26> H 2.671776452 0.3680148867 1.6957903881
| 27> H 1.6164096097 2.4086145391 -1.2136497281
| 28> H -0.954271569 2.8183873437 -0.5075562266
| 29> H -3.5835271292 -2.3416137396 -0.1151144047
| 30> *
| 31>
| 32>                          ****END OF INPUT****

CARTESIAN COORDINATES (ANGSTROEM)
---------------------------------
  C     -2.207409   -0.994116   -0.438114
  C     -1.171594   -0.224854    0.388446
  H     -1.684443    0.197370    1.260007
  C     -0.574185    0.919523   -0.440307
  H     -0.402686    0.574234   -1.473987
  C      0.776556    1.313512    0.180331
  H      0.627235    1.488145    1.252934
  C      1.757261    0.153617   -0.024089
  H      2.114344    0.153757   -1.060590
  C      1.022026   -1.197060    0.192103
  H      1.657396   -1.836609    0.821801
  O     -0.161501   -1.066100    0.938630
  O      0.810211   -1.773755   -1.059159
  O      2.910608    0.262666    0.763261
  O      1.231998    2.537690   -0.334117
  O     -1.473169    1.997130   -0.448592
  O     -2.895305   -1.895218    0.398141
  H     -1.699700   -1.522383   -1.253953
  H     -2.890766   -0.246003   -0.859454
  H      0.551144   -2.702558   -0.956550
  H      2.671776    0.368015    1.695790
  H      1.616410    2.408615   -1.213650
  H     -0.954272    2.818387   -0.507556
  H     -3.583527   -2.341614   -0.115114

 Total Charge           Charge          ....    0
 Multiplicity           Mult            ....    1
 Number of Electrons    NEL             ....   96
 Basis Dimension        Dim             ....  192

ORBITAL ENERGIES
----------------

  NO   OCC          E(Eh)            E(eV)
   0   2.0000     -18.770010      -510.7579
   1   2.0000     -18.768380      -510.7136
   2   2.0000     -18.762971      -510.5664
   3   2.0000     -18.755524      -510.3637
   4   2.0000     -18.745487      -510.0906
   5   2.0000     -18.742161      -510.0001
   6   2.0000      -9.986818      -271.7551
   7   2.0000      -9.948845      -270.7218
   8   2.0000      -9.947615      -270.6884
   9   2.0000      -9.940074      -270.4832
  10   2.0000      -9.938832      -270.4494
  11   2.0000      -9.924526      -270.0601
  12   2.0000      -0.981470       -26.7072
  13   2.0000      -0.953838       -25.9552
  14   2.0000      -0.932508       -25.3748
  15   2.0000      -0.922239       -25.0954
  16   2.0000      -0.915891       -24.9227
  17   2.0000      -0.909044       -24.7363
  18   2.0000      -0.706030       -19.2121
  19   2.0000      -0.692778       -18.8515
  20   2.0000      -0.620968       -16.8974
  21   2.0000      -0.582726       -15.8568
  22   2.0000      -0.570841       -15.5334
  23   2.0000      -0.527949       -14.3662
  24   2.0000      -0.508293       -13.8314
  25   2.0000      -0.490085       -13.3359
  26   2.0000      -0.467549       -12.7226
  27   2.0000      -0.455961       -12.4073
  28   2.0000      -0.435004       -11.8371
  29   2.0000      -0.431612       -11.7448
  30   2.0000      -0.419563       -11.4169
  31   2.0000      -0.411622       -11.2008
  32   2.0000      -0.389388       -10.5958
  33   2.0000      -0.364706        -9.9242
  34   2.0000      -0.361299        -9.8315
  35   2.0000      -0.350363        -9.5339
  36   2.0000      -0.331133        -9.0106
  37   2.0000      -0.314286        -8.5521
  38   2.0000      -0.300413        -8.1746
  39   2.0000      -0.292218        -7.9517
  40   2.0000      -0.285082        -7.7575
  41   2.0000      -0.268192        -7.2979
  42   2.0000      -0.265227        -7.2172
  43   2.0000      -0.240378        -6.5410
  44   2.0000      -0.228669        -6.2224
  45   2.0000      -0.217228        -5.9111
  46   2.0000      -0.211837        -5.7644
  47   2.0000      -0.206084        -5.6078
  48   0.0000       0.015838         0.4310
  49   0.0000       0.018954         0.5158
  50   0.0000       0.030301         0.8245
  51   0.0000       0.035533         0.9669
  52   0.0000       0.054145         1.4734

MULLIKEN ATOMIC CHARGES
-----------------------
   0 C :    0.032640
   1 C :    0.105919
   2 H :    0.075148
   3 C :   -0.013714
   4 H :    0.054925
   5 C :    0.049548
   6 H :    0.056244
   7 C :    0.067075
   8 H :    0.065681
   9 C :    0.161343
  10 H :    0.064294
  11 O :   -0.313557
  12 O :   -0.397009
  13 O :   -0.409573
  14 O :   -0.412069
  15 O :   -0.414348
  16 O :   -0.428829
  17 H :    0.056463
  18 H :    0.083308
  19 H :    0.310920
  20 H :    0.302775
  21 H :    0.304610
  22 H :    0.299771
  23 H :    0.298436
Sum of atomic charges:    0.0000000

LOEWDIN ATOMIC CHARGES
----------------------
   0 C :   -0.138592
   1 C :   -0.052199
   2 H :    0.123182
   3 C :   -0.082970
   4 H :    0.099327
   5 C :   -0.082827
   6 H :    0.116670
   7 C :   -0.085138
   8 H :    0.118803
   9 C :   -0.010034
  10 H :    0.099924
  11 O :   -0.145139
  12 O :   -0.308928
  13 O :   -0.307649
  14 O :   -0.304417
  15 O :   -0.323486
  16 O :   -0.344880
  17 H :    0.092534
  18 H :    0.105890
  19 H :    0.290290
  20 H :    0.286785
  21 H :    0.288935
  22 H :    0.278752
  23 H :    0.285162

  Mayer bond orders larger than 0.100000
B(  0-C ,  1-C ) :   1.0866 B(  0-C , 16-O ) :   1.1087 B(  0-C , 17-H ) :   0.8944
B(  0-C , 18-H ) :   0.9111 B(  1-C ,  2-H ) :   0.8763 B(  1-C ,  3-C ) :   0.9637
B(  1-C , 11-O ) :   0.9722 B(  3-C ,  4-H ) :   0.8764 B(  3-C ,  5-C ) :   1.0095
B(  3-C , 15-O ) :   1.0869 B(  5-C ,  6-H ) :   0.8492 B(  5-C ,  7-C ) :   1.0220
B(  5-C , 14-O ) :   1.0449 B(  7-C ,  8-H ) :   0.8650 B(  7-C ,  9-C ) :   0.9589
B(  7-C , 13-O ) :   1.0626 B(  9-C , 10-H ) :   0.9000 B(  9-C , 11-O ) :   1.0964
B(  9-C , 12-O ) :   1.0937 B( 12-O , 19-H ) :   0.8334 B( 13-O , 20-H ) :   0.8479
B( 14-O , 21-H ) :   0.8448 B( 15-O , 22-H ) :   0.8198 B( 16-O , 23-H ) :   0.8531

Dispersion correction           -0.024344421
FINAL SINGLE POINT ENERGY      -685.688210627259

DIPOLE MOMENT
-------------

Method             : SCF
Type of density    : Electron Density
Multiplicity       :   1
Irrep              :   0
Energy             :  -685.8178560429578283 Eh
Relativity type    :
Basis              : AO
                                X                 Y                 Z
Electronic contribution:      1.863306547       0.178654342       1.639233693
Nuclear contribution   :     -1.848582903      -0.600107464      -2.257467639
                        -----------------------------------------
Total Dipole Moment    :      0.014723644      -0.421453123      -0.618233947
                        -----------------------------------------
Magnitude (a.u.)       :      0.748366710
Magnitude (Debye)      :      1.902197008

Rotational constants in cm-1:             0.042908             0.025650             0.018412
Rotational constants in MHz :          1286.361691           768.955536           551.984153

                             ****ORCA TERMINATED NORMALLY****
TOTAL RUN TIME: 0 days 0 hours 0 minutes 12 seconds 220 msec
