                         Program Version 6.0.0  -   RELEASE  -
|  1> ! pbe def2-sv(p) def2/J RI DEFGRID1 loosescf d4 GCP(DFT/SV(P)) printgap
|  2> %output
|  3>     printlevel normal
|  4> end
|  5> * xyz 0 1
|  6> C -2.5623892734 -0.8884075819 0.2787747222
|  7> C -1.1326644258 -0.4438563624 0.6249055377
|  8> H -1.0238017136 -0.3976727005 1.7200161547
|  9> C -0.831651434 0.9481274228 0.0270712419
| 10> H -1.066228588 0.9163663718 -1.0434552564
| 11> C 0.6570587182 1.2876307756 0.2295432318
| 12> H 0.8575341674 1.371719615 1.3068303818
| 13> C 1.5210079817 0.1478664185 -0.34456947
| 14> H 1.3237279791 0.043618575 -1.4179410547
| 15> C 1.1099939213 -1.1675726188 0.3584597823
| 16> H 1.2709503009 -1.0728148364 1.4460912599
| 17> O -0.2561313795 -1.425873532 0.1004080646
| 18> O 1.8510940637 -2.2571683144 -0.0336383157
| 19> O 2.8954190828 0.3969182162 -0.2492232223
| 20> O 1.0018944154 2.5452336219 -0.2854791362
| 21> O -1.6767646001 1.931902211 0.5599115349
| 22> O -2.7298080417 -1.1068689124 -1.0963998317
| 23> H -3.2531036528 -0.0888141204 0.5518979625
| 24> H -2.8010241403 -1.7944221089 0.8478690162
| 25> H 1.7577313967 -2.4066879529 -0.9873886894
| 26> H 3.1483102227 0.5617422898 0.6700758079
| 27> H 0.8410511277 2.5739020958 -1.2390166484
| 28> H -1.4040688795 2.1557952382 1.4615345874
| 29> H -2.1247819539 -1.8135415449 -1.3649357222
| 30> *
| 31>
| 32>                          ****END OF INPUT****

CARTESIAN COORDINATES (ANGSTROEM)
---------------------------------
  C     -2.562389   -0.888408    0.278775
  C     -1.132664   -0.443856    0.624906
  H     -1.023802   -0.397673    1.720016
  C     -0.831651    0.948127    0.027071
  H     -1.066229    0.916366   -1.043455
  C      0.657059    1.287631    0.229543
  H      0.857534    1.371720    1.306830
  C      1.521008    0.147866   -0.344569
  H      1.323728    0.043619   -1.417941
  C      1.109994   -1.167573    0.358460
  H      1.270950   -1.072815    1.446091
  O     -0.256131   -1.425874    0.100408
  O      1.851094   -2.257168   -0.033638
  O      2.895419    0.396918   -0.249223
  O      1.001894    2.545234   -0.285479
  O     -1.676765    1.931902    0.559912
  O     -2.729808   -1.106869   -1.096400
  H     -3.253104   -0.088814    0.551898
  H     -2.801024   -1.794422    0.847869
  H      1.757731   -2.406688   -0.987389
  H      3.148310    0.561742    0.670076
  H      0.841051    2.573902   -1.239017
  H     -1.404069    2.155795    1.461535
  H     -2.124782   -1.813542   -1.364936

 Total Charge           Charge          ....    0
 Multiplicity           Mult            ....    1
 Number of Electrons    NEL             ....   96
 Basis Dimension        Dim             ....  192

ORBITAL ENERGIES
----------------

  NO   OCC          E(Eh)            E(eV)
   0   2.0000     -18.781833      -511.0797
   1   2.0000     -18.766736      -510.6689
   2   2.0000     -18.759064      -510.4601
   3   2.0000     -18.757049      -510.4052
   4   2.0000     -18.754093      -510.3248
   5   2.0000     -18.751037      -510.2417
   6   2.0000      -9.995160      -271.9821
   7   2.0000      -9.951995      -270.8076
   8   2.0000      -9.949684      -270.7447
   9   2.0000      -9.948957      -270.7249
  10   2.0000      -9.946502      -270.6581
  11   2.0000      -9.932747      -270.2838
  12   2.0000      -0.991122       -26.9698
  13   2.0000      -0.949090       -25.8261
  14   2.0000      -0.941556       -25.6210
  15   2.0000      -0.929256       -25.2864
  16   2.0000      -0.920921       -25.0595
  17   2.0000      -0.916702       -24.9447
  18   2.0000      -0.707130       -19.2420
  19   2.0000      -0.694754       -18.9052
  20   2.0000      -0.620227       -16.8772
  21   2.0000      -0.592358       -16.1189
  22   2.0000      -0.577446       -15.7131
  23   2.0000      -0.554549       -15.0900
  24   2.0000      -0.510823       -13.9002
  25   2.0000      -0.485113       -13.2006
  26   2.0000      -0.470203       -12.7949
  27   2.0000      -0.462359       -12.5814
  28   2.0000      -0.456649       -12.4261
  29   2.0000      -0.443232       -12.0610
  30   2.0000      -0.425542       -11.5796
  31   2.0000      -0.413561       -11.2536
  32   2.0000      -0.378698       -10.3049
  33   2.0000      -0.375625       -10.2213
  34   2.0000      -0.367471        -9.9994
  35   2.0000      -0.356201        -9.6927
  36   2.0000      -0.329479        -8.9656
  37   2.0000      -0.316988        -8.6257
  38   2.0000      -0.308283        -8.3888
  39   2.0000      -0.292096        -7.9483
  40   2.0000      -0.289125        -7.8675
  41   2.0000      -0.279102        -7.5947
  42   2.0000      -0.264097        -7.1864
  43   2.0000      -0.252367        -6.8672
  44   2.0000      -0.241932        -6.5833
  45   2.0000      -0.227242        -6.1836
  46   2.0000      -0.209504        -5.7009
  47   2.0000      -0.207383        -5.6432
  48   0.0000       0.007280         0.1981
  49   0.0000       0.020537         0.5588
  50   0.0000       0.022490         0.6120
  51   0.0000       0.031622         0.8605
  52   0.0000       0.043422         1.1816

MULLIKEN ATOMIC CHARGES
-----------------------
   0 C :    0.102169
   1 C :   -0.019982
   2 H :    0.037870
   3 C :    0.055431
   4 H :    0.054756
   5 C :    0.061489
   6 H :    0.030558
   7 C :    0.043487
   8 H :    0.042952
   9 C :    0.179918
  10 H :    0.039167
  11 O :   -0.314448
  12 O :   -0.359216
  13 O :   -0.393362
  14 O :   -0.394994
  15 O :   -0.401149
  16 O :   -0.438303
  17 H :    0.090065
  18 H :    0.080941
  19 H :    0.304652
  20 H :    0.299619
  21 H :    0.301462
  22 H :    0.299454
  23 H :    0.297465
Sum of atomic charges:   -0.0000000

LOEWDIN ATOMIC CHARGES
----------------------
   0 C :   -0.123418
   1 C :   -0.082659
   2 H :    0.097550
   3 C :   -0.082853
   4 H :    0.115129
   5 C :   -0.090316
   6 H :    0.101613
   7 C :   -0.103374
   8 H :    0.109749
   9 C :   -0.007475
  10 H :    0.092273
  11 O :   -0.161817
  12 O :   -0.278483
  13 O :   -0.302768
  14 O :   -0.307229
  15 O :   -0.301392
  16 O :   -0.329889
  17 H :    0.121666
  18 H :    0.101103
  19 H :    0.290371
  20 H :    0.287660
  21 H :    0.289028
  22 H :    0.285527
  23 H :    0.280007

  Mayer bond orders larger than 0.100000
B(  0-C ,  1-C ) :   1.0340 B(  0-C , 16-O ) :   1.0669 B(  0-C , 17-H ) :   0.9107
B(  0-C , 18-H ) :   0.9181 B(  1-C ,  2-H ) :   0.8688 B(  1-C ,  3-C ) :   0.9672
B(  1-C , 11-O ) :   0.9859 B(  3-C ,  4-H ) :   0.8591 B(  3-C ,  5-C ) :   0.9978
B(  3-C , 15-O ) :   1.0474 B(  5-C ,  6-H ) :   0.8612 B(  5-C ,  7-C ) :   0.9795
B(  5-C , 14-O ) :   1.0941 B(  7-C ,  8-H ) :   0.8570 B(  7-C ,  9-C ) :   0.9527
B(  7-C , 13-O ) :   1.0795 B(  9-C , 10-H ) :   0.8791 B(  9-C , 11-O ) :   0.9896
B(  9-C , 12-O ) :   1.1793 B( 12-O , 19-H ) :   0.8420 B( 13-O , 20-H ) :   0.8487
B( 14-O , 21-H ) :   0.8493 B( 15-O , 22-H ) :   0.8468 B( 16-O , 23-H ) :   0.8430

Dispersion correction           -0.023967982
FINAL SINGLE POINT ENERGY      -685.693095379668

DIPOLE MOMENT
-------------

Method             : SCF
Type of density    : Electron Density
Multiplicity       :   1
Irrep              :   0
Energy             :  -685.8219344696315147 Eh
Relativity type    :
Basis              : AO
                                X                 Y                 Z
Electronic contribution:      2.531659835      -0.255898534      -1.398175141
Nuclear contribution   :     -2.304670778       0.047395993       1.816031989
                        -----------------------------------------
Total Dipole Moment    :      0.226989057      -0.208502541       0.417856849
                        -----------------------------------------
Magnitude (a.u.)       :      0.519231825
Magnitude (Debye)      :      1.319782414

Rotational constants in cm-1:             0.038459             0.027129             0.017677
Rotational constants in MHz :          1152.957019           813.293079           529.945436

                             ****ORCA TERMINATED NORMALLY****
TOTAL RUN TIME: 0 days 0 hours 0 minutes 11 seconds 939 msec
