                         Program Version 6.0.0  -   RELEASE  -
|  1> ! pbe def2-sv(p) def2/J RI DEFGRID1 loosescf d4 GCP(DFT/SV(P)) printgap
|  2> %output
|  3>     printlevel normal
|  4> end
|  5> * xyz 0 1
|  6> C -1.9618801726 -0.2242226889 0.5005099507
|  7> C -1.175248774 -0.1096816397 -0.7994306552
|  8> C 0.1137191007 0.6847398911 -0.6477710465
|  9> S 1.3805043843 -0.1634485242 0.3712674356
| 10> H -1.4072841205 -0.8017651166 1.2364707629
| 11> H -2.1680655355 0.7620301457 0.9107838387
| 12> H -2.9082417356 -0.727012067 0.3204371042
| 13> H -1.7862728513 0.3958194539 -1.5509660258
| 14> H -0.937666356 -1.1073646729 -1.1744219108
| 15> H 0.5989259906 0.8176886928 -1.6145708613
| 16> H -0.0645865104 1.6611106645 -0.2000221425
| 17> H 0.7836376644 0.0185497213 1.5423505517
| 18> *
| 19>
| 20>                          ****END OF INPUT****

CARTESIAN COORDINATES (ANGSTROEM)
---------------------------------
  C     -1.961880   -0.224223    0.500510
  C     -1.175249   -0.109682   -0.799431
  C      0.113719    0.684740   -0.647771
  S      1.380504   -0.163449    0.371267
  H     -1.407284   -0.801765    1.236471
  H     -2.168066    0.762030    0.910784
  H     -2.908242   -0.727012    0.320437
  H     -1.786273    0.395819   -1.550966
  H     -0.937666   -1.107365   -1.174422
  H      0.598926    0.817689   -1.614571
  H     -0.064587    1.661111   -0.200022
  H      0.783638    0.018550    1.542351

 Total Charge           Charge          ....    0
 Multiplicity           Mult            ....    1
 Number of Electrons    NEL             ....   42
 Basis Dimension        Dim             ....   76

ORBITAL ENERGIES
----------------

  NO   OCC          E(Eh)            E(eV)
   0   2.0000     -88.012943     -2394.9539
   1   2.0000      -9.917106      -269.8582
   2   2.0000      -9.891535      -269.1624
   3   2.0000      -9.878542      -268.8088
   4   2.0000      -7.659497      -208.4255
   5   2.0000      -5.687821      -154.7735
   6   2.0000      -5.683999      -154.6695
   7   2.0000      -5.675736      -154.4446
   8   2.0000      -0.734228       -19.9794
   9   2.0000      -0.663950       -18.0670
  10   2.0000      -0.592507       -16.1229
  11   2.0000      -0.517317       -14.0769
  12   2.0000      -0.427024       -11.6199
  13   2.0000      -0.408603       -11.1186
  14   2.0000      -0.371454       -10.1078
  15   2.0000      -0.364296        -9.9130
  16   2.0000      -0.318193        -8.6585
  17   2.0000      -0.307443        -8.3660
  18   2.0000      -0.301219        -8.1966
  19   2.0000      -0.279716        -7.6115
  20   2.0000      -0.194693        -5.2979
  21   0.0000       0.007132         0.1941
  22   0.0000       0.038367         1.0440
  23   0.0000       0.050718         1.3801
  24   0.0000       0.077768         2.1162
  25   0.0000       0.081845         2.2271

MULLIKEN ATOMIC CHARGES
-----------------------
   0 C :   -0.295417
   1 C :   -0.134720
   2 C :   -0.299814
   3 S :   -0.181650
   4 H :    0.098519
   5 H :    0.098005
   6 H :    0.109596
   7 H :    0.090909
   8 H :    0.098806
   9 H :    0.137446
  10 H :    0.129577
  11 H :    0.148745
Sum of atomic charges:   -0.0000000

LOEWDIN ATOMIC CHARGES
----------------------
   0 C :   -0.348035
   1 C :   -0.252829
   2 C :   -0.333029
   3 S :    0.014549
   4 H :    0.113534
   5 H :    0.116266
   6 H :    0.123252
   7 H :    0.119418
   8 H :    0.119967
   9 H :    0.127676
  10 H :    0.121673
  11 H :    0.077558

  Mayer bond orders larger than 0.100000
B(  0-C ,  1-C ) :   1.1525 B(  0-C ,  4-H ) :   0.9452 B(  0-C ,  5-H ) :   0.9548
B(  0-C ,  6-H ) :   0.9527 B(  1-C ,  2-C ) :   1.0742 B(  1-C ,  7-H ) :   0.9134
B(  1-C ,  8-H ) :   0.9248 B(  2-C ,  3-S ) :   1.0780 B(  2-C ,  9-H ) :   0.9300
B(  2-C , 10-H ) :   0.9272 B(  3-S , 11-H ) :   0.9038

Dispersion correction           -0.008313405
FINAL SINGLE POINT ENERGY      -516.700434502321

DIPOLE MOMENT
-------------

Method             : SCF
Type of density    : Electron Density
Multiplicity       :   1
Irrep              :   0
Energy             :  -516.7420520854791448 Eh
Relativity type    :
Basis              : AO
                                X                 Y                 Z
Electronic contribution:      6.889611313      -0.682897099       0.479026952
Nuclear contribution   :     -7.440984472       0.960694949      -0.507721775
                        -----------------------------------------
Total Dipole Moment    :     -0.551373159       0.277797850      -0.028694822
                        -----------------------------------------
Magnitude (a.u.)       :      0.618067471
Magnitude (Debye)      :      1.571002661

Rotational constants in cm-1:             0.387531             0.108209             0.093512
Rotational constants in MHz :         11617.899093          3244.024118          2803.428152

                             ****ORCA TERMINATED NORMALLY****
TOTAL RUN TIME: 0 days 0 hours 0 minutes 4 seconds 444 msec
