                         Program Version 6.0.0  -   RELEASE  -
|  1> ! pbe def2-sv(p) def2/J RI DEFGRID1 loosescf d4 GCP(DFT/SV(P)) printgap
|  2> %output
|  3>     printlevel normal
|  4> end
|  5> * xyz 0 1
|  6> C 4.4810960407 -0.283743633 -0.0355484233
|  7> C 3.6582912365 -1.1775415107 0.628706519
|  8> C 2.2906746567 -0.9691807501 0.6780702696
|  9> C 1.7465420228 0.1387924834 0.0431690383
| 10> C 2.5693808275 1.0433628288 -0.6182996252
| 11> C 3.9343208822 0.8292648108 -0.6535580857
| 12> N 0.3480942753 0.395787248 0.079665858
| 13> C -0.5878853425 -0.6301007616 -0.0802031738
| 14> O -0.237495454 -1.8005217897 -0.2688217684
| 15> C -1.942086772 -0.1902303286 -0.0247021276
| 16> C -2.3127205359 1.1321291684 0.1432860992
| 17> C -1.2074936781 2.0398017809 0.2529310693
| 18> N 0.0236321804 1.6709717153 0.2161567771
| 19> N -3.576279113 1.5537221861 0.1963063129
| 20> Cl -3.1474424353 -1.4368384679 -0.2086669558
| 21> H 5.5457498098 -0.4540416389 -0.0687016884
| 22> H 4.0785585607 -2.0415290226 1.1195793655
| 23> H 1.6508511212 -1.6646341002 1.1968352128
| 24> H 2.1287731521 1.9047705625 -1.0929055971
| 25> H 4.5709617064 1.5308457811 -1.1690569509
| 26> H -1.3717976331 3.0978583803 0.3752443234
| 27> H -3.7836174056 2.5293091408 0.3164812058
| 28> H -4.3157529839 0.8763692582 0.1121490569
| 29> *
| 30>
| 31>                          ****END OF INPUT****

CARTESIAN COORDINATES (ANGSTROEM)
---------------------------------
  C      4.481096   -0.283744   -0.035548
  C      3.658291   -1.177542    0.628707
  C      2.290675   -0.969181    0.678070
  C      1.746542    0.138792    0.043169
  C      2.569381    1.043363   -0.618300
  C      3.934321    0.829265   -0.653558
  N      0.348094    0.395787    0.079666
  C     -0.587885   -0.630101   -0.080203
  O     -0.237495   -1.800522   -0.268822
  C     -1.942087   -0.190230   -0.024702
  C     -2.312721    1.132129    0.143286
  C     -1.207494    2.039802    0.252931
  N      0.023632    1.670972    0.216157
  N     -3.576279    1.553722    0.196306
  Cl    -3.147442   -1.436838   -0.208667
  H      5.545750   -0.454042   -0.068702
  H      4.078559   -2.041529    1.119579
  H      1.650851   -1.664634    1.196835
  H      2.128773    1.904771   -1.092906
  H      4.570962    1.530846   -1.169057
  H     -1.371798    3.097858    0.375244
  H     -3.783617    2.529309    0.316481
  H     -4.315753    0.876369    0.112149

 Total Charge           Charge          ....    0
 Multiplicity           Mult            ....    1
 Number of Electrons    NEL             ....  114
 Basis Dimension        Dim             ....  230

ORBITAL ENERGIES
----------------

  NO   OCC          E(Eh)            E(eV)
   0   2.0000    -100.647429     -2738.7558
   1   2.0000     -18.709304      -509.1060
   2   2.0000     -14.086959      -383.3257
   3   2.0000     -14.040681      -382.0663
   4   2.0000     -14.034177      -381.8894
   5   2.0000      -9.987376      -271.7703
   6   2.0000      -9.973526      -271.3934
   7   2.0000      -9.948742      -270.7190
   8   2.0000      -9.944327      -270.5989
   9   2.0000      -9.938525      -270.4410
  10   2.0000      -9.895183      -269.2616
  11   2.0000      -9.893172      -269.2069
  12   2.0000      -9.892185      -269.1800
  13   2.0000      -9.890951      -269.1465
  14   2.0000      -9.890463      -269.1332
  15   2.0000      -9.182214      -249.8607
  16   2.0000      -7.013691      -190.8522
  17   2.0000      -7.002162      -190.5385
  18   2.0000      -7.001772      -190.5279
  19   2.0000      -0.983269       -26.7561
  20   2.0000      -0.908232       -24.7143
  21   2.0000      -0.881980       -23.9999
  22   2.0000      -0.803899       -21.8752
  23   2.0000      -0.789621       -21.4867
  24   2.0000      -0.761614       -20.7246
  25   2.0000      -0.706548       -19.2262
  26   2.0000      -0.674669       -18.3587
  27   2.0000      -0.672776       -18.3072
  28   2.0000      -0.609637       -16.5891
  29   2.0000      -0.604905       -16.4603
  30   2.0000      -0.554319       -15.0838
  31   2.0000      -0.548355       -14.9215
  32   2.0000      -0.532856       -14.4997
  33   2.0000      -0.497178       -13.5289
  34   2.0000      -0.491150       -13.3649
  35   2.0000      -0.461802       -12.5663
  36   2.0000      -0.444589       -12.0979
  37   2.0000      -0.439288       -11.9536
  38   2.0000      -0.414851       -11.2887
  39   2.0000      -0.401740       -10.9319
  40   2.0000      -0.387758       -10.5514
  41   2.0000      -0.383179       -10.4268
  42   2.0000      -0.376286       -10.2393
  43   2.0000      -0.362423        -9.8620
  44   2.0000      -0.351235        -9.5576
  45   2.0000      -0.337859        -9.1936
  46   2.0000      -0.330390        -8.9904
  47   2.0000      -0.317794        -8.6476
  48   2.0000      -0.305068        -8.3013
  49   2.0000      -0.287298        -7.8178
  50   2.0000      -0.275116        -7.4863
  51   2.0000      -0.261613        -7.1188
  52   2.0000      -0.252191        -6.8625
  53   2.0000      -0.229181        -6.2363
  54   2.0000      -0.210511        -5.7283
  55   2.0000      -0.196150        -5.3375
  56   2.0000      -0.191603        -5.2138
  57   0.0000      -0.082215        -2.2372
  58   0.0000      -0.036140        -0.9834
  59   0.0000      -0.033027        -0.8987
  60   0.0000      -0.017193        -0.4678
  61   0.0000       0.008127         0.2211

MULLIKEN ATOMIC CHARGES
-----------------------
   0 C :   -0.027915
   1 C :   -0.072759
   2 C :   -0.074780
   3 C :    0.202399
   4 C :   -0.082357
   5 C :   -0.062415
   6 N :   -0.153764
   7 C :    0.163090
   8 O :   -0.199791
   9 C :   -0.130593
  10 C :    0.129685
  11 C :   -0.194093
  12 N :    0.028278
  13 N :   -0.275791
  14 Cl:   -0.050201
  15 H :    0.053933
  16 H :    0.057477
  17 H :    0.064101
  18 H :    0.047191
  19 H :    0.054737
  20 H :    0.049302
  21 H :    0.238783
  22 H :    0.235482
Sum of atomic charges:   -0.0000000

LOEWDIN ATOMIC CHARGES
----------------------
   0 C :   -0.121837
   1 C :   -0.118741
   2 C :   -0.110676
   3 C :    0.005171
   4 C :   -0.118567
   5 C :   -0.121126
   6 N :    0.078934
   7 C :   -0.004738
   8 O :   -0.207463
   9 C :   -0.210975
  10 C :   -0.037646
  11 C :   -0.147535
  12 N :   -0.008449
  13 N :   -0.268001
  14 Cl:    0.151630
  15 H :    0.124223
  16 H :    0.126626
  17 H :    0.137359
  18 H :    0.129444
  19 H :    0.125275
  20 H :    0.124083
  21 H :    0.241990
  22 H :    0.231019

  Mayer bond orders larger than 0.100000
B(  0-C ,  1-C ) :   1.3751 B(  0-C ,  5-C ) :   1.3716 B(  0-C , 15-H ) :   0.9663
B(  1-C ,  2-C ) :   1.3614 B(  1-C , 16-H ) :   0.9623 B(  2-C ,  3-C ) :   1.4008
B(  2-C , 17-H ) :   0.9540 B(  3-C ,  4-C ) :   1.3958 B(  3-C ,  6-N ) :   0.9093
B(  4-C ,  5-C ) :   1.3587 B(  4-C , 18-H ) :   0.9538 B(  5-C , 19-H ) :   0.9628
B(  6-N ,  7-C ) :   0.9579 B(  6-N , 12-N ) :   1.1620 B(  7-C ,  8-O ) :   2.1005
B(  7-C ,  9-C ) :   1.1144 B(  9-C , 10-C ) :   1.4794 B(  9-C , 14-Cl) :   1.0412
B( 10-C , 11-C ) :   1.0545 B( 10-C , 13-N ) :   1.3821 B( 11-C , 12-N ) :   1.7631
B( 11-C , 20-H ) :   0.9663 B( 13-N , 21-H ) :   0.8662 B( 13-N , 22-H ) :   0.8440

Dispersion correction           -0.032171727
FINAL SINGLE POINT ENERGY     -1083.938998915043

DIPOLE MOMENT
-------------

Method             : SCF
Type of density    : Electron Density
Multiplicity       :   1
Irrep              :   0
Energy             : -1084.0008954209813510 Eh
Relativity type    :
Basis              : AO
                                X                 Y                 Z
Electronic contribution:    -13.235526138      -5.644860838      -0.747240280
Nuclear contribution   :     12.181357863       7.343450004       1.019606787
                        -----------------------------------------
Total Dipole Moment    :     -1.054168275       1.698589166       0.272366508
                        -----------------------------------------
Magnitude (a.u.)       :      2.017587525
Magnitude (Debye)      :      5.128299937

Rotational constants in cm-1:             0.044130             0.010718             0.008903
Rotational constants in MHz :          1322.983908           321.307830           266.893952

                             ****ORCA TERMINATED NORMALLY****
TOTAL RUN TIME: 0 days 0 hours 0 minutes 15 seconds 122 msec
