                         Program Version 6.0.0  -   RELEASE  -
|  1> ! pbe def2-sv(p) def2/J RI DEFGRID1 loosescf d4 GCP(DFT/SV(P)) printgap
|  2> %output
|  3>     printlevel normal
|  4> end
|  5> * xyz 0 1
|  6> C -2.3552033669 -1.0025999103 0.4062876776
|  7> C -1.0682062268 -0.2600089544 0.8226451812
|  8> H -1.2579952019 0.1913791988 1.805018362
|  9> C -0.6724937203 0.8534693884 -0.1624097638
| 10> H -0.6949181398 0.4731244977 -1.1904280634
| 11> C 0.7653440228 1.2928222967 0.1655685196
| 12> H 0.8447427723 1.5333006628 1.232840767
| 13> C 1.7327352442 0.1261692928 -0.1114957117
| 14> H 2.0631036074 0.1762890564 -1.1587049125
| 15> C 0.9953350878 -1.2263831092 0.0567859076
| 16> H 1.7008286808 -1.9784940921 0.4487714155
| 17> O -0.0019819558 -1.1881034604 1.0339526374
| 18> O 0.5230476451 -1.6073006644 -1.2007088213
| 19> O 2.8178827663 0.2548678556 0.7691263556
| 20> O 1.1244172572 2.4713904557 -0.5012275699
| 21> O -1.5883204886 1.914822464 -0.1317925114
| 22> O -2.2597864861 -1.6593356026 -0.836195882
| 23> H -3.1804166078 -0.2853331291 0.4146840283
| 24> H -2.5440368879 -1.7837494371 1.1460759009
| 25> H -0.259919498 -2.1814680165 -1.0955532165
| 26> H 3.539873508 -0.3319888111 0.5027549917
| 27> H 1.0310816284 2.3533569666 -1.4580530296
| 28> H -1.4142379985 2.4823082829 0.6325215769
| 29> H -2.4149455945 -1.0263332427 -1.5503121537
| 30> *
| 31>
| 32>                          ****END OF INPUT****

CARTESIAN COORDINATES (ANGSTROEM)
---------------------------------
  C     -2.355203   -1.002600    0.406288
  C     -1.068206   -0.260009    0.822645
  H     -1.257995    0.191379    1.805018
  C     -0.672494    0.853469   -0.162410
  H     -0.694918    0.473124   -1.190428
  C      0.765344    1.292822    0.165569
  H      0.844743    1.533301    1.232841
  C      1.732735    0.126169   -0.111496
  H      2.063104    0.176289   -1.158705
  C      0.995335   -1.226383    0.056786
  H      1.700829   -1.978494    0.448771
  O     -0.001982   -1.188103    1.033953
  O      0.523048   -1.607301   -1.200709
  O      2.817883    0.254868    0.769126
  O      1.124417    2.471390   -0.501228
  O     -1.588320    1.914822   -0.131793
  O     -2.259786   -1.659336   -0.836196
  H     -3.180417   -0.285333    0.414684
  H     -2.544037   -1.783749    1.146076
  H     -0.259919   -2.181468   -1.095553
  H      3.539874   -0.331989    0.502755
  H      1.031082    2.353357   -1.458053
  H     -1.414238    2.482308    0.632522
  H     -2.414946   -1.026333   -1.550312

 Total Charge           Charge          ....    0
 Multiplicity           Mult            ....    1
 Number of Electrons    NEL             ....   96
 Basis Dimension        Dim             ....  192

ORBITAL ENERGIES
----------------

  NO   OCC          E(Eh)            E(eV)
   0   2.0000     -18.772801      -510.8339
   1   2.0000     -18.767760      -510.6967
   2   2.0000     -18.759129      -510.4619
   3   2.0000     -18.751609      -510.2572
   4   2.0000     -18.750245      -510.2201
   5   2.0000     -18.749801      -510.2080
   6   2.0000      -9.980366      -271.5796
   7   2.0000      -9.947068      -270.6735
   8   2.0000      -9.946460      -270.6569
   9   2.0000      -9.943996      -270.5899
  10   2.0000      -9.939898      -270.4784
  11   2.0000      -9.939482      -270.4670
  12   2.0000      -0.979971       -26.6664
  13   2.0000      -0.945737       -25.7348
  14   2.0000      -0.942730       -25.6530
  15   2.0000      -0.930413       -25.3178
  16   2.0000      -0.917301       -24.9610
  17   2.0000      -0.902877       -24.5685
  18   2.0000      -0.705880       -19.2080
  19   2.0000      -0.691126       -18.8065
  20   2.0000      -0.625175       -17.0119
  21   2.0000      -0.592402       -16.1201
  22   2.0000      -0.567527       -15.4432
  23   2.0000      -0.529157       -14.3991
  24   2.0000      -0.508032       -13.8243
  25   2.0000      -0.490126       -13.3370
  26   2.0000      -0.469987       -12.7890
  27   2.0000      -0.456361       -12.4182
  28   2.0000      -0.445342       -12.1184
  29   2.0000      -0.425368       -11.5748
  30   2.0000      -0.415621       -11.3096
  31   2.0000      -0.406971       -11.0743
  32   2.0000      -0.391730       -10.6595
  33   2.0000      -0.383000       -10.4219
  34   2.0000      -0.365334        -9.9413
  35   2.0000      -0.350155        -9.5282
  36   2.0000      -0.335855        -9.1391
  37   2.0000      -0.309291        -8.4162
  38   2.0000      -0.303196        -8.2504
  39   2.0000      -0.296364        -8.0645
  40   2.0000      -0.280157        -7.6235
  41   2.0000      -0.277421        -7.5490
  42   2.0000      -0.261622        -7.1191
  43   2.0000      -0.239541        -6.5183
  44   2.0000      -0.233761        -6.3610
  45   2.0000      -0.228973        -6.2307
  46   2.0000      -0.212302        -5.7770
  47   2.0000      -0.200795        -5.4639
  48   0.0000       0.012599         0.3428
  49   0.0000       0.027048         0.7360
  50   0.0000       0.028748         0.7823
  51   0.0000       0.034666         0.9433
  52   0.0000       0.056307         1.5322

MULLIKEN ATOMIC CHARGES
-----------------------
   0 C :    0.068935
   1 C :    0.055730
   2 H :    0.054750
   3 C :    0.006262
   4 H :    0.043430
   5 C :    0.037338
   6 H :    0.065526
   7 C :    0.088509
   8 H :    0.053773
   9 C :    0.167702
  10 H :    0.043018
  11 O :   -0.310552
  12 O :   -0.426127
  13 O :   -0.406852
  14 O :   -0.404662
  15 O :   -0.404503
  16 O :   -0.438628
  17 H :    0.086764
  18 H :    0.096673
  19 H :    0.303206
  20 H :    0.301896
  21 H :    0.298905
  22 H :    0.303096
  23 H :    0.315812
Sum of atomic charges:    0.0000000

LOEWDIN ATOMIC CHARGES
----------------------
   0 C :   -0.131066
   1 C :   -0.076116
   2 H :    0.113589
   3 C :   -0.096409
   4 H :    0.103616
   5 C :   -0.070531
   6 H :    0.121056
   7 C :   -0.083220
   8 H :    0.103845
   9 C :   -0.007295
  10 H :    0.090240
  11 O :   -0.141386
  12 O :   -0.332236
  13 O :   -0.312469
  14 O :   -0.306530
  15 O :   -0.310306
  16 O :   -0.318032
  17 H :    0.110681
  18 H :    0.119239
  19 H :    0.271607
  20 H :    0.287048
  21 H :    0.284375
  22 H :    0.287933
  23 H :    0.292366

  Mayer bond orders larger than 0.100000
B(  0-C ,  1-C ) :   1.0257 B(  0-C , 16-O ) :   1.0607 B(  0-C , 17-H ) :   0.9162
B(  0-C , 18-H ) :   0.9197 B(  1-C ,  2-H ) :   0.8727 B(  1-C ,  3-C ) :   0.9515
B(  1-C , 11-O ) :   0.9669 B(  3-C ,  4-H ) :   0.8495 B(  3-C ,  5-C ) :   1.0369
B(  3-C , 15-O ) :   1.0630 B(  5-C ,  6-H ) :   0.8496 B(  5-C ,  7-C ) :   1.0022
B(  5-C , 14-O ) :   1.0700 B(  7-C ,  8-H ) :   0.8772 B(  7-C ,  9-C ) :   0.9674
B(  7-C , 13-O ) :   1.0960 B(  9-C , 10-H ) :   0.8925 B(  9-C , 11-O ) :   1.0856
B(  9-C , 12-O ) :   1.0743 B( 12-O , 19-H ) :   0.7901 B( 13-O , 20-H ) :   0.8471
B( 14-O , 21-H ) :   0.8491 B( 15-O , 22-H ) :   0.8453 B( 16-O , 19-H ) :   0.1012
B( 16-O , 23-H ) :   0.8385

Dispersion correction           -0.025062280
FINAL SINGLE POINT ENERGY      -685.691443745257

DIPOLE MOMENT
-------------

Method             : SCF
Type of density    : Electron Density
Multiplicity       :   1
Irrep              :   0
Energy             :  -685.8226734196227881 Eh
Relativity type    :
Basis              : AO
                                X                 Y                 Z
Electronic contribution:      2.124397499       0.264177369      -0.027485362
Nuclear contribution   :     -2.417780991      -0.351500054      -0.266508381
                        -----------------------------------------
Total Dipole Moment    :     -0.293383492      -0.087322684      -0.293993743
                        -----------------------------------------
Magnitude (a.u.)       :      0.424418951
Magnitude (Debye)      :      1.078787240

Rotational constants in cm-1:             0.042238             0.028161             0.020618
Rotational constants in MHz :          1266.266679           844.243348           618.120799

                             ****ORCA TERMINATED NORMALLY****
TOTAL RUN TIME: 0 days 0 hours 0 minutes 12 seconds 99 msec
