                         Program Version 6.0.0  -   RELEASE  -
|  1> ! wb97x-v def2-tzvp def2/J RIJCOSX DEFGRID2 scfconv7 GCP(DFT/TZ) printgap
|  2> %output
|  3>     printlevel normal
|  4> end
|  5> * xyz 0 1
|  6> C -1.2370771028213683 1.1272815347993554 0.8766712235530454
|  7> C -0.5270272125353838 0.2953429057086533 0.01940510445867165
|  8> C -1.2129896417730528 -0.6474974477275046 -0.7477338176511829
|  9> C -2.6031131464928396 -0.7609738167757588 -0.6578171920900563
| 10> C -3.313989415511733 0.07978790684626368 0.20922080999029044
| 11> C -2.6160210486189484 1.0209621580388613 0.970950584132556
| 12> Cl -3.4633318427271194 2.0829473543810315 2.057209104243231
| 13> Cl -5.034082296413886 -0.047545022795714674 0.33103554386704187
| 14> Cl -3.444957916775724 -1.9340101708643762 -1.6109059956721306
| 15> Cl -0.31538300554843035 -1.680322440333385 -1.8170153375140004
| 16> C 0.946279330007922 0.4239634360180937 -0.07256138855710076
| 17> C 1.5453042574654918 1.2972053265737558 -0.9810275592176977
| 18> C 2.9204257523301727 1.4320522079721876 -1.0837129819752933
| 19> C 3.729373891548611 0.6707822190732782 -0.25289184742111187
| 20> C 3.180449850644675 -0.21967579950072194 0.6746012718817329
| 21> C 1.7879709167226583 -0.33016886499736536 0.7503494960255411
| 22> Cl 1.0688118558385216 -1.4384976487222905 1.8784491149461475
| 23> Cl 4.199888312581953 -1.1664981075996683 1.7021799923327219
| 24> Cl 5.453131445345897 0.8476499225683362 -0.39168462379318897
| 25> Cl 0.5349431654760384 2.2468285673376074 -2.0423466614399355
| 26> H -0.706323506933104 1.8602183601543263 1.4730117242162664
| 27> H 3.3607930374578614 2.115460429582272 -1.7984929843912538
| 28> *
| 29>
| 30>                          ****END OF INPUT****

CARTESIAN COORDINATES (ANGSTROEM)
---------------------------------
  C     -1.237077    1.127282    0.876671
  C     -0.527027    0.295343    0.019405
  C     -1.212990   -0.647497   -0.747734
  C     -2.603113   -0.760974   -0.657817
  C     -3.313989    0.079788    0.209221
  C     -2.616021    1.020962    0.970951
  Cl    -3.463332    2.082947    2.057209
  Cl    -5.034082   -0.047545    0.331036
  Cl    -3.444958   -1.934010   -1.610906
  Cl    -0.315383   -1.680322   -1.817015
  C      0.946279    0.423963   -0.072561
  C      1.545304    1.297205   -0.981028
  C      2.920426    1.432052   -1.083713
  C      3.729374    0.670782   -0.252892
  C      3.180450   -0.219676    0.674601
  C      1.787971   -0.330169    0.750349
  Cl     1.068812   -1.438498    1.878449
  Cl     4.199888   -1.166498    1.702180
  Cl     5.453131    0.847650   -0.391685
  Cl     0.534943    2.246829   -2.042347
  H     -0.706324    1.860218    1.473012
  H      3.360793    2.115460   -1.798493

 Total Charge           Charge          ....    0
 Multiplicity           Mult            ....    1
 Number of Electrons    NEL             ....  210
 Basis Dimension        Dim             ....  680

ORBITAL ENERGIES
----------------

  NO   OCC          E(Eh)            E(eV)
   0   2.0000    -107.172564     -2916.3137
   1   2.0000    -107.171496     -2916.2847
   2   2.0000    -107.171439     -2916.2831
   3   2.0000    -107.171026     -2916.2719
   4   2.0000    -107.169373     -2916.2269
   5   2.0000    -107.169321     -2916.2255
   6   2.0000    -107.169265     -2916.2239
   7   2.0000    -107.167319     -2916.1710
   8   2.0000     -12.161392      -330.9283
   9   2.0000     -12.159357      -330.8729
  10   2.0000     -12.159009      -330.8635
  11   2.0000     -12.157054      -330.8103
  12   2.0000     -12.156736      -330.8016
  13   2.0000     -12.155326      -330.7632
  14   2.0000     -12.153400      -330.7108
  15   2.0000     -12.151745      -330.6658
  16   2.0000     -12.117912      -329.7452
  17   2.0000     -12.113673      -329.6298
  18   2.0000     -12.102136      -329.3159
  19   2.0000     -12.098821      -329.2256
  20   2.0000     -11.325606      -308.1854
  21   2.0000     -11.324555      -308.1568
  22   2.0000     -11.324404      -308.1527
  23   2.0000     -11.324091      -308.1442
  24   2.0000     -11.322404      -308.0983
  25   2.0000     -11.322343      -308.0966
  26   2.0000     -11.322261      -308.0944
  27   2.0000     -11.320350      -308.0424
  28   2.0000      -9.117422      -248.0977
  29   2.0000      -9.116533      -248.0735
  30   2.0000      -9.115853      -248.0550
  31   2.0000      -9.115509      -248.0456
  32   2.0000      -9.114559      -248.0198
  33   2.0000      -9.114472      -248.0174
  34   2.0000      -9.114398      -248.0154
  35   2.0000      -9.114313      -248.0131
  36   2.0000      -9.113541      -247.9921
  37   2.0000      -9.113482      -247.9905
  38   2.0000      -9.113375      -247.9875
  39   2.0000      -9.113298      -247.9854
  40   2.0000      -9.112923      -247.9752
  41   2.0000      -9.112846      -247.9731
  42   2.0000      -9.112677      -247.9686
  43   2.0000      -9.111940      -247.9485
  44   2.0000      -9.111738      -247.9430
  45   2.0000      -9.111274      -247.9304
  46   2.0000      -9.111138      -247.9267
  47   2.0000      -9.111060      -247.9245
  48   2.0000      -9.111037      -247.9239
  49   2.0000      -9.110427      -247.9073
  50   2.0000      -9.109145      -247.8724
  51   2.0000      -9.109041      -247.8696
  52   2.0000      -1.501823       -40.8667
  53   2.0000      -1.495097       -40.6837
  54   2.0000      -1.463636       -39.8276
  55   2.0000      -1.459275       -39.7089
  56   2.0000      -1.456816       -39.6420
  57   2.0000      -1.445253       -39.3273
  58   2.0000      -1.434581       -39.0369
  59   2.0000      -1.429079       -38.8872
  60   2.0000      -1.400504       -38.1097
  61   2.0000      -1.385897       -37.7122
  62   2.0000      -1.337489       -36.3949
  63   2.0000      -1.303989       -35.4834
  64   2.0000      -1.299449       -35.3598
  65   2.0000      -1.287052       -35.0225
  66   2.0000      -1.186643       -32.2902
  67   2.0000      -1.158118       -31.5140
  68   2.0000      -1.154536       -31.4165
  69   2.0000      -1.135660       -30.9029
  70   2.0000      -1.047264       -28.4975
  71   2.0000      -1.044109       -28.4117
  72   2.0000      -1.035497       -28.1773
  73   2.0000      -1.008504       -27.4428
  74   2.0000      -0.995028       -27.0761
  75   2.0000      -0.977154       -26.5897
  76   2.0000      -0.963260       -26.2116
  77   2.0000      -0.955934       -26.0123
  78   2.0000      -0.955259       -25.9939
  79   2.0000      -0.935514       -25.4566
  80   2.0000      -0.918184       -24.9850
  81   2.0000      -0.906931       -24.6788
  82   2.0000      -0.901132       -24.5210
  83   2.0000      -0.887750       -24.1569
  84   2.0000      -0.887534       -24.1510
  85   2.0000      -0.849006       -23.1026
  86   2.0000      -0.846846       -23.0438
  87   2.0000      -0.843502       -22.9529
  88   2.0000      -0.833904       -22.6917
  89   2.0000      -0.827917       -22.5288
  90   2.0000      -0.827488       -22.5171
  91   2.0000      -0.824905       -22.4468
  92   2.0000      -0.823539       -22.4096
  93   2.0000      -0.823046       -22.3962
  94   2.0000      -0.822347       -22.3772
  95   2.0000      -0.819267       -22.2934
  96   2.0000      -0.815487       -22.1905
  97   2.0000      -0.811810       -22.0905
  98   2.0000      -0.807879       -21.9835
  99   2.0000      -0.784509       -21.3476
 100   2.0000      -0.783773       -21.3276
 101   2.0000      -0.698651       -19.0113
 102   2.0000      -0.695172       -18.9166
 103   2.0000      -0.692480       -18.8433
 104   2.0000      -0.688766       -18.7423
 105   0.0000      -0.349548        -9.5117
 106   0.0000      -0.340604        -9.2683
 107   0.0000      -0.323700        -8.8083
 108   0.0000      -0.320258        -8.7147
 109   0.0000      -0.315445        -8.5837

MULLIKEN ATOMIC CHARGES
-----------------------
   0 C :   -0.191914
   1 C :    0.032686
   2 C :    0.072964
   3 C :   -0.014103
   4 C :    0.023185
   5 C :    0.069581
   6 Cl:   -0.046492
   7 Cl:   -0.020130
   8 Cl:   -0.018648
   9 Cl:   -0.029416
  10 C :   -0.050034
  11 C :    0.170272
  12 C :   -0.336285
  13 C :    0.133235
  14 C :   -0.061725
  15 C :    0.102168
  16 Cl:   -0.026067
  17 Cl:   -0.016474
  18 Cl:   -0.043738
  19 Cl:   -0.053686
  20 H :    0.150075
  21 H :    0.154546
Sum of atomic charges:    0.0000000

LOEWDIN ATOMIC CHARGES
----------------------
   0 C :   -0.091550
   1 C :   -0.138774
   2 C :   -0.394205
   3 C :   -0.436867
   4 C :   -0.439603
   5 C :   -0.424120
   6 Cl:    0.419190
   7 Cl:    0.440588
   8 Cl:    0.440620
   9 Cl:    0.449515
  10 C :   -0.133890
  11 C :   -0.372685
  12 C :   -0.137187
  13 C :   -0.421639
  14 C :   -0.443499
  15 C :   -0.383984
  16 Cl:    0.454137
  17 Cl:    0.438991
  18 Cl:    0.424506
  19 Cl:    0.431534
  20 H :    0.161549
  21 H :    0.157374

  Mayer bond orders larger than 0.100000
B(  0-C ,  1-C ) :   1.3636 B(  0-C ,  5-C ) :   1.4123 B(  0-C , 20-H ) :   0.9634
B(  1-C ,  2-C ) :   1.3133 B(  1-C , 10-C ) :   0.7910 B(  2-C ,  3-C ) :   1.3414
B(  2-C ,  9-Cl) :   1.2083 B(  3-C ,  4-C ) :   1.3169 B(  3-C ,  8-Cl) :   1.2157
B(  4-C ,  5-C ) :   1.3249 B(  4-C ,  7-Cl) :   1.2126 B(  5-C ,  6-Cl) :   1.0784
B( 10-C , 11-C ) :   1.3216 B( 10-C , 15-C ) :   1.3142 B( 11-C , 12-C ) :   1.4146
B( 11-C , 19-Cl) :   1.0726 B( 12-C , 13-C ) :   1.3897 B( 12-C , 19-Cl) :   0.1026
B( 12-C , 21-H ) :   0.9542 B( 13-C , 14-C ) :   1.3174 B( 13-C , 18-Cl) :   1.0798
B( 14-C , 15-C ) :   1.3329 B( 14-C , 17-Cl) :   1.2284 B( 15-C , 16-Cl) :   1.2022

FINAL SINGLE POINT ENERGY     -4139.675180167097

DIPOLE MOMENT
-------------

Method             : SCF
Type of density    : Electron Density
Multiplicity       :   1
Irrep              :   0
Energy             : -4139.6862621449972721 Eh
Relativity type    :
Basis              : AO
                                X                 Y                 Z
Electronic contribution:     -3.406091465      -5.111368342       0.403996607
Nuclear contribution   :      3.801132950       5.565356385      -0.450419825
                        -----------------------------------------
Total Dipole Moment    :      0.395041484       0.453988042      -0.046423218
                        -----------------------------------------
Magnitude (a.u.)       :      0.603587634
Magnitude (Debye)      :      1.534197842

Rotational constants in cm-1:             0.010316             0.003311             0.003283
Rotational constants in MHz :           309.277318            99.269808            98.411762

                             ****ORCA TERMINATED NORMALLY****
TOTAL RUN TIME: 0 days 0 hours 13 minutes 29 seconds 715 msec
