                         Program Version 6.0.0  -   RELEASE  -
|  1> ! wb97x-v def2-tzvp def2/J RIJCOSX DEFGRID2 scfconv7 GCP(DFT/TZ) printgap
|  2> %output
|  3>     printlevel normal
|  4> end
|  5> %cpcm
|  6>     smd true
|  7>     smdsolvent "water"
|  8> end
|  9> * xyz 0 1
| 10> C -1.2370771028213683 1.1272815347993554 0.8766712235530454
| 11> C -0.5270272125353838 0.2953429057086533 0.01940510445867165
| 12> C -1.2129896417730528 -0.6474974477275046 -0.7477338176511829
| 13> C -2.6031131464928396 -0.7609738167757588 -0.6578171920900563
| 14> C -3.313989415511733 0.07978790684626368 0.20922080999029044
| 15> C -2.6160210486189484 1.0209621580388613 0.970950584132556
| 16> Cl -3.4633318427271194 2.0829473543810315 2.057209104243231
| 17> Cl -5.034082296413886 -0.047545022795714674 0.33103554386704187
| 18> Cl -3.444957916775724 -1.9340101708643762 -1.6109059956721306
| 19> Cl -0.31538300554843035 -1.680322440333385 -1.8170153375140004
| 20> C 0.946279330007922 0.4239634360180937 -0.07256138855710076
| 21> C 1.5453042574654918 1.2972053265737558 -0.9810275592176977
| 22> C 2.9204257523301727 1.4320522079721876 -1.0837129819752933
| 23> C 3.729373891548611 0.6707822190732782 -0.25289184742111187
| 24> C 3.180449850644675 -0.21967579950072194 0.6746012718817329
| 25> C 1.7879709167226583 -0.33016886499736536 0.7503494960255411
| 26> Cl 1.0688118558385216 -1.4384976487222905 1.8784491149461475
| 27> Cl 4.199888312581953 -1.1664981075996683 1.7021799923327219
| 28> Cl 5.453131445345897 0.8476499225683362 -0.39168462379318897
| 29> Cl 0.5349431654760384 2.2468285673376074 -2.0423466614399355
| 30> H -0.706323506933104 1.8602183601543263 1.4730117242162664
| 31> H 3.3607930374578614 2.115460429582272 -1.7984929843912538
| 32> *
| 33>
| 34>                          ****END OF INPUT****

CARTESIAN COORDINATES (ANGSTROEM)
---------------------------------
  C     -1.237077    1.127282    0.876671
  C     -0.527027    0.295343    0.019405
  C     -1.212990   -0.647497   -0.747734
  C     -2.603113   -0.760974   -0.657817
  C     -3.313989    0.079788    0.209221
  C     -2.616021    1.020962    0.970951
  Cl    -3.463332    2.082947    2.057209
  Cl    -5.034082   -0.047545    0.331036
  Cl    -3.444958   -1.934010   -1.610906
  Cl    -0.315383   -1.680322   -1.817015
  C      0.946279    0.423963   -0.072561
  C      1.545304    1.297205   -0.981028
  C      2.920426    1.432052   -1.083713
  C      3.729374    0.670782   -0.252892
  C      3.180450   -0.219676    0.674601
  C      1.787971   -0.330169    0.750349
  Cl     1.068812   -1.438498    1.878449
  Cl     4.199888   -1.166498    1.702180
  Cl     5.453131    0.847650   -0.391685
  Cl     0.534943    2.246829   -2.042347
  H     -0.706324    1.860218    1.473012
  H      3.360793    2.115460   -1.798493

 Total Charge           Charge          ....    0
 Multiplicity           Mult            ....    1
 Number of Electrons    NEL             ....  210
 Basis Dimension        Dim             ....  680

ORBITAL ENERGIES
----------------

  NO   OCC          E(Eh)            E(eV)
   0   2.0000    -107.168301     -2916.1977
   1   2.0000    -107.168261     -2916.1966
   2   2.0000    -107.167713     -2916.1817
   3   2.0000    -107.167147     -2916.1663
   4   2.0000    -107.166893     -2916.1594
   5   2.0000    -107.164940     -2916.1063
   6   2.0000    -107.163800     -2916.0753
   7   2.0000    -107.162995     -2916.0533
   8   2.0000     -12.153652      -330.7177
   9   2.0000     -12.152238      -330.6792
  10   2.0000     -12.151694      -330.6644
  11   2.0000     -12.149775      -330.6122
  12   2.0000     -12.147745      -330.5570
  13   2.0000     -12.147544      -330.5515
  14   2.0000     -12.144824      -330.4775
  15   2.0000     -12.144503      -330.4687
  16   2.0000     -12.108672      -329.4937
  17   2.0000     -12.105522      -329.4080
  18   2.0000     -12.088820      -328.9535
  19   2.0000     -12.087785      -328.9254
  20   2.0000     -11.321372      -308.0702
  21   2.0000     -11.321310      -308.0685
  22   2.0000     -11.320734      -308.0528
  23   2.0000     -11.320236      -308.0393
  24   2.0000     -11.319952      -308.0316
  25   2.0000     -11.318042      -307.9796
  26   2.0000     -11.316875      -307.9478
  27   2.0000     -11.316098      -307.9267
  28   2.0000      -9.113371      -247.9874
  29   2.0000      -9.112848      -247.9732
  30   2.0000      -9.112628      -247.9672
  31   2.0000      -9.111815      -247.9451
  32   2.0000      -9.111523      -247.9371
  33   2.0000      -9.110680      -247.9142
  34   2.0000      -9.110221      -247.9017
  35   2.0000      -9.110115      -247.8988
  36   2.0000      -9.109852      -247.8917
  37   2.0000      -9.109695      -247.8874
  38   2.0000      -9.109598      -247.8848
  39   2.0000      -9.109562      -247.8838
  40   2.0000      -9.109172      -247.8732
  41   2.0000      -9.108780      -247.8625
  42   2.0000      -9.108737      -247.8613
  43   2.0000      -9.108587      -247.8573
  44   2.0000      -9.108444      -247.8534
  45   2.0000      -9.107671      -247.8323
  46   2.0000      -9.106882      -247.8109
  47   2.0000      -9.106760      -247.8075
  48   2.0000      -9.105710      -247.7790
  49   2.0000      -9.105652      -247.7774
  50   2.0000      -9.104976      -247.7590
  51   2.0000      -9.104948      -247.7582
  52   2.0000      -1.495475       -40.6940
  53   2.0000      -1.488922       -40.5156
  54   2.0000      -1.459354       -39.7110
  55   2.0000      -1.452618       -39.5278
  56   2.0000      -1.449928       -39.4545
  57   2.0000      -1.441700       -39.2306
  58   2.0000      -1.429332       -38.8941
  59   2.0000      -1.427251       -38.8375
  60   2.0000      -1.394003       -37.9328
  61   2.0000      -1.378060       -37.4989
  62   2.0000      -1.329730       -36.1838
  63   2.0000      -1.295062       -35.2404
  64   2.0000      -1.292036       -35.1581
  65   2.0000      -1.279692       -34.8222
  66   2.0000      -1.178545       -32.0698
  67   2.0000      -1.149215       -31.2717
  68   2.0000      -1.146756       -31.2048
  69   2.0000      -1.127779       -30.6884
  70   2.0000      -1.037809       -28.2402
  71   2.0000      -1.036584       -28.2069
  72   2.0000      -1.027920       -27.9711
  73   2.0000      -1.002184       -27.2708
  74   2.0000      -0.989125       -26.9154
  75   2.0000      -0.971481       -26.4353
  76   2.0000      -0.957676       -26.0597
  77   2.0000      -0.950961       -25.8770
  78   2.0000      -0.946290       -25.7499
  79   2.0000      -0.929017       -25.2798
  80   2.0000      -0.911205       -24.7951
  81   2.0000      -0.895353       -24.3638
  82   2.0000      -0.890171       -24.2228
  83   2.0000      -0.882755       -24.0210
  84   2.0000      -0.879243       -23.9254
  85   2.0000      -0.845619       -23.0105
  86   2.0000      -0.839743       -22.8506
  87   2.0000      -0.837350       -22.7854
  88   2.0000      -0.831556       -22.6278
  89   2.0000      -0.824320       -22.4309
  90   2.0000      -0.822975       -22.3943
  91   2.0000      -0.822712       -22.3871
  92   2.0000      -0.822342       -22.3771
  93   2.0000      -0.819903       -22.3107
  94   2.0000      -0.817343       -22.2410
  95   2.0000      -0.812905       -22.1203
  96   2.0000      -0.812348       -22.1051
  97   2.0000      -0.806476       -21.9453
  98   2.0000      -0.806312       -21.9409
  99   2.0000      -0.778850       -21.1936
 100   2.0000      -0.776553       -21.1311
 101   2.0000      -0.689244       -18.7553
 102   2.0000      -0.688231       -18.7277
 103   2.0000      -0.682964       -18.5844
 104   2.0000      -0.682174       -18.5629
 105   0.0000      -0.343594        -9.3497
 106   0.0000      -0.335005        -9.1160
 107   0.0000      -0.314641        -8.5618
 108   0.0000      -0.312722        -8.5096
 109   0.0000      -0.305441        -8.3115

MULLIKEN ATOMIC CHARGES
-----------------------
   0 C :   -0.207295
   1 C :    0.003561
   2 C :    0.070735
   3 C :   -0.002549
   4 C :    0.039178
   5 C :    0.080842
   6 Cl:   -0.060104
   7 Cl:   -0.037753
   8 Cl:   -0.035953
   9 Cl:   -0.042162
  10 C :    0.017126
  11 C :    0.156035
  12 C :   -0.332334
  13 C :    0.134171
  14 C :   -0.047880
  15 C :    0.096730
  16 Cl:   -0.044391
  17 Cl:   -0.035907
  18 Cl:   -0.059523
  19 Cl:   -0.067800
  20 H :    0.188913
  21 H :    0.186361
Sum of atomic charges:    0.0000000

LOEWDIN ATOMIC CHARGES
----------------------
   0 C :   -0.076429
   1 C :   -0.136118
   2 C :   -0.393747
   3 C :   -0.435440
   4 C :   -0.436889
   5 C :   -0.421525
   6 Cl:    0.409642
   7 Cl:    0.429054
   8 Cl:    0.428822
   9 Cl:    0.440462
  10 C :   -0.126208
  11 C :   -0.368541
  12 C :   -0.122371
  13 C :   -0.418911
  14 C :   -0.440724
  15 C :   -0.381505
  16 Cl:    0.442946
  17 Cl:    0.426186
  18 Cl:    0.413883
  19 Cl:    0.422948
  20 H :    0.175359
  21 H :    0.169107

  Mayer bond orders larger than 0.100000
B(  0-C ,  1-C ) :   1.3845 B(  0-C ,  5-C ) :   1.3863 B(  0-C , 20-H ) :   0.9656
B(  1-C ,  2-C ) :   1.3019 B(  1-C , 10-C ) :   0.7888 B(  2-C ,  3-C ) :   1.3427
B(  2-C ,  9-Cl) :   1.1963 B(  3-C ,  4-C ) :   1.3222 B(  3-C ,  8-Cl) :   1.1928
B(  4-C ,  5-C ) :   1.3233 B(  4-C ,  7-Cl) :   1.1880 B(  5-C ,  6-Cl) :   1.0767
B( 10-C , 11-C ) :   1.3171 B( 10-C , 15-C ) :   1.3202 B( 11-C , 12-C ) :   1.4109
B( 11-C , 19-Cl) :   1.0633 B( 12-C , 13-C ) :   1.3845 B( 12-C , 21-H ) :   0.9491
B( 13-C , 14-C ) :   1.3144 B( 13-C , 18-Cl) :   1.0705 B( 14-C , 15-C ) :   1.3368
B( 14-C , 17-Cl) :   1.1991 B( 15-C , 16-Cl) :   1.1768

FINAL SINGLE POINT ENERGY     -4139.674838661396

DIPOLE MOMENT
-------------

Method             : SCF
Type of density    : Electron Density
Multiplicity       :   1
Irrep              :   0
Energy             : -4139.6859206392964552 Eh
Relativity type    :
Basis              : AO
                                X                 Y                 Z
Electronic contribution:     -3.190380743      -4.719626077       0.415132387
Nuclear contribution   :      3.801132950       5.565356385      -0.450419825
                        -----------------------------------------
Total Dipole Moment    :      0.610752207       0.845730308      -0.035287438
                        -----------------------------------------
Magnitude (a.u.)       :      1.043802288
Magnitude (Debye)      :      2.653134568

Rotational constants in cm-1:             0.010316             0.003311             0.003283
Rotational constants in MHz :           309.277318            99.269808            98.411762

                             ****ORCA TERMINATED NORMALLY****
TOTAL RUN TIME: 0 days 0 hours 13 minutes 37 seconds 446 msec
