                         Program Version 6.0.0  -   RELEASE  -
|  1> ! wb97x-v def2-tzvp def2/J RIJCOSX DEFGRID2 scfconv7 GCP(DFT/TZ) printgap
|  2> %output
|  3>     printlevel normal
|  4> end
|  5> * xyz 0 1
|  6> C 1.808522401932903 -0.04474225954654447 1.0048832745385505
|  7> C 0.9563709733127473 -0.33822112228385626 -0.2169911859793891
|  8> H 1.0301316661261255 -1.4000990037508187 -0.4926083036998708
|  9> C -0.5178055303883276 -0.0829942089150262 0.055117851686992736
| 10> F -1.288424959837364 -0.36394926393233507 -1.023274009971877
| 11> F -0.9612406500291131 -0.8564643971569724 1.073484272957701
| 12> F -0.7704927949027358 1.2048371940940814 0.3911374019221681
| 13> O 1.2805606323861736 0.4993608168118322 -1.327318760784691
| 14> H 2.8564086495985155 -0.22868145176383334 0.7537913739691635
| 15> H 1.539651615791444 -0.7008822277615474 1.8365630652988616
| 16> H 1.6991505367127901 0.9978221049669612 1.3154233240738056
| 17> H 2.2134633211729526 0.35205557377379704 -1.5310411132728698
| 18> *
| 19>
| 20>                          ****END OF INPUT****

CARTESIAN COORDINATES (ANGSTROEM)
---------------------------------
  C      1.808522   -0.044742    1.004883
  C      0.956371   -0.338221   -0.216991
  H      1.030132   -1.400099   -0.492608
  C     -0.517806   -0.082994    0.055118
  F     -1.288425   -0.363949   -1.023274
  F     -0.961241   -0.856464    1.073484
  F     -0.770493    1.204837    0.391137
  O      1.280561    0.499361   -1.327319
  H      2.856409   -0.228681    0.753791
  H      1.539652   -0.700882    1.836563
  H      1.699151    0.997822    1.315423
  H      2.213463    0.352056   -1.531041

 Total Charge           Charge          ....    0
 Multiplicity           Mult            ....    1
 Number of Electrons    NEL             ....   58
 Basis Dimension        Dim             ....  247

ORBITAL ENERGIES
----------------

  NO   OCC          E(Eh)            E(eV)
   0   2.0000     -27.598366      -750.9897
   1   2.0000     -27.592136      -750.8202
   2   2.0000     -27.590269      -750.7694
   3   2.0000     -21.698375      -590.4428
   4   2.0000     -12.296254      -334.5981
   5   2.0000     -12.137566      -330.2800
   6   2.0000     -12.063557      -328.2661
   7   2.0000      -2.054550       -55.9072
   8   2.0000      -2.008260       -54.6475
   9   2.0000      -2.002786       -54.4986
  10   2.0000      -1.703687       -46.3597
  11   2.0000      -1.392891       -37.9025
  12   2.0000      -1.302955       -35.4552
  13   2.0000      -1.252389       -34.0792
  14   2.0000      -1.248691       -33.9786
  15   2.0000      -1.204954       -32.7885
  16   2.0000      -1.159887       -31.5621
  17   2.0000      -1.159000       -31.5380
  18   2.0000      -1.152755       -31.3681
  19   2.0000      -1.144259       -31.1369
  20   2.0000      -1.142234       -31.0818
  21   2.0000      -1.139347       -31.0032
  22   2.0000      -1.053422       -28.6651
  23   2.0000      -1.008815       -27.4513
  24   2.0000      -0.965837       -26.2817
  25   2.0000      -0.911931       -24.8149
  26   2.0000      -0.854721       -23.2582
  27   2.0000      -0.844424       -22.9779
  28   2.0000      -0.816719       -22.2241
  29   0.0000      -0.271224        -7.3804
  30   0.0000      -0.259986        -7.0746
  31   0.0000      -0.228501        -6.2178
  32   0.0000      -0.122241        -3.3264
  33   0.0000      -0.068074        -1.8524

MULLIKEN ATOMIC CHARGES
-----------------------
   0 C :   -0.391647
   1 C :    0.062315
   2 H :    0.095277
   3 C :    0.445311
   4 F :   -0.157031
   5 F :   -0.168467
   6 F :   -0.161317
   7 O :   -0.419984
   8 H :    0.114959
   9 H :    0.131373
  10 H :    0.143821
  11 H :    0.305390
Sum of atomic charges:    0.0000000

LOEWDIN ATOMIC CHARGES
----------------------
   0 C :   -0.277729
   1 C :   -0.352200
   2 H :    0.146802
   3 C :   -0.628840
   4 F :    0.184642
   5 F :    0.182710
   6 F :    0.186016
   7 O :   -0.000880
   8 H :    0.122118
   9 H :    0.130508
  10 H :    0.130361
  11 H :    0.176492

  Mayer bond orders larger than 0.100000
B(  0-C ,  1-C ) :   0.9803 B(  0-C ,  8-H ) :   0.9721 B(  0-C ,  9-H ) :   0.9654
B(  0-C , 10-H ) :   0.9702 B(  1-C ,  2-H ) :   0.9534 B(  1-C ,  3-C ) :   0.9772
B(  1-C ,  7-O ) :   1.0390 B(  3-C ,  4-F ) :   1.1653 B(  3-C ,  5-F ) :   1.1354
B(  3-C ,  6-F ) :   1.1535 B(  7-O , 11-H ) :   0.8975

FINAL SINGLE POINT ENERGY      -492.135878071636

DIPOLE MOMENT
-------------

Method             : SCF
Type of density    : Electron Density
Multiplicity       :   1
Irrep              :   0
Energy             :  -492.1497088577364707 Eh
Relativity type    :
Basis              : AO
                                X                 Y                 Z
Electronic contribution:    -10.232675833       0.423951365      -1.146534249
Nuclear contribution   :     11.586870962      -0.916121861       1.351204024
                        -----------------------------------------
Total Dipole Moment    :      1.354195130      -0.492170496       0.204669775
                        -----------------------------------------
Magnitude (a.u.)       :      1.455323319
Magnitude (Debye)      :      3.699137902

Rotational constants in cm-1:             0.116185             0.080037             0.065421
Rotational constants in MHz :          3483.153026          2399.457018          1961.286450

                             ****ORCA TERMINATED NORMALLY****
TOTAL RUN TIME: 0 days 0 hours 1 minutes 10 seconds 440 msec
