                         Program Version 6.0.0  -   RELEASE  -
|  1> ! wb97x-v def2-tzvp def2/J RIJCOSX DEFGRID2 scfconv7 GCP(DFT/TZ) printgap
|  2> %output
|  3>     printlevel normal
|  4> end
|  5> %cpcm
|  6>     smd true
|  7>     smdsolvent "water"
|  8> end
|  9> * xyz 0 1
| 10> C 1.808522401932903 -0.04474225954654447 1.0048832745385505
| 11> C 0.9563709733127473 -0.33822112228385626 -0.2169911859793891
| 12> H 1.0301316661261255 -1.4000990037508187 -0.4926083036998708
| 13> C -0.5178055303883276 -0.0829942089150262 0.055117851686992736
| 14> F -1.288424959837364 -0.36394926393233507 -1.023274009971877
| 15> F -0.9612406500291131 -0.8564643971569724 1.073484272957701
| 16> F -0.7704927949027358 1.2048371940940814 0.3911374019221681
| 17> O 1.2805606323861736 0.4993608168118322 -1.327318760784691
| 18> H 2.8564086495985155 -0.22868145176383334 0.7537913739691635
| 19> H 1.539651615791444 -0.7008822277615474 1.8365630652988616
| 20> H 1.6991505367127901 0.9978221049669612 1.3154233240738056
| 21> H 2.2134633211729526 0.35205557377379704 -1.5310411132728698
| 22> *
| 23>
| 24>                          ****END OF INPUT****

CARTESIAN COORDINATES (ANGSTROEM)
---------------------------------
  C      1.808522   -0.044742    1.004883
  C      0.956371   -0.338221   -0.216991
  H      1.030132   -1.400099   -0.492608
  C     -0.517806   -0.082994    0.055118
  F     -1.288425   -0.363949   -1.023274
  F     -0.961241   -0.856464    1.073484
  F     -0.770493    1.204837    0.391137
  O      1.280561    0.499361   -1.327319
  H      2.856409   -0.228681    0.753791
  H      1.539652   -0.700882    1.836563
  H      1.699151    0.997822    1.315423
  H      2.213463    0.352056   -1.531041

 Total Charge           Charge          ....    0
 Multiplicity           Mult            ....    1
 Number of Electrons    NEL             ....   58
 Basis Dimension        Dim             ....  247

ORBITAL ENERGIES
----------------

  NO   OCC          E(Eh)            E(eV)
   0   2.0000     -27.601924      -751.0865
   1   2.0000     -27.600261      -751.0413
   2   2.0000     -27.599493      -751.0204
   3   2.0000     -21.688504      -590.1742
   4   2.0000     -12.297757      -334.6390
   5   2.0000     -12.123040      -329.8847
   6   2.0000     -12.040681      -327.6436
   7   2.0000      -2.061340       -56.0919
   8   2.0000      -2.013987       -54.8034
   9   2.0000      -2.012114       -54.7524
  10   2.0000      -1.693898       -46.0933
  11   2.0000      -1.395511       -37.9738
  12   2.0000      -1.293180       -35.1892
  13   2.0000      -1.258381       -34.2423
  14   2.0000      -1.257323       -34.2135
  15   2.0000      -1.199754       -32.6470
  16   2.0000      -1.166125       -31.7319
  17   2.0000      -1.165867       -31.7248
  18   2.0000      -1.153262       -31.3818
  19   2.0000      -1.151724       -31.3400
  20   2.0000      -1.148692       -31.2575
  21   2.0000      -1.144021       -31.1304
  22   2.0000      -1.042328       -28.3632
  23   2.0000      -1.003378       -27.3033
  24   2.0000      -0.955624       -26.0038
  25   2.0000      -0.899174       -24.4678
  26   2.0000      -0.837889       -22.8001
  27   2.0000      -0.820913       -22.3382
  28   2.0000      -0.796923       -21.6854
  29   0.0000      -0.276308        -7.5187
  30   0.0000      -0.257598        -7.0096
  31   0.0000      -0.227575        -6.1926
  32   0.0000      -0.111472        -3.0333
  33   0.0000      -0.050457        -1.3730

MULLIKEN ATOMIC CHARGES
-----------------------
   0 C :   -0.419559
   1 C :    0.080192
   2 H :    0.132656
   3 C :    0.449107
   4 F :   -0.175452
   5 F :   -0.175637
   6 F :   -0.176222
   7 O :   -0.523362
   8 H :    0.152817
   9 H :    0.143766
  10 H :    0.139996
  11 H :    0.371698
Sum of atomic charges:    0.0000000

LOEWDIN ATOMIC CHARGES
----------------------
   0 C :   -0.275006
   1 C :   -0.343189
   2 H :    0.160276
   3 C :   -0.629039
   4 F :    0.172135
   5 F :    0.179144
   6 F :    0.175082
   7 O :   -0.037940
   8 H :    0.134091
   9 H :    0.133982
  10 H :    0.128733
  11 H :    0.201732

  Mayer bond orders larger than 0.100000
B(  0-C ,  1-C ) :   0.9911 B(  0-C ,  8-H ) :   0.9685 B(  0-C ,  9-H ) :   0.9612
B(  0-C , 10-H ) :   0.9629 B(  1-C ,  2-H ) :   0.9474 B(  1-C ,  3-C ) :   0.9804
B(  1-C ,  7-O ) :   1.0105 B(  3-C ,  4-F ) :   1.1456 B(  3-C ,  5-F ) :   1.1392
B(  3-C ,  6-F ) :   1.1399 B(  7-O , 11-H ) :   0.8571

FINAL SINGLE POINT ENERGY      -492.144956068695

DIPOLE MOMENT
-------------

Method             : SCF
Type of density    : Electron Density
Multiplicity       :   1
Irrep              :   0
Energy             :  -492.1587868547945845 Eh
Relativity type    :
Basis              : AO
                                X                 Y                 Z
Electronic contribution:     -9.865354357       0.195128304      -1.070759054
Nuclear contribution   :     11.586870962      -0.916121861       1.351204024
                        -----------------------------------------
Total Dipole Moment    :      1.721516605      -0.720993557       0.280444970
                        -----------------------------------------
Magnitude (a.u.)       :      1.887352779
Magnitude (Debye)      :      4.797269519

Rotational constants in cm-1:             0.116185             0.080037             0.065421
Rotational constants in MHz :          3483.153026          2399.457018          1961.286450

                             ****ORCA TERMINATED NORMALLY****
TOTAL RUN TIME: 0 days 0 hours 1 minutes 22 seconds 639 msec
