                         Program Version 6.0.0  -   RELEASE  -
|  1> ! wb97x-v def2-tzvp def2/J RIJCOSX DEFGRID2 scfconv7 GCP(DFT/TZ) printgap
|  2> %output
|  3>     printlevel normal
|  4> end
|  5> * xyz 0 1
|  6> C 1.9008285654638273 -1.4667977657442233 2.3886665640008554e-05
|  7> C 2.5862860527662366 -0.24297343311437783 7.661845706076688e-05
|  8> C 1.9025269706794044 0.9570613933081707 5.873287035342777e-05
|  9> C 0.5030999102597826 0.9792093850639972 -2.1042441978393127e-05
| 10> C -0.18083391286966471 -0.2614642623882412 -7.0994618602469e-05
| 11> C 0.5235602131119605 -1.4740618897994135 -5.906762041137426e-05
| 12> N -1.615500407711291 -0.31258728955474896 1.979797532879847e-05
| 13> O -2.185216519082291 -1.4008624979786612 3.4482921642527825e-05
| 14> O -2.252487763317141 0.7645385656713576 2.3445458282620718e-05
| 15> O -0.09915727013457731 2.1805047800413533 -4.5051380119632e-07
| 16> H 2.4484050551323415 -2.401918898934476 6.403458955232635e-05
| 17> H 3.6713055559697216 -0.23350178548009243 0.00014508096096918694
| 18> H 2.427238514299077 1.9063017618520204 0.00011862835679201323
| 19> H -0.031964489452049966 -2.403376995278348 -7.60780562660472e-05
| 20> H -1.0700930063776737 2.016445074739412 -3.0819173083025516e-05
| 21> *
| 22>
| 23>                          ****END OF INPUT****

CARTESIAN COORDINATES (ANGSTROEM)
---------------------------------
  C      1.900829   -1.466798    0.000024
  C      2.586286   -0.242973    0.000077
  C      1.902527    0.957061    0.000059
  C      0.503100    0.979209   -0.000021
  C     -0.180834   -0.261464   -0.000071
  C      0.523560   -1.474062   -0.000059
  N     -1.615500   -0.312587    0.000020
  O     -2.185217   -1.400862    0.000034
  O     -2.252488    0.764539    0.000023
  O     -0.099157    2.180505   -0.000000
  H      2.448405   -2.401919    0.000064
  H      3.671306   -0.233502    0.000145
  H      2.427239    1.906302    0.000119
  H     -0.031964   -2.403377   -0.000076
  H     -1.070093    2.016445   -0.000031

 Total Charge           Charge          ....    0
 Multiplicity           Mult            ....    1
 Number of Electrons    NEL             ....   72
 Basis Dimension        Dim             ....  340

ORBITAL ENERGIES
----------------

  NO   OCC          E(Eh)            E(eV)
   0   2.0000     -21.724191      -591.1453
   1   2.0000     -21.723349      -591.1224
   2   2.0000     -21.719724      -591.0237
   3   2.0000     -16.790982      -456.9058
   4   2.0000     -12.159694      -330.8821
   5   2.0000     -12.126059      -329.9668
   6   2.0000     -12.091780      -329.0341
   7   2.0000     -12.090484      -328.9988
   8   2.0000     -12.075811      -328.5995
   9   2.0000     -12.074634      -328.5675
  10   2.0000      -1.911341       -52.0102
  11   2.0000      -1.757070       -47.8123
  12   2.0000      -1.744223       -47.4627
  13   2.0000      -1.451930       -39.5090
  14   2.0000      -1.386326       -37.7239
  15   2.0000      -1.316231       -35.8165
  16   2.0000      -1.280392       -34.8412
  17   2.0000      -1.209985       -32.9254
  18   2.0000      -1.168040       -31.7840
  19   2.0000      -1.154638       -31.4193
  20   2.0000      -1.133465       -30.8432
  21   2.0000      -1.088530       -29.6204
  22   2.0000      -1.079314       -29.3696
  23   2.0000      -1.037637       -28.2355
  24   2.0000      -0.973282       -26.4843
  25   2.0000      -0.968453       -26.3529
  26   2.0000      -0.962803       -26.1992
  27   2.0000      -0.937838       -25.5199
  28   2.0000      -0.934755       -25.4360
  29   2.0000      -0.911819       -24.8119
  30   2.0000      -0.911547       -24.8044
  31   2.0000      -0.873385       -23.7660
  32   2.0000      -0.850655       -23.1475
  33   2.0000      -0.807116       -21.9627
  34   2.0000      -0.696009       -18.9394
  35   2.0000      -0.668163       -18.1816
  36   0.0000      -0.500348       -13.6152
  37   0.0000      -0.278960        -7.5909
  38   0.0000      -0.267566        -7.2809
  39   0.0000      -0.251120        -6.8333
  40   0.0000      -0.172951        -4.7062

MULLIKEN ATOMIC CHARGES
-----------------------
   0 C :   -0.117646
   1 C :   -0.072392
   2 C :   -0.205396
   3 C :    0.185951
   4 C :    0.014101
   5 C :   -0.154608
   6 N :    0.462703
   7 O :   -0.300663
   8 O :   -0.374434
   9 O :   -0.362016
  10 H :    0.132277
  11 H :    0.134595
  12 H :    0.137924
  13 H :    0.169442
  14 H :    0.350160
Sum of atomic charges:    0.0000000

LOEWDIN ATOMIC CHARGES
----------------------
   0 C :   -0.147500
   1 C :   -0.102794
   2 C :   -0.110135
   3 C :   -0.225473
   4 C :   -0.163331
   5 C :   -0.086565
   6 N :    0.013151
   7 O :   -0.012800
   8 O :   -0.068136
   9 O :    0.113915
  10 H :    0.146681
  11 H :    0.149485
  12 H :    0.154564
  13 H :    0.159591
  14 H :    0.179348

  Mayer bond orders larger than 0.100000
B(  0-C ,  1-C ) :   1.3531 B(  0-C ,  5-C ) :   1.5123 B(  0-C , 10-H ) :   0.9715
B(  1-C ,  2-C ) :   1.4917 B(  1-C , 11-H ) :   0.9686 B(  2-C ,  3-C ) :   1.3903
B(  2-C , 12-H ) :   0.9644 B(  3-C ,  4-C ) :   1.2473 B(  3-C ,  9-O ) :   1.2982
B(  4-C ,  5-C ) :   1.3344 B(  4-C ,  6-N ) :   1.0406 B(  5-C , 13-H ) :   0.9287
B(  6-N ,  7-O ) :   1.6646 B(  6-N ,  8-O ) :   1.4900 B(  7-O ,  8-O ) :   0.1792
B(  8-O , 14-H ) :   0.1098 B(  9-O , 14-H ) :   0.7930

FINAL SINGLE POINT ENERGY      -512.016466583997

DIPOLE MOMENT
-------------

Method             : SCF
Type of density    : Electron Density
Multiplicity       :   1
Irrep              :   0
Energy             :  -512.0251287247971277 Eh
Relativity type    :
Basis              : AO
                                X                 Y                 Z
Electronic contribution:     -5.485558845       0.786586555      -0.000159860
Nuclear contribution   :      6.936025277      -1.062641256       0.000156447
                        -----------------------------------------
Total Dipole Moment    :      1.450466432      -0.276054701      -0.000003413
                        -----------------------------------------
Magnitude (a.u.)       :      1.476502309
Magnitude (Debye)      :      3.752970616

Rotational constants in cm-1:             0.078917             0.042683             0.027701
Rotational constants in MHz :          2365.860928          1279.607715           830.448481

                             ****ORCA TERMINATED NORMALLY****
TOTAL RUN TIME: 0 days 0 hours 3 minutes 16 seconds 444 msec
