                         Program Version 6.0.0  -   RELEASE  -
|  1> ! wb97x-v def2-tzvp def2/J RIJCOSX DEFGRID2 scfconv7 GCP(DFT/TZ) printgap
|  2> %output
|  3>     printlevel normal
|  4> end
|  5> %cpcm
|  6>     smd true
|  7>     smdsolvent "water"
|  8> end
|  9> * xyz 0 1
| 10> C 1.9008285654638273 -1.4667977657442233 2.3886665640008554e-05
| 11> C 2.5862860527662366 -0.24297343311437783 7.661845706076688e-05
| 12> C 1.9025269706794044 0.9570613933081707 5.873287035342777e-05
| 13> C 0.5030999102597826 0.9792093850639972 -2.1042441978393127e-05
| 14> C -0.18083391286966471 -0.2614642623882412 -7.0994618602469e-05
| 15> C 0.5235602131119605 -1.4740618897994135 -5.906762041137426e-05
| 16> N -1.615500407711291 -0.31258728955474896 1.979797532879847e-05
| 17> O -2.185216519082291 -1.4008624979786612 3.4482921642527825e-05
| 18> O -2.252487763317141 0.7645385656713576 2.3445458282620718e-05
| 19> O -0.09915727013457731 2.1805047800413533 -4.5051380119632e-07
| 20> H 2.4484050551323415 -2.401918898934476 6.403458955232635e-05
| 21> H 3.6713055559697216 -0.23350178548009243 0.00014508096096918694
| 22> H 2.427238514299077 1.9063017618520204 0.00011862835679201323
| 23> H -0.031964489452049966 -2.403376995278348 -7.60780562660472e-05
| 24> H -1.0700930063776737 2.016445074739412 -3.0819173083025516e-05
| 25> *
| 26>
| 27>                          ****END OF INPUT****

CARTESIAN COORDINATES (ANGSTROEM)
---------------------------------
  C      1.900829   -1.466798    0.000024
  C      2.586286   -0.242973    0.000077
  C      1.902527    0.957061    0.000059
  C      0.503100    0.979209   -0.000021
  C     -0.180834   -0.261464   -0.000071
  C      0.523560   -1.474062   -0.000059
  N     -1.615500   -0.312587    0.000020
  O     -2.185217   -1.400862    0.000034
  O     -2.252488    0.764539    0.000023
  O     -0.099157    2.180505   -0.000000
  H      2.448405   -2.401919    0.000064
  H      3.671306   -0.233502    0.000145
  H      2.427239    1.906302    0.000119
  H     -0.031964   -2.403377   -0.000076
  H     -1.070093    2.016445   -0.000031

 Total Charge           Charge          ....    0
 Multiplicity           Mult            ....    1
 Number of Electrons    NEL             ....   72
 Basis Dimension        Dim             ....  340

ORBITAL ENERGIES
----------------

  NO   OCC          E(Eh)            E(eV)
   0   2.0000     -21.726819      -591.2168
   1   2.0000     -21.726146      -591.1985
   2   2.0000     -21.715122      -590.8985
   3   2.0000     -16.792880      -456.9575
   4   2.0000     -12.150145      -330.6222
   5   2.0000     -12.117035      -329.7213
   6   2.0000     -12.077995      -328.6589
   7   2.0000     -12.074252      -328.5571
   8   2.0000     -12.060732      -328.1892
   9   2.0000     -12.058300      -328.1230
  10   2.0000      -1.914207       -52.0882
  11   2.0000      -1.759442       -47.8768
  12   2.0000      -1.739652       -47.3383
  13   2.0000      -1.445356       -39.3301
  14   2.0000      -1.376639       -37.4602
  15   2.0000      -1.303770       -35.4774
  16   2.0000      -1.272938       -34.6384
  17   2.0000      -1.206258       -32.8239
  18   2.0000      -1.167051       -31.7571
  19   2.0000      -1.150546       -31.3079
  20   2.0000      -1.126503       -30.6537
  21   2.0000      -1.090436       -29.6723
  22   2.0000      -1.067198       -29.0399
  23   2.0000      -1.030531       -28.0422
  24   2.0000      -0.964490       -26.2451
  25   2.0000      -0.962957       -26.2034
  26   2.0000      -0.950646       -25.8684
  27   2.0000      -0.940441       -25.5907
  28   2.0000      -0.929981       -25.3061
  29   2.0000      -0.917823       -24.9752
  30   2.0000      -0.900470       -24.5030
  31   2.0000      -0.855623       -23.2827
  32   2.0000      -0.834297       -22.7024
  33   2.0000      -0.795912       -21.6579
  34   2.0000      -0.684587       -18.6285
  35   2.0000      -0.655809       -17.8455
  36   0.0000      -0.499487       -13.5917
  37   0.0000      -0.266421        -7.2497
  38   0.0000      -0.253702        -6.9036
  39   0.0000      -0.249674        -6.7940
  40   0.0000      -0.166939        -4.5426

MULLIKEN ATOMIC CHARGES
-----------------------
   0 C :   -0.168569
   1 C :   -0.095995
   2 C :   -0.242669
   3 C :    0.221389
   4 C :    0.055082
   5 C :   -0.171818
   6 N :    0.511063
   7 O :   -0.367782
   8 O :   -0.415116
   9 O :   -0.412153
  10 H :    0.172426
  11 H :    0.175587
  12 H :    0.168536
  13 H :    0.188933
  14 H :    0.381086
Sum of atomic charges:    0.0000000

LOEWDIN ATOMIC CHARGES
----------------------
   0 C :   -0.144335
   1 C :   -0.093739
   2 C :   -0.112888
   3 C :   -0.223149
   4 C :   -0.157534
   5 C :   -0.083837
   6 N :    0.024098
   7 O :   -0.053827
   8 O :   -0.086607
   9 O :    0.095923
  10 H :    0.157213
  11 H :    0.161526
  12 H :    0.162611
  13 H :    0.165467
  14 H :    0.189078

  Mayer bond orders larger than 0.100000
B(  0-C ,  1-C ) :   1.3343 B(  0-C ,  5-C ) :   1.5148 B(  0-C , 10-H ) :   0.9719
B(  1-C ,  2-C ) :   1.4783 B(  1-C , 11-H ) :   0.9678 B(  2-C ,  3-C ) :   1.3618
B(  2-C , 12-H ) :   0.9711 B(  3-C ,  4-C ) :   1.2422 B(  3-C ,  9-O ) :   1.2564
B(  4-C ,  5-C ) :   1.2706 B(  4-C ,  6-N ) :   1.0585 B(  5-C , 13-H ) :   0.9381
B(  6-N ,  7-O ) :   1.6150 B(  6-N ,  8-O ) :   1.4752 B(  7-O ,  8-O ) :   0.1709
B(  9-O , 14-H ) :   0.7805

FINAL SINGLE POINT ENERGY      -512.021617777168

DIPOLE MOMENT
-------------

Method             : SCF
Type of density    : Electron Density
Multiplicity       :   1
Irrep              :   0
Energy             :  -512.0302799179676185 Eh
Relativity type    :
Basis              : AO
                                X                 Y                 Z
Electronic contribution:     -4.941556870       0.713035897      -0.000159906
Nuclear contribution   :      6.936025277      -1.062641256       0.000156447
                        -----------------------------------------
Total Dipole Moment    :      1.994468407      -0.349605359      -0.000003459
                        -----------------------------------------
Magnitude (a.u.)       :      2.024877313
Magnitude (Debye)      :      5.146829104

Rotational constants in cm-1:             0.078917             0.042683             0.027701
Rotational constants in MHz :          2365.860928          1279.607715           830.448481

                             ****ORCA TERMINATED NORMALLY****
TOTAL RUN TIME: 0 days 0 hours 3 minutes 14 seconds 774 msec
