                         Program Version 6.0.0  -   RELEASE  -
|  1> ! pbe def2-sv(p) def2/J RI DEFGRID1 loosescf d4 GCP(DFT/SV(P)) printgap
|  2> %output
|  3>     printlevel normal
|  4> end
|  5> * xyz 0 1
|  6> C -2.1042903694 -0.5551668622 -0.7107317823
|  7> C -1.3563085675 -0.3219525736 0.6055947281
|  8> C -0.0082887245 0.2817252602 0.3113281186
|  9> O 0.2472315184 1.4674769978 0.3536385215
| 10> O 0.8696167747 -0.6456080735 -0.0494920236
| 11> C 2.1879919974 -0.2338823632 -0.4210733677
| 12> H -1.5512266063 -1.2466543667 -1.3408560735
| 13> H -3.0850479464 -0.9729217614 -0.5049958702
| 14> H -2.2290016776 0.3834676154 -1.2453681706
| 15> H -1.2114456117 -1.2705154285 1.1207788799
| 16> H -1.9135902815 0.3691832705 1.2367147472
| 17> H 2.1631037775 0.780868864 -0.8200382668
| 18> H 2.5293702585 -0.9424624685 -1.1705077858
| 19> H 2.8330021913 -0.2650328741 0.4570079415
| 20> *
| 21>
| 22>                          ****END OF INPUT****

CARTESIAN COORDINATES (ANGSTROEM)
---------------------------------
  C     -2.104290   -0.555167   -0.710732
  C     -1.356309   -0.321953    0.605595
  C     -0.008289    0.281725    0.311328
  O      0.247232    1.467477    0.353639
  O      0.869617   -0.645608   -0.049492
  C      2.187992   -0.233882   -0.421073
  H     -1.551227   -1.246654   -1.340856
  H     -3.085048   -0.972922   -0.504996
  H     -2.229002    0.383468   -1.245368
  H     -1.211446   -1.270515    1.120779
  H     -1.913590    0.369183    1.236715
  H      2.163104    0.780869   -0.820038
  H      2.529370   -0.942462   -1.170508
  H      2.833002   -0.265033    0.457008

 Total Charge           Charge          ....    0
 Multiplicity           Mult            ....    1
 Number of Electrons    NEL             ....   48
 Basis Dimension        Dim             ....  100

ORBITAL ENERGIES
----------------

  NO   OCC          E(Eh)            E(eV)
   0   2.0000     -18.799385      -511.5573
   1   2.0000     -18.730065      -509.6710
   2   2.0000     -10.004066      -272.2245
   3   2.0000      -9.940909      -270.5059
   4   2.0000      -9.898858      -269.3616
   5   2.0000      -9.888323      -269.0749
   6   2.0000      -1.004747       -27.3406
   7   2.0000      -0.907401       -24.6916
   8   2.0000      -0.716859       -19.5067
   9   2.0000      -0.656879       -17.8746
  10   2.0000      -0.575283       -15.6542
  11   2.0000      -0.506870       -13.7926
  12   2.0000      -0.449403       -12.2289
  13   2.0000      -0.432138       -11.7591
  14   2.0000      -0.422818       -11.5055
  15   2.0000      -0.389446       -10.5974
  16   2.0000      -0.382108       -10.3977
  17   2.0000      -0.362654        -9.8683
  18   2.0000      -0.335805        -9.1377
  19   2.0000      -0.318556        -8.6683
  20   2.0000      -0.315042        -8.5727
  21   2.0000      -0.296783        -8.0759
  22   2.0000      -0.255755        -6.9595
  23   2.0000      -0.215426        -5.8620
  24   0.0000      -0.018582        -0.5056
  25   0.0000       0.044742         1.2175
  26   0.0000       0.063714         1.7337
  27   0.0000       0.089440         2.4338
  28   0.0000       0.090316         2.4576

MULLIKEN ATOMIC CHARGES
-----------------------
   0 C :   -0.303975
   1 C :   -0.133275
   2 C :    0.090926
   3 O :   -0.208980
   4 O :   -0.246223
   5 C :   -0.121276
   6 H :    0.112987
   7 H :    0.116284
   8 H :    0.116320
   9 H :    0.102417
  10 H :    0.105210
  11 H :    0.128354
  12 H :    0.120754
  13 H :    0.120478
Sum of atomic charges:    0.0000000

LOEWDIN ATOMIC CHARGES
----------------------
   0 C :   -0.330840
   1 C :   -0.248669
   2 C :    0.034391
   3 O :   -0.171673
   4 O :   -0.076783
   5 C :   -0.206359
   6 H :    0.122370
   7 H :    0.123959
   8 H :    0.125182
   9 H :    0.131878
  10 H :    0.134388
  11 H :    0.122490
  12 H :    0.120126
  13 H :    0.119539

  Mayer bond orders larger than 0.100000
B(  0-C ,  1-C ) :   1.1396 B(  0-C ,  6-H ) :   0.9542 B(  0-C ,  7-H ) :   0.9524
B(  0-C ,  8-H ) :   0.9534 B(  1-C ,  2-C ) :   1.0244 B(  1-C ,  9-H ) :   0.9071
B(  1-C , 10-H ) :   0.9131 B(  2-C ,  3-O ) :   2.0689 B(  2-C ,  4-O ) :   1.1987
B(  4-O ,  5-C ) :   0.9382 B(  5-C , 11-H ) :   0.9359 B(  5-C , 12-H ) :   0.9605
B(  5-C , 13-H ) :   0.9604

Dispersion correction           -0.009166369
FINAL SINGLE POINT ENERGY      -307.025524434907

DIPOLE MOMENT
-------------

Method             : SCF
Type of density    : Electron Density
Multiplicity       :   1
Irrep              :   0
Energy             :  -307.0797717890349077 Eh
Relativity type    :
Basis              : AO
                                X                 Y                 Z
Electronic contribution:      2.422510180       2.241425089       1.928509969
Nuclear contribution   :     -2.295853409      -2.956235091      -2.122569188
                        -----------------------------------------
Total Dipole Moment    :      0.126656770      -0.714810002      -0.194059219
                        -----------------------------------------
Magnitude (a.u.)       :      0.751434799
Magnitude (Debye)      :      1.909995470

Rotational constants in cm-1:             0.219330             0.081514             0.068146
Rotational constants in MHz :          6575.361037          2443.720417          2042.963439

                             ****ORCA TERMINATED NORMALLY****
TOTAL RUN TIME: 0 days 0 hours 0 minutes 7 seconds 82 msec
