                         Program Version 6.0.0  -   RELEASE  -
|  1> ! r2scan-3c def2/J RI DEFGRID2 scfconv6 printgap
|  2> %output
|  3>     printlevel normal
|  4> end
|  5> * xyz 0 1
|  6> C -3.3745364979 0.6177727447 0.0007198235
|  7> O -1.9540520839 0.760744504 0.0005957074
|  8> C -1.2316239002 -0.3593416725 -0.0003496249
|  9> O -1.7407046758 -1.4665318218 -0.0010555141
| 10> C 0.2239622002 -0.1134666166 -0.0002138118
| 11> C 1.0842194163 -1.2107493931 0.0004469732
| 12> C 2.4521891992 -1.0172043087 0.0007111156
| 13> C 2.9683364441 0.2697969538 0.0002552879
| 14> C 2.1161764709 1.363983256 -0.0004796063
| 15> C 0.746386087 1.1790995107 -0.0006965234
| 16> H -3.7698468759 1.6285892819 0.007897765
| 17> H -3.694321384 0.0641227567 0.8846404442
| 18> H -3.6956077442 0.0764114045 -0.8903117664
| 19> H 0.6552581181 -2.2015921157 0.0007839142
| 20> H 3.1154027331 -1.86796666 0.0012834098
| 21> H 4.0367970459 0.4202213156 0.0004655718
| 22> H 2.521709162 2.3636350782 -0.0008796447
| 23> H 0.0743256442 2.0222433152 -0.0012716022
| 24> *
| 25>
| 26>                          ****END OF INPUT****

CARTESIAN COORDINATES (ANGSTROEM)
---------------------------------
  C     -3.374536    0.617773    0.000720
  O     -1.954052    0.760745    0.000596
  C     -1.231624   -0.359342   -0.000350
  O     -1.740705   -1.466532   -0.001056
  C      0.223962   -0.113467   -0.000214
  C      1.084219   -1.210749    0.000447
  C      2.452189   -1.017204    0.000711
  C      2.968336    0.269797    0.000255
  C      2.116176    1.363983   -0.000480
  C      0.746386    1.179100   -0.000697
  H     -3.769847    1.628589    0.007898
  H     -3.694321    0.064123    0.884640
  H     -3.695608    0.076411   -0.890312
  H      0.655258   -2.201592    0.000784
  H      3.115403   -1.867967    0.001283
  H      4.036797    0.420221    0.000466
  H      2.521709    2.363635   -0.000880
  H      0.074326    2.022243   -0.001272

 Total Charge           Charge          ....    0
 Multiplicity           Mult            ....    1
 Number of Electrons    NEL             ....   72
 Basis Dimension        Dim             ....  240

ORBITAL ENERGIES
----------------

  NO   OCC          E(Eh)            E(eV)
   0   2.0000     -19.002103      -517.0735
   1   2.0000     -18.931007      -515.1389
   2   2.0000     -10.156995      -276.3859
   3   2.0000     -10.088853      -274.5316
   4   2.0000     -10.055723      -273.6301
   5   2.0000     -10.049007      -273.4474
   6   2.0000     -10.048326      -273.4289
   7   2.0000     -10.046404      -273.3766
   8   2.0000     -10.045774      -273.3594
   9   2.0000     -10.045269      -273.3457
  10   2.0000      -1.075542       -29.2670
  11   2.0000      -0.977070       -26.5874
  12   2.0000      -0.839904       -22.8549
  13   2.0000      -0.749704       -20.4005
  14   2.0000      -0.728272       -19.8173
  15   2.0000      -0.696125       -18.9425
  16   2.0000      -0.604961       -16.4618
  17   2.0000      -0.585067       -15.9205
  18   2.0000      -0.540116       -14.6973
  19   2.0000      -0.511813       -13.9271
  20   2.0000      -0.462409       -12.5828
  21   2.0000      -0.454521       -12.3681
  22   2.0000      -0.448294       -12.1987
  23   2.0000      -0.425573       -11.5804
  24   2.0000      -0.413874       -11.2621
  25   2.0000      -0.401305       -10.9201
  26   2.0000      -0.390590       -10.6285
  27   2.0000      -0.380399       -10.3512
  28   2.0000      -0.345350        -9.3974
  29   2.0000      -0.336610        -9.1596
  30   2.0000      -0.329135        -8.9562
  31   2.0000      -0.316699        -8.6178
  32   2.0000      -0.277220        -7.5436
  33   2.0000      -0.249317        -6.7843
  34   2.0000      -0.247631        -6.7384
  35   2.0000      -0.241925        -6.5831
  36   0.0000      -0.077023        -2.0959
  37   0.0000      -0.041135        -1.1193
  38   0.0000       0.025275         0.6878
  39   0.0000       0.061294         1.6679
  40   0.0000       0.091192         2.4815

MULLIKEN ATOMIC CHARGES
-----------------------
   0 C :   -0.290927
   1 O :   -0.168672
   2 C :    0.352562
   3 O :   -0.426571
   4 C :    0.105422
   5 C :   -0.227830
   6 C :   -0.152763
   7 C :   -0.114419
   8 C :   -0.150438
   9 C :   -0.201396
  10 H :    0.150535
  11 H :    0.163000
  12 H :    0.162644
  13 H :    0.181804
  14 H :    0.148269
  15 H :    0.148866
  16 H :    0.147733
  17 H :    0.172181
Sum of atomic charges:   -0.0000000

LOEWDIN ATOMIC CHARGES
----------------------
   0 C :   -0.039985
   1 O :   -0.610471
   2 C :    0.382702
   3 O :   -0.431089
   4 C :   -0.033674
   5 C :   -0.105571
   6 C :   -0.159509
   7 C :   -0.144418
   8 C :   -0.161778
   9 C :   -0.113687
  10 H :    0.176154
  11 H :    0.178032
  12 H :    0.177825
  13 H :    0.190317
  14 H :    0.169798
  15 H :    0.168513
  16 H :    0.168996
  17 H :    0.187844

  Mayer bond orders larger than 0.100000
B(  0-C ,  1-O ) :   0.8406 B(  0-C , 10-H ) :   0.9709 B(  0-C , 11-H ) :   0.9615
B(  0-C , 12-H ) :   0.9613 B(  1-O ,  2-C ) :   1.1635 B(  1-O ,  4-C ) :  -0.1213
B(  2-C ,  3-O ) :   1.8543 B(  2-C ,  4-C ) :   1.0139 B(  4-C ,  5-C ) :   1.4688
B(  4-C ,  9-C ) :   1.3848 B(  5-C ,  6-C ) :   1.3763 B(  5-C , 13-H ) :   0.9422
B(  6-C ,  7-C ) :   1.3995 B(  6-C , 14-H ) :   0.9549 B(  7-C ,  8-C ) :   1.4063
B(  7-C , 15-H ) :   0.9458 B(  8-C ,  9-C ) :   1.3822 B(  8-C , 16-H ) :   0.9518
B(  9-C , 17-H ) :   0.9509

Dispersion correction           -0.005885545
FINAL SINGLE POINT ENERGY      -460.026043172180

DIPOLE MOMENT
-------------

Method             : SCF
Type of density    : Electron Density
Multiplicity       :   1
Irrep              :   0
Energy             :  -460.0285582350383606 Eh
Relativity type    :
Basis              : AO
                                X                 Y                 Z
Electronic contribution:      1.019532772      -1.562854727      -0.001655002
Nuclear contribution   :     -0.764247622       2.340287635       0.002440025
                        -----------------------------------------
Total Dipole Moment    :      0.255285150       0.777432908       0.000785024
                        -----------------------------------------
Magnitude (a.u.)       :      0.818274435
Magnitude (Debye)      :      2.079888321

Rotational constants in cm-1:             0.118285             0.028365             0.022978
Rotational constants in MHz :          3546.080399           850.360985           688.853049

                             ****ORCA TERMINATED NORMALLY****
TOTAL RUN TIME: 0 days 0 hours 0 minutes 24 seconds 58 msec
