                         Program Version 6.0.0  -   RELEASE  -
|  1> ! r2scan-3c def2/J RI DEFGRID2 scfconv6 printgap
|  2> %output
|  3>     printlevel normal
|  4> end
|  5> %cpcm
|  6>     smd true
|  7>     smdsolvent "water"
|  8> end
|  9> * xyz 0 1
| 10> C -3.3745364979 0.6177727447 0.0007198235
| 11> O -1.9540520839 0.760744504 0.0005957074
| 12> C -1.2316239002 -0.3593416725 -0.0003496249
| 13> O -1.7407046758 -1.4665318218 -0.0010555141
| 14> C 0.2239622002 -0.1134666166 -0.0002138118
| 15> C 1.0842194163 -1.2107493931 0.0004469732
| 16> C 2.4521891992 -1.0172043087 0.0007111156
| 17> C 2.9683364441 0.2697969538 0.0002552879
| 18> C 2.1161764709 1.363983256 -0.0004796063
| 19> C 0.746386087 1.1790995107 -0.0006965234
| 20> H -3.7698468759 1.6285892819 0.007897765
| 21> H -3.694321384 0.0641227567 0.8846404442
| 22> H -3.6956077442 0.0764114045 -0.8903117664
| 23> H 0.6552581181 -2.2015921157 0.0007839142
| 24> H 3.1154027331 -1.86796666 0.0012834098
| 25> H 4.0367970459 0.4202213156 0.0004655718
| 26> H 2.521709162 2.3636350782 -0.0008796447
| 27> H 0.0743256442 2.0222433152 -0.0012716022
| 28> *
| 29>
| 30>                          ****END OF INPUT****

CARTESIAN COORDINATES (ANGSTROEM)
---------------------------------
  C     -3.374536    0.617773    0.000720
  O     -1.954052    0.760745    0.000596
  C     -1.231624   -0.359342   -0.000350
  O     -1.740705   -1.466532   -0.001056
  C      0.223962   -0.113467   -0.000214
  C      1.084219   -1.210749    0.000447
  C      2.452189   -1.017204    0.000711
  C      2.968336    0.269797    0.000255
  C      2.116176    1.363983   -0.000480
  C      0.746386    1.179100   -0.000697
  H     -3.769847    1.628589    0.007898
  H     -3.694321    0.064123    0.884640
  H     -3.695608    0.076411   -0.890312
  H      0.655258   -2.201592    0.000784
  H      3.115403   -1.867967    0.001283
  H      4.036797    0.420221    0.000466
  H      2.521709    2.363635   -0.000880
  H      0.074326    2.022243   -0.001272

 Total Charge           Charge          ....    0
 Multiplicity           Mult            ....    1
 Number of Electrons    NEL             ....   72
 Basis Dimension        Dim             ....  240

ORBITAL ENERGIES
----------------

  NO   OCC          E(Eh)            E(eV)
   0   2.0000     -19.005993      -517.1794
   1   2.0000     -18.945957      -515.5457
   2   2.0000     -10.168627      -276.7024
   3   2.0000     -10.078164      -274.2408
   4   2.0000     -10.056469      -273.6504
   5   2.0000     -10.046455      -273.3779
   6   2.0000     -10.045956      -273.3644
   7   2.0000     -10.044883      -273.3352
   8   2.0000     -10.041610      -273.2461
   9   2.0000     -10.041470      -273.2423
  10   2.0000      -1.082044       -29.4439
  11   2.0000      -0.990096       -26.9419
  12   2.0000      -0.839450       -22.8426
  13   2.0000      -0.749228       -20.3875
  14   2.0000      -0.726177       -19.7603
  15   2.0000      -0.691938       -18.8286
  16   2.0000      -0.602800       -16.4030
  17   2.0000      -0.582027       -15.8378
  18   2.0000      -0.537556       -14.6276
  19   2.0000      -0.511062       -13.9067
  20   2.0000      -0.463853       -12.6221
  21   2.0000      -0.455507       -12.3950
  22   2.0000      -0.452122       -12.3029
  23   2.0000      -0.421974       -11.4825
  24   2.0000      -0.418096       -11.3770
  25   2.0000      -0.397373       -10.8131
  26   2.0000      -0.386422       -10.5151
  27   2.0000      -0.381008       -10.3677
  28   2.0000      -0.347711        -9.4617
  29   2.0000      -0.332651        -9.0519
  30   2.0000      -0.327897        -8.9225
  31   2.0000      -0.314213        -8.5502
  32   2.0000      -0.283963        -7.7270
  33   2.0000      -0.258611        -7.0372
  34   2.0000      -0.250121        -6.8061
  35   2.0000      -0.248630        -6.7656
  36   0.0000      -0.081270        -2.2115
  37   0.0000      -0.040623        -1.1054
  38   0.0000       0.020984         0.5710
  39   0.0000       0.065201         1.7742
  40   0.0000       0.099502         2.7076

MULLIKEN ATOMIC CHARGES
-----------------------
   0 C :   -0.324309
   1 O :   -0.176084
   2 C :    0.396191
   3 O :   -0.502355
   4 C :    0.109411
   5 C :   -0.250148
   6 C :   -0.197524
   7 C :   -0.132278
   8 C :   -0.189527
   9 C :   -0.214715
  10 H :    0.179746
  11 H :    0.179032
  12 H :    0.179110
  13 H :    0.195509
  14 H :    0.183048
  15 H :    0.185519
  16 H :    0.183272
  17 H :    0.196102
Sum of atomic charges:   -0.0000000

LOEWDIN ATOMIC CHARGES
----------------------
   0 C :   -0.036932
   1 O :   -0.607958
   2 C :    0.389224
   3 O :   -0.489827
   4 C :   -0.045515
   5 C :   -0.116607
   6 C :   -0.161780
   7 C :   -0.142253
   8 C :   -0.162620
   9 C :   -0.115716
  10 H :    0.188925
  11 H :    0.183366
  12 H :    0.183288
  13 H :    0.193013
  14 H :    0.182112
  15 H :    0.181561
  16 H :    0.181843
  17 H :    0.195875

  Mayer bond orders larger than 0.100000
B(  0-C ,  1-O ) :   0.8215 B(  0-C , 10-H ) :   0.9602 B(  0-C , 11-H ) :   0.9560
B(  0-C , 12-H ) :   0.9558 B(  1-O ,  2-C ) :   1.1807 B(  1-O ,  4-C ) :  -0.1068
B(  2-C ,  3-O ) :   1.8010 B(  2-C ,  4-C ) :   1.0186 B(  4-C ,  5-C ) :   1.3962
B(  4-C ,  9-C ) :   1.3369 B(  5-C ,  6-C ) :   1.3746 B(  5-C , 13-H ) :   0.9514
B(  6-C ,  7-C ) :   1.3744 B(  6-C , 14-H ) :   0.9597 B(  7-C ,  8-C ) :   1.3761
B(  7-C , 15-H ) :   0.9484 B(  8-C ,  9-C ) :   1.3702 B(  8-C , 16-H ) :   0.9582
B(  9-C , 17-H ) :   0.9589

Dispersion correction           -0.005885545
FINAL SINGLE POINT ENERGY      -460.031724247301

DIPOLE MOMENT
-------------

Method             : SCF
Type of density    : Electron Density
Multiplicity       :   1
Irrep              :   0
Energy             :  -460.0342393101593075 Eh
Relativity type    :
Basis              : AO
                                X                 Y                 Z
Electronic contribution:      1.247783754      -1.180458055      -0.001426390
Nuclear contribution   :     -0.764247622       2.340287635       0.002440025
                        -----------------------------------------
Total Dipole Moment    :      0.483536132       1.159829580       0.001013636
                        -----------------------------------------
Magnitude (a.u.)       :      1.256587790
Magnitude (Debye)      :      3.193992330

Rotational constants in cm-1:             0.118285             0.028365             0.022978
Rotational constants in MHz :          3546.080399           850.360985           688.853049

                             ****ORCA TERMINATED NORMALLY****
TOTAL RUN TIME: 0 days 0 hours 0 minutes 30 seconds 536 msec
