                         Program Version 6.0.0  -   RELEASE  -
|  1> ! pbe def2-sv(p) def2/J RI DEFGRID1 loosescf d4 GCP(DFT/SV(P)) printgap
|  2> %output
|  3>     printlevel normal
|  4> end
|  5> * xyz 0 1
|  6> C 3.3573322739 -0.0689168049 0.1721618995
|  7> N 1.9296896228 -0.2800467723 0.2754206633
|  8> C 1.4805758579 -1.398964957 1.080868436
|  9> C 1.0738317694 0.5283701717 -0.3600473134
| 10> O 1.4338745297 1.4808643297 -1.0592901097
| 11> C -0.3791951314 0.2134484595 -0.1741039361
| 12> C -1.0416021321 -0.5900007743 -1.0932924811
| 13> C -2.3939647729 -0.8445205901 -0.9427335024
| 14> C -3.0902679372 -0.2952870809 0.1208974513
| 15> C -2.4345513968 0.516062177 1.0319046163
| 16> C -1.0822103675 0.7721891747 0.8859835209
| 17> H 3.524785807 0.8008198187 -0.4606821576
| 18> H 3.8350157685 -0.9404293741 -0.2761650334
| 19> H 3.7818750495 0.1140366098 1.1595445179
| 20> H 0.8564769358 -1.057637304 1.9072472368
| 21> H 2.3534617049 -1.9059385971 1.4812440559
| 22> H 0.9038595543 -2.1027989596 0.4798043454
| 23> H -0.4956968636 -1.0080464033 -1.9265465096
| 24> H -2.9036388066 -1.4705755843 -1.6589814553
| 25> H -4.1444268498 -0.4948204948 0.2367081725
| 26> H -2.9759326403 0.9522858994 1.857329461
| 27> H -0.5681868238 1.4120198396 1.5885013934
| 28> *
| 29>
| 30>                          ****END OF INPUT****

CARTESIAN COORDINATES (ANGSTROEM)
---------------------------------
  C      3.357332   -0.068917    0.172162
  N      1.929690   -0.280047    0.275421
  C      1.480576   -1.398965    1.080868
  C      1.073832    0.528370   -0.360047
  O      1.433875    1.480864   -1.059290
  C     -0.379195    0.213448   -0.174104
  C     -1.041602   -0.590001   -1.093292
  C     -2.393965   -0.844521   -0.942734
  C     -3.090268   -0.295287    0.120897
  C     -2.434551    0.516062    1.031905
  C     -1.082210    0.772189    0.885984
  H      3.524786    0.800820   -0.460682
  H      3.835016   -0.940429   -0.276165
  H      3.781875    0.114037    1.159545
  H      0.856477   -1.057637    1.907247
  H      2.353462   -1.905939    1.481244
  H      0.903860   -2.102799    0.479804
  H     -0.495697   -1.008046   -1.926547
  H     -2.903639   -1.470576   -1.658981
  H     -4.144427   -0.494820    0.236708
  H     -2.975933    0.952286    1.857329
  H     -0.568187    1.412020    1.588501

 Total Charge           Charge          ....    0
 Multiplicity           Mult            ....    1
 Number of Electrons    NEL             ....   80
 Basis Dimension        Dim             ....  176

ORBITAL ENERGIES
----------------

  NO   OCC          E(Eh)            E(eV)
   0   2.0000     -18.705944      -509.0146
   1   2.0000     -14.026518      -381.6810
   2   2.0000      -9.974986      -271.4332
   3   2.0000      -9.925323      -270.0818
   4   2.0000      -9.915682      -269.8194
   5   2.0000      -9.905694      -269.5476
   6   2.0000      -9.898650      -269.3560
   7   2.0000      -9.898406      -269.3493
   8   2.0000      -9.897518      -269.3252
   9   2.0000      -9.897370      -269.3211
  10   2.0000      -9.896076      -269.2859
  11   2.0000      -0.926739       -25.2179
  12   2.0000      -0.847883       -23.0721
  13   2.0000      -0.781710       -21.2714
  14   2.0000      -0.691954       -18.8290
  15   2.0000      -0.675847       -18.3907
  16   2.0000      -0.655466       -17.8361
  17   2.0000      -0.632852       -17.2208
  18   2.0000      -0.553701       -15.0670
  19   2.0000      -0.549025       -14.9397
  20   2.0000      -0.498335       -13.5604
  21   2.0000      -0.479050       -13.0356
  22   2.0000      -0.440972       -11.9995
  23   2.0000      -0.435022       -11.8375
  24   2.0000      -0.418149       -11.3784
  25   2.0000      -0.408285       -11.1100
  26   2.0000      -0.395114       -10.7516
  27   2.0000      -0.380519       -10.3544
  28   2.0000      -0.369595       -10.0572
  29   2.0000      -0.367272        -9.9940
  30   2.0000      -0.349912        -9.5216
  31   2.0000      -0.342349        -9.3158
  32   2.0000      -0.328793        -8.9469
  33   2.0000      -0.324334        -8.8256
  34   2.0000      -0.311652        -8.4805
  35   2.0000      -0.301421        -8.2021
  36   2.0000      -0.236930        -6.4472
  37   2.0000      -0.235136        -6.3984
  38   2.0000      -0.201978        -5.4961
  39   2.0000      -0.189355        -5.1526
  40   0.0000      -0.041108        -1.1186
  41   0.0000      -0.040598        -1.1047
  42   0.0000      -0.003616        -0.0984
  43   0.0000       0.032486         0.8840
  44   0.0000       0.045494         1.2380

MULLIKEN ATOMIC CHARGES
-----------------------
   0 C :   -0.185559
   1 N :   -0.240693
   2 C :   -0.146594
   3 C :    0.125310
   4 O :   -0.238137
   5 C :   -0.007428
   6 C :   -0.075800
   7 C :   -0.049755
   8 C :   -0.044398
   9 C :   -0.049704
  10 C :   -0.076593
  11 H :    0.142509
  12 H :    0.111769
  13 H :    0.111604
  14 H :    0.119335
  15 H :    0.118161
  16 H :    0.120042
  17 H :    0.050817
  18 H :    0.054744
  19 H :    0.055409
  20 H :    0.054507
  21 H :    0.050453
Sum of atomic charges:    0.0000000

LOEWDIN ATOMIC CHARGES
----------------------
   0 C :   -0.255875
   1 N :   -0.049409
   2 C :   -0.249300
   3 C :    0.027052
   4 O :   -0.204133
   5 C :   -0.053252
   6 C :   -0.111435
   7 C :   -0.118823
   8 C :   -0.123816
   9 C :   -0.118950
  10 C :   -0.112706
  11 H :    0.136934
  12 H :    0.116582
  13 H :    0.116590
  14 H :    0.123919
  15 H :    0.124565
  16 H :    0.124467
  17 H :    0.126704
  18 H :    0.125138
  19 H :    0.124557
  20 H :    0.125062
  21 H :    0.126127

  Mayer bond orders larger than 0.100000
B(  0-C ,  1-N ) :   1.0002 B(  0-C , 11-H ) :   0.9283 B(  0-C , 12-H ) :   0.9533
B(  0-C , 13-H ) :   0.9532 B(  1-N ,  2-C ) :   1.0049 B(  1-N ,  3-C ) :   1.2164
B(  1-N ,  4-O ) :   0.1077 B(  2-C , 14-H ) :   0.9457 B(  2-C , 15-H ) :   0.9475
B(  2-C , 16-H ) :   0.9462 B(  3-C ,  4-O ) :   2.0333 B(  3-C ,  5-C ) :   0.8881
B(  5-C ,  6-C ) :   1.4049 B(  5-C , 10-C ) :   1.4021 B(  6-C ,  7-C ) :   1.3662
B(  6-C , 17-H ) :   0.9637 B(  7-C ,  8-C ) :   1.3780 B(  7-C , 18-H ) :   0.9645
B(  8-C ,  9-C ) :   1.3780 B(  8-C , 19-H ) :   0.9656 B(  9-C , 10-C ) :   1.3678
B(  9-C , 20-H ) :   0.9644 B( 10-C , 21-H ) :   0.9620

Dispersion correction           -0.024238011
FINAL SINGLE POINT ENERGY      -478.518647720225

DIPOLE MOMENT
-------------

Method             : SCF
Type of density    : Electron Density
Multiplicity       :   1
Irrep              :   0
Energy             :  -478.5842774627848257 Eh
Relativity type    :
Basis              : AO
                                X                 Y                 Z
Electronic contribution:     -3.907839906       4.122169234      -3.207606234
Nuclear contribution   :      3.941740185      -5.328177859       4.102506876
                        -----------------------------------------
Total Dipole Moment    :      0.033900279      -1.206008625       0.894900643
                        -----------------------------------------
Magnitude (a.u.)       :      1.502149524
Magnitude (Debye)      :      3.818160655

Rotational constants in cm-1:             0.081269             0.023436             0.022591
Rotational constants in MHz :          2436.381446           702.597436           677.270977

                             ****ORCA TERMINATED NORMALLY****
TOTAL RUN TIME: 0 days 0 hours 0 minutes 13 seconds 556 msec
