                         Program Version 6.0.0  -   RELEASE  -
|  1> ! pbe def2-sv(p) def2/J RI DEFGRID1 loosescf d4 GCP(DFT/SV(P)) printgap
|  2> %output
|  3>     printlevel normal
|  4> end
|  5> * xyz 0 1
|  6> C -2.4786625467 -1.0901852913 0.3329437172
|  7> C -1.049201038 -0.5761699871 0.5653867933
|  8> H -0.8559986924 -0.5118183595 1.6482430826
|  9> C -0.8108861865 0.8074146686 -0.0608493419
| 10> H -0.9416933495 0.7174535715 -1.1475582744
| 11> C 0.631136475 1.2559409842 0.2117427006
| 12> H 0.7612149703 1.4132731498 1.2939756041
| 13> C 1.6214189318 0.1813316175 -0.2418674155
| 14> H 1.6265332067 0.1573891628 -1.3404275992
| 15> C 1.1970726646 -1.2077521682 0.2735590362
| 16> H 1.3478111262 -1.2192645255 1.3759910905
| 17> O -0.1483123854 -1.5077441516 -0.0045883179
| 18> O 1.9920885368 -2.1490150692 -0.3496458958
| 19> O 2.8900932759 0.5066808654 0.2614110108
| 20> O 0.9203022973 2.4397660413 -0.4862070751
| 21> O -1.6672391821 1.7872004014 0.4694236943
| 22> O -3.0347413318 -0.4878496025 -0.8140155225
| 23> H -3.0871264403 -0.8526507858 1.2140426634
| 24> H -2.4117487964 -2.1764561724 0.2193567655
| 25> H 1.6307485622 -3.0361931743 -0.1957375092
| 26> H 3.5391119779 -0.1172773543 -0.0971088094
| 27> H 0.2617394199 3.1049949994 -0.2320506188
| 28> H -2.5563198596 1.6387490086 0.113530593
| 29> H -3.8338150585 -0.9678836109 -1.0717990288
| 30> *
| 31>
| 32>                          ****END OF INPUT****

CARTESIAN COORDINATES (ANGSTROEM)
---------------------------------
  C     -2.478663   -1.090185    0.332944
  C     -1.049201   -0.576170    0.565387
  H     -0.855999   -0.511818    1.648243
  C     -0.810886    0.807415   -0.060849
  H     -0.941693    0.717454   -1.147558
  C      0.631136    1.255941    0.211743
  H      0.761215    1.413273    1.293976
  C      1.621419    0.181332   -0.241867
  H      1.626533    0.157389   -1.340428
  C      1.197073   -1.207752    0.273559
  H      1.347811   -1.219265    1.375991
  O     -0.148312   -1.507744   -0.004588
  O      1.992089   -2.149015   -0.349646
  O      2.890093    0.506681    0.261411
  O      0.920302    2.439766   -0.486207
  O     -1.667239    1.787200    0.469424
  O     -3.034741   -0.487850   -0.814016
  H     -3.087126   -0.852651    1.214043
  H     -2.411749   -2.176456    0.219357
  H      1.630749   -3.036193   -0.195738
  H      3.539112   -0.117277   -0.097109
  H      0.261739    3.104995   -0.232051
  H     -2.556320    1.638749    0.113531
  H     -3.833815   -0.967884   -1.071799

 Total Charge           Charge          ....    0
 Multiplicity           Mult            ....    1
 Number of Electrons    NEL             ....   96
 Basis Dimension        Dim             ....  192

ORBITAL ENERGIES
----------------

  NO   OCC          E(Eh)            E(eV)
   0   2.0000     -18.771140      -510.7887
   1   2.0000     -18.769462      -510.7430
   2   2.0000     -18.762298      -510.5481
   3   2.0000     -18.753030      -510.2959
   4   2.0000     -18.738830      -509.9095
   5   2.0000     -18.732430      -509.7353
   6   2.0000      -9.981056      -271.5983
   7   2.0000      -9.945854      -270.6404
   8   2.0000      -9.945734      -270.6372
   9   2.0000      -9.933010      -270.2909
  10   2.0000      -9.930968      -270.2354
  11   2.0000      -9.930580      -270.2248
  12   2.0000      -0.983544       -26.7636
  13   2.0000      -0.947239       -25.7757
  14   2.0000      -0.933731       -25.4081
  15   2.0000      -0.922973       -25.1154
  16   2.0000      -0.913656       -24.8618
  17   2.0000      -0.901602       -24.5338
  18   2.0000      -0.699270       -19.0281
  19   2.0000      -0.689016       -18.7491
  20   2.0000      -0.620332       -16.8801
  21   2.0000      -0.577217       -15.7069
  22   2.0000      -0.550510       -14.9801
  23   2.0000      -0.520031       -14.1508
  24   2.0000      -0.497947       -13.5498
  25   2.0000      -0.487351       -13.2615
  26   2.0000      -0.475267       -12.9327
  27   2.0000      -0.465966       -12.6796
  28   2.0000      -0.453508       -12.3406
  29   2.0000      -0.436671       -11.8824
  30   2.0000      -0.402349       -10.9485
  31   2.0000      -0.394560       -10.7365
  32   2.0000      -0.391278       -10.6472
  33   2.0000      -0.365186        -9.9372
  34   2.0000      -0.355572        -9.6756
  35   2.0000      -0.349376        -9.5070
  36   2.0000      -0.322877        -8.7859
  37   2.0000      -0.314947        -8.5702
  38   2.0000      -0.303838        -8.2679
  39   2.0000      -0.293336        -7.9821
  40   2.0000      -0.277272        -7.5450
  41   2.0000      -0.262251        -7.1362
  42   2.0000      -0.252713        -6.8767
  43   2.0000      -0.238109        -6.4793
  44   2.0000      -0.234217        -6.3734
  45   2.0000      -0.217847        -5.9279
  46   2.0000      -0.211601        -5.7580
  47   2.0000      -0.192984        -5.2514
  48   0.0000       0.004609         0.1254
  49   0.0000       0.030622         0.8333
  50   0.0000       0.036490         0.9929
  51   0.0000       0.051773         1.4088
  52   0.0000       0.065451         1.7810

MULLIKEN ATOMIC CHARGES
-----------------------
   0 C :    0.053598
   1 C :    0.011243
   2 H :    0.053304
   3 C :    0.028150
   4 H :    0.070235
   5 C :    0.097676
   6 H :    0.053902
   7 C :    0.050895
   8 H :    0.062075
   9 C :    0.176435
  10 H :    0.032957
  11 O :   -0.313149
  12 O :   -0.389079
  13 O :   -0.408946
  14 O :   -0.410605
  15 O :   -0.430421
  16 O :   -0.436853
  17 H :    0.077402
  18 H :    0.088066
  19 H :    0.307531
  20 H :    0.304114
  21 H :    0.301504
  22 H :    0.310563
  23 H :    0.309405
Sum of atomic charges:    0.0000000

LOEWDIN ATOMIC CHARGES
----------------------
   0 C :   -0.127951
   1 C :   -0.066270
   2 H :    0.104042
   3 C :   -0.083415
   4 H :    0.111844
   5 C :   -0.059990
   6 H :    0.104974
   7 C :   -0.074749
   8 H :    0.111570
   9 C :   -0.006386
  10 H :    0.077659
  11 O :   -0.155393
  12 O :   -0.301497
  13 O :   -0.311656
  14 O :   -0.315416
  15 O :   -0.323776
  16 O :   -0.337233
  17 H :    0.101056
  18 H :    0.111187
  19 H :    0.290562
  20 H :    0.288198
  21 H :    0.284233
  22 H :    0.285089
  23 H :    0.293317

  Mayer bond orders larger than 0.100000
B(  0-C ,  1-C ) :   1.0425 B(  0-C , 16-O ) :   1.0830 B(  0-C , 17-H ) :   0.9162
B(  0-C , 18-H ) :   0.9157 B(  1-C ,  2-H ) :   0.8748 B(  1-C ,  3-C ) :   1.0009
B(  1-C , 11-O ) :   0.9804 B(  3-C ,  4-H ) :   0.8686 B(  3-C ,  5-C ) :   1.0101
B(  3-C , 15-O ) :   1.0824 B(  5-C ,  6-H ) :   0.8745 B(  5-C ,  7-C ) :   1.0159
B(  5-C , 14-O ) :   1.1022 B(  7-C ,  8-H ) :   0.8658 B(  7-C ,  9-C ) :   0.9962
B(  7-C , 13-O ) :   1.0833 B(  9-C , 10-H ) :   0.8793 B(  9-C , 11-O ) :   1.0091
B(  9-C , 12-O ) :   1.1619 B( 12-O , 19-H ) :   0.8388 B( 13-O , 20-H ) :   0.8438
B( 14-O , 21-H ) :   0.8392 B( 15-O , 22-H ) :   0.8326 B( 16-O , 23-H ) :   0.8456

Dispersion correction           -0.023862852
FINAL SINGLE POINT ENERGY      -685.696550942868

DIPOLE MOMENT
-------------

Method             : SCF
Type of density    : Electron Density
Multiplicity       :   1
Irrep              :   0
Energy             :  -685.8263736925820240 Eh
Relativity type    :
Basis              : AO
                                X                 Y                 Z
Electronic contribution:      2.709223102       0.498692939      -1.476382452
Nuclear contribution   :     -4.225993899      -1.726592036       1.656689462
                        -----------------------------------------
Total Dipole Moment    :     -1.516770796      -1.227899097       0.180307010
                        -----------------------------------------
Magnitude (a.u.)       :      1.959806230
Magnitude (Debye)      :      4.981431556

Rotational constants in cm-1:             0.042089             0.025900             0.017373
Rotational constants in MHz :          1261.787778           776.475447           520.841646

                             ****ORCA TERMINATED NORMALLY****
TOTAL RUN TIME: 0 days 0 hours 0 minutes 11 seconds 802 msec
