                         Program Version 6.0.0  -   RELEASE  -
|  1> ! wb97x-v def2-tzvp def2/J RIJCOSX DEFGRID2 scfconv7 GCP(DFT/TZ) printgap
|  2> %output
|  3>     printlevel normal
|  4> end
|  5> * xyz 0 1
|  6> C -2.4956846652729086 -1.0748505886181645 0.31026435112338946
|  7> C -1.0896003261842666 -0.5717417180660455 0.5339283558352894
|  8> H -0.9078160796414434 -0.5657573350712026 1.621506203512876
|  9> C -0.8354924160174417 0.836600516513519 -0.020239258689765904
| 10> H -1.019193842255689 0.8449764819316798 -1.1024570398315174
| 11> C 0.6129318010609303 1.2190773805272876 0.244051401406141
| 12> H 0.7645197442598256 1.2901396613912228 1.3333787656648244
| 13> C 1.5630196432773746 0.16887979063604366 -0.31612024755663537
| 14> H 1.474718428191102 0.14638532561452028 -1.4137116928999185
| 15> C 1.1858961429696875 -1.206420586776196 0.21773860186795224
| 16> H 1.3136558388171362 -1.2485367569605648 1.312414216466918
| 17> O -0.17995431557284622 -1.4855352169920177 -0.10718198473844408
| 18> O 1.9823753786530272 -2.1667099737579854 -0.4231880313001984
| 19> O 2.911714470231349 0.4331388887885364 0.0753568654212152
| 20> O 0.9571987579173451 2.4622280641453123 -0.3784902842653437
| 21> O -1.653542769080494 1.8113545933791655 0.6370964211513291
| 22> O -2.8072339371794834 -1.0215729829427982 -1.0895338186196748
| 23> H -3.186984169424323 -0.44825983230974487 0.88924649799313
| 24> H -2.5675751423712585 -2.104091363634679 0.6859124924210909
| 25> H 1.9456789320607786 -2.9819966500015807 0.09501903960042231
| 26> H 3.1251280232672385 1.32536680480613 -0.23001024193016584
| 27> H 0.430650896999731 3.1516189711220406 0.047519718079483145
| 28> H -2.530125589185537 1.7879191495582094 0.2321725003759129
| 29> H -3.717635569658821 -1.325111654235979 -1.1916786191474789
| 30> *
| 31>
| 32>                          ****END OF INPUT****

CARTESIAN COORDINATES (ANGSTROEM)
---------------------------------
  C     -2.495685   -1.074851    0.310264
  C     -1.089600   -0.571742    0.533928
  H     -0.907816   -0.565757    1.621506
  C     -0.835492    0.836601   -0.020239
  H     -1.019194    0.844976   -1.102457
  C      0.612932    1.219077    0.244051
  H      0.764520    1.290140    1.333379
  C      1.563020    0.168880   -0.316120
  H      1.474718    0.146385   -1.413712
  C      1.185896   -1.206421    0.217739
  H      1.313656   -1.248537    1.312414
  O     -0.179954   -1.485535   -0.107182
  O      1.982375   -2.166710   -0.423188
  O      2.911714    0.433139    0.075357
  O      0.957199    2.462228   -0.378490
  O     -1.653543    1.811355    0.637096
  O     -2.807234   -1.021573   -1.089534
  H     -3.186984   -0.448260    0.889246
  H     -2.567575   -2.104091    0.685912
  H      1.945679   -2.981997    0.095019
  H      3.125128    1.325367   -0.230010
  H      0.430651    3.151619    0.047520
  H     -2.530126    1.787919    0.232173
  H     -3.717636   -1.325112   -1.191679

 Total Charge           Charge          ....    0
 Multiplicity           Mult            ....    1
 Number of Electrons    NEL             ....   96
 Basis Dimension        Dim             ....  444

ORBITAL ENERGIES
----------------

  NO   OCC          E(Eh)            E(eV)
   0   2.0000     -21.691315      -590.2507
   1   2.0000     -21.685317      -590.0875
   2   2.0000     -21.683181      -590.0293
   3   2.0000     -21.680839      -589.9656
   4   2.0000     -21.680773      -589.9638
   5   2.0000     -21.667392      -589.5997
   6   2.0000     -12.151141      -330.6493
   7   2.0000     -12.111973      -329.5836
   8   2.0000     -12.108534      -329.4900
   9   2.0000     -12.105627      -329.4108
  10   2.0000     -12.104052      -329.3680
  11   2.0000     -12.098366      -329.2133
  12   2.0000      -1.714184       -46.6453
  13   2.0000      -1.694551       -46.1111
  14   2.0000      -1.685845       -45.8742
  15   2.0000      -1.682812       -45.7916
  16   2.0000      -1.671351       -45.4798
  17   2.0000      -1.668423       -45.4001
  18   2.0000      -1.336728       -36.3742
  19   2.0000      -1.320994       -35.9461
  20   2.0000      -1.242307       -33.8049
  21   2.0000      -1.193515       -32.4772
  22   2.0000      -1.163273       -31.6543
  23   2.0000      -1.112696       -30.2780
  24   2.0000      -1.084250       -29.5040
  25   2.0000      -1.068872       -29.0855
  26   2.0000      -1.052464       -28.6390
  27   2.0000      -1.046487       -28.4763
  28   2.0000      -1.032892       -28.1064
  29   2.0000      -1.012433       -27.5497
  30   2.0000      -0.998544       -27.1718
  31   2.0000      -0.976843       -26.5813
  32   2.0000      -0.974663       -26.5219
  33   2.0000      -0.966389       -26.2968
  34   2.0000      -0.960114       -26.1260
  35   2.0000      -0.947827       -25.7917
  36   2.0000      -0.936920       -25.4949
  37   2.0000      -0.926992       -25.2247
  38   2.0000      -0.917360       -24.9626
  39   2.0000      -0.906777       -24.6747
  40   2.0000      -0.896282       -24.3891
  41   2.0000      -0.881295       -23.9813
  42   2.0000      -0.853232       -23.2176
  43   2.0000      -0.832148       -22.6439
  44   2.0000      -0.816019       -22.2050
  45   2.0000      -0.803118       -21.8539
  46   2.0000      -0.799076       -21.7440
  47   2.0000      -0.771472       -20.9928
  48   0.0000      -0.234409        -6.3786
  49   0.0000      -0.190261        -5.1773
  50   0.0000      -0.168663        -4.5896
  51   0.0000      -0.158176        -4.3042
  52   0.0000      -0.128901        -3.5076

MULLIKEN ATOMIC CHARGES
-----------------------
   0 C :   -0.126163
   1 C :    0.097991
   2 H :    0.076506
   3 C :    0.001097
   4 H :    0.116058
   5 C :    0.055029
   6 H :    0.084769
   7 C :    0.122797
   8 H :    0.083984
   9 C :    0.086539
  10 H :    0.059251
  11 O :   -0.252095
  12 O :   -0.385030
  13 O :   -0.430910
  14 O :   -0.459741
  15 O :   -0.458162
  16 O :   -0.436205
  17 H :    0.103979
  18 H :    0.104182
  19 H :    0.307187
  20 H :    0.313499
  21 H :    0.316942
  22 H :    0.317485
  23 H :    0.301013
Sum of atomic charges:    0.0000000

LOEWDIN ATOMIC CHARGES
----------------------
   0 C :   -0.319638
   1 C :   -0.302484
   2 H :    0.145115
   3 C :   -0.306218
   4 H :    0.148687
   5 C :   -0.314377
   6 H :    0.143273
   7 C :   -0.303944
   8 H :    0.148460
   9 C :   -0.404468
  10 H :    0.121551
  11 O :    0.192569
  12 O :    0.025425
  13 O :   -0.008395
  14 O :   -0.018759
  15 O :   -0.015956
  16 O :   -0.044079
  17 H :    0.118076
  18 H :    0.123652
  19 H :    0.176235
  20 H :    0.175576
  21 H :    0.175844
  22 H :    0.174015
  23 H :    0.169840

  Mayer bond orders larger than 0.100000
B(  0-C ,  1-C ) :   0.9488 B(  0-C , 16-O ) :   1.1023 B(  0-C , 17-H ) :   0.9662
B(  0-C , 18-H ) :   0.9744 B(  1-C ,  2-H ) :   0.9602 B(  1-C ,  3-C ) :   0.9268
B(  1-C , 11-O ) :   0.9897 B(  3-C ,  4-H ) :   0.9715 B(  3-C ,  5-C ) :   0.9426
B(  3-C , 15-O ) :   1.0583 B(  5-C ,  6-H ) :   0.9761 B(  5-C ,  7-C ) :   0.9648
B(  5-C , 14-O ) :   1.0660 B(  7-C ,  8-H ) :   0.9668 B(  7-C ,  9-C ) :   0.9382
B(  7-C , 13-O ) :   1.1182 B(  9-C , 10-H ) :   0.9769 B(  9-C , 11-O ) :   1.0209
B(  9-C , 12-O ) :   1.2485 B( 12-O , 19-H ) :   0.8963 B( 13-O , 20-H ) :   0.8878
B( 14-O , 21-H ) :   0.8886 B( 15-O , 22-H ) :   0.8972 B( 16-O , 23-H ) :   0.9038

FINAL SINGLE POINT ENERGY      -687.243230367594

DIPOLE MOMENT
-------------

Method             : SCF
Type of density    : Electron Density
Multiplicity       :   1
Irrep              :   0
Energy             :  -687.2620400329939230 Eh
Relativity type    :
Basis              : AO
                                X                 Y                 Z
Electronic contribution:      3.013654384      -0.316453819      -1.666612318
Nuclear contribution   :     -4.664958299       0.331364580       2.536963793
                        -----------------------------------------
Total Dipole Moment    :     -1.651303915       0.014910761       0.870351475
                        -----------------------------------------
Magnitude (a.u.)       :      1.866691898
Magnitude (Debye)      :      4.744753733

Rotational constants in cm-1:             0.039830             0.026366             0.017422
Rotational constants in MHz :          1194.062431           790.433667           522.290907

                             ****ORCA TERMINATED NORMALLY****
TOTAL RUN TIME: 0 days 0 hours 4 minutes 38 seconds 300 msec
