                         Program Version 6.0.0  -   RELEASE  -
|  1> ! wb97x-v def2-tzvp def2/J RIJCOSX DEFGRID2 scfconv7 GCP(DFT/TZ) printgap
|  2> %output
|  3>     printlevel normal
|  4> end
|  5> %cpcm
|  6>     smd true
|  7>     smdsolvent "water"
|  8> end
|  9> * xyz 0 1
| 10> C -2.4956846652729086 -1.0748505886181645 0.31026435112338946
| 11> C -1.0896003261842666 -0.5717417180660455 0.5339283558352894
| 12> H -0.9078160796414434 -0.5657573350712026 1.621506203512876
| 13> C -0.8354924160174417 0.836600516513519 -0.020239258689765904
| 14> H -1.019193842255689 0.8449764819316798 -1.1024570398315174
| 15> C 0.6129318010609303 1.2190773805272876 0.244051401406141
| 16> H 0.7645197442598256 1.2901396613912228 1.3333787656648244
| 17> C 1.5630196432773746 0.16887979063604366 -0.31612024755663537
| 18> H 1.474718428191102 0.14638532561452028 -1.4137116928999185
| 19> C 1.1858961429696875 -1.206420586776196 0.21773860186795224
| 20> H 1.3136558388171362 -1.2485367569605648 1.312414216466918
| 21> O -0.17995431557284622 -1.4855352169920177 -0.10718198473844408
| 22> O 1.9823753786530272 -2.1667099737579854 -0.4231880313001984
| 23> O 2.911714470231349 0.4331388887885364 0.0753568654212152
| 24> O 0.9571987579173451 2.4622280641453123 -0.3784902842653437
| 25> O -1.653542769080494 1.8113545933791655 0.6370964211513291
| 26> O -2.8072339371794834 -1.0215729829427982 -1.0895338186196748
| 27> H -3.186984169424323 -0.44825983230974487 0.88924649799313
| 28> H -2.5675751423712585 -2.104091363634679 0.6859124924210909
| 29> H 1.9456789320607786 -2.9819966500015807 0.09501903960042231
| 30> H 3.1251280232672385 1.32536680480613 -0.23001024193016584
| 31> H 0.430650896999731 3.1516189711220406 0.047519718079483145
| 32> H -2.530125589185537 1.7879191495582094 0.2321725003759129
| 33> H -3.717635569658821 -1.325111654235979 -1.1916786191474789
| 34> *
| 35>
| 36>                          ****END OF INPUT****

CARTESIAN COORDINATES (ANGSTROEM)
---------------------------------
  C     -2.495685   -1.074851    0.310264
  C     -1.089600   -0.571742    0.533928
  H     -0.907816   -0.565757    1.621506
  C     -0.835492    0.836601   -0.020239
  H     -1.019194    0.844976   -1.102457
  C      0.612932    1.219077    0.244051
  H      0.764520    1.290140    1.333379
  C      1.563020    0.168880   -0.316120
  H      1.474718    0.146385   -1.413712
  C      1.185896   -1.206421    0.217739
  H      1.313656   -1.248537    1.312414
  O     -0.179954   -1.485535   -0.107182
  O      1.982375   -2.166710   -0.423188
  O      2.911714    0.433139    0.075357
  O      0.957199    2.462228   -0.378490
  O     -1.653543    1.811355    0.637096
  O     -2.807234   -1.021573   -1.089534
  H     -3.186984   -0.448260    0.889246
  H     -2.567575   -2.104091    0.685912
  H      1.945679   -2.981997    0.095019
  H      3.125128    1.325367   -0.230010
  H      0.430651    3.151619    0.047520
  H     -2.530126    1.787919    0.232173
  H     -3.717636   -1.325112   -1.191679

 Total Charge           Charge          ....    0
 Multiplicity           Mult            ....    1
 Number of Electrons    NEL             ....   96
 Basis Dimension        Dim             ....  444

ORBITAL ENERGIES
----------------

  NO   OCC          E(Eh)            E(eV)
   0   2.0000     -21.690692      -590.2337
   1   2.0000     -21.689866      -590.2113
   2   2.0000     -21.683400      -590.0353
   3   2.0000     -21.681766      -589.9909
   4   2.0000     -21.681589      -589.9860
   5   2.0000     -21.676795      -589.8556
   6   2.0000     -12.153063      -330.7017
   7   2.0000     -12.103359      -329.3491
   8   2.0000     -12.103168      -329.3439
   9   2.0000     -12.101684      -329.3036
  10   2.0000     -12.099813      -329.2527
  11   2.0000     -12.092265      -329.0473
  12   2.0000      -1.722330       -46.8670
  13   2.0000      -1.690634       -46.0045
  14   2.0000      -1.686004       -45.8785
  15   2.0000      -1.680481       -45.7282
  16   2.0000      -1.678377       -45.6710
  17   2.0000      -1.675441       -45.5911
  18   2.0000      -1.333457       -36.2852
  19   2.0000      -1.321027       -35.9470
  20   2.0000      -1.237643       -33.6780
  21   2.0000      -1.194603       -32.5068
  22   2.0000      -1.162104       -31.6224
  23   2.0000      -1.114346       -30.3229
  24   2.0000      -1.089853       -29.6564
  25   2.0000      -1.064961       -28.9791
  26   2.0000      -1.051477       -28.6121
  27   2.0000      -1.045553       -28.4510
  28   2.0000      -1.036229       -28.1972
  29   2.0000      -1.011867       -27.5343
  30   2.0000      -1.008151       -27.4332
  31   2.0000      -0.977861       -26.6090
  32   2.0000      -0.977734       -26.6055
  33   2.0000      -0.971643       -26.4397
  34   2.0000      -0.964817       -26.2540
  35   2.0000      -0.944165       -25.6920
  36   2.0000      -0.941027       -25.6067
  37   2.0000      -0.932815       -25.3832
  38   2.0000      -0.923755       -25.1366
  39   2.0000      -0.905802       -24.6481
  40   2.0000      -0.895177       -24.3590
  41   2.0000      -0.889083       -24.1932
  42   2.0000      -0.852310       -23.1925
  43   2.0000      -0.827061       -22.5055
  44   2.0000      -0.811547       -22.0833
  45   2.0000      -0.801429       -21.8080
  46   2.0000      -0.791189       -21.5293
  47   2.0000      -0.769975       -20.9521
  48   0.0000      -0.233348        -6.3497
  49   0.0000      -0.189743        -5.1632
  50   0.0000      -0.169408        -4.6098
  51   0.0000      -0.148090        -4.0297
  52   0.0000      -0.126070        -3.4305

MULLIKEN ATOMIC CHARGES
-----------------------
   0 C :   -0.105706
   1 C :    0.096435
   2 H :    0.117110
   3 C :    0.002558
   4 H :    0.111352
   5 C :    0.094836
   6 H :    0.106986
   7 C :    0.123032
   8 H :    0.098058
   9 C :    0.105002
  10 H :    0.106526
  11 O :   -0.332023
  12 O :   -0.487736
  13 O :   -0.524212
  14 O :   -0.532791
  15 O :   -0.531007
  16 O :   -0.545853
  17 H :    0.132848
  18 H :    0.129331
  19 H :    0.375458
  20 H :    0.362214
  21 H :    0.362544
  22 H :    0.371758
  23 H :    0.363283
Sum of atomic charges:    0.0000000

LOEWDIN ATOMIC CHARGES
----------------------
   0 C :   -0.307973
   1 C :   -0.297690
   2 H :    0.159049
   3 C :   -0.303598
   4 H :    0.148552
   5 C :   -0.308521
   6 H :    0.153042
   7 C :   -0.307535
   8 H :    0.151137
   9 C :   -0.400707
  10 H :    0.138425
  11 O :    0.160460
  12 O :   -0.012977
  13 O :   -0.043650
  14 O :   -0.043792
  15 O :   -0.035914
  16 O :   -0.082830
  17 H :    0.132346
  18 H :    0.130177
  19 H :    0.200735
  20 H :    0.191852
  21 H :    0.191564
  22 H :    0.195506
  23 H :    0.192341

  Mayer bond orders larger than 0.100000
B(  0-C ,  1-C ) :   0.9492 B(  0-C , 16-O ) :   1.0518 B(  0-C , 17-H ) :   0.9687
B(  0-C , 18-H ) :   0.9787 B(  1-C ,  2-H ) :   0.9516 B(  1-C ,  3-C ) :   0.9577
B(  1-C , 11-O ) :   0.9396 B(  3-C ,  4-H ) :   0.9702 B(  3-C ,  5-C ) :   0.9622
B(  3-C , 15-O ) :   1.0499 B(  5-C ,  6-H ) :   0.9603 B(  5-C ,  7-C ) :   0.9864
B(  5-C , 14-O ) :   1.0426 B(  7-C ,  8-H ) :   0.9545 B(  7-C ,  9-C ) :   0.9522
B(  7-C , 13-O ) :   1.0649 B(  9-C , 10-H ) :   0.9798 B(  9-C , 11-O ) :   1.0202
B(  9-C , 12-O ) :   1.1991 B( 12-O , 19-H ) :   0.8541 B( 13-O , 20-H ) :   0.8577
B( 14-O , 21-H ) :   0.8591 B( 15-O , 22-H ) :   0.8606 B( 16-O , 23-H ) :   0.8669

FINAL SINGLE POINT ENERGY      -687.286267557979

DIPOLE MOMENT
-------------

Method             : SCF
Type of density    : Electron Density
Multiplicity       :   1
Irrep              :   0
Energy             :  -687.3050772233785892 Eh
Relativity type    :
Basis              : AO
                                X                 Y                 Z
Electronic contribution:      2.411613002      -0.216521212      -1.102365109
Nuclear contribution   :     -4.664958299       0.331364580       2.536963793
                        -----------------------------------------
Total Dipole Moment    :     -2.253345298       0.114843368       1.434598684
                        -----------------------------------------
Magnitude (a.u.)       :      2.673729121
Magnitude (Debye)      :      6.796079333

Rotational constants in cm-1:             0.039830             0.026366             0.017422
Rotational constants in MHz :          1194.062431           790.433667           522.290907

                             ****ORCA TERMINATED NORMALLY****
TOTAL RUN TIME: 0 days 0 hours 5 minutes 12 seconds 662 msec
