                         Program Version 6.0.0  -   RELEASE  -
|  1> ! pbe def2-sv(p) def2/J RI DEFGRID1 loosescf d4 GCP(DFT/SV(P)) printgap
|  2> %output
|  3>     printlevel normal
|  4> end
|  5> * xyz 0 1
|  6> C -2.2843484072 -1.0555198614 -0.2503593399
|  7> C -0.906548436 -0.5467935428 0.1704520128
|  8> H -0.768006294 -0.7209010433 1.2470907931
|  9> C -0.7547134896 0.9691441132 -0.0881353057
| 10> H -1.344777775 1.2524744417 -0.9745486231
| 11> C 0.723253892 1.2648376894 -0.4036717781
| 12> H 0.9259014947 2.3127234612 -0.1590862776
| 13> C 1.6344257276 0.3430983919 0.4334172357
| 14> H 2.6857618958 0.5671305671 0.1948894321
| 15> C 1.3657097773 -1.1289633007 0.0317280297
| 16> H 1.4146240246 -1.7421780845 0.9453209218
| 17> O 0.0797202233 -1.260659785 -0.5577523502
| 18> O 2.3001608217 -1.6446235161 -0.8364600046
| 19> O 1.4062035019 0.4501397296 1.8139138262
| 20> O 1.0028370333 1.1142934842 -1.7738399686
| 21> O -1.1451249306 1.7389623805 1.0168729908
| 22> O -3.2445302426 -0.2852457017 0.434351954
| 23> H -2.3611216499 -2.1182479665 0.0044422304
| 24> H -2.3870950858 -0.9433950641 -1.3368666381
| 25> H 2.3239504598 -1.1240033446 -1.6563669151
| 26> H 1.4097338549 1.3816789312 2.0788480838
| 27> H 0.6014508163 0.2834085995 -2.0754303676
| 28> H -2.0595729753 1.5056671741 1.2414254019
| 29> H -4.1306268101 -0.60846369 0.2191013792
| 30> *
| 31>
| 32>                          ****END OF INPUT****

CARTESIAN COORDINATES (ANGSTROEM)
---------------------------------
  C     -2.284348   -1.055520   -0.250359
  C     -0.906548   -0.546794    0.170452
  H     -0.768006   -0.720901    1.247091
  C     -0.754713    0.969144   -0.088135
  H     -1.344778    1.252474   -0.974549
  C      0.723254    1.264838   -0.403672
  H      0.925901    2.312723   -0.159086
  C      1.634426    0.343098    0.433417
  H      2.685762    0.567131    0.194889
  C      1.365710   -1.128963    0.031728
  H      1.414624   -1.742178    0.945321
  O      0.079720   -1.260660   -0.557752
  O      2.300161   -1.644624   -0.836460
  O      1.406204    0.450140    1.813914
  O      1.002837    1.114293   -1.773840
  O     -1.145125    1.738962    1.016873
  O     -3.244530   -0.285246    0.434352
  H     -2.361122   -2.118248    0.004442
  H     -2.387095   -0.943395   -1.336867
  H      2.323950   -1.124003   -1.656367
  H      1.409734    1.381679    2.078848
  H      0.601451    0.283409   -2.075430
  H     -2.059573    1.505667    1.241425
  H     -4.130627   -0.608464    0.219101

 Total Charge           Charge          ....    0
 Multiplicity           Mult            ....    1
 Number of Electrons    NEL             ....   96
 Basis Dimension        Dim             ....  192

ORBITAL ENERGIES
----------------

  NO   OCC          E(Eh)            E(eV)
   0   2.0000     -18.777410      -510.9593
   1   2.0000     -18.775016      -510.8942
   2   2.0000     -18.758729      -510.4510
   3   2.0000     -18.757000      -510.4039
   4   2.0000     -18.752921      -510.2929
   5   2.0000     -18.746150      -510.1087
   6   2.0000      -9.985271      -271.7130
   7   2.0000      -9.945955      -270.6432
   8   2.0000      -9.943583      -270.5786
   9   2.0000      -9.941829      -270.5309
  10   2.0000      -9.939087      -270.4563
  11   2.0000      -9.936764      -270.3931
  12   2.0000      -0.986691       -26.8492
  13   2.0000      -0.948816       -25.8186
  14   2.0000      -0.938582       -25.5401
  15   2.0000      -0.926637       -25.2151
  16   2.0000      -0.922222       -25.0949
  17   2.0000      -0.916659       -24.9436
  18   2.0000      -0.700526       -19.0623
  19   2.0000      -0.684291       -18.6205
  20   2.0000      -0.627331       -17.0705
  21   2.0000      -0.581111       -15.8128
  22   2.0000      -0.570272       -15.5179
  23   2.0000      -0.525976       -14.3125
  24   2.0000      -0.505947       -13.7675
  25   2.0000      -0.488698       -13.2981
  26   2.0000      -0.477731       -12.9997
  27   2.0000      -0.467314       -12.7162
  28   2.0000      -0.448149       -12.1947
  29   2.0000      -0.435375       -11.8472
  30   2.0000      -0.415875       -11.3165
  31   2.0000      -0.409762       -11.1502
  32   2.0000      -0.388463       -10.5706
  33   2.0000      -0.372505       -10.1364
  34   2.0000      -0.356399        -9.6981
  35   2.0000      -0.348601        -9.4859
  36   2.0000      -0.327231        -8.9044
  37   2.0000      -0.322071        -8.7640
  38   2.0000      -0.307304        -8.3622
  39   2.0000      -0.298959        -8.1351
  40   2.0000      -0.294808        -8.0221
  41   2.0000      -0.273606        -7.4452
  42   2.0000      -0.251713        -6.8495
  43   2.0000      -0.248694        -6.7673
  44   2.0000      -0.240697        -6.5497
  45   2.0000      -0.222685        -6.0596
  46   2.0000      -0.210615        -5.7311
  47   2.0000      -0.202057        -5.4982
  48   0.0000       0.001917         0.0522
  49   0.0000       0.016055         0.4369
  50   0.0000       0.035712         0.9718
  51   0.0000       0.051455         1.4002
  52   0.0000       0.061766         1.6808

MULLIKEN ATOMIC CHARGES
-----------------------
   0 C :    0.072447
   1 C :   -0.029727
   2 H :    0.085371
   3 C :    0.080133
   4 H :    0.057447
   5 C :    0.021088
   6 H :    0.074394
   7 C :    0.023812
   8 H :    0.073855
   9 C :    0.167360
  10 H :    0.081424
  11 O :   -0.312384
  12 O :   -0.372626
  13 O :   -0.403796
  14 O :   -0.424995
  15 O :   -0.424694
  16 O :   -0.445701
  17 H :    0.087936
  18 H :    0.071677
  19 H :    0.291836
  20 H :    0.307029
  21 H :    0.296921
  22 H :    0.306945
  23 H :    0.314248
Sum of atomic charges:    0.0000000

LOEWDIN ATOMIC CHARGES
----------------------
   0 C :   -0.121296
   1 C :   -0.074552
   2 H :    0.116455
   3 C :   -0.073425
   4 H :    0.101275
   5 C :   -0.071422
   6 H :    0.116142
   7 C :   -0.096770
   8 H :    0.104787
   9 C :    0.005254
  10 H :    0.109162
  11 O :   -0.160211
  12 O :   -0.282445
  13 O :   -0.309322
  14 O :   -0.313858
  15 O :   -0.321757
  16 O :   -0.338835
  17 H :    0.104561
  18 H :    0.097370
  19 H :    0.276939
  20 H :    0.288400
  21 H :    0.266920
  22 H :    0.281459
  23 H :    0.295166

  Mayer bond orders larger than 0.100000
B(  0-C ,  1-C ) :   1.0652 B(  0-C , 16-O ) :   1.0684 B(  0-C , 17-H ) :   0.9181
B(  0-C , 18-H ) :   0.9059 B(  1-C ,  2-H ) :   0.8593 B(  1-C ,  3-C ) :   1.0022
B(  1-C , 11-O ) :   1.0147 B(  3-C ,  4-H ) :   0.8947 B(  3-C ,  5-C ) :   0.9880
B(  3-C , 15-O ) :   1.0869 B(  5-C ,  6-H ) :   0.8881 B(  5-C ,  7-C ) :   0.9887
B(  5-C , 14-O ) :   1.0374 B(  7-C ,  8-H ) :   0.9007 B(  7-C ,  9-C ) :   0.9387
B(  7-C , 13-O ) :   1.0769 B(  9-C , 10-H ) :   0.9011 B(  9-C , 11-O ) :   0.9879
B(  9-C , 12-O ) :   1.1635 B( 12-O , 19-H ) :   0.8312 B( 13-O , 20-H ) :   0.8381
B( 14-O , 21-H ) :   0.8204 B( 15-O , 22-H ) :   0.8256 B( 16-O , 23-H ) :   0.8444

Dispersion correction           -0.025139501
FINAL SINGLE POINT ENERGY      -685.691255747129

DIPOLE MOMENT
-------------

Method             : SCF
Type of density    : Electron Density
Multiplicity       :   1
Irrep              :   0
Energy             :  -685.8235051484542737 Eh
Relativity type    :
Basis              : AO
                                X                 Y                 Z
Electronic contribution:      2.204818113      -0.067261262       0.036051016
Nuclear contribution   :     -3.455724574       0.044728423      -0.252975229
                        -----------------------------------------
Total Dipole Moment    :     -1.250906461      -0.022532838      -0.216924214
                        -----------------------------------------
Magnitude (a.u.)       :      1.269775893
Magnitude (Debye)      :      3.227513825

Rotational constants in cm-1:             0.044186             0.025397             0.022006
Rotational constants in MHz :          1324.655605           761.386953           659.718670

                             ****ORCA TERMINATED NORMALLY****
TOTAL RUN TIME: 0 days 0 hours 0 minutes 11 seconds 664 msec
