                         Program Version 6.0.0  -   RELEASE  -
|  1> ! pbe def2-sv(p) def2/J RI DEFGRID1 loosescf d4 GCP(DFT/SV(P)) printgap
|  2> %output
|  3>     printlevel normal
|  4> end
|  5> * xyz 0 1
|  6> C -2.163645347 -1.2408165205 -0.0327010957
|  7> C -1.2077509511 -0.3533392257 0.7938962183
|  8> H -1.7024421797 -0.1025063246 1.7383334508
|  9> C -0.8636063719 0.9556880992 0.0554189591
| 10> H -1.0441428574 0.8304626666 -1.0214084956
| 11> C 0.6215444691 1.2857642343 0.2536561852
| 12> H 0.8128896138 1.3724030064 1.3372122301
| 13> C 1.4629835143 0.1439080401 -0.3182636161
| 14> H 1.2924249578 0.081893629 -1.3986720757
| 15> C 1.0215790983 -1.1950633113 0.3254402564
| 16> H 1.8459685513 -1.5629795513 0.9504340161
| 17> O -0.0451904561 -1.0609642311 1.2285654818
| 18> O 0.735973814 -2.1058594953 -0.6965474508
| 19> O 2.8412884595 0.3435224725 -0.1664105575
| 20> O 0.9694657112 2.4791992334 -0.3954710638
| 21> O -1.5947679507 2.0529927324 0.555218311
| 22> O -1.8381836111 -1.328343636 -1.3962775258
| 23> H -3.1655993931 -0.8094350436 0.0036010258
| 24> H -2.1925339996 -2.2348386797 0.4306976566
| 25> H 0.755259721 -3.0144147807 -0.3569883829
| 26> H 3.0274385885 0.7552214613 0.6900674723
| 27> H 0.3108496518 3.1506942944 -0.1568924168
| 28> H -2.5088442196 2.0119656683 0.2442734157
| 29> H -0.9411100907 -1.7065427751 -1.4754137987
| 30> *
| 31>
| 32>                          ****END OF INPUT****

CARTESIAN COORDINATES (ANGSTROEM)
---------------------------------
  C     -2.163645   -1.240817   -0.032701
  C     -1.207751   -0.353339    0.793896
  H     -1.702442   -0.102506    1.738333
  C     -0.863606    0.955688    0.055419
  H     -1.044143    0.830463   -1.021408
  C      0.621544    1.285764    0.253656
  H      0.812890    1.372403    1.337212
  C      1.462984    0.143908   -0.318264
  H      1.292425    0.081894   -1.398672
  C      1.021579   -1.195063    0.325440
  H      1.845969   -1.562980    0.950434
  O     -0.045190   -1.060964    1.228565
  O      0.735974   -2.105859   -0.696547
  O      2.841288    0.343522   -0.166411
  O      0.969466    2.479199   -0.395471
  O     -1.594768    2.052993    0.555218
  O     -1.838184   -1.328344   -1.396278
  H     -3.165599   -0.809435    0.003601
  H     -2.192534   -2.234839    0.430698
  H      0.755260   -3.014415   -0.356988
  H      3.027439    0.755221    0.690067
  H      0.310850    3.150694   -0.156892
  H     -2.508844    2.011966    0.244273
  H     -0.941110   -1.706543   -1.475414

 Total Charge           Charge          ....    0
 Multiplicity           Mult            ....    1
 Number of Electrons    NEL             ....   96
 Basis Dimension        Dim             ....  192

ORBITAL ENERGIES
----------------

  NO   OCC          E(Eh)            E(eV)
   0   2.0000     -18.789687      -511.2934
   1   2.0000     -18.772073      -510.8141
   2   2.0000     -18.767046      -510.6773
   3   2.0000     -18.749394      -510.1969
   4   2.0000     -18.744398      -510.0610
   5   2.0000     -18.738215      -509.8928
   6   2.0000      -9.993496      -271.9369
   7   2.0000      -9.944192      -270.5952
   8   2.0000      -9.943667      -270.5809
   9   2.0000      -9.943583      -270.5786
  10   2.0000      -9.943259      -270.5698
  11   2.0000      -9.932945      -270.2892
  12   2.0000      -0.991849       -26.9896
  13   2.0000      -0.949814       -25.8457
  14   2.0000      -0.933103       -25.3910
  15   2.0000      -0.926402       -25.2087
  16   2.0000      -0.913991       -24.8709
  17   2.0000      -0.912790       -24.8383
  18   2.0000      -0.705221       -19.1900
  19   2.0000      -0.694949       -18.9105
  20   2.0000      -0.625459       -17.0196
  21   2.0000      -0.587545       -15.9879
  22   2.0000      -0.570809       -15.5325
  23   2.0000      -0.523614       -14.2483
  24   2.0000      -0.505428       -13.7534
  25   2.0000      -0.502797       -13.6818
  26   2.0000      -0.481580       -13.1045
  27   2.0000      -0.459016       -12.4905
  28   2.0000      -0.443737       -12.0747
  29   2.0000      -0.433127       -11.7860
  30   2.0000      -0.411177       -11.1887
  31   2.0000      -0.399625       -10.8744
  32   2.0000      -0.392163       -10.6713
  33   2.0000      -0.384098       -10.4518
  34   2.0000      -0.362510        -9.8644
  35   2.0000      -0.350549        -9.5389
  36   2.0000      -0.341551        -9.2941
  37   2.0000      -0.304710        -8.2916
  38   2.0000      -0.302674        -8.2362
  39   2.0000      -0.291861        -7.9420
  40   2.0000      -0.289333        -7.8731
  41   2.0000      -0.281003        -7.6465
  42   2.0000      -0.263372        -7.1667
  43   2.0000      -0.242231        -6.5914
  44   2.0000      -0.239014        -6.5039
  45   2.0000      -0.224372        -6.1055
  46   2.0000      -0.214626        -5.8403
  47   2.0000      -0.200701        -5.4614
  48   0.0000       0.007287         0.1983
  49   0.0000       0.009167         0.2495
  50   0.0000       0.031864         0.8671
  51   0.0000       0.045018         1.2250
  52   0.0000       0.065480         1.7818

MULLIKEN ATOMIC CHARGES
-----------------------
   0 C :    0.046528
   1 C :    0.038102
   2 H :    0.069068
   3 C :   -0.016855
   4 H :    0.078214
   5 C :    0.056583
   6 H :    0.045677
   7 C :    0.062245
   8 H :    0.078799
   9 C :    0.188867
  10 H :    0.064887
  11 O :   -0.309465
  12 O :   -0.404261
  13 O :   -0.406167
  14 O :   -0.409044
  15 O :   -0.418141
  16 O :   -0.445580
  17 H :    0.073798
  18 H :    0.072060
  19 H :    0.315978
  20 H :    0.303391
  21 H :    0.303519
  22 H :    0.310609
  23 H :    0.301187
Sum of atomic charges:   -0.0000000

LOEWDIN ATOMIC CHARGES
----------------------
   0 C :   -0.136090
   1 C :   -0.080345
   2 H :    0.120977
   3 C :   -0.085381
   4 H :    0.110655
   5 C :   -0.075468
   6 H :    0.098409
   7 C :   -0.072140
   8 H :    0.125364
   9 C :   -0.008676
  10 H :    0.104890
  11 O :   -0.149698
  12 O :   -0.296458
  13 O :   -0.303486
  14 O :   -0.316708
  15 O :   -0.319153
  16 O :   -0.348170
  17 H :    0.110795
  18 H :    0.098847
  19 H :    0.293906
  20 H :    0.286497
  21 H :    0.283662
  22 H :    0.292697
  23 H :    0.265074

  Mayer bond orders larger than 0.100000
B(  0-C ,  1-C ) :   1.0330 B(  0-C , 16-O ) :   1.1032 B(  0-C , 17-H ) :   0.9204
B(  0-C , 18-H ) :   0.9081 B(  1-C ,  2-H ) :   0.8779 B(  1-C ,  3-C ) :   0.9847
B(  1-C , 11-O ) :   0.9964 B(  3-C ,  4-H ) :   0.8733 B(  3-C ,  5-C ) :   1.0200
B(  3-C , 15-O ) :   1.0667 B(  5-C ,  6-H ) :   0.8602 B(  5-C ,  7-C ) :   1.0266
B(  5-C , 14-O ) :   1.1115 B(  7-C ,  8-H ) :   0.8733 B(  7-C ,  9-C ) :   0.9558
B(  7-C , 13-O ) :   1.0718 B(  9-C , 10-H ) :   0.8934 B(  9-C , 11-O ) :   1.0867
B(  9-C , 12-O ) :   1.0571 B( 12-O , 19-H ) :   0.8322 B( 12-O , 23-H ) :   0.1169
B( 13-O , 20-H ) :   0.8464 B( 14-O , 21-H ) :   0.8321 B( 15-O , 22-H ) :   0.8460
B( 16-O , 23-H ) :   0.7899

Dispersion correction           -0.025053064
FINAL SINGLE POINT ENERGY      -685.695433980016

DIPOLE MOMENT
-------------

Method             : SCF
Type of density    : Electron Density
Multiplicity       :   1
Irrep              :   0
Energy             :  -685.8272630607546034 Eh
Relativity type    :
Basis              : AO
                                X                 Y                 Z
Electronic contribution:      2.747563608       0.720972192      -0.019971215
Nuclear contribution   :     -3.276998003      -1.146506997       0.911424293
                        -----------------------------------------
Total Dipole Moment    :     -0.529434395      -0.425534805       0.891453078
                        -----------------------------------------
Magnitude (a.u.)       :      1.120744948
Magnitude (Debye)      :      2.848707268

Rotational constants in cm-1:             0.037466             0.031260             0.020821
Rotational constants in MHz :          1123.202459           937.143727           624.184097

                             ****ORCA TERMINATED NORMALLY****
TOTAL RUN TIME: 0 days 0 hours 0 minutes 12 seconds 346 msec
