                         Program Version 6.0.0  -   RELEASE  -
|  1> ! pbe def2-sv(p) def2/J RI DEFGRID1 loosescf d4 GCP(DFT/SV(P)) printgap
|  2> %output
|  3>     printlevel normal
|  4> end
|  5> * xyz 0 1
|  6> C -2.1654633862 -0.074449499 -0.2363111131
|  7> C -0.7907987954 0.0103196921 0.4144026737
|  8> C 0.0930714413 -1.2225516825 0.123135669
|  9> C 1.4635958239 -0.683241677 -0.3161860684
| 10> C 1.4737833527 0.7738746329 0.1429064085
| 11> C 0.0298122032 1.2074693448 -0.0818250187
| 12> H -2.7160773243 -0.931513026 0.1446810919
| 13> H -2.740132162 0.8249087959 -0.0258758051
| 14> H -2.0695993599 -0.176639109 -1.3151951535
| 15> H -0.9252164842 0.1055604978 1.4965730708
| 16> H 0.1879670058 -1.8416331122 1.0149281865
| 17> H -0.3496727043 -1.8386558776 -0.6590095047
| 18> H 2.2868822334 -1.2566759339 0.1072204025
| 19> H 1.5501695399 -0.7209878024 -1.4028704468
| 20> H 1.7176064546 0.8319043667 1.2050783944
| 21> H 2.1891516527 1.3812021765 -0.4097904088
| 22> H -0.2233359483 2.1275973867 0.4429382919
| 23> H -0.1471036353 1.358831464 -1.1483139553
| 24> *
| 25>
| 26>                          ****END OF INPUT****

CARTESIAN COORDINATES (ANGSTROEM)
---------------------------------
  C     -2.165463   -0.074449   -0.236311
  C     -0.790799    0.010320    0.414403
  C      0.093071   -1.222552    0.123136
  C      1.463596   -0.683242   -0.316186
  C      1.473783    0.773875    0.142906
  C      0.029812    1.207469   -0.081825
  H     -2.716077   -0.931513    0.144681
  H     -2.740132    0.824909   -0.025876
  H     -2.069599   -0.176639   -1.315195
  H     -0.925216    0.105560    1.496573
  H      0.187967   -1.841633    1.014928
  H     -0.349673   -1.838656   -0.659010
  H      2.286882   -1.256676    0.107220
  H      1.550170   -0.720988   -1.402870
  H      1.717606    0.831904    1.205078
  H      2.189152    1.381202   -0.409790
  H     -0.223336    2.127597    0.442938
  H     -0.147104    1.358831   -1.148314

 Total Charge           Charge          ....    0
 Multiplicity           Mult            ....    1
 Number of Electrons    NEL             ....   48
 Basis Dimension        Dim             ....  108

ORBITAL ENERGIES
----------------

  NO   OCC          E(Eh)            E(eV)
   0   2.0000      -9.885444      -268.9966
   1   2.0000      -9.875628      -268.7295
   2   2.0000      -9.875260      -268.7195
   3   2.0000      -9.873979      -268.6846
   4   2.0000      -9.873149      -268.6620
   5   2.0000      -9.869180      -268.5540
   6   2.0000      -0.756675       -20.5902
   7   2.0000      -0.665350       -18.1051
   8   2.0000      -0.629788       -17.1374
   9   2.0000      -0.576446       -15.6859
  10   2.0000      -0.503598       -13.7036
  11   2.0000      -0.483616       -13.1599
  12   2.0000      -0.433685       -11.8012
  13   2.0000      -0.413509       -11.2522
  14   2.0000      -0.378386       -10.2964
  15   2.0000      -0.366747        -9.9797
  16   2.0000      -0.356867        -9.7108
  17   2.0000      -0.328539        -8.9400
  18   2.0000      -0.290409        -7.9024
  19   2.0000      -0.289946        -7.8898
  20   2.0000      -0.280047        -7.6205
  21   2.0000      -0.278900        -7.5892
  22   2.0000      -0.272747        -7.4218
  23   2.0000      -0.265619        -7.2279
  24   0.0000       0.031245         0.8502
  25   0.0000       0.049305         1.3417
  26   0.0000       0.065079         1.7709
  27   0.0000       0.084117         2.2889
  28   0.0000       0.103297         2.8109

MULLIKEN ATOMIC CHARGES
-----------------------
   0 C :   -0.224018
   1 C :   -0.209466
   2 C :   -0.105708
   3 C :   -0.167865
   4 C :   -0.153066
   5 C :   -0.127550
   6 H :    0.099730
   7 H :    0.096160
   8 H :    0.092564
   9 H :    0.066484
  10 H :    0.077299
  11 H :    0.073319
  12 H :    0.083554
  13 H :    0.077238
  14 H :    0.078697
  15 H :    0.086717
  16 H :    0.084383
  17 H :    0.071529
Sum of atomic charges:    0.0000000

LOEWDIN ATOMIC CHARGES
----------------------
   0 C :   -0.328934
   1 C :   -0.153127
   2 C :   -0.223834
   3 C :   -0.229434
   4 C :   -0.228506
   5 C :   -0.221632
   6 H :    0.116988
   7 H :    0.116692
   8 H :    0.114154
   9 H :    0.114700
  10 H :    0.117836
  11 H :    0.115822
  12 H :    0.115662
  13 H :    0.115585
  14 H :    0.114515
  15 H :    0.114838
  16 H :    0.115429
  17 H :    0.113246

  Mayer bond orders larger than 0.100000
B(  0-C ,  1-C ) :   1.1251 B(  0-C ,  6-H ) :   0.9516 B(  0-C ,  7-H ) :   0.9497
B(  0-C ,  8-H ) :   0.9442 B(  1-C ,  2-C ) :   1.1103 B(  1-C ,  5-C ) :   1.1217
B(  1-C ,  9-H ) :   0.8986 B(  2-C ,  3-C ) :   1.1643 B(  2-C , 10-H ) :   0.9169
B(  2-C , 11-H ) :   0.9206 B(  3-C ,  4-C ) :   1.1446 B(  3-C , 12-H ) :   0.9250
B(  3-C , 13-H ) :   0.9195 B(  4-C ,  5-C ) :   1.1143 B(  4-C , 14-H ) :   0.9209
B(  4-C , 15-H ) :   0.9289 B(  5-C , 16-H ) :   0.9236 B(  5-C , 17-H ) :   0.9154

Dispersion correction           -0.014318197
FINAL SINGLE POINT ENERGY      -235.267944579909

DIPOLE MOMENT
-------------

Method             : SCF
Type of density    : Electron Density
Multiplicity       :   1
Irrep              :   0
Energy             :  -235.3288662954851418 Eh
Relativity type    :
Basis              : AO
                                X                 Y                 Z
Electronic contribution:      1.173625164       0.133944365       0.552707228
Nuclear contribution   :     -1.162722431      -0.127684152      -0.515648027
                        -----------------------------------------
Total Dipole Moment    :      0.010902733       0.006260212       0.037059201
                        -----------------------------------------
Magnitude (a.u.)       :      0.039133671
Magnitude (Debye)      :      0.099469888

Rotational constants in cm-1:             0.203361             0.101029             0.076750
Rotational constants in MHz :          6096.616565          3028.778882          2300.918638

                             ****ORCA TERMINATED NORMALLY****
TOTAL RUN TIME: 0 days 0 hours 0 minutes 5 seconds 527 msec
