                         Program Version 6.0.0  -   RELEASE  -
|  1> ! pbe def2-sv(p) def2/J RI DEFGRID1 loosescf d4 GCP(DFT/SV(P)) printgap
|  2> %output
|  3>     printlevel normal
|  4> end
|  5> * xyz 0 1
|  6> C -2.346106066 -0.913766093 0.5815791033
|  7> C -0.8973158975 -0.4104992561 0.6385647843
|  8> H -0.5640189886 -0.3893689949 1.6848945436
|  9> C -0.7407283684 0.9995996351 0.0379471765
| 10> H -1.3355524042 1.0630433909 -0.884085371
| 11> C 0.7357672732 1.2709604896 -0.3452525615
| 12> H 0.9557856679 2.2938051052 -0.0155936429
| 13> C 1.6840666389 0.2860043735 0.3567114687
| 14> H 2.6970662731 0.4336656767 -0.0475289478
| 15> C 1.2812027649 -1.1544983716 -0.0040400778
| 16> H 1.6745450131 -1.821257849 0.7865895592
| 17> O -0.1141879829 -1.3409996288 -0.0969737656
| 18> O 1.8342789968 -1.4529703658 -1.2414788408
| 19> O 1.6800835713 0.398285669 1.7549438773
| 20> O 0.9423681149 1.2567209483 -1.7339740632
| 21> O -1.1275869185 1.9951514013 0.9555979097
| 22> O -2.8927116315 -0.8644030655 -0.7105626984
| 23> H -2.9759123689 -0.2798385443 1.2070354201
| 24> H -2.3691676989 -1.9365491268 0.9759405063
| 25> H 1.5996625297 -2.3586102968 -1.4989034275
| 26> H 1.9415402419 1.2947440849 2.0112026403
| 27> H 1.1064354134 0.3447469607 -2.0270546387
| 28> H -2.0909269707 2.0120482207 1.0334832786
| 29> H -2.3809339852 -1.4531638232 -1.2828521321
| 30> *
| 31>
| 32>                          ****END OF INPUT****

CARTESIAN COORDINATES (ANGSTROEM)
---------------------------------
  C     -2.346106   -0.913766    0.581579
  C     -0.897316   -0.410499    0.638565
  H     -0.564019   -0.389369    1.684895
  C     -0.740728    0.999600    0.037947
  H     -1.335552    1.063043   -0.884085
  C      0.735767    1.270960   -0.345253
  H      0.955786    2.293805   -0.015594
  C      1.684067    0.286004    0.356711
  H      2.697066    0.433666   -0.047529
  C      1.281203   -1.154498   -0.004040
  H      1.674545   -1.821258    0.786590
  O     -0.114188   -1.341000   -0.096974
  O      1.834279   -1.452970   -1.241479
  O      1.680084    0.398286    1.754944
  O      0.942368    1.256721   -1.733974
  O     -1.127587    1.995151    0.955598
  O     -2.892712   -0.864403   -0.710563
  H     -2.975912   -0.279839    1.207035
  H     -2.369168   -1.936549    0.975941
  H      1.599663   -2.358610   -1.498903
  H      1.941540    1.294744    2.011203
  H      1.106435    0.344747   -2.027055
  H     -2.090927    2.012048    1.033483
  H     -2.380934   -1.453164   -1.282852

 Total Charge           Charge          ....    0
 Multiplicity           Mult            ....    1
 Number of Electrons    NEL             ....   96
 Basis Dimension        Dim             ....  192

ORBITAL ENERGIES
----------------

  NO   OCC          E(Eh)            E(eV)
   0   2.0000     -18.783202      -511.1169
   1   2.0000     -18.772975      -510.8386
   2   2.0000     -18.762942      -510.5656
   3   2.0000     -18.750843      -510.2364
   4   2.0000     -18.750183      -510.2184
   5   2.0000     -18.735962      -509.8315
   6   2.0000      -9.996058      -272.0066
   7   2.0000      -9.946074      -270.6464
   8   2.0000      -9.935832      -270.3677
   9   2.0000      -9.935358      -270.3548
  10   2.0000      -9.935050      -270.3464
  11   2.0000      -9.929190      -270.1870
  12   2.0000      -0.993242       -27.0275
  13   2.0000      -0.942087       -25.6355
  14   2.0000      -0.935974       -25.4692
  15   2.0000      -0.925757       -25.1911
  16   2.0000      -0.918124       -24.9834
  17   2.0000      -0.912637       -24.8341
  18   2.0000      -0.693831       -18.8801
  19   2.0000      -0.689570       -18.7641
  20   2.0000      -0.630886       -17.1673
  21   2.0000      -0.574629       -15.6365
  22   2.0000      -0.571987       -15.5646
  23   2.0000      -0.525532       -14.3005
  24   2.0000      -0.504405       -13.7256
  25   2.0000      -0.485922       -13.2226
  26   2.0000      -0.482074       -13.1179
  27   2.0000      -0.456580       -12.4242
  28   2.0000      -0.448589       -12.2067
  29   2.0000      -0.437543       -11.9061
  30   2.0000      -0.419377       -11.4118
  31   2.0000      -0.390333       -10.6215
  32   2.0000      -0.377662       -10.2767
  33   2.0000      -0.369288       -10.0488
  34   2.0000      -0.358694        -9.7606
  35   2.0000      -0.354853        -9.6560
  36   2.0000      -0.337234        -9.1766
  37   2.0000      -0.327395        -8.9089
  38   2.0000      -0.303920        -8.2701
  39   2.0000      -0.290373        -7.9015
  40   2.0000      -0.287294        -7.8177
  41   2.0000      -0.268385        -7.3031
  42   2.0000      -0.256674        -6.9845
  43   2.0000      -0.239640        -6.5209
  44   2.0000      -0.234561        -6.3827
  45   2.0000      -0.224404        -6.1063
  46   2.0000      -0.211663        -5.7596
  47   2.0000      -0.196409        -5.3445
  48   0.0000       0.008948         0.2435
  49   0.0000       0.020501         0.5579
  50   0.0000       0.028264         0.7691
  51   0.0000       0.042674         1.1612
  52   0.0000       0.063151         1.7184

MULLIKEN ATOMIC CHARGES
-----------------------
   0 C :    0.082263
   1 C :   -0.027744
   2 H :    0.076600
   3 C :    0.084007
   4 H :    0.057130
   5 C :    0.073073
   6 H :    0.063854
   7 C :   -0.021894
   8 H :    0.087659
   9 C :    0.179321
  10 H :    0.072324
  11 O :   -0.335095
  12 O :   -0.391091
  13 O :   -0.404519
  14 O :   -0.422963
  15 O :   -0.420802
  16 O :   -0.433223
  17 H :    0.072507
  18 H :    0.081162
  19 H :    0.313253
  20 H :    0.312839
  21 H :    0.297874
  22 H :    0.303118
  23 H :    0.300347
Sum of atomic charges:   -0.0000000

LOEWDIN ATOMIC CHARGES
----------------------
   0 C :   -0.127316
   1 C :   -0.089020
   2 H :    0.112309
   3 C :   -0.075190
   4 H :    0.106598
   5 C :   -0.064509
   6 H :    0.113770
   7 C :   -0.092719
   8 H :    0.112795
   9 C :    0.005576
  10 H :    0.094721
  11 O :   -0.169700
  12 O :   -0.292234
  13 O :   -0.306754
  14 O :   -0.319587
  15 O :   -0.319669
  16 O :   -0.331561
  17 H :    0.110148
  18 H :    0.103864
  19 H :    0.293834
  20 H :    0.293848
  21 H :    0.270100
  22 H :    0.286539
  23 H :    0.284157

  Mayer bond orders larger than 0.100000
B(  0-C ,  1-C ) :   1.0326 B(  0-C , 16-O ) :   1.0714 B(  0-C , 17-H ) :   0.9194
B(  0-C , 18-H ) :   0.9151 B(  1-C ,  2-H ) :   0.8561 B(  1-C ,  3-C ) :   1.0190
B(  1-C , 11-O ) :   0.9834 B(  3-C ,  4-H ) :   0.8724 B(  3-C ,  5-C ) :   0.9594
B(  3-C , 15-O ) :   1.0663 B(  5-C ,  6-H ) :   0.8834 B(  5-C ,  7-C ) :   1.0253
B(  5-C , 14-O ) :   1.0810 B(  7-C ,  8-H ) :   0.8972 B(  7-C ,  9-C ) :   0.9632
B(  7-C , 13-O ) :   1.0601 B(  9-C , 10-H ) :   0.9054 B(  9-C , 11-O ) :   1.0428
B(  9-C , 12-O ) :   1.1166 B( 12-O , 19-H ) :   0.8378 B( 13-O , 20-H ) :   0.8422
B( 14-O , 21-H ) :   0.8166 B( 15-O , 22-H ) :   0.8464 B( 16-O , 23-H ) :   0.8443

Dispersion correction           -0.024896640
FINAL SINGLE POINT ENERGY      -685.692333405850

DIPOLE MOMENT
-------------

Method             : SCF
Type of density    : Electron Density
Multiplicity       :   1
Irrep              :   0
Energy             :  -685.8234499951176986 Eh
Relativity type    :
Basis              : AO
                                X                 Y                 Z
Electronic contribution:      1.787857978      -0.076948231      -1.463906283
Nuclear contribution   :     -1.629028060      -0.747594854       1.807096661
                        -----------------------------------------
Total Dipole Moment    :      0.158829918      -0.824543085       0.343190378
                        -----------------------------------------
Magnitude (a.u.)       :      0.907126164
Magnitude (Debye)      :      2.305731469

Rotational constants in cm-1:             0.039397             0.027332             0.023140
Rotational constants in MHz :          1181.087272           819.394504           693.717410

                             ****ORCA TERMINATED NORMALLY****
TOTAL RUN TIME: 0 days 0 hours 0 minutes 12 seconds 38 msec
