                         Program Version 6.0.0  -   RELEASE  -
|  1> ! pbe def2-sv(p) def2/J RI DEFGRID1 loosescf d4 GCP(DFT/SV(P)) printgap
|  2> %output
|  3>     printlevel normal
|  4> end
|  5> * xyz 0 1
|  6> N 0.7189574388 -0.0002564599 -0.0410939441
|  7> N -0.7076905085 -0.0002393547 0.1332398253
|  8> H 0.9897126631 -0.3012191528 -0.9776346995
|  9> H 1.0346036025 0.9568087295 0.0837523219
| 10> H -0.9853335695 -0.9587801201 0.3207899181
| 11> H -1.1955519679 0.3100805598 -0.7073994852
| 12> *
| 13>
| 14>                          ****END OF INPUT****

CARTESIAN COORDINATES (ANGSTROEM)
---------------------------------
  N      0.718957   -0.000256   -0.041094
  N     -0.707691   -0.000239    0.133240
  H      0.989713   -0.301219   -0.977635
  H      1.034604    0.956809    0.083752
  H     -0.985334   -0.958780    0.320790
  H     -1.195552    0.310081   -0.707399

 Total Charge           Charge          ....    0
 Multiplicity           Mult            ....    1
 Number of Electrons    NEL             ....   18
 Basis Dimension        Dim             ....   36

ORBITAL ENERGIES
----------------

  NO   OCC          E(Eh)            E(eV)
   0   2.0000     -13.980415      -380.4264
   1   2.0000     -13.980190      -380.4203
   2   2.0000      -0.847635       -23.0653
   3   2.0000      -0.662442       -18.0260
   4   2.0000      -0.440065       -11.9748
   5   2.0000      -0.437289       -11.8992
   6   2.0000      -0.393615       -10.7108
   7   2.0000      -0.198607        -5.4044
   8   2.0000      -0.179967        -4.8971
   9   0.0000       0.030421         0.8278
  10   0.0000       0.062255         1.6940
  11   0.0000       0.111135         3.0241
  12   0.0000       0.113039         3.0760
  13   0.0000       0.189907         5.1676

MULLIKEN ATOMIC CHARGES
-----------------------
   0 N :   -0.403257
   1 N :   -0.403279
   2 H :    0.190742
   3 H :    0.212511
   4 H :    0.212519
   5 H :    0.190764
Sum of atomic charges:    0.0000000

LOEWDIN ATOMIC CHARGES
----------------------
   0 N :   -0.381271
   1 N :   -0.381302
   2 H :    0.182564
   3 H :    0.198712
   4 H :    0.198723
   5 H :    0.182575

  Mayer bond orders larger than 0.100000
B(  0-N ,  1-N ) :   1.0848 B(  0-N ,  2-H ) :   0.9082 B(  0-N ,  3-H ) :   0.9157
B(  1-N ,  4-H ) :   0.9156 B(  1-N ,  5-H ) :   0.9082

Dispersion correction           -0.001517840
FINAL SINGLE POINT ENERGY      -111.590018931748

DIPOLE MOMENT
-------------

Method             : SCF
Type of density    : Electron Density
Multiplicity       :   1
Irrep              :   0
Energy             :  -111.6197633686482220 Eh
Relativity type    :
Basis              : AO
                                X                 Y                 Z
Electronic contribution:      0.036050935      -0.001671283       0.295068684
Nuclear contribution   :     -0.146826858       0.006461290      -1.200814230
                        -----------------------------------------
Total Dipole Moment    :     -0.110775923       0.004790006      -0.905745545
                        -----------------------------------------
Magnitude (a.u.)       :      0.912507119
Magnitude (Debye)      :      2.319408770

Rotational constants in cm-1:             4.765440             0.814820             0.801474
Rotational constants in MHz :        142864.307644         24427.679563         24027.573805

                             ****ORCA TERMINATED NORMALLY****
TOTAL RUN TIME: 0 days 0 hours 0 minutes 3 seconds 548 msec
