                         Program Version 6.0.0  -   RELEASE  -
|  1> ! wb97x-v def2-tzvp def2/J RIJCOSX DEFGRID2 scfconv7 GCP(DFT/TZ) printgap
|  2> %output
|  3>     printlevel normal
|  4> end
|  5> * xyz 0 1
|  6> C -1.1334145859007907 -1.3389924562976665 -0.5081920261251696
|  7> C -0.704103050714961 -0.20150184598365375 0.4116118170429234
|  8> C -1.5575753922679922 1.0385645130929573 0.27595278255733013
|  9> N 0.7525096912140429 0.10550314512157558 0.06567765127855282
| 10> O 0.994961695536875 1.0187332078152358 -0.7135706943470219
| 11> O 1.6108282468191668 -0.6192173386713405 0.5593050420292064
| 12> H -1.1112073697165072 -1.0174503755554063 -1.5537622843977108
| 13> H -0.495314749048485 -2.2168033112616388 -0.3807555247835659
| 14> H -2.159472854124072 -1.613234448453691 -0.2497004702142434
| 15> H -0.6545741475654985 -0.5483773557883619 1.4465084023749673
| 16> H -1.1684146192138434 1.8620773253631706 0.8802059439573218
| 17> H -2.5599672933938957 0.7914013559763979 0.6369157429621247
| 18> H -1.6354542232385252 1.3586987531320442 -0.7658507210438349
| 19> *
| 20>
| 21>                          ****END OF INPUT****

CARTESIAN COORDINATES (ANGSTROEM)
---------------------------------
  C     -1.133415   -1.338992   -0.508192
  C     -0.704103   -0.201502    0.411612
  C     -1.557575    1.038565    0.275953
  N      0.752510    0.105503    0.065678
  O      0.994962    1.018733   -0.713571
  O      1.610828   -0.619217    0.559305
  H     -1.111207   -1.017450   -1.553762
  H     -0.495315   -2.216803   -0.380756
  H     -2.159473   -1.613234   -0.249700
  H     -0.654574   -0.548377    1.446508
  H     -1.168415    1.862077    0.880206
  H     -2.559967    0.791401    0.636916
  H     -1.635454    1.358699   -0.765851

 Total Charge           Charge          ....    0
 Multiplicity           Mult            ....    1
 Number of Electrons    NEL             ....   48
 Basis Dimension        Dim             ....  228

ORBITAL ENERGIES
----------------

  NO   OCC          E(Eh)            E(eV)
   0   2.0000     -21.708297      -590.7128
   1   2.0000     -21.705962      -590.6492
   2   2.0000     -16.763268      -456.1517
   3   2.0000     -12.125816      -329.9602
   4   2.0000     -12.068614      -328.4037
   5   2.0000     -12.063175      -328.2557
   6   2.0000      -1.899956       -51.7004
   7   2.0000      -1.746580       -47.5268
   8   2.0000      -1.396764       -38.0079
   9   2.0000      -1.269738       -34.5513
  10   2.0000      -1.216257       -33.0960
  11   2.0000      -1.165490       -31.7146
  12   2.0000      -1.137101       -30.9421
  13   2.0000      -1.072796       -29.1923
  14   2.0000      -1.036124       -28.1944
  15   2.0000      -0.929970       -25.3058
  16   2.0000      -0.908389       -24.7185
  17   2.0000      -0.900060       -24.4919
  18   2.0000      -0.893064       -24.3015
  19   2.0000      -0.881704       -23.9924
  20   2.0000      -0.841827       -22.9073
  21   2.0000      -0.838736       -22.8232
  22   2.0000      -0.822097       -22.3704
  23   2.0000      -0.809344       -22.0234
  24   0.0000      -0.474014       -12.8986
  25   0.0000      -0.230813        -6.2807
  26   0.0000      -0.122552        -3.3348
  27   0.0000      -0.088093        -2.3971
  28   0.0000      -0.041448        -1.1279

MULLIKEN ATOMIC CHARGES
-----------------------
   0 C :   -0.369161
   1 C :   -0.004276
   2 C :   -0.325065
   3 N :    0.411525
   4 O :   -0.305685
   5 O :   -0.312414
   6 H :    0.132338
   7 H :    0.146451
   8 H :    0.120657
   9 H :    0.120770
  10 H :    0.133845
  11 H :    0.118120
  12 H :    0.132895
Sum of atomic charges:   -0.0000000

LOEWDIN ATOMIC CHARGES
----------------------
   0 C :   -0.268029
   1 C :   -0.282054
   2 C :   -0.276513
   3 N :   -0.029570
   4 O :   -0.030452
   5 O :   -0.041240
   6 H :    0.128616
   7 H :    0.128801
   8 H :    0.129838
   9 H :    0.154123
  10 H :    0.127778
  11 H :    0.129448
  12 H :    0.129254

  Mayer bond orders larger than 0.100000
B(  0-C ,  1-C ) :   0.9746 B(  0-C ,  6-H ) :   0.9680 B(  0-C ,  7-H ) :   0.9714
B(  0-C ,  8-H ) :   0.9711 B(  1-C ,  2-C ) :   0.9876 B(  1-C ,  3-N ) :   0.8533
B(  1-C ,  9-H ) :   0.9614 B(  2-C , 10-H ) :   0.9760 B(  2-C , 11-H ) :   0.9643
B(  2-C , 12-H ) :   0.9621 B(  3-N ,  4-O ) :   1.6524 B(  3-N ,  5-O ) :   1.6600
B(  4-O ,  5-O ) :   0.2067

FINAL SINGLE POINT ENERGY      -323.669539123359

DIPOLE MOMENT
-------------

Method             : SCF
Type of density    : Electron Density
Multiplicity       :   1
Irrep              :   0
Energy             :  -323.6784256845584764 Eh
Relativity type    :
Basis              : AO
                                X                 Y                 Z
Electronic contribution:      7.719016700       1.049387039       0.300030647
Nuclear contribution   :     -9.254591418      -1.324719722      -0.035139638
                        -----------------------------------------
Total Dipole Moment    :     -1.535574718      -0.275332683       0.264891009
                        -----------------------------------------
Magnitude (a.u.)       :      1.582392192
Magnitude (Debye)      :      4.022121308

Rotational constants in cm-1:             0.171151             0.106241             0.081779
Rotational constants in MHz :          5130.977061          3185.027453          2451.664227

                             ****ORCA TERMINATED NORMALLY****
TOTAL RUN TIME: 0 days 0 hours 1 minutes 31 seconds 822 msec
