                         Program Version 6.0.0  -   RELEASE  -
|  1> ! wb97x-v def2-tzvp def2/J RIJCOSX DEFGRID2 scfconv7 GCP(DFT/TZ) printgap
|  2> %output
|  3>     printlevel normal
|  4> end
|  5> %cpcm
|  6>     smd true
|  7>     smdsolvent "water"
|  8> end
|  9> * xyz 0 1
| 10> C -1.1334145859007907 -1.3389924562976665 -0.5081920261251696
| 11> C -0.704103050714961 -0.20150184598365375 0.4116118170429234
| 12> C -1.5575753922679922 1.0385645130929573 0.27595278255733013
| 13> N 0.7525096912140429 0.10550314512157558 0.06567765127855282
| 14> O 0.994961695536875 1.0187332078152358 -0.7135706943470219
| 15> O 1.6108282468191668 -0.6192173386713405 0.5593050420292064
| 16> H -1.1112073697165072 -1.0174503755554063 -1.5537622843977108
| 17> H -0.495314749048485 -2.2168033112616388 -0.3807555247835659
| 18> H -2.159472854124072 -1.613234448453691 -0.2497004702142434
| 19> H -0.6545741475654985 -0.5483773557883619 1.4465084023749673
| 20> H -1.1684146192138434 1.8620773253631706 0.8802059439573218
| 21> H -2.5599672933938957 0.7914013559763979 0.6369157429621247
| 22> H -1.6354542232385252 1.3586987531320442 -0.7658507210438349
| 23> *
| 24>
| 25>                          ****END OF INPUT****

CARTESIAN COORDINATES (ANGSTROEM)
---------------------------------
  C     -1.133415   -1.338992   -0.508192
  C     -0.704103   -0.201502    0.411612
  C     -1.557575    1.038565    0.275953
  N      0.752510    0.105503    0.065678
  O      0.994962    1.018733   -0.713571
  O      1.610828   -0.619217    0.559305
  H     -1.111207   -1.017450   -1.553762
  H     -0.495315   -2.216803   -0.380756
  H     -2.159473   -1.613234   -0.249700
  H     -0.654574   -0.548377    1.446508
  H     -1.168415    1.862077    0.880206
  H     -2.559967    0.791401    0.636916
  H     -1.635454    1.358699   -0.765851

 Total Charge           Charge          ....    0
 Multiplicity           Mult            ....    1
 Number of Electrons    NEL             ....   48
 Basis Dimension        Dim             ....  228

ORBITAL ENERGIES
----------------

  NO   OCC          E(Eh)            E(eV)
   0   2.0000     -21.721455      -591.0708
   1   2.0000     -21.719365      -591.0140
   2   2.0000     -16.772353      -456.3989
   3   2.0000     -12.109839      -329.5255
   4   2.0000     -12.045002      -327.7612
   5   2.0000     -12.040570      -327.6406
   6   2.0000      -1.911990       -52.0279
   7   2.0000      -1.759674       -47.8832
   8   2.0000      -1.390950       -37.8497
   9   2.0000      -1.267525       -34.4911
  10   2.0000      -1.194557       -32.5056
  11   2.0000      -1.167479       -31.7687
  12   2.0000      -1.152979       -31.3741
  13   2.0000      -1.081822       -29.4379
  14   2.0000      -1.022656       -27.8279
  15   2.0000      -0.936404       -25.4808
  16   2.0000      -0.910571       -24.7779
  17   2.0000      -0.905178       -24.6312
  18   2.0000      -0.894023       -24.3276
  19   2.0000      -0.862033       -23.4571
  20   2.0000      -0.821303       -22.3488
  21   2.0000      -0.818090       -22.2614
  22   2.0000      -0.799438       -21.7538
  23   2.0000      -0.787552       -21.4304
  24   0.0000      -0.482811       -13.1380
  25   0.0000      -0.230179        -6.2635
  26   0.0000      -0.124588        -3.3902
  27   0.0000      -0.090527        -2.4634
  28   0.0000      -0.019817        -0.5392

MULLIKEN ATOMIC CHARGES
-----------------------
   0 C :   -0.397685
   1 C :    0.024760
   2 C :   -0.381806
   3 N :    0.472802
   4 O :   -0.369941
   5 O :   -0.379552
   6 H :    0.144895
   7 H :    0.149764
   8 H :    0.149593
   9 H :    0.149646
  10 H :    0.150063
  11 H :    0.147477
  12 H :    0.139985
Sum of atomic charges:   -0.0000000

LOEWDIN ATOMIC CHARGES
----------------------
   0 C :   -0.264933
   1 C :   -0.268533
   2 C :   -0.276444
   3 N :   -0.010263
   4 O :   -0.064574
   5 O :   -0.078900
   6 H :    0.131678
   7 H :    0.129122
   8 H :    0.139232
   9 H :    0.165125
  10 H :    0.130144
  11 H :    0.139381
  12 H :    0.128964

  Mayer bond orders larger than 0.100000
B(  0-C ,  1-C ) :   0.9678 B(  0-C ,  6-H ) :   0.9636 B(  0-C ,  7-H ) :   0.9685
B(  0-C ,  8-H ) :   0.9661 B(  1-C ,  2-C ) :   0.9884 B(  1-C ,  3-N ) :   0.8461
B(  1-C ,  9-H ) :   0.9528 B(  2-C , 10-H ) :   0.9732 B(  2-C , 11-H ) :   0.9604
B(  2-C , 12-H ) :   0.9594 B(  3-N ,  4-O ) :   1.6245 B(  3-N ,  5-O ) :   1.6212
B(  4-O ,  5-O ) :   0.2014

FINAL SINGLE POINT ENERGY      -323.675496399180

DIPOLE MOMENT
-------------

Method             : SCF
Type of density    : Electron Density
Multiplicity       :   1
Irrep              :   0
Energy             :  -323.6843829603798781 Eh
Relativity type    :
Basis              : AO
                                X                 Y                 Z
Electronic contribution:      7.259325234       0.950115869       0.428868479
Nuclear contribution   :     -9.254591418      -1.324719722      -0.035139638
                        -----------------------------------------
Total Dipole Moment    :     -1.995266184      -0.374603853       0.393728841
                        -----------------------------------------
Magnitude (a.u.)       :      2.067954930
Magnitude (Debye)      :      5.256323705

Rotational constants in cm-1:             0.171151             0.106241             0.081779
Rotational constants in MHz :          5130.977061          3185.027453          2451.664227

                             ****ORCA TERMINATED NORMALLY****
TOTAL RUN TIME: 0 days 0 hours 1 minutes 27 seconds 476 msec
