                         Program Version 6.0.0  -   RELEASE  -
|  1> ! r2scan-3c def2/J RI DEFGRID2 scfconv6 printgap
|  2> %output
|  3>     printlevel normal
|  4> end
|  5> * xyz 0 1
|  6> C 2.8641349957 -0.000790389 1.2476863561
|  7> C 1.9740517465 1.2312915649 1.419694586
|  8> H 2.1147229546 1.6753156439 2.4048289013
|  9> C 0.4999141812 0.7805905713 1.3048735762
| 10> H -0.0322346393 1.1737220648 2.1715642059
| 11> C 0.4995656013 -0.7809681872 1.3049998165
| 12> H -0.032616236 -1.1737895069 2.1717343024
| 13> C 1.9734849263 -1.232450993 1.4194328402
| 14> H 2.1140497856 -1.6769037985 2.4044123202
| 15> Cl 2.4890821117 -2.5180886321 0.2802510093
| 16> C -0.3846731151 -1.1200115841 0.0681149766
| 17> C -1.780366044 -0.667503115 0.4900362024
| 18> C -1.7799998815 0.6685893829 0.4900023553
| 19> C -0.3838726939 1.1201064406 0.0678604401
| 20> C -0.0638539584 -0.0001709349 -0.9457768849
| 21> Cl 1.5442996221 -0.0006709612 -1.6280527412
| 22> Cl -1.2050935015 0.0002299568 -2.321211888
| 23> Cl -0.3874553145 2.7596996209 -0.561483182
| 24> Cl -3.0079129793 1.7429610359 0.9295851536
| 25> Cl -3.0088387162 -1.7409173977 0.9303547407
| 26> Cl -0.3897377929 -2.7597868337 -0.5607642759
| 27> Cl 2.4905584694 2.5171160691 0.2810851677
| 28> H 3.6687648202 -0.0010113458 1.9784346854
| 29> H 3.3176473168 -0.0007307463 0.2592330675
| 30> *
| 31>
| 32>                          ****END OF INPUT****

CARTESIAN COORDINATES (ANGSTROEM)
---------------------------------
  C      2.864135   -0.000790    1.247686
  C      1.974052    1.231292    1.419695
  H      2.114723    1.675316    2.404829
  C      0.499914    0.780591    1.304874
  H     -0.032235    1.173722    2.171564
  C      0.499566   -0.780968    1.305000
  H     -0.032616   -1.173790    2.171734
  C      1.973485   -1.232451    1.419433
  H      2.114050   -1.676904    2.404412
  Cl     2.489082   -2.518089    0.280251
  C     -0.384673   -1.120012    0.068115
  C     -1.780366   -0.667503    0.490036
  C     -1.780000    0.668589    0.490002
  C     -0.383873    1.120106    0.067860
  C     -0.063854   -0.000171   -0.945777
  Cl     1.544300   -0.000671   -1.628053
  Cl    -1.205094    0.000230   -2.321212
  Cl    -0.387455    2.759700   -0.561483
  Cl    -3.007913    1.742961    0.929585
  Cl    -3.008839   -1.740917    0.930355
  Cl    -0.389738   -2.759787   -0.560764
  Cl     2.490558    2.517116    0.281085
  H      3.668765   -0.001011    1.978435
  H      3.317647   -0.000731    0.259233

 Total Charge           Charge          ....    0
 Multiplicity           Mult            ....    1
 Number of Electrons    NEL             ....  202
 Basis Dimension        Dim             ....  436

ORBITAL ENERGIES
----------------

  NO   OCC          E(Eh)            E(eV)
   0   2.0000    -101.255518     -2755.3027
   1   2.0000    -101.255503     -2755.3023
   2   2.0000    -101.238170     -2754.8307
   3   2.0000    -101.229489     -2754.5944
   4   2.0000    -101.229486     -2754.5944
   5   2.0000    -101.228497     -2754.5674
   6   2.0000    -101.211920     -2754.1164
   7   2.0000    -101.211918     -2754.1163
   8   2.0000     -10.196869      -277.4709
   9   2.0000     -10.163577      -276.5650
  10   2.0000     -10.163573      -276.5649
  11   2.0000     -10.133068      -275.7348
  12   2.0000     -10.132353      -275.7153
  13   2.0000     -10.126934      -275.5679
  14   2.0000     -10.126930      -275.5678
  15   2.0000     -10.102854      -274.9126
  16   2.0000     -10.102754      -274.9099
  17   2.0000     -10.063160      -273.8325
  18   2.0000      -9.410884      -256.0832
  19   2.0000      -9.410870      -256.0828
  20   2.0000      -9.394848      -255.6468
  21   2.0000      -9.385586      -255.3948
  22   2.0000      -9.385584      -255.3947
  23   2.0000      -9.384431      -255.3633
  24   2.0000      -9.368395      -254.9270
  25   2.0000      -9.368394      -254.9270
  26   2.0000      -7.157443      -194.7639
  27   2.0000      -7.157430      -194.7636
  28   2.0000      -7.147270      -194.4871
  29   2.0000      -7.147257      -194.4867
  30   2.0000      -7.146290      -194.4604
  31   2.0000      -7.146276      -194.4601
  32   2.0000      -7.141652      -194.3342
  33   2.0000      -7.132466      -194.0843
  34   2.0000      -7.132464      -194.0842
  35   2.0000      -7.131444      -194.0565
  36   2.0000      -7.130583      -194.0330
  37   2.0000      -7.130383      -194.0276
  38   2.0000      -7.121525      -193.7866
  39   2.0000      -7.121524      -193.7865
  40   2.0000      -7.120953      -193.7710
  41   2.0000      -7.120952      -193.7709
  42   2.0000      -7.120157      -193.7493
  43   2.0000      -7.119957      -193.7439
  44   2.0000      -7.114881      -193.6057
  45   2.0000      -7.114879      -193.6057
  46   2.0000      -7.104229      -193.3159
  47   2.0000      -7.104227      -193.3159
  48   2.0000      -7.104208      -193.3153
  49   2.0000      -7.104207      -193.3153
  50   2.0000      -0.969646       -26.3854
  51   2.0000      -0.890625       -24.2351
  52   2.0000      -0.876517       -23.8512
  53   2.0000      -0.876358       -23.8469
  54   2.0000      -0.842674       -22.9303
  55   2.0000      -0.839285       -22.8381
  56   2.0000      -0.824789       -22.4436
  57   2.0000      -0.812381       -22.1060
  58   2.0000      -0.801472       -21.8092
  59   2.0000      -0.765656       -20.8345
  60   2.0000      -0.720445       -19.6043
  61   2.0000      -0.711404       -19.3583
  62   2.0000      -0.675533       -18.3822
  63   2.0000      -0.653024       -17.7697
  64   2.0000      -0.591148       -16.0860
  65   2.0000      -0.567290       -15.4367
  66   2.0000      -0.550849       -14.9894
  67   2.0000      -0.535894       -14.5824
  68   2.0000      -0.520860       -14.1733
  69   2.0000      -0.508287       -13.8312
  70   2.0000      -0.494896       -13.4668
  71   2.0000      -0.458183       -12.4678
  72   2.0000      -0.448806       -12.2126
  73   2.0000      -0.446544       -12.1511
  74   2.0000      -0.443831       -12.0772
  75   2.0000      -0.441759       -12.0209
  76   2.0000      -0.414607       -11.2820
  77   2.0000      -0.411812       -11.2060
  78   2.0000      -0.391949       -10.6655
  79   2.0000      -0.390771       -10.6334
  80   2.0000      -0.388104       -10.5608
  81   2.0000      -0.385365       -10.4863
  82   2.0000      -0.365336        -9.9413
  83   2.0000      -0.358338        -9.7509
  84   2.0000      -0.344755        -9.3812
  85   2.0000      -0.343846        -9.3565
  86   2.0000      -0.328930        -8.9506
  87   2.0000      -0.324968        -8.8428
  88   2.0000      -0.317922        -8.6511
  89   2.0000      -0.313520        -8.5313
  90   2.0000      -0.308320        -8.3898
  91   2.0000      -0.305829        -8.3220
  92   2.0000      -0.298288        -8.1168
  93   2.0000      -0.295053        -8.0288
  94   2.0000      -0.290914        -7.9162
  95   2.0000      -0.283374        -7.7110
  96   2.0000      -0.276528        -7.5247
  97   2.0000      -0.263168        -7.1612
  98   2.0000      -0.260132        -7.0786
  99   2.0000      -0.250988        -6.8297
 100   2.0000      -0.238999        -6.5035
 101   0.0000      -0.070829        -1.9274
 102   0.0000      -0.063455        -1.7267
 103   0.0000      -0.044484        -1.2105
 104   0.0000      -0.033886        -0.9221
 105   0.0000      -0.007984        -0.2173

MULLIKEN ATOMIC CHARGES
-----------------------
   0 C :   -0.419797
   1 C :    0.033387
   2 H :    0.180487
   3 C :   -0.341775
   4 H :    0.208179
   5 C :   -0.341525
   6 H :    0.208166
   7 C :    0.033454
   8 H :    0.180487
   9 Cl:   -0.160616
  10 C :    0.435482
  11 C :   -0.164287
  12 C :   -0.164314
  13 C :    0.435648
  14 C :   -0.058709
  15 Cl:   -0.033185
  16 Cl:   -0.077473
  17 Cl:   -0.074646
  18 Cl:   -0.019137
  19 Cl:   -0.019194
  20 Cl:   -0.074668
  21 Cl:   -0.160636
  22 H :    0.177833
  23 H :    0.216838
Sum of atomic charges:    0.0000000

LOEWDIN ATOMIC CHARGES
----------------------
   0 C :   -0.323499
   1 C :   -0.233229
   2 H :    0.171724
   3 C :   -0.178184
   4 H :    0.190285
   5 C :   -0.178164
   6 H :    0.190275
   7 C :   -0.233243
   8 H :    0.171730
   9 Cl:    0.069657
  10 C :   -0.224543
  11 C :   -0.241286
  12 C :   -0.241245
  13 C :   -0.224549
  14 C :   -0.286694
  15 Cl:    0.205829
  16 Cl:    0.158925
  17 Cl:    0.170281
  18 Cl:    0.220619
  19 Cl:    0.220596
  20 Cl:    0.170266
  21 Cl:    0.069630
  22 H :    0.170908
  23 H :    0.183910

  Mayer bond orders larger than 0.100000
B(  0-C ,  1-C ) :   0.9235 B(  0-C ,  7-C ) :   0.9235 B(  0-C , 22-H ) :   0.9533
B(  0-C , 23-H ) :   0.9838 B(  1-C ,  2-H ) :   0.9532 B(  1-C ,  3-C ) :   0.9765
B(  1-C , 21-Cl) :   0.9614 B(  3-C ,  4-H ) :   0.9041 B(  3-C ,  5-C ) :   1.0162
B(  3-C , 13-C ) :   0.9309 B(  5-C ,  6-H ) :   0.9041 B(  5-C ,  7-C ) :   0.9766
B(  5-C , 10-C ) :   0.9308 B(  7-C ,  8-H ) :   0.9532 B(  7-C ,  9-Cl) :   0.9614
B( 10-C , 11-C ) :   0.7289 B( 10-C , 14-C ) :   0.8599 B( 10-C , 20-Cl) :   1.0397
B( 11-C , 12-C ) :   1.5439 B( 11-C , 19-Cl) :   1.2158 B( 12-C , 13-C ) :   0.7287
B( 12-C , 18-Cl) :   1.2160 B( 13-C , 14-C ) :   0.8599 B( 13-C , 17-Cl) :   1.0397
B( 14-C , 15-Cl) :   1.0921 B( 14-C , 16-Cl) :   1.0662

Dispersion correction           -0.018997390
FINAL SINGLE POINT ENERGY     -4065.940110166980

DIPOLE MOMENT
-------------

Method             : SCF
Type of density    : Electron Density
Multiplicity       :   1
Irrep              :   0
Energy             : -4065.9415122466880348 Eh
Relativity type    :
Basis              : AO
                                X                 Y                 Z
Electronic contribution:    -12.286190886       0.003855324     -12.649096630
Nuclear contribution   :     12.440881952      -0.003916264      14.243204754
                        -----------------------------------------
Total Dipole Moment    :      0.154691067      -0.000060940       1.594108124
                        -----------------------------------------
Magnitude (a.u.)       :      1.601596092
Magnitude (Debye)      :      4.070933744

Rotational constants in cm-1:             0.009217             0.008169             0.005926
Rotational constants in MHz :           276.307669           244.904332           177.665956

                             ****ORCA TERMINATED NORMALLY****
TOTAL RUN TIME: 0 days 0 hours 1 minutes 8 seconds 549 msec
