                         Program Version 6.0.0  -   RELEASE  -
|  1> ! r2scan-3c def2/J RI DEFGRID2 scfconv6 printgap
|  2> %output
|  3>     printlevel normal
|  4> end
|  5> %cpcm
|  6>     smd true
|  7>     smdsolvent "water"
|  8> end
|  9> * xyz 0 1
| 10> C 2.8641349957 -0.000790389 1.2476863561
| 11> C 1.9740517465 1.2312915649 1.419694586
| 12> H 2.1147229546 1.6753156439 2.4048289013
| 13> C 0.4999141812 0.7805905713 1.3048735762
| 14> H -0.0322346393 1.1737220648 2.1715642059
| 15> C 0.4995656013 -0.7809681872 1.3049998165
| 16> H -0.032616236 -1.1737895069 2.1717343024
| 17> C 1.9734849263 -1.232450993 1.4194328402
| 18> H 2.1140497856 -1.6769037985 2.4044123202
| 19> Cl 2.4890821117 -2.5180886321 0.2802510093
| 20> C -0.3846731151 -1.1200115841 0.0681149766
| 21> C -1.780366044 -0.667503115 0.4900362024
| 22> C -1.7799998815 0.6685893829 0.4900023553
| 23> C -0.3838726939 1.1201064406 0.0678604401
| 24> C -0.0638539584 -0.0001709349 -0.9457768849
| 25> Cl 1.5442996221 -0.0006709612 -1.6280527412
| 26> Cl -1.2050935015 0.0002299568 -2.321211888
| 27> Cl -0.3874553145 2.7596996209 -0.561483182
| 28> Cl -3.0079129793 1.7429610359 0.9295851536
| 29> Cl -3.0088387162 -1.7409173977 0.9303547407
| 30> Cl -0.3897377929 -2.7597868337 -0.5607642759
| 31> Cl 2.4905584694 2.5171160691 0.2810851677
| 32> H 3.6687648202 -0.0010113458 1.9784346854
| 33> H 3.3176473168 -0.0007307463 0.2592330675
| 34> *
| 35>
| 36>                          ****END OF INPUT****

CARTESIAN COORDINATES (ANGSTROEM)
---------------------------------
  C      2.864135   -0.000790    1.247686
  C      1.974052    1.231292    1.419695
  H      2.114723    1.675316    2.404829
  C      0.499914    0.780591    1.304874
  H     -0.032235    1.173722    2.171564
  C      0.499566   -0.780968    1.305000
  H     -0.032616   -1.173790    2.171734
  C      1.973485   -1.232451    1.419433
  H      2.114050   -1.676904    2.404412
  Cl     2.489082   -2.518089    0.280251
  C     -0.384673   -1.120012    0.068115
  C     -1.780366   -0.667503    0.490036
  C     -1.780000    0.668589    0.490002
  C     -0.383873    1.120106    0.067860
  C     -0.063854   -0.000171   -0.945777
  Cl     1.544300   -0.000671   -1.628053
  Cl    -1.205094    0.000230   -2.321212
  Cl    -0.387455    2.759700   -0.561483
  Cl    -3.007913    1.742961    0.929585
  Cl    -3.008839   -1.740917    0.930355
  Cl    -0.389738   -2.759787   -0.560764
  Cl     2.490558    2.517116    0.281085
  H      3.668765   -0.001011    1.978435
  H      3.317647   -0.000731    0.259233

 Total Charge           Charge          ....    0
 Multiplicity           Mult            ....    1
 Number of Electrons    NEL             ....  202
 Basis Dimension        Dim             ....  436

ORBITAL ENERGIES
----------------

  NO   OCC          E(Eh)            E(eV)
   0   2.0000    -101.252331     -2755.2160
   1   2.0000    -101.252316     -2755.2156
   2   2.0000    -101.238212     -2754.8318
   3   2.0000    -101.231597     -2754.6518
   4   2.0000    -101.228751     -2754.5744
   5   2.0000    -101.228748     -2754.5743
   6   2.0000    -101.203806     -2753.8956
   7   2.0000    -101.203803     -2753.8955
   8   2.0000     -10.194637      -277.4102
   9   2.0000     -10.157663      -276.4040
  10   2.0000     -10.157658      -276.4039
  11   2.0000     -10.128126      -275.6003
  12   2.0000     -10.127410      -275.5808
  13   2.0000     -10.107794      -275.0471
  14   2.0000     -10.107791      -275.0470
  15   2.0000     -10.083980      -274.3990
  16   2.0000     -10.083880      -274.3963
  17   2.0000     -10.042100      -273.2594
  18   2.0000      -9.407733      -255.9974
  19   2.0000      -9.407719      -255.9970
  20   2.0000      -9.394963      -255.6499
  21   2.0000      -9.387719      -255.4528
  22   2.0000      -9.385013      -255.3792
  23   2.0000      -9.385010      -255.3791
  24   2.0000      -9.360627      -254.7156
  25   2.0000      -9.360625      -254.7156
  26   2.0000      -7.154244      -194.6769
  27   2.0000      -7.154231      -194.6765
  28   2.0000      -7.144096      -194.4007
  29   2.0000      -7.144082      -194.4004
  30   2.0000      -7.143204      -194.3765
  31   2.0000      -7.143190      -194.3761
  32   2.0000      -7.141717      -194.3360
  33   2.0000      -7.134520      -194.1402
  34   2.0000      -7.131721      -194.0640
  35   2.0000      -7.131718      -194.0639
  36   2.0000      -7.130670      -194.0354
  37   2.0000      -7.130560      -194.0324
  38   2.0000      -7.123546      -193.8415
  39   2.0000      -7.123319      -193.8354
  40   2.0000      -7.121031      -193.7731
  41   2.0000      -7.121028      -193.7730
  42   2.0000      -7.120443      -193.7571
  43   2.0000      -7.120440      -193.7570
  44   2.0000      -7.106757      -193.3847
  45   2.0000      -7.106755      -193.3846
  46   2.0000      -7.096612      -193.1086
  47   2.0000      -7.096610      -193.1086
  48   2.0000      -7.096583      -193.1078
  49   2.0000      -7.096581      -193.1078
  50   2.0000      -0.964306       -26.2401
  51   2.0000      -0.887354       -24.1461
  52   2.0000      -0.872956       -23.7543
  53   2.0000      -0.863919       -23.5084
  54   2.0000      -0.837946       -22.8017
  55   2.0000      -0.835161       -22.7259
  56   2.0000      -0.816411       -22.2157
  57   2.0000      -0.808608       -22.0034
  58   2.0000      -0.801977       -21.8229
  59   2.0000      -0.756039       -20.5729
  60   2.0000      -0.705633       -19.2013
  61   2.0000      -0.700284       -19.0557
  62   2.0000      -0.669193       -18.2097
  63   2.0000      -0.641500       -17.4561
  64   2.0000      -0.577459       -15.7135
  65   2.0000      -0.553497       -15.0614
  66   2.0000      -0.541193       -14.7266
  67   2.0000      -0.530546       -14.4369
  68   2.0000      -0.506324       -13.7778
  69   2.0000      -0.504174       -13.7193
  70   2.0000      -0.483294       -13.1511
  71   2.0000      -0.448128       -12.1942
  72   2.0000      -0.442512       -12.0414
  73   2.0000      -0.440048       -11.9743
  74   2.0000      -0.433465       -11.7952
  75   2.0000      -0.427808       -11.6412
  76   2.0000      -0.410816       -11.1789
  77   2.0000      -0.406147       -11.0518
  78   2.0000      -0.382332       -10.4038
  79   2.0000      -0.380345       -10.3497
  80   2.0000      -0.374891       -10.2013
  81   2.0000      -0.373299       -10.1580
  82   2.0000      -0.350751        -9.5444
  83   2.0000      -0.343378        -9.3438
  84   2.0000      -0.340974        -9.2784
  85   2.0000      -0.329380        -8.9629
  86   2.0000      -0.326856        -8.8942
  87   2.0000      -0.323320        -8.7980
  88   2.0000      -0.314619        -8.5612
  89   2.0000      -0.308906        -8.4057
  90   2.0000      -0.305090        -8.3019
  91   2.0000      -0.302653        -8.2356
  92   2.0000      -0.299076        -8.1383
  93   2.0000      -0.294882        -8.0241
  94   2.0000      -0.290068        -7.8931
  95   2.0000      -0.279819        -7.6143
  96   2.0000      -0.272263        -7.4087
  97   2.0000      -0.256214        -6.9719
  98   2.0000      -0.255248        -6.9456
  99   2.0000      -0.246043        -6.6952
 100   2.0000      -0.234050        -6.3688
 101   0.0000      -0.065216        -1.7746
 102   0.0000      -0.060868        -1.6563
 103   0.0000      -0.035293        -0.9604
 104   0.0000      -0.027331        -0.7437
 105   0.0000      -0.006487        -0.1765

MULLIKEN ATOMIC CHARGES
-----------------------
   0 C :   -0.435019
   1 C :    0.036837
   2 H :    0.220117
   3 C :   -0.327145
   4 H :    0.252081
   5 C :   -0.326943
   6 H :    0.252073
   7 C :    0.036908
   8 H :    0.220124
   9 Cl:   -0.209666
  10 C :    0.441700
  11 C :   -0.159634
  12 C :   -0.159613
  13 C :    0.441830
  14 C :   -0.073889
  15 Cl:   -0.045615
  16 Cl:   -0.104281
  17 Cl:   -0.103931
  18 Cl:   -0.029882
  19 Cl:   -0.029937
  20 Cl:   -0.103951
  21 Cl:   -0.209687
  22 H :    0.202612
  23 H :    0.214911
Sum of atomic charges:    0.0000000

LOEWDIN ATOMIC CHARGES
----------------------
   0 C :   -0.320271
   1 C :   -0.222242
   2 H :    0.188198
   3 C :   -0.167049
   4 H :    0.207903
   5 C :   -0.167019
   6 H :    0.207891
   7 C :   -0.222257
   8 H :    0.188205
   9 Cl:    0.040481
  10 C :   -0.223046
  11 C :   -0.238167
  12 C :   -0.238116
  13 C :   -0.223050
  14 C :   -0.287812
  15 Cl:    0.197802
  16 Cl:    0.139335
  17 Cl:    0.153469
  18 Cl:    0.214792
  19 Cl:    0.214770
  20 Cl:    0.153456
  21 Cl:    0.040453
  22 H :    0.182343
  23 H :    0.179935

  Mayer bond orders larger than 0.100000
B(  0-C ,  1-C ) :   0.9336 B(  0-C ,  7-C ) :   0.9336 B(  0-C , 22-H ) :   0.9325
B(  0-C , 23-H ) :   0.9942 B(  1-C ,  2-H ) :   0.9327 B(  1-C ,  3-C ) :   0.9995
B(  1-C , 21-Cl) :   0.9080 B(  3-C ,  4-H ) :   0.8799 B(  3-C ,  5-C ) :   1.0068
B(  3-C , 13-C ) :   0.9317 B(  5-C ,  6-H ) :   0.8799 B(  5-C ,  7-C ) :   0.9997
B(  5-C , 10-C ) :   0.9315 B(  7-C ,  8-H ) :   0.9327 B(  7-C ,  9-Cl) :   0.9079
B( 10-C , 11-C ) :   0.7326 B( 10-C , 14-C ) :   0.8702 B( 10-C , 20-Cl) :   0.9923
B( 11-C , 12-C ) :   1.5671 B( 11-C , 19-Cl) :   1.1937 B( 12-C , 13-C ) :   0.7325
B( 12-C , 18-Cl) :   1.1938 B( 13-C , 14-C ) :   0.8702 B( 13-C , 17-Cl) :   0.9923
B( 14-C , 15-Cl) :   1.0970 B( 14-C , 16-Cl) :   1.0431

Dispersion correction           -0.018997390
FINAL SINGLE POINT ENERGY     -4065.950477893104

DIPOLE MOMENT
-------------

Method             : SCF
Type of density    : Electron Density
Multiplicity       :   1
Irrep              :   0
Energy             : -4065.9518799728120939 Eh
Relativity type    :
Basis              : AO
                                X                 Y                 Z
Electronic contribution:    -12.136192715       0.003780685     -11.547539873
Nuclear contribution   :     12.440881952      -0.003916264      14.243204754
                        -----------------------------------------
Total Dipole Moment    :      0.304689237      -0.000135579       2.695664881
                        -----------------------------------------
Magnitude (a.u.)       :      2.712829649
Magnitude (Debye)      :      6.895464975

Rotational constants in cm-1:             0.009217             0.008169             0.005926
Rotational constants in MHz :           276.307669           244.904332           177.665956

                             ****ORCA TERMINATED NORMALLY****
TOTAL RUN TIME: 0 days 0 hours 1 minutes 36 seconds 951 msec
