                         Program Version 6.0.0  -   RELEASE  -
|  1> ! pbe def2-sv(p) def2/J RI DEFGRID1 loosescf d4 GCP(DFT/SV(P)) printgap
|  2> %output
|  3>     printlevel normal
|  4> end
|  5> * xyz 0 1
|  6> C -0.6918622961 -1.2088455594 -2.08194e-05
|  7> C 0.6918711465 -1.2088690923 0.0001023115
|  8> C 1.3680753193 -3.95949e-05 0.0001087198
|  9> C 0.6918984015 1.208807712 2.15006e-05
| 10> C -0.6918276974 1.2088472572 5.02018e-05
| 11> C -1.3680677507 1.33331e-05 -5.6356e-06
| 12> Br -3.2819514504 5.5517e-06 -1.16016e-05
| 13> Br 3.2819364963 7.4357e-06 -2.38769e-05
| 14> H -1.2345886525 -2.140441453 -0.0001929549
| 15> H 1.2346206803 -2.1405085812 3.93245e-05
| 16> H 1.2346611619 2.140434409 6.31237e-05
| 17> H -1.2345458877 2.1405101828 -0.0001508139
| 18> *
| 19>
| 20>                          ****END OF INPUT****

CARTESIAN COORDINATES (ANGSTROEM)
---------------------------------
  C     -0.691862   -1.208846   -0.000021
  C      0.691871   -1.208869    0.000102
  C      1.368075   -0.000040    0.000109
  C      0.691898    1.208808    0.000022
  C     -0.691828    1.208847    0.000050
  C     -1.368068    0.000013   -0.000006
  Br    -3.281951    0.000006   -0.000012
  Br     3.281936    0.000007   -0.000024
  H     -1.234589   -2.140441   -0.000193
  H      1.234621   -2.140509    0.000039
  H      1.234661    2.140434    0.000063
  H     -1.234546    2.140510   -0.000151

 Total Charge           Charge          ....    0
 Multiplicity           Mult            ....    1
 Number of Electrons    NEL             ....  110
 Basis Dimension        Dim             ....  156

ORBITAL ENERGIES
----------------

  NO   OCC          E(Eh)            E(eV)
   0   2.0000    -480.943135    -13087.1280
   1   2.0000    -480.943127    -13087.1278
   2   2.0000     -61.785368     -1681.2653
   3   2.0000     -61.785361     -1681.2651
   4   2.0000     -55.715857     -1516.1055
   5   2.0000     -55.715847     -1516.1053
   6   2.0000     -55.712933     -1516.0260
   7   2.0000     -55.712932     -1516.0259
   8   2.0000     -55.712873     -1516.0243
   9   2.0000     -55.712865     -1516.0241
  10   2.0000      -9.959048      -270.9995
  11   2.0000      -9.959029      -270.9990
  12   2.0000      -9.918934      -269.9079
  13   2.0000      -9.918887      -269.9066
  14   2.0000      -9.918684      -269.9011
  15   2.0000      -9.918631      -269.8997
  16   2.0000      -8.410849      -228.8708
  17   2.0000      -8.410842      -228.8707
  18   2.0000      -6.292837      -171.2368
  19   2.0000      -6.292835      -171.2367
  20   2.0000      -6.278615      -170.8498
  21   2.0000      -6.278614      -170.8498
  22   2.0000      -6.278117      -170.8362
  23   2.0000      -6.278115      -170.8362
  24   2.0000      -2.493980       -67.8646
  25   2.0000      -2.493978       -67.8646
  26   2.0000      -2.490516       -67.7704
  27   2.0000      -2.490514       -67.7703
  28   2.0000      -2.490203       -67.7619
  29   2.0000      -2.490201       -67.7618
  30   2.0000      -2.479500       -67.4706
  31   2.0000      -2.479499       -67.4706
  32   2.0000      -2.479467       -67.4697
  33   2.0000      -2.479466       -67.4697
  34   2.0000      -0.816017       -22.2050
  35   2.0000      -0.760446       -20.6928
  36   2.0000      -0.718807       -19.5597
  37   2.0000      -0.700079       -19.0501
  38   2.0000      -0.647065       -17.6075
  39   2.0000      -0.574192       -15.6246
  40   2.0000      -0.545632       -14.8474
  41   2.0000      -0.475246       -12.9321
  42   2.0000      -0.441978       -12.0268
  43   2.0000      -0.422929       -11.5085
  44   2.0000      -0.404390       -11.0040
  45   2.0000      -0.381663       -10.3856
  46   2.0000      -0.371516       -10.1095
  47   2.0000      -0.336074        -9.1450
  48   2.0000      -0.328085        -8.9276
  49   2.0000      -0.309226        -8.4145
  50   2.0000      -0.260882        -7.0990
  51   2.0000      -0.259779        -7.0690
  52   2.0000      -0.255757        -6.9595
  53   2.0000      -0.254930        -6.9370
  54   2.0000      -0.216592        -5.8938
  55   0.0000      -0.060053        -1.6341
  56   0.0000      -0.058206        -1.5839
  57   0.0000      -0.041856        -1.1390
  58   0.0000      -0.026977        -0.7341
  59   0.0000       0.069192         1.8828

MULLIKEN ATOMIC CHARGES
-----------------------
   0 C :   -0.078542
   1 C :   -0.078545
   2 C :    0.050638
   3 C :   -0.078551
   4 C :   -0.078556
   5 C :    0.050641
   6 Br:   -0.031717
   7 Br:   -0.031721
   8 H :    0.069071
   9 H :    0.069093
  10 H :    0.069093
  11 H :    0.069096
Sum of atomic charges:    0.0000000

LOEWDIN ATOMIC CHARGES
----------------------
   0 C :   -0.125554
   1 C :   -0.125554
   2 C :   -0.121347
   3 C :   -0.125557
   4 C :   -0.125551
   5 C :   -0.121338
   6 Br:    0.098926
   7 Br:    0.098934
   8 H :    0.136759
   9 H :    0.136761
  10 H :    0.136760
  11 H :    0.136761

  Mayer bond orders larger than 0.100000
B(  0-C ,  1-C ) :   1.3828 B(  0-C ,  5-C ) :   1.3902 B(  0-C ,  8-H ) :   0.9603
B(  1-C ,  2-C ) :   1.3902 B(  1-C ,  9-H ) :   0.9603 B(  2-C ,  3-C ) :   1.3902
B(  2-C ,  7-Br) :   0.9817 B(  3-C ,  4-C ) :   1.3828 B(  3-C , 10-H ) :   0.9603
B(  4-C ,  5-C ) :   1.3902 B(  4-C , 11-H ) :   0.9603 B(  5-C ,  6-Br) :   0.9818

Dispersion correction           -0.016281602
FINAL SINGLE POINT ENERGY     -5377.460580380410

DIPOLE MOMENT
-------------

Method             : SCF
Type of density    : Electron Density
Multiplicity       :   1
Irrep              :   0
Energy             : -5377.4910846402581228 Eh
Relativity type    :
Basis              : AO
                                X                 Y                 Z
Electronic contribution:     -0.000276026       0.000122549      -0.000184212
Nuclear contribution   :      0.000277049      -0.000125698       0.000103028
                        -----------------------------------------
Total Dipole Moment    :      0.000001023      -0.000003150      -0.000081184
                        -----------------------------------------
Magnitude (a.u.)       :      0.000081251
Magnitude (Debye)      :      0.000206524

Rotational constants in cm-1:             0.190096             0.009390             0.008948
Rotational constants in MHz :          5698.923299           281.496056           268.246144

                             ****ORCA TERMINATED NORMALLY****
TOTAL RUN TIME: 0 days 0 hours 0 minutes 6 seconds 955 msec
