                         Program Version 6.0.0  -   RELEASE  -
|  1> ! r2scan-3c def2/J RI DEFGRID2 scfconv6 printgap
|  2> %output
|  3>     printlevel normal
|  4> end
|  5> * xyz 0 1
|  6> C -2.0012925073 -0.7320667574 1.2566983873
|  7> C -1.5150188786 0.004350303 4.0645e-06
|  8> C -2.0021256648 -0.732554148 -1.2560695051
|  9> C -2.1324605157 1.405714108 -0.0001052066
| 10> C 0.0060808824 0.0323453605 -0.0002694853
| 11> C 0.7409491824 1.2117908385 -0.0002262426
| 12> C 2.1263070674 1.1933230823 -2.93621e-05
| 13> C 2.8118493814 -0.0070328401 0.00010432
| 14> C 2.0951543706 -1.1914434397 -3.16821e-05
| 15> C 0.7132266416 -1.1681299244 -0.0002161311
| 16> H -3.0884782143 -0.7472189096 1.283165984
| 17> H -1.6454782098 -1.7581746062 1.2773121601
| 18> H -1.6400947069 -0.227701701 2.1505297261
| 19> H -1.6423532647 -0.2280166888 -2.1503690405
| 20> H -1.6455954373 -1.758398726 -1.2770339906
| 21> H -3.0893316731 -0.7485171116 -1.2813074212
| 22> H -1.8386105575 1.9623906194 -0.8867776596
| 23> H -3.2171094856 1.3220086126 0.0001888849
| 24> H -1.8381789819 1.9627096173 0.8862125415
| 25> H 0.2440159332 2.1680156742 -0.0003224776
| 26> H 2.6706402057 2.1265785663 7.36774e-05
| 27> H 3.8915803804 -0.0212241456 0.0003406343
| 28> H 2.6149440143 -2.1385343238 -5.9431e-06
| 29> H 0.1820727347 -2.1081209217 -0.0003286682
| 30> *
| 31>
| 32>                          ****END OF INPUT****

CARTESIAN COORDINATES (ANGSTROEM)
---------------------------------
  C     -2.001293   -0.732067    1.256698
  C     -1.515019    0.004350    0.000004
  C     -2.002126   -0.732554   -1.256070
  C     -2.132461    1.405714   -0.000105
  C      0.006081    0.032345   -0.000269
  C      0.740949    1.211791   -0.000226
  C      2.126307    1.193323   -0.000029
  C      2.811849   -0.007033    0.000104
  C      2.095154   -1.191443   -0.000032
  C      0.713227   -1.168130   -0.000216
  H     -3.088478   -0.747219    1.283166
  H     -1.645478   -1.758175    1.277312
  H     -1.640095   -0.227702    2.150530
  H     -1.642353   -0.228017   -2.150369
  H     -1.645595   -1.758399   -1.277034
  H     -3.089332   -0.748517   -1.281307
  H     -1.838611    1.962391   -0.886778
  H     -3.217109    1.322009    0.000189
  H     -1.838179    1.962710    0.886213
  H      0.244016    2.168016   -0.000322
  H      2.670640    2.126579    0.000074
  H      3.891580   -0.021224    0.000341
  H      2.614944   -2.138534   -0.000006
  H      0.182073   -2.108121   -0.000329

 Total Charge           Charge          ....    0
 Multiplicity           Mult            ....    1
 Number of Electrons    NEL             ....   74
 Basis Dimension        Dim             ....  260

ORBITAL ENERGIES
----------------

  NO   OCC          E(Eh)            E(eV)
   0   2.0000     -10.051190      -273.5068
   1   2.0000     -10.039523      -273.1893
   2   2.0000     -10.030842      -272.9531
   3   2.0000     -10.030263      -272.9373
   4   2.0000     -10.029017      -272.9034
   5   2.0000     -10.028403      -272.8867
   6   2.0000     -10.028328      -272.8847
   7   2.0000     -10.018562      -272.6189
   8   2.0000     -10.017931      -272.6018
   9   2.0000     -10.017930      -272.6017
  10   2.0000      -0.830686       -22.6041
  11   2.0000      -0.784774       -21.3548
  12   2.0000      -0.713309       -19.4101
  13   2.0000      -0.702159       -19.1067
  14   2.0000      -0.655016       -17.8239
  15   2.0000      -0.654435       -17.8081
  16   2.0000      -0.581145       -15.8137
  17   2.0000      -0.568000       -15.4561
  18   2.0000      -0.517584       -14.0842
  19   2.0000      -0.479610       -13.0508
  20   2.0000      -0.428563       -11.6618
  21   2.0000      -0.426355       -11.6017
  22   2.0000      -0.412262       -11.2182
  23   2.0000      -0.411797       -11.2056
  24   2.0000      -0.392631       -10.6840
  25   2.0000      -0.384636       -10.4665
  26   2.0000      -0.368360       -10.0236
  27   2.0000      -0.348044        -9.4708
  28   2.0000      -0.339977        -9.2512
  29   2.0000      -0.336681        -9.1616
  30   2.0000      -0.333438        -9.0733
  31   2.0000      -0.319327        -8.6893
  32   2.0000      -0.303360        -8.2549
  33   2.0000      -0.291079        -7.9207
  34   2.0000      -0.285298        -7.7633
  35   2.0000      -0.233566        -6.3557
  36   2.0000      -0.224461        -6.1079
  37   0.0000      -0.029487        -0.8024
  38   0.0000      -0.024974        -0.6796
  39   0.0000       0.074453         2.0260
  40   0.0000       0.094165         2.5624
  41   0.0000       0.116291         3.1644

MULLIKEN ATOMIC CHARGES
-----------------------
   0 C :   -0.482748
   1 C :    0.178851
   2 C :   -0.482737
   3 C :   -0.587752
   4 C :    0.137481
   5 C :   -0.172451
   6 C :   -0.162727
   7 C :   -0.154887
   8 C :   -0.156086
   9 C :   -0.271802
  10 H :    0.151324
  11 H :    0.153499
  12 H :    0.163697
  13 H :    0.163663
  14 H :    0.153492
  15 H :    0.151335
  16 H :    0.167188
  17 H :    0.160659
  18 H :    0.167155
  19 H :    0.143867
  20 H :    0.143881
  21 H :    0.144908
  22 H :    0.143576
  23 H :    0.146613
Sum of atomic charges:   -0.0000000

LOEWDIN ATOMIC CHARGES
----------------------
   0 C :   -0.390576
   1 C :   -0.187431
   2 C :   -0.390582
   3 C :   -0.406176
   4 C :   -0.073131
   5 C :   -0.159457
   6 C :   -0.162848
   7 C :   -0.172558
   8 C :   -0.162043
   9 C :   -0.157356
  10 H :    0.155338
  11 H :    0.156609
  12 H :    0.161962
  13 H :    0.161948
  14 H :    0.156601
  15 H :    0.155343
  16 H :    0.159068
  17 H :    0.158924
  18 H :    0.159066
  19 H :    0.171482
  20 H :    0.165865
  21 H :    0.165957
  22 H :    0.166094
  23 H :    0.167902

  Mayer bond orders larger than 0.100000
B(  0-C ,  1-C ) :   0.9688 B(  0-C , 10-H ) :   0.9752 B(  0-C , 11-H ) :   0.9639
B(  0-C , 12-H ) :   0.9721 B(  1-C ,  2-C ) :   0.9689 B(  1-C ,  3-C ) :   0.8777
B(  1-C ,  4-C ) :   0.7846 B(  2-C , 13-H ) :   0.9721 B(  2-C , 14-H ) :   0.9639
B(  2-C , 15-H ) :   0.9752 B(  3-C , 16-H ) :   0.9778 B(  3-C , 17-H ) :   0.9769
B(  3-C , 18-H ) :   0.9778 B(  4-C ,  5-C ) :   1.4559 B(  4-C ,  9-C ) :   1.3933
B(  5-C ,  6-C ) :   1.4182 B(  5-C , 19-H ) :   0.9396 B(  6-C ,  7-C ) :   1.4260
B(  6-C , 20-H ) :   0.9462 B(  7-C ,  8-C ) :   1.4121 B(  7-C , 21-H ) :   0.9503
B(  8-C ,  9-C ) :   1.4550 B(  8-C , 22-H ) :   0.9465 B(  9-C , 23-H ) :   0.9504

Dispersion correction           -0.008706616
FINAL SINGLE POINT ENERGY      -389.379747257462

DIPOLE MOMENT
-------------

Method             : SCF
Type of density    : Electron Density
Multiplicity       :   1
Irrep              :   0
Energy             :  -389.3799320501641432 Eh
Relativity type    :
Basis              : AO
                                X                 Y                 Z
Electronic contribution:      9.254427083       0.178572461      -0.001439598
Nuclear contribution   :     -9.421047974      -0.182195754       0.001574626
                        -----------------------------------------
Total Dipole Moment    :     -0.166620891      -0.003623293       0.000135028
                        -----------------------------------------
Magnitude (a.u.)       :      0.166660337
Magnitude (Debye)      :      0.423616910

Rotational constants in cm-1:             0.086177             0.032087             0.027629
Rotational constants in MHz :          2583.508459           961.935312           828.304300

                             ****ORCA TERMINATED NORMALLY****
TOTAL RUN TIME: 0 days 0 hours 0 minutes 29 seconds 565 msec
