                         Program Version 6.0.0  -   RELEASE  -
|  1> ! r2scan-3c def2/J RI DEFGRID2 scfconv6 printgap
|  2> %output
|  3>     printlevel normal
|  4> end
|  5> %cpcm
|  6>     smd true
|  7>     smdsolvent "water"
|  8> end
|  9> * xyz 0 1
| 10> C -2.0012925073 -0.7320667574 1.2566983873
| 11> C -1.5150188786 0.004350303 4.0645e-06
| 12> C -2.0021256648 -0.732554148 -1.2560695051
| 13> C -2.1324605157 1.405714108 -0.0001052066
| 14> C 0.0060808824 0.0323453605 -0.0002694853
| 15> C 0.7409491824 1.2117908385 -0.0002262426
| 16> C 2.1263070674 1.1933230823 -2.93621e-05
| 17> C 2.8118493814 -0.0070328401 0.00010432
| 18> C 2.0951543706 -1.1914434397 -3.16821e-05
| 19> C 0.7132266416 -1.1681299244 -0.0002161311
| 20> H -3.0884782143 -0.7472189096 1.283165984
| 21> H -1.6454782098 -1.7581746062 1.2773121601
| 22> H -1.6400947069 -0.227701701 2.1505297261
| 23> H -1.6423532647 -0.2280166888 -2.1503690405
| 24> H -1.6455954373 -1.758398726 -1.2770339906
| 25> H -3.0893316731 -0.7485171116 -1.2813074212
| 26> H -1.8386105575 1.9623906194 -0.8867776596
| 27> H -3.2171094856 1.3220086126 0.0001888849
| 28> H -1.8381789819 1.9627096173 0.8862125415
| 29> H 0.2440159332 2.1680156742 -0.0003224776
| 30> H 2.6706402057 2.1265785663 7.36774e-05
| 31> H 3.8915803804 -0.0212241456 0.0003406343
| 32> H 2.6149440143 -2.1385343238 -5.9431e-06
| 33> H 0.1820727347 -2.1081209217 -0.0003286682
| 34> *
| 35>
| 36>                          ****END OF INPUT****

CARTESIAN COORDINATES (ANGSTROEM)
---------------------------------
  C     -2.001293   -0.732067    1.256698
  C     -1.515019    0.004350    0.000004
  C     -2.002126   -0.732554   -1.256070
  C     -2.132461    1.405714   -0.000105
  C      0.006081    0.032345   -0.000269
  C      0.740949    1.211791   -0.000226
  C      2.126307    1.193323   -0.000029
  C      2.811849   -0.007033    0.000104
  C      2.095154   -1.191443   -0.000032
  C      0.713227   -1.168130   -0.000216
  H     -3.088478   -0.747219    1.283166
  H     -1.645478   -1.758175    1.277312
  H     -1.640095   -0.227702    2.150530
  H     -1.642353   -0.228017   -2.150369
  H     -1.645595   -1.758399   -1.277034
  H     -3.089332   -0.748517   -1.281307
  H     -1.838611    1.962391   -0.886778
  H     -3.217109    1.322009    0.000189
  H     -1.838179    1.962710    0.886213
  H      0.244016    2.168016   -0.000322
  H      2.670640    2.126579    0.000074
  H      3.891580   -0.021224    0.000341
  H      2.614944   -2.138534   -0.000006
  H      0.182073   -2.108121   -0.000329

 Total Charge           Charge          ....    0
 Multiplicity           Mult            ....    1
 Number of Electrons    NEL             ....   74
 Basis Dimension        Dim             ....  260

ORBITAL ENERGIES
----------------

  NO   OCC          E(Eh)            E(eV)
   0   2.0000     -10.044905      -273.3358
   1   2.0000     -10.038792      -273.1694
   2   2.0000     -10.029709      -272.9223
   3   2.0000     -10.029345      -272.9123
   4   2.0000     -10.027460      -272.8611
   5   2.0000     -10.027091      -272.8510
   6   2.0000     -10.026893      -272.8456
   7   2.0000     -10.009518      -272.3728
   8   2.0000     -10.009514      -272.3727
   9   2.0000     -10.008124      -272.3349
  10   2.0000      -0.830228       -22.5917
  11   2.0000      -0.779909       -21.2224
  12   2.0000      -0.712741       -19.3947
  13   2.0000      -0.700400       -19.0589
  14   2.0000      -0.646819       -17.6009
  15   2.0000      -0.646308       -17.5869
  16   2.0000      -0.578055       -15.7297
  17   2.0000      -0.565715       -15.3939
  18   2.0000      -0.513242       -13.9660
  19   2.0000      -0.474578       -12.9139
  20   2.0000      -0.425240       -11.5714
  21   2.0000      -0.420258       -11.4358
  22   2.0000      -0.407149       -11.0791
  23   2.0000      -0.404274       -11.0008
  24   2.0000      -0.387420       -10.5422
  25   2.0000      -0.379807       -10.3351
  26   2.0000      -0.362686        -9.8692
  27   2.0000      -0.340147        -9.2559
  28   2.0000      -0.335146        -9.1198
  29   2.0000      -0.334019        -9.0891
  30   2.0000      -0.326123        -8.8742
  31   2.0000      -0.313799        -8.5389
  32   2.0000      -0.296593        -8.0707
  33   2.0000      -0.285840        -7.7781
  34   2.0000      -0.278816        -7.5870
  35   2.0000      -0.236743        -6.4421
  36   2.0000      -0.226458        -6.1622
  37   0.0000      -0.031308        -0.8519
  38   0.0000      -0.026873        -0.7313
  39   0.0000       0.083083         2.2608
  40   0.0000       0.101912         2.7732
  41   0.0000       0.117177         3.1886

MULLIKEN ATOMIC CHARGES
-----------------------
   0 C :   -0.539472
   1 C :    0.265313
   2 C :   -0.539457
   3 C :   -0.619248
   4 C :    0.066765
   5 C :   -0.188694
   6 C :   -0.208646
   7 C :   -0.188462
   8 C :   -0.195168
   9 C :   -0.284942
  10 H :    0.167589
  11 H :    0.170744
  12 H :    0.171795
  13 H :    0.171776
  14 H :    0.170733
  15 H :    0.167595
  16 H :    0.177172
  17 H :    0.175929
  18 H :    0.177138
  19 H :    0.172697
  20 H :    0.175076
  21 H :    0.176553
  22 H :    0.174945
  23 H :    0.182268
Sum of atomic charges:   -0.0000000

LOEWDIN ATOMIC CHARGES
----------------------
   0 C :   -0.398523
   1 C :   -0.183309
   2 C :   -0.398530
   3 C :   -0.411058
   4 C :   -0.081028
   5 C :   -0.168943
   6 C :   -0.175842
   7 C :   -0.186733
   8 C :   -0.174784
   9 C :   -0.166301
  10 H :    0.160653
  11 H :    0.160944
  12 H :    0.162479
  13 H :    0.162471
  14 H :    0.160935
  15 H :    0.160657
  16 H :    0.161968
  17 H :    0.162999
  18 H :    0.161966
  19 H :    0.181225
  20 H :    0.176066
  21 H :    0.175850
  22 H :    0.176378
  23 H :    0.180463

  Mayer bond orders larger than 0.100000
B(  0-C ,  1-C ) :   0.9399 B(  0-C , 10-H ) :   0.9721 B(  0-C , 11-H ) :   0.9633
B(  0-C , 12-H ) :   0.9718 B(  1-C ,  2-C ) :   0.9400 B(  1-C ,  3-C ) :   0.8755
B(  1-C ,  4-C ) :   0.7874 B(  2-C , 13-H ) :   0.9718 B(  2-C , 14-H ) :   0.9633
B(  2-C , 15-H ) :   0.9721 B(  3-C , 16-H ) :   0.9738 B(  3-C , 17-H ) :   0.9744
B(  3-C , 18-H ) :   0.9737 B(  4-C ,  5-C ) :   1.4191 B(  4-C ,  9-C ) :   1.3781
B(  5-C ,  6-C ) :   1.3855 B(  5-C , 19-H ) :   0.9478 B(  6-C ,  7-C ) :   1.3863
B(  6-C , 20-H ) :   0.9585 B(  7-C ,  8-C ) :   1.3700 B(  7-C , 21-H ) :   0.9583
B(  8-C ,  9-C ) :   1.4146 B(  8-C , 22-H ) :   0.9597 B(  9-C , 23-H ) :   0.9566

Dispersion correction           -0.008706616
FINAL SINGLE POINT ENERGY      -389.380393226698

DIPOLE MOMENT
-------------

Method             : SCF
Type of density    : Electron Density
Multiplicity       :   1
Irrep              :   0
Energy             :  -389.3805780193997634 Eh
Relativity type    :
Basis              : AO
                                X                 Y                 Z
Electronic contribution:      9.135726779       0.154235234      -0.001379344
Nuclear contribution   :     -9.421047974      -0.182195754       0.001574626
                        -----------------------------------------
Total Dipole Moment    :     -0.285321195      -0.027960520       0.000195281
                        -----------------------------------------
Magnitude (a.u.)       :      0.286688007
Magnitude (Debye)      :      0.728703002

Rotational constants in cm-1:             0.086177             0.032087             0.027629
Rotational constants in MHz :          2583.508459           961.935312           828.304300

                             ****ORCA TERMINATED NORMALLY****
TOTAL RUN TIME: 0 days 0 hours 0 minutes 36 seconds 414 msec
