                         Program Version 6.0.0  -   RELEASE  -
|  1> ! r2scan-3c def2/J RI DEFGRID2 scfconv6 printgap
|  2> %output
|  3>     printlevel normal
|  4> end
|  5> * xyz 0 1
|  6> C -1.1763003978 0.2461086858 1.9851e-06
|  7> O -2.4453e-06 -0.5341015965 7.7176e-06
|  8> C 1.1763111346 0.2460993993 -9.6346e-06
|  9> H -1.2245280176 0.8799967462 -0.8922942423
| 10> H -1.2245830123 0.8800648775 0.892282044
| 11> H -2.00798304 -0.4537510928 -5.39201e-05
| 12> H 2.0080667173 -0.4536558113 -0.0001463556
| 13> H 1.2245592505 0.879943071 0.8923555041
| 14> H 1.2243789762 0.8801811786 -0.8921743829
| 15> *
| 16>
| 17>                          ****END OF INPUT****

CARTESIAN COORDINATES (ANGSTROEM)
---------------------------------
  C     -1.176300    0.246109    0.000002
  O     -0.000002   -0.534102    0.000008
  C      1.176311    0.246099   -0.000010
  H     -1.224528    0.879997   -0.892294
  H     -1.224583    0.880065    0.892282
  H     -2.007983   -0.453751   -0.000054
  H      2.008067   -0.453656   -0.000146
  H      1.224559    0.879943    0.892356
  H      1.224379    0.880181   -0.892174

 Total Charge           Charge          ....    0
 Multiplicity           Mult            ....    1
 Number of Electrons    NEL             ....   26
 Basis Dimension        Dim             ....   92

ORBITAL ENERGIES
----------------

  NO   OCC          E(Eh)            E(eV)
   0   2.0000     -18.950509      -515.6696
   1   2.0000     -10.069062      -273.9931
   2   2.0000     -10.069056      -273.9929
   3   2.0000      -0.994700       -27.0672
   4   2.0000      -0.687565       -18.7096
   5   2.0000      -0.602555       -16.3964
   6   2.0000      -0.443980       -12.0813
   7   2.0000      -0.437294       -11.8994
   8   2.0000      -0.434868       -11.8334
   9   2.0000      -0.364427        -9.9166
  10   2.0000      -0.346325        -9.4240
  11   2.0000      -0.285368        -7.7653
  12   2.0000      -0.220956        -6.0125
  13   0.0000       0.067110         1.8262
  14   0.0000       0.110542         3.0080
  15   0.0000       0.128996         3.5101
  16   0.0000       0.168128         4.5750
  17   0.0000       0.168766         4.5923

MULLIKEN ATOMIC CHARGES
-----------------------
   0 C :   -0.275102
   1 O :   -0.253568
   2 C :   -0.275105
   3 H :    0.127706
   4 H :    0.127702
   5 H :    0.146477
   6 H :    0.146478
   7 H :    0.127708
   8 H :    0.127703
Sum of atomic charges:   -0.0000000

LOEWDIN ATOMIC CHARGES
----------------------
   0 C :   -0.078951
   1 O :   -0.805108
   2 C :   -0.078947
   3 H :    0.153555
   4 H :    0.153555
   5 H :    0.174395
   6 H :    0.174387
   7 H :    0.153557
   8 H :    0.153557

  Mayer bond orders larger than 0.100000
B(  0-C ,  1-O ) :   0.8981 B(  0-C ,  3-H ) :   0.9647 B(  0-C ,  4-H ) :   0.9647
B(  0-C ,  5-H ) :   0.9758 B(  1-O ,  2-C ) :   0.8981 B(  2-C ,  6-H ) :   0.9758
B(  2-C ,  7-H ) :   0.9647 B(  2-C ,  8-H ) :   0.9647

Dispersion correction           -0.001190444
FINAL SINGLE POINT ENERGY      -154.979129819865

DIPOLE MOMENT
-------------

Method             : SCF
Type of density    : Electron Density
Multiplicity       :   1
Irrep              :   0
Energy             :  -154.9856901901111428 Eh
Relativity type    :
Basis              : AO
                                X                 Y                 Z
Electronic contribution:      0.000092669      -1.941726454      -0.000002764
Nuclear contribution   :     -0.000083652       2.443287237      -0.000029299
                        -----------------------------------------
Total Dipole Moment    :      0.000009017       0.501560783      -0.000032064
                        -----------------------------------------
Magnitude (a.u.)       :      0.501560784
Magnitude (Debye)      :      1.274866198

Rotational constants in cm-1:             1.320439             0.332999             0.295903
Rotational constants in MHz :         39585.766459          9983.045094          8870.934588

                             ****ORCA TERMINATED NORMALLY****
TOTAL RUN TIME: 0 days 0 hours 0 minutes 7 seconds 169 msec
