                         Program Version 6.0.0  -   RELEASE  -
|  1> ! r2scan-3c def2/J RI DEFGRID2 scfconv6 printgap
|  2> %output
|  3>     printlevel normal
|  4> end
|  5> %cpcm
|  6>     smd true
|  7>     smdsolvent "water"
|  8> end
|  9> * xyz 0 1
| 10> C -1.1763003978 0.2461086858 1.9851e-06
| 11> O -2.4453e-06 -0.5341015965 7.7176e-06
| 12> C 1.1763111346 0.2460993993 -9.6346e-06
| 13> H -1.2245280176 0.8799967462 -0.8922942423
| 14> H -1.2245830123 0.8800648775 0.892282044
| 15> H -2.00798304 -0.4537510928 -5.39201e-05
| 16> H 2.0080667173 -0.4536558113 -0.0001463556
| 17> H 1.2245592505 0.879943071 0.8923555041
| 18> H 1.2243789762 0.8801811786 -0.8921743829
| 19> *
| 20>
| 21>                          ****END OF INPUT****

CARTESIAN COORDINATES (ANGSTROEM)
---------------------------------
  C     -1.176300    0.246109    0.000002
  O     -0.000002   -0.534102    0.000008
  C      1.176311    0.246099   -0.000010
  H     -1.224528    0.879997   -0.892294
  H     -1.224583    0.880065    0.892282
  H     -2.007983   -0.453751   -0.000054
  H      2.008067   -0.453656   -0.000146
  H      1.224559    0.879943    0.892356
  H      1.224379    0.880181   -0.892174

 Total Charge           Charge          ....    0
 Multiplicity           Mult            ....    1
 Number of Electrons    NEL             ....   26
 Basis Dimension        Dim             ....   92

ORBITAL ENERGIES
----------------

  NO   OCC          E(Eh)            E(eV)
   0   2.0000     -18.956494      -515.8324
   1   2.0000     -10.062155      -273.8052
   2   2.0000     -10.062149      -273.8050
   3   2.0000      -0.999187       -27.1893
   4   2.0000      -0.683897       -18.6098
   5   2.0000      -0.596694       -16.2369
   6   2.0000      -0.441653       -12.0180
   7   2.0000      -0.435644       -11.8545
   8   2.0000      -0.432193       -11.7606
   9   2.0000      -0.356641        -9.7047
  10   2.0000      -0.339374        -9.2348
  11   2.0000      -0.290042        -7.8924
  12   2.0000      -0.225180        -6.1275
  13   0.0000       0.068814         1.8725
  14   0.0000       0.121843         3.3155
  15   0.0000       0.139257         3.7894
  16   0.0000       0.172692         4.6992
  17   0.0000       0.176821         4.8115

MULLIKEN ATOMIC CHARGES
-----------------------
   0 C :   -0.293985
   1 O :   -0.326101
   2 C :   -0.293989
   3 H :    0.148218
   4 H :    0.148214
   5 H :    0.160605
   6 H :    0.160611
   7 H :    0.148213
   8 H :    0.148215
Sum of atomic charges:   -0.0000000

LOEWDIN ATOMIC CHARGES
----------------------
   0 C :   -0.080190
   1 O :   -0.848973
   2 C :   -0.080187
   3 H :    0.162889
   4 H :    0.162889
   5 H :    0.178897
   6 H :    0.178891
   7 H :    0.162890
   8 H :    0.162892

  Mayer bond orders larger than 0.100000
B(  0-C ,  1-O ) :   0.8893 B(  0-C ,  3-H ) :   0.9596 B(  0-C ,  4-H ) :   0.9596
B(  0-C ,  5-H ) :   0.9693 B(  1-O ,  2-C ) :   0.8893 B(  2-C ,  6-H ) :   0.9693
B(  2-C ,  7-H ) :   0.9596 B(  2-C ,  8-H ) :   0.9596

Dispersion correction           -0.001190444
FINAL SINGLE POINT ENERGY      -154.980875366444

DIPOLE MOMENT
-------------

Method             : SCF
Type of density    : Electron Density
Multiplicity       :   1
Irrep              :   0
Energy             :  -154.9874357366899744 Eh
Relativity type    :
Basis              : AO
                                X                 Y                 Z
Electronic contribution:      0.000092853      -1.712397583      -0.000013268
Nuclear contribution   :     -0.000083652       2.443287237      -0.000029299
                        -----------------------------------------
Total Dipole Moment    :      0.000009202       0.730889655      -0.000042568
                        -----------------------------------------
Magnitude (a.u.)       :      0.730889656
Magnitude (Debye)      :      1.857773865

Rotational constants in cm-1:             1.320439             0.332999             0.295903
Rotational constants in MHz :         39585.766459          9983.045094          8870.934588

                             ****ORCA TERMINATED NORMALLY****
TOTAL RUN TIME: 0 days 0 hours 0 minutes 8 seconds 864 msec
