                         Program Version 6.0.0  -   RELEASE  -
|  1> ! pbe def2-sv(p) def2/J RI DEFGRID1 loosescf d4 GCP(DFT/SV(P)) printgap
|  2> %output
|  3>     printlevel normal
|  4> end
|  5> * xyz 0 1
|  6> C -2.100674084 -1.1723922214 -0.2360976192
|  7> C -1.2694390969 -0.3325907407 0.7532469623
|  8> H -1.8788424976 -0.1626889056 1.6465341825
|  9> C -0.9144717067 1.0460871124 0.1674378452
| 10> H -1.1969616846 1.075560156 -0.8967815893
| 11> C 0.5971333752 1.2838624215 0.2451766999
| 12> H 0.9021824474 1.3554041425 1.301134855
| 13> C 1.3044318831 0.0871530866 -0.3964047919
| 14> H 0.9135703657 -0.0427026509 -1.4147760667
| 15> C 0.9858710738 -1.173292436 0.4304050595
| 16> H 1.8144756861 -1.3466744752 1.1326857363
| 17> O -0.1343393969 -1.0287001331 1.2631900623
| 18> O 0.8524057292 -2.2531969048 -0.4514334647
| 19> O 2.682766074 0.3599624492 -0.4206609735
| 20> O 0.8843453557 2.4813580261 -0.429144965
| 21> O -1.6311533411 2.0207555748 0.8826436509
| 22> O -1.5390420738 -1.2785777183 -1.5202845094
| 23> H -3.063766741 -0.6761877604 -0.3691287602
| 24> H -2.2662296466 -2.1639424392 0.2019275188
| 25> H 0.8066231116 -3.0865369693 0.043128559
| 26> H 3.139092292 -0.2827789878 -0.9817811474
| 27> H 1.8459270025 2.5469172119 -0.5338946218
| 28> H -1.3579741354 2.8943975507 0.5636236062
| 29> H -0.7077015798 -1.7860258368 -1.4518085951
| 30> *
| 31>
| 32>                          ****END OF INPUT****

CARTESIAN COORDINATES (ANGSTROEM)
---------------------------------
  C     -2.100674   -1.172392   -0.236098
  C     -1.269439   -0.332591    0.753247
  H     -1.878842   -0.162689    1.646534
  C     -0.914472    1.046087    0.167438
  H     -1.196962    1.075560   -0.896782
  C      0.597133    1.283862    0.245177
  H      0.902182    1.355404    1.301135
  C      1.304432    0.087153   -0.396405
  H      0.913570   -0.042703   -1.414776
  C      0.985871   -1.173292    0.430405
  H      1.814476   -1.346674    1.132686
  O     -0.134339   -1.028700    1.263190
  O      0.852406   -2.253197   -0.451433
  O      2.682766    0.359962   -0.420661
  O      0.884345    2.481358   -0.429145
  O     -1.631153    2.020756    0.882644
  O     -1.539042   -1.278578   -1.520285
  H     -3.063767   -0.676188   -0.369129
  H     -2.266230   -2.163942    0.201928
  H      0.806623   -3.086537    0.043129
  H      3.139092   -0.282779   -0.981781
  H      1.845927    2.546917   -0.533895
  H     -1.357974    2.894398    0.563624
  H     -0.707702   -1.786026   -1.451809

 Total Charge           Charge          ....    0
 Multiplicity           Mult            ....    1
 Number of Electrons    NEL             ....   96
 Basis Dimension        Dim             ....  192

ORBITAL ENERGIES
----------------

  NO   OCC          E(Eh)            E(eV)
   0   2.0000     -18.792314      -511.3649
   1   2.0000     -18.771411      -510.7961
   2   2.0000     -18.770918      -510.7826
   3   2.0000     -18.751607      -510.2572
   4   2.0000     -18.741407      -509.9796
   5   2.0000     -18.736045      -509.8337
   6   2.0000      -9.996408      -272.0161
   7   2.0000      -9.949289      -270.7339
   8   2.0000      -9.939153      -270.4581
   9   2.0000      -9.938958      -270.4528
  10   2.0000      -9.934371      -270.3280
  11   2.0000      -9.925999      -270.1002
  12   2.0000      -0.993271       -27.0283
  13   2.0000      -0.951854       -25.9013
  14   2.0000      -0.935322       -25.4514
  15   2.0000      -0.924919       -25.1683
  16   2.0000      -0.911274       -24.7970
  17   2.0000      -0.910272       -24.7698
  18   2.0000      -0.704267       -19.1641
  19   2.0000      -0.695984       -18.9387
  20   2.0000      -0.619942       -16.8695
  21   2.0000      -0.584646       -15.9090
  22   2.0000      -0.570762       -15.5312
  23   2.0000      -0.532448       -14.4887
  24   2.0000      -0.505393       -13.7524
  25   2.0000      -0.481757       -13.1093
  26   2.0000      -0.467554       -12.7228
  27   2.0000      -0.462263       -12.5788
  28   2.0000      -0.453850       -12.3499
  29   2.0000      -0.432831       -11.7779
  30   2.0000      -0.418074       -11.3764
  31   2.0000      -0.397131       -10.8065
  32   2.0000      -0.388535       -10.5726
  33   2.0000      -0.380514       -10.3543
  34   2.0000      -0.357590        -9.7305
  35   2.0000      -0.345658        -9.4058
  36   2.0000      -0.338221        -9.2035
  37   2.0000      -0.316088        -8.6012
  38   2.0000      -0.307663        -8.3719
  39   2.0000      -0.290334        -7.9004
  40   2.0000      -0.286877        -7.8063
  41   2.0000      -0.276053        -7.5118
  42   2.0000      -0.262077        -7.1315
  43   2.0000      -0.245410        -6.6779
  44   2.0000      -0.235861        -6.4181
  45   2.0000      -0.221708        -6.0330
  46   2.0000      -0.211932        -5.7670
  47   2.0000      -0.202335        -5.5058
  48   0.0000       0.007597         0.2067
  49   0.0000       0.013771         0.3747
  50   0.0000       0.046008         1.2520
  51   0.0000       0.055534         1.5112
  52   0.0000       0.061782         1.6812

MULLIKEN ATOMIC CHARGES
-----------------------
   0 C :    0.016922
   1 C :    0.046099
   2 H :    0.083008
   3 C :    0.063951
   4 H :    0.077604
   5 C :    0.059577
   6 H :    0.060749
   7 C :   -0.013462
   8 H :    0.068401
   9 C :    0.185596
  10 H :    0.068944
  11 O :   -0.308165
  12 O :   -0.406035
  13 O :   -0.417309
  14 O :   -0.427187
  15 O :   -0.420000
  16 O :   -0.446115
  17 H :    0.096489
  18 H :    0.070142
  19 H :    0.313510
  20 H :    0.311737
  21 H :    0.307859
  22 H :    0.306736
  23 H :    0.300948
Sum of atomic charges:    0.0000000

LOEWDIN ATOMIC CHARGES
----------------------
   0 C :   -0.134359
   1 C :   -0.065318
   2 H :    0.129154
   3 C :   -0.065713
   4 H :    0.110376
   5 C :   -0.074392
   6 H :    0.106742
   7 C :   -0.092949
   8 H :    0.111153
   9 C :   -0.013169
  10 H :    0.105257
  11 O :   -0.143674
  12 O :   -0.305202
  13 O :   -0.316948
  14 O :   -0.322952
  15 O :   -0.320529
  16 O :   -0.348775
  17 H :    0.121073
  18 H :    0.096639
  19 H :    0.291964
  20 H :    0.294191
  21 H :    0.286797
  22 H :    0.287358
  23 H :    0.263276

  Mayer bond orders larger than 0.100000
B(  0-C ,  1-C ) :   1.0355 B(  0-C , 16-O ) :   1.0955 B(  0-C , 17-H ) :   0.9198
B(  0-C , 18-H ) :   0.9140 B(  1-C ,  2-H ) :   0.8763 B(  1-C ,  3-C ) :   0.9876
B(  1-C , 11-O ) :   1.0003 B(  3-C ,  4-H ) :   0.8797 B(  3-C ,  5-C ) :   1.0362
B(  3-C , 15-O ) :   1.0737 B(  5-C ,  6-H ) :   0.8694 B(  5-C ,  7-C ) :   1.0115
B(  5-C , 14-O ) :   1.0853 B(  7-C ,  8-H ) :   0.8754 B(  7-C ,  9-C ) :   0.9945
B(  7-C , 13-O ) :   1.0681 B(  9-C , 10-H ) :   0.8874 B(  9-C , 11-O ) :   1.0915
B(  9-C , 12-O ) :   1.0583 B( 12-O , 19-H ) :   0.8333 B( 12-O , 23-H ) :   0.1136
B( 13-O , 20-H ) :   0.8446 B( 14-O , 21-H ) :   0.8318 B( 15-O , 22-H ) :   0.8400
B( 16-O , 23-H ) :   0.7893

Dispersion correction           -0.025219753
FINAL SINGLE POINT ENERGY      -685.703314613482

DIPOLE MOMENT
-------------

Method             : SCF
Type of density    : Electron Density
Multiplicity       :   1
Irrep              :   0
Energy             :  -685.8356681621967255 Eh
Relativity type    :
Basis              : AO
                                X                 Y                 Z
Electronic contribution:      2.105425637       0.731968835       0.727692145
Nuclear contribution   :     -0.968190507      -1.567209830      -0.722209020
                        -----------------------------------------
Total Dipole Moment    :      1.137235130      -0.835240995       0.005483125
                        -----------------------------------------
Magnitude (a.u.)       :      1.411014290
Magnitude (Debye)      :      3.586513300

Rotational constants in cm-1:             0.035804             0.032766             0.021510
Rotational constants in MHz :          1073.376982           982.305411           644.846654

                             ****ORCA TERMINATED NORMALLY****
TOTAL RUN TIME: 0 days 0 hours 0 minutes 12 seconds 641 msec
