                         Program Version 6.0.0  -   RELEASE  -
|  1> ! pbe def2-sv(p) def2/J RI DEFGRID1 loosescf d4 GCP(DFT/SV(P)) printgap
|  2> %output
|  3>     printlevel normal
|  4> end
|  5> * xyz 0 1
|  6> C 3.7240317247 0.1857581768 0.042722153
|  7> C 2.2459590452 0.3315457833 -0.3090707868
|  8> H 2.1595360186 0.5519502377 -1.3790528412
|  9> C 1.6000782878 1.471347672 0.4764177491
| 10> C 0.119476303 1.5947219909 0.1325782239
| 11> C -0.6463270652 0.2995104784 0.4264697179
| 12> H -0.5226603011 0.0700375187 1.4925923089
| 13> C 0.001172768 -0.8447303887 -0.37455807
| 14> H -0.0914453517 -0.6368665674 -1.4454568976
| 15> C 1.4872611631 -0.9613004413 -0.0180830017
| 16> O -0.6466041886 -2.0922481325 -0.1977938674
| 17> C -2.1587649189 0.4938247946 0.1731555493
| 18> C -2.5372713219 0.4367719183 -1.3055329875
| 19> C -3.0040654346 -0.5128286116 0.9541437726
| 20> H 4.1749212443 -0.6220417968 -0.5284916376
| 21> H 4.259673819 1.1055137613 -0.1790524285
| 22> H 3.8424400782 -0.0336941278 1.101536906
| 23> H 1.7121502513 1.279921823 1.5461560212
| 24> H 2.1074747911 2.4111256644 0.2505551943
| 25> H -0.3208032293 2.4102672063 0.7099210342
| 26> H 0.0176988333 1.8429851318 -0.9257347213
| 27> H 1.5807778257 -1.2008596915 1.0451037821
| 28> H 1.9167256271 -1.7879966261 -0.5885846306
| 29> H -0.4955167631 -2.3859054838 0.7113509523
| 30> H -2.4083742969 1.4950205477 0.546972889
| 31> H -3.5824077232 0.7120559322 -1.4276736413
| 32> H -2.4043935159 -0.5708578163 -1.6913294597
| 33> H -1.9347360011 1.12331187 -1.8947069513
| 34> H -2.8307703255 -1.5187361125 0.5824941152
| 35> H -4.0603910447 -0.2815546089 0.8358038086
| 36> H -2.765176863 -0.4793853016 2.014949802
| 37> *
| 38>
| 39>                          ****END OF INPUT****

CARTESIAN COORDINATES (ANGSTROEM)
---------------------------------
  C      3.724032    0.185758    0.042722
  C      2.245959    0.331546   -0.309071
  H      2.159536    0.551950   -1.379053
  C      1.600078    1.471348    0.476418
  C      0.119476    1.594722    0.132578
  C     -0.646327    0.299510    0.426470
  H     -0.522660    0.070038    1.492592
  C      0.001173   -0.844730   -0.374558
  H     -0.091445   -0.636867   -1.445457
  C      1.487261   -0.961300   -0.018083
  O     -0.646604   -2.092248   -0.197794
  C     -2.158765    0.493825    0.173156
  C     -2.537271    0.436772   -1.305533
  C     -3.004065   -0.512829    0.954144
  H      4.174921   -0.622042   -0.528492
  H      4.259674    1.105514   -0.179052
  H      3.842440   -0.033694    1.101537
  H      1.712150    1.279922    1.546156
  H      2.107475    2.411126    0.250555
  H     -0.320803    2.410267    0.709921
  H      0.017699    1.842985   -0.925735
  H      1.580778   -1.200860    1.045104
  H      1.916726   -1.787997   -0.588585
  H     -0.495517   -2.385905    0.711351
  H     -2.408374    1.495021    0.546973
  H     -3.582408    0.712056   -1.427674
  H     -2.404394   -0.570858   -1.691329
  H     -1.934736    1.123312   -1.894707
  H     -2.830770   -1.518736    0.582494
  H     -4.060391   -0.281555    0.835804
  H     -2.765177   -0.479385    2.014950

 Total Charge           Charge          ....    0
 Multiplicity           Mult            ....    1
 Number of Electrons    NEL             ....   88
 Basis Dimension        Dim             ....  194

ORBITAL ENERGIES
----------------

  NO   OCC          E(Eh)            E(eV)
   0   2.0000     -18.740351      -509.9509
   1   2.0000      -9.932437      -270.2753
   2   2.0000      -9.894956      -269.2554
   3   2.0000      -9.888167      -269.0707
   4   2.0000      -9.887439      -269.0509
   5   2.0000      -9.882317      -268.9115
   6   2.0000      -9.881818      -268.8979
   7   2.0000      -9.881404      -268.8867
   8   2.0000      -9.873494      -268.6714
   9   2.0000      -9.865091      -268.4428
  10   2.0000      -9.860985      -268.3310
  11   2.0000      -0.919121       -25.0105
  12   2.0000      -0.760067       -20.6825
  13   2.0000      -0.720109       -19.5952
  14   2.0000      -0.670016       -18.2321
  15   2.0000      -0.655282       -17.8311
  16   2.0000      -0.603048       -16.4098
  17   2.0000      -0.602094       -16.3838
  18   2.0000      -0.552685       -15.0393
  19   2.0000      -0.532564       -14.4918
  20   2.0000      -0.504877       -13.7384
  21   2.0000      -0.495027       -13.4704
  22   2.0000      -0.437956       -11.9174
  23   2.0000      -0.419693       -11.4204
  24   2.0000      -0.416134       -11.3236
  25   2.0000      -0.402431       -10.9507
  26   2.0000      -0.395230       -10.7548
  27   2.0000      -0.370353       -10.0778
  28   2.0000      -0.365689        -9.9509
  29   2.0000      -0.359008        -9.7691
  30   2.0000      -0.351581        -9.5670
  31   2.0000      -0.336888        -9.1672
  32   2.0000      -0.328259        -8.9324
  33   2.0000      -0.323771        -8.8103
  34   2.0000      -0.318304        -8.6615
  35   2.0000      -0.305148        -8.3035
  36   2.0000      -0.302496        -8.2313
  37   2.0000      -0.288539        -7.8515
  38   2.0000      -0.285522        -7.7694
  39   2.0000      -0.280360        -7.6290
  40   2.0000      -0.271370        -7.3844
  41   2.0000      -0.263133        -7.1602
  42   2.0000      -0.251335        -6.8392
  43   2.0000      -0.205096        -5.5810
  44   0.0000       0.026826         0.7300
  45   0.0000       0.035905         0.9770
  46   0.0000       0.042472         1.1557
  47   0.0000       0.048017         1.3066
  48   0.0000       0.076643         2.0856

MULLIKEN ATOMIC CHARGES
-----------------------
   0 C :   -0.196147
   1 C :   -0.215202
   2 H :    0.066307
   3 C :   -0.094191
   4 C :   -0.105583
   5 C :   -0.171781
   6 H :    0.037351
   7 C :    0.061007
   8 H :    0.062385
   9 C :   -0.089880
  10 O :   -0.407671
  11 C :   -0.085463
  12 C :   -0.273527
  13 C :   -0.250735
  14 H :    0.097005
  15 H :    0.096027
  16 H :    0.089163
  17 H :    0.064292
  18 H :    0.078087
  19 H :    0.078507
  20 H :    0.074315
  21 H :    0.050315
  22 H :    0.084162
  23 H :    0.294640
  24 H :    0.059657
  25 H :    0.095410
  26 H :    0.122292
  27 H :    0.098833
  28 H :    0.105826
  29 H :    0.090072
  30 H :    0.084528
Sum of atomic charges:    0.0000000

LOEWDIN ATOMIC CHARGES
----------------------
   0 C :   -0.326520
   1 C :   -0.152759
   2 H :    0.115159
   3 C :   -0.216249
   4 C :   -0.214210
   5 C :   -0.148633
   6 H :    0.107542
   7 C :   -0.049867
   8 H :    0.112988
   9 C :   -0.225822
  10 O :   -0.314303
  11 C :   -0.143520
  12 C :   -0.332774
  13 C :   -0.339300
  14 H :    0.117735
  15 H :    0.117537
  16 H :    0.116278
  17 H :    0.112962
  18 H :    0.115873
  19 H :    0.116597
  20 H :    0.115374
  21 H :    0.108061
  22 H :    0.118223
  23 H :    0.280532
  24 H :    0.111296
  25 H :    0.118542
  26 H :    0.124359
  27 H :    0.112623
  28 H :    0.118373
  29 H :    0.114305
  30 H :    0.109601

  Mayer bond orders larger than 0.100000
B(  0-C ,  1-C ) :   1.1110 B(  0-C , 14-H ) :   0.9487 B(  0-C , 15-H ) :   0.9480
B(  0-C , 16-H ) :   0.9460 B(  1-C ,  2-H ) :   0.8925 B(  1-C ,  3-C ) :   1.0921
B(  1-C ,  9-C ) :   1.0799 B(  3-C ,  4-C ) :   1.1439 B(  3-C , 17-H ) :   0.9032
B(  3-C , 18-H ) :   0.9118 B(  4-C ,  5-C ) :   1.0849 B(  4-C , 19-H ) :   0.9062
B(  4-C , 20-H ) :   0.8964 B(  5-C ,  6-H ) :   0.8756 B(  5-C ,  7-C ) :   1.0223
B(  5-C , 11-C ) :   1.0217 B(  7-C ,  8-H ) :   0.8719 B(  7-C ,  9-C ) :   1.1029
B(  7-C , 10-O ) :   1.0422 B(  9-C , 21-H ) :   0.8899 B(  9-C , 22-H ) :   0.9062
B( 10-O , 23-H ) :   0.8446 B( 11-C , 12-C ) :   1.1122 B( 11-C , 13-C ) :   1.1119
B( 11-C , 24-H ) :   0.8988 B( 12-C , 25-H ) :   0.9457 B( 12-C , 26-H ) :   0.9367
B( 12-C , 27-H ) :   0.9452 B( 13-C , 28-H ) :   0.9327 B( 13-C , 29-H ) :   0.9467
B( 13-C , 30-H ) :   0.9476

Dispersion correction           -0.031741872
FINAL SINGLE POINT ENERGY      -467.199725418653

DIPOLE MOMENT
-------------

Method             : SCF
Type of density    : Electron Density
Multiplicity       :   1
Irrep              :   0
Energy             :  -467.3123827419781264 Eh
Relativity type    :
Basis              : AO
                                X                 Y                 Z
Electronic contribution:      0.036703069      -2.981504258      -0.363912008
Nuclear contribution   :      0.323194657       3.237794852       0.726350738
                        -----------------------------------------
Total Dipole Moment    :      0.359897726       0.256290594       0.362438730
                        -----------------------------------------
Magnitude (a.u.)       :      0.571465725
Magnitude (Debye)      :      1.452550437

Rotational constants in cm-1:             0.065549             0.022754             0.019533
Rotational constants in MHz :          1965.111614           682.155970           585.571797

                             ****ORCA TERMINATED NORMALLY****
TOTAL RUN TIME: 0 days 0 hours 0 minutes 14 seconds 554 msec
