                         Program Version 6.0.0  -   RELEASE  -
|  1> ! r2scan-3c def2/J RI DEFGRID2 scfconv6 printgap
|  2> %output
|  3>     printlevel normal
|  4> end
|  5> * xyz 0 1
|  6> C -3.8062518653 -0.7187831997 0.001120109
|  7> O -2.3821481314 -0.80908186 0.0008516766
|  8> C -1.7015979125 0.3407766515 -0.0003249782
|  9> O -2.258187367 1.4267947665 -0.0014529965
| 10> C -0.2447759573 0.1536217521 -0.0003852443
| 11> C 0.5771976989 1.2810410087 0.0004940809
| 12> C 1.9483777245 1.1492431039 0.0008017125
| 13> C 2.5260336594 -0.1207733134 0.0001469751
| 14> C 1.7049936137 -1.2518568436 -0.0009044982
| 15> C 0.3359645757 -1.1169179503 -0.0011248346
| 16> O 3.858728547 -0.3100167951 0.0004689452
| 17> H -4.1637153936 -1.7435425271 -0.0135463233
| 18> H -4.1467992096 -0.17090766 -0.8787604853
| 19> H -4.1477646177 -0.1964567065 0.8960346077
| 20> H 0.1131735719 2.2556982905 0.0010051204
| 21> H 2.5737361063 2.0291885657 0.0015795876
| 22> H 2.1710634646 -2.2238760075 -0.001492345
| 23> H -0.2980309456 -1.9885641031 -0.0018872711
| 24> H 4.3376707426 0.5342955115 0.0012738672
| 25> *
| 26>
| 27>                          ****END OF INPUT****

CARTESIAN COORDINATES (ANGSTROEM)
---------------------------------
  C     -3.806252   -0.718783    0.001120
  O     -2.382148   -0.809082    0.000852
  C     -1.701598    0.340777   -0.000325
  O     -2.258187    1.426795   -0.001453
  C     -0.244776    0.153622   -0.000385
  C      0.577198    1.281041    0.000494
  C      1.948378    1.149243    0.000802
  C      2.526034   -0.120773    0.000147
  C      1.704994   -1.251857   -0.000904
  C      0.335965   -1.116918   -0.001125
  O      3.858729   -0.310017    0.000469
  H     -4.163715   -1.743543   -0.013546
  H     -4.146799   -0.170908   -0.878760
  H     -4.147765   -0.196457    0.896035
  H      0.113174    2.255698    0.001005
  H      2.573736    2.029189    0.001580
  H      2.171063   -2.223876   -0.001492
  H     -0.298031   -1.988564   -0.001887
  H      4.337671    0.534296    0.001274

 Total Charge           Charge          ....    0
 Multiplicity           Mult            ....    1
 Number of Electrons    NEL             ....   80
 Basis Dimension        Dim             ....  264

ORBITAL ENERGIES
----------------

  NO   OCC          E(Eh)            E(eV)
   0   2.0000     -19.003100      -517.1007
   1   2.0000     -18.996408      -516.9185
   2   2.0000     -18.924570      -514.9637
   3   2.0000     -10.151254      -276.2297
   4   2.0000     -10.114741      -275.2361
   5   2.0000     -10.084840      -274.4224
   6   2.0000     -10.049580      -273.4630
   7   2.0000     -10.049532      -273.4617
   8   2.0000     -10.047808      -273.4147
   9   2.0000     -10.047225      -273.3989
  10   2.0000     -10.042090      -273.2592
  11   2.0000      -1.069173       -29.0937
  12   2.0000      -1.049989       -28.5717
  13   2.0000      -0.970618       -26.4119
  14   2.0000      -0.837083       -22.7782
  15   2.0000      -0.743421       -20.2295
  16   2.0000      -0.733182       -19.9509
  17   2.0000      -0.690744       -18.7961
  18   2.0000      -0.618329       -16.8256
  19   2.0000      -0.593095       -16.1389
  20   2.0000      -0.541008       -14.7216
  21   2.0000      -0.531663       -14.4673
  22   2.0000      -0.503313       -13.6958
  23   2.0000      -0.456365       -12.4183
  24   2.0000      -0.449472       -12.2308
  25   2.0000      -0.435249       -11.8437
  26   2.0000      -0.417973       -11.3736
  27   2.0000      -0.405861       -11.0440
  28   2.0000      -0.402121       -10.9423
  29   2.0000      -0.400265       -10.8918
  30   2.0000      -0.373940       -10.1754
  31   2.0000      -0.369801       -10.0628
  32   2.0000      -0.353531        -9.6201
  33   2.0000      -0.326799        -8.8927
  34   2.0000      -0.318298        -8.6613
  35   2.0000      -0.312437        -8.5018
  36   2.0000      -0.271916        -7.3992
  37   2.0000      -0.250945        -6.8286
  38   2.0000      -0.236757        -6.4425
  39   2.0000      -0.219656        -5.9771
  40   0.0000      -0.065669        -1.7869
  41   0.0000      -0.043108        -1.1730
  42   0.0000       0.034417         0.9365
  43   0.0000       0.045194         1.2298
  44   0.0000       0.063266         1.7216

MULLIKEN ATOMIC CHARGES
-----------------------
   0 C :   -0.292743
   1 O :   -0.170439
   2 C :    0.344760
   3 O :   -0.432761
   4 C :    0.079750
   5 C :   -0.222618
   6 C :   -0.326069
   7 C :    0.448975
   8 C :   -0.300894
   9 C :   -0.173966
  10 O :   -0.400336
  11 H :    0.149218
  12 H :    0.162395
  13 H :    0.161462
  14 H :    0.182552
  15 H :    0.140369
  16 H :    0.157527
  17 H :    0.173155
  18 H :    0.319663
Sum of atomic charges:    0.0000000

LOEWDIN ATOMIC CHARGES
----------------------
   0 C :   -0.041556
   1 O :   -0.614900
   2 C :    0.380325
   3 O :   -0.440749
   4 C :   -0.054658
   5 C :   -0.092324
   6 C :   -0.167661
   7 C :    0.198235
   8 C :   -0.139794
   9 C :   -0.099941
  10 O :   -0.479911
  11 H :    0.175411
  12 H :    0.177453
  13 H :    0.176923
  14 H :    0.191622
  15 H :    0.171054
  16 H :    0.181816
  17 H :    0.189415
  18 H :    0.289239

  Mayer bond orders larger than 0.100000
B(  0-C ,  1-O ) :   0.8413 B(  0-C , 11-H ) :   0.9713 B(  0-C , 12-H ) :   0.9624
B(  0-C , 13-H ) :   0.9620 B(  1-O ,  2-C ) :   1.1602 B(  1-O ,  4-C ) :  -0.1273
B(  2-C ,  3-O ) :   1.8465 B(  2-C ,  4-C ) :   1.0472 B(  4-C ,  5-C ) :   1.4794
B(  4-C ,  9-C ) :   1.3548 B(  5-C ,  6-C ) :   1.3806 B(  5-C , 14-H ) :   0.9336
B(  6-C ,  7-C ) :   1.3004 B(  6-C , 15-H ) :   0.9312 B(  7-C ,  8-C ) :   1.3833
B(  7-C , 10-O ) :   0.9416 B(  8-C ,  9-C ) :   1.3613 B(  8-C , 10-O ) :   0.1033
B(  8-C , 16-H ) :   0.9539 B(  9-C , 17-H ) :   0.9503 B( 10-O , 18-H ) :   0.8768

Dispersion correction           -0.006362184
FINAL SINGLE POINT ENERGY      -535.249617791710

DIPOLE MOMENT
-------------

Method             : SCF
Type of density    : Electron Density
Multiplicity       :   1
Irrep              :   0
Energy             :  -535.2529530957283441 Eh
Relativity type    :
Basis              : AO
                                X                 Y                 Z
Electronic contribution:      3.960838980       1.125978422      -0.002842290
Nuclear contribution   :     -3.352090395      -1.406607608       0.003944700
                        -----------------------------------------
Total Dipole Moment    :      0.608748586      -0.280629186       0.001102410
                        -----------------------------------------
Magnitude (a.u.)       :      0.670319921
Magnitude (Debye)      :      1.703817833

Rotational constants in cm-1:             0.116036             0.019447             0.016708
Rotational constants in MHz :          3478.660700           583.009024           500.896130

                             ****ORCA TERMINATED NORMALLY****
TOTAL RUN TIME: 0 days 0 hours 0 minutes 24 seconds 290 msec
