                         Program Version 6.0.0  -   RELEASE  -
|  1> ! r2scan-3c def2/J RI DEFGRID2 scfconv6 printgap
|  2> %output
|  3>     printlevel normal
|  4> end
|  5> %cpcm
|  6>     smd true
|  7>     smdsolvent "water"
|  8> end
|  9> * xyz 0 1
| 10> C -3.8062518653 -0.7187831997 0.001120109
| 11> O -2.3821481314 -0.80908186 0.0008516766
| 12> C -1.7015979125 0.3407766515 -0.0003249782
| 13> O -2.258187367 1.4267947665 -0.0014529965
| 14> C -0.2447759573 0.1536217521 -0.0003852443
| 15> C 0.5771976989 1.2810410087 0.0004940809
| 16> C 1.9483777245 1.1492431039 0.0008017125
| 17> C 2.5260336594 -0.1207733134 0.0001469751
| 18> C 1.7049936137 -1.2518568436 -0.0009044982
| 19> C 0.3359645757 -1.1169179503 -0.0011248346
| 20> O 3.858728547 -0.3100167951 0.0004689452
| 21> H -4.1637153936 -1.7435425271 -0.0135463233
| 22> H -4.1467992096 -0.17090766 -0.8787604853
| 23> H -4.1477646177 -0.1964567065 0.8960346077
| 24> H 0.1131735719 2.2556982905 0.0010051204
| 25> H 2.5737361063 2.0291885657 0.0015795876
| 26> H 2.1710634646 -2.2238760075 -0.001492345
| 27> H -0.2980309456 -1.9885641031 -0.0018872711
| 28> H 4.3376707426 0.5342955115 0.0012738672
| 29> *
| 30>
| 31>                          ****END OF INPUT****

CARTESIAN COORDINATES (ANGSTROEM)
---------------------------------
  C     -3.806252   -0.718783    0.001120
  O     -2.382148   -0.809082    0.000852
  C     -1.701598    0.340777   -0.000325
  O     -2.258187    1.426795   -0.001453
  C     -0.244776    0.153622   -0.000385
  C      0.577198    1.281041    0.000494
  C      1.948378    1.149243    0.000802
  C      2.526034   -0.120773    0.000147
  C      1.704994   -1.251857   -0.000904
  C      0.335965   -1.116918   -0.001125
  O      3.858729   -0.310017    0.000469
  H     -4.163715   -1.743543   -0.013546
  H     -4.146799   -0.170908   -0.878760
  H     -4.147765   -0.196457    0.896035
  H      0.113174    2.255698    0.001005
  H      2.573736    2.029189    0.001580
  H      2.171063   -2.223876   -0.001492
  H     -0.298031   -1.988564   -0.001887
  H      4.337671    0.534296    0.001274

 Total Charge           Charge          ....    0
 Multiplicity           Mult            ....    1
 Number of Electrons    NEL             ....   80
 Basis Dimension        Dim             ....  264

ORBITAL ENERGIES
----------------

  NO   OCC          E(Eh)            E(eV)
   0   2.0000     -19.002465      -517.0834
   1   2.0000     -18.993447      -516.8380
   2   2.0000     -18.941595      -515.4270
   3   2.0000     -10.164499      -276.5901
   4   2.0000     -10.112191      -275.1667
   5   2.0000     -10.076915      -274.2068
   6   2.0000     -10.048878      -273.4439
   7   2.0000     -10.048285      -273.4277
   8   2.0000     -10.048132      -273.4236
   9   2.0000     -10.041147      -273.2335
  10   2.0000     -10.038884      -273.1719
  11   2.0000      -1.077927       -29.3319
  12   2.0000      -1.040141       -28.3037
  13   2.0000      -0.985926       -26.8284
  14   2.0000      -0.836459       -22.7612
  15   2.0000      -0.743250       -20.2249
  16   2.0000      -0.730468       -19.8770
  17   2.0000      -0.687918       -18.7192
  18   2.0000      -0.613514       -16.6946
  19   2.0000      -0.589719       -16.0471
  20   2.0000      -0.539537       -14.6815
  21   2.0000      -0.524361       -14.2686
  22   2.0000      -0.504748       -13.7349
  23   2.0000      -0.458906       -12.4875
  24   2.0000      -0.452788       -12.3210
  25   2.0000      -0.440411       -11.9842
  26   2.0000      -0.420205       -11.4344
  27   2.0000      -0.402370       -10.9490
  28   2.0000      -0.397088       -10.8053
  29   2.0000      -0.397023       -10.8036
  30   2.0000      -0.372915       -10.1475
  31   2.0000      -0.372722       -10.1423
  32   2.0000      -0.350342        -9.5333
  33   2.0000      -0.327671        -8.9164
  34   2.0000      -0.319718        -8.7000
  35   2.0000      -0.310290        -8.4434
  36   2.0000      -0.281158        -7.6507
  37   2.0000      -0.255868        -6.9625
  38   2.0000      -0.250614        -6.8196
  39   2.0000      -0.219916        -5.9842
  40   0.0000      -0.071167        -1.9365
  41   0.0000      -0.041979        -1.1423
  42   0.0000       0.029634         0.8064
  43   0.0000       0.065578         1.7845
  44   0.0000       0.079614         2.1664

MULLIKEN ATOMIC CHARGES
-----------------------
   0 C :   -0.325822
   1 O :   -0.180130
   2 C :    0.386764
   3 O :   -0.511369
   4 C :    0.079184
   5 C :   -0.234588
   6 C :   -0.341469
   7 C :    0.413298
   8 C :   -0.337004
   9 C :   -0.200715
  10 O :   -0.431683
  11 H :    0.178557
  12 H :    0.177614
  13 H :    0.177772
  14 H :    0.196364
  15 H :    0.189328
  16 H :    0.188430
  17 H :    0.196692
  18 H :    0.378776
Sum of atomic charges:    0.0000000

LOEWDIN ATOMIC CHARGES
----------------------
   0 C :   -0.039028
   1 O :   -0.614950
   2 C :    0.384728
   3 O :   -0.502858
   4 C :   -0.069881
   5 C :   -0.104872
   6 C :   -0.155063
   7 C :    0.196413
   8 C :   -0.145597
   9 C :   -0.105140
  10 O :   -0.483352
  11 H :    0.188236
  12 H :    0.182361
  13 H :    0.182153
  14 H :    0.194457
  15 H :    0.191052
  16 H :    0.191910
  17 H :    0.197097
  18 H :    0.312335

  Mayer bond orders larger than 0.100000
B(  0-C ,  1-O ) :   0.8222 B(  0-C , 11-H ) :   0.9606 B(  0-C , 12-H ) :   0.9572
B(  0-C , 13-H ) :   0.9567 B(  1-O ,  2-C ) :   1.1722 B(  1-O ,  4-C ) :  -0.1112
B(  2-C ,  3-O ) :   1.7881 B(  2-C ,  4-C ) :   1.0565 B(  4-C ,  5-C ) :   1.3863
B(  4-C ,  9-C ) :   1.3050 B(  5-C ,  6-C ) :   1.3716 B(  5-C , 14-H ) :   0.9492
B(  6-C ,  7-C ) :   1.2998 B(  6-C , 15-H ) :   0.9517 B(  7-C ,  8-C ) :   1.3293
B(  7-C , 10-O ) :   0.9621 B(  8-C ,  9-C ) :   1.3828 B(  8-C , 16-H ) :   0.9578
B(  9-C , 17-H ) :   0.9580 B( 10-O , 18-H ) :   0.8441

Dispersion correction           -0.006362184
FINAL SINGLE POINT ENERGY      -535.262952443195

DIPOLE MOMENT
-------------

Method             : SCF
Type of density    : Electron Density
Multiplicity       :   1
Irrep              :   0
Energy             :  -535.2662877472139371 Eh
Relativity type    :
Basis              : AO
                                X                 Y                 Z
Electronic contribution:      4.379277457       0.995209106      -0.002187868
Nuclear contribution   :     -3.352090395      -1.406607608       0.003944700
                        -----------------------------------------
Total Dipole Moment    :      1.027187062      -0.411398502       0.001756833
                        -----------------------------------------
Magnitude (a.u.)       :      1.106510314
Magnitude (Debye)      :      2.812525703

Rotational constants in cm-1:             0.116036             0.019447             0.016708
Rotational constants in MHz :          3478.660700           583.009024           500.896130

                             ****ORCA TERMINATED NORMALLY****
TOTAL RUN TIME: 0 days 0 hours 0 minutes 31 seconds 330 msec
