                         Program Version 6.0.0  -   RELEASE  -
|  1> ! r2scan-3c def2/J RI DEFGRID2 scfconv6 printgap
|  2> %output
|  3>     printlevel normal
|  4> end
|  5> * xyz 0 1
|  6> C -2.7684573064 0.0796049406 0.1126639822
|  7> O -1.4830894593 0.4456076518 0.6265971204
|  8> C -0.4144260418 -0.0088977254 -0.0062407309
|  9> O -0.4492840035 -0.7083546904 -0.990552903
| 10> C 0.8461331105 0.4856736948 0.6875227787
| 11> C 2.0426606981 0.0298511891 0.036980884
| 12> N 3.0046342051 -0.3247542635 -0.47019726
| 13> H -3.4806699774 0.7162399925 0.6279359636
| 14> H -2.9635579711 -0.9721931691 0.3222603722
| 15> H -2.8006784746 0.240958073 -0.9651282401
| 16> H 0.8369308401 0.1339724917 1.7229391916
| 17> H 0.8321708692 1.5789933814 0.701802708
| 18> *
| 19>
| 20>                          ****END OF INPUT****

CARTESIAN COORDINATES (ANGSTROEM)
---------------------------------
  C     -2.768457    0.079605    0.112664
  O     -1.483089    0.445608    0.626597
  C     -0.414426   -0.008898   -0.006241
  O     -0.449284   -0.708355   -0.990553
  C      0.846133    0.485674    0.687523
  C      2.042661    0.029851    0.036981
  N      3.004634   -0.324754   -0.470197
  H     -3.480670    0.716240    0.627936
  H     -2.963558   -0.972193    0.322260
  H     -2.800678    0.240958   -0.965128
  H      0.836931    0.133972    1.722939
  H      0.832171    1.578993    0.701803

 Total Charge           Charge          ....    0
 Multiplicity           Mult            ....    1
 Number of Electrons    NEL             ....   52
 Basis Dimension        Dim             ....  173

ORBITAL ENERGIES
----------------

  NO   OCC          E(Eh)            E(eV)
   0   2.0000     -19.028197      -517.7836
   1   2.0000     -18.959602      -515.9170
   2   2.0000     -14.159308      -385.2944
   3   2.0000     -10.189691      -277.2756
   4   2.0000     -10.108458      -275.0651
   5   2.0000     -10.107908      -275.0502
   6   2.0000     -10.075398      -274.1655
   7   2.0000      -1.104152       -30.0455
   8   2.0000      -1.008190       -27.4342
   9   2.0000      -0.883281       -24.0353
  10   2.0000      -0.791723       -21.5439
  11   2.0000      -0.716728       -19.5032
  12   2.0000      -0.576221       -15.6798
  13   2.0000      -0.514508       -14.0005
  14   2.0000      -0.497908       -13.5488
  15   2.0000      -0.494440       -13.4544
  16   2.0000      -0.453255       -12.3337
  17   2.0000      -0.449821       -12.2402
  18   2.0000      -0.415224       -11.2988
  19   2.0000      -0.378162       -10.2903
  20   2.0000      -0.351622        -9.5681
  21   2.0000      -0.331986        -9.0338
  22   2.0000      -0.315350        -8.5811
  23   2.0000      -0.313727        -8.5369
  24   2.0000      -0.300520        -8.1776
  25   2.0000      -0.268098        -7.2953
  26   0.0000      -0.043928        -1.1953
  27   0.0000      -0.005255        -0.1430
  28   0.0000       0.004329         0.1178
  29   0.0000       0.039511         1.0751
  30   0.0000       0.070409         1.9159

MULLIKEN ATOMIC CHARGES
-----------------------
   0 C :   -0.284284
   1 O :   -0.174357
   2 C :    0.342089
   3 O :   -0.390785
   4 C :   -0.347278
   5 C :    0.200325
   6 N :   -0.225167
   7 H :    0.156932
   8 H :    0.161419
   9 H :    0.171923
  10 H :    0.194385
  11 H :    0.194799
Sum of atomic charges:    0.0000000

LOEWDIN ATOMIC CHARGES
----------------------
   0 C :   -0.034659
   1 O :   -0.594136
   2 C :    0.371816
   3 O :   -0.386496
   4 C :   -0.183392
   5 C :    0.149524
   6 N :   -0.285823
   7 H :    0.179989
   8 H :    0.177620
   9 H :    0.183560
  10 H :    0.210965
  11 H :    0.211030

  Mayer bond orders larger than 0.100000
B(  0-C ,  1-O ) :   0.8412 B(  0-C ,  7-H ) :   0.9682 B(  0-C ,  8-H ) :   0.9573
B(  0-C ,  9-H ) :   0.9607 B(  1-O ,  2-C ) :   1.0997 B(  2-C ,  3-O ) :   1.8646
B(  2-C ,  4-C ) :   0.9318 B(  4-C ,  5-C ) :   1.0587 B(  4-C , 10-H ) :   0.9355
B(  4-C , 11-H ) :   0.9359 B(  5-C ,  6-N ) :   2.8867

Dispersion correction           -0.002772612
FINAL SINGLE POINT ENERGY      -360.547632909777

DIPOLE MOMENT
-------------

Method             : SCF
Type of density    : Electron Density
Multiplicity       :   1
Irrep              :   0
Energy             :  -360.5525206973613308 Eh
Relativity type    :
Basis              : AO
                                X                 Y                 Z
Electronic contribution:      5.369415636      -0.753089480      -1.074536628
Nuclear contribution   :     -7.119529022       1.587309318       2.252837392
                        -----------------------------------------
Total Dipole Moment    :     -1.750113385       0.834219838       1.178300764
                        -----------------------------------------
Magnitude (a.u.)       :      2.268746854
Magnitude (Debye)      :      5.766696217

Rotational constants in cm-1:             0.316997             0.047676             0.042099
Rotational constants in MHz :          9503.317517          1429.288749          1262.095906

                             ****ORCA TERMINATED NORMALLY****
TOTAL RUN TIME: 0 days 0 hours 0 minutes 18 seconds 282 msec
