                         Program Version 6.0.0  -   RELEASE  -
|  1> ! r2scan-3c def2/J RI DEFGRID2 scfconv6 printgap
|  2> %output
|  3>     printlevel normal
|  4> end
|  5> %cpcm
|  6>     smd true
|  7>     smdsolvent "water"
|  8> end
|  9> * xyz 0 1
| 10> C -2.7684573064 0.0796049406 0.1126639822
| 11> O -1.4830894593 0.4456076518 0.6265971204
| 12> C -0.4144260418 -0.0088977254 -0.0062407309
| 13> O -0.4492840035 -0.7083546904 -0.990552903
| 14> C 0.8461331105 0.4856736948 0.6875227787
| 15> C 2.0426606981 0.0298511891 0.036980884
| 16> N 3.0046342051 -0.3247542635 -0.47019726
| 17> H -3.4806699774 0.7162399925 0.6279359636
| 18> H -2.9635579711 -0.9721931691 0.3222603722
| 19> H -2.8006784746 0.240958073 -0.9651282401
| 20> H 0.8369308401 0.1339724917 1.7229391916
| 21> H 0.8321708692 1.5789933814 0.701802708
| 22> *
| 23>
| 24>                          ****END OF INPUT****

CARTESIAN COORDINATES (ANGSTROEM)
---------------------------------
  C     -2.768457    0.079605    0.112664
  O     -1.483089    0.445608    0.626597
  C     -0.414426   -0.008898   -0.006241
  O     -0.449284   -0.708355   -0.990553
  C      0.846133    0.485674    0.687523
  C      2.042661    0.029851    0.036981
  N      3.004634   -0.324754   -0.470197
  H     -3.480670    0.716240    0.627936
  H     -2.963558   -0.972193    0.322260
  H     -2.800678    0.240958   -0.965128
  H      0.836931    0.133972    1.722939
  H      0.832171    1.578993    0.701803

 Total Charge           Charge          ....    0
 Multiplicity           Mult            ....    1
 Number of Electrons    NEL             ....   52
 Basis Dimension        Dim             ....  173

ORBITAL ENERGIES
----------------

  NO   OCC          E(Eh)            E(eV)
   0   2.0000     -19.016081      -517.4539
   1   2.0000     -18.959533      -515.9151
   2   2.0000     -14.166669      -385.4947
   3   2.0000     -10.186353      -277.1848
   4   2.0000     -10.088998      -274.5356
   5   2.0000     -10.087024      -274.4819
   6   2.0000     -10.081785      -274.3393
   7   2.0000      -1.094405       -29.7803
   8   2.0000      -1.005705       -27.3666
   9   2.0000      -0.892714       -24.2920
  10   2.0000      -0.777889       -21.1674
  11   2.0000      -0.697557       -18.9815
  12   2.0000      -0.559227       -15.2173
  13   2.0000      -0.503605       -13.7038
  14   2.0000      -0.486986       -13.2516
  15   2.0000      -0.477654       -12.9976
  16   2.0000      -0.448207       -12.1963
  17   2.0000      -0.428186       -11.6515
  18   2.0000      -0.401200       -10.9172
  19   2.0000      -0.367473        -9.9995
  20   2.0000      -0.350964        -9.5502
  21   2.0000      -0.337275        -9.1777
  22   2.0000      -0.323400        -8.8002
  23   2.0000      -0.319158        -8.6847
  24   2.0000      -0.290330        -7.9003
  25   2.0000      -0.270354        -7.3567
  26   0.0000      -0.035252        -0.9593
  27   0.0000      -0.008959        -0.2438
  28   0.0000       0.001826         0.0497
  29   0.0000       0.055449         1.5089
  30   0.0000       0.090167         2.4536

MULLIKEN ATOMIC CHARGES
-----------------------
   0 C :   -0.322219
   1 O :   -0.176231
   2 C :    0.388454
   3 O :   -0.481146
   4 C :   -0.344681
   5 C :    0.240958
   6 N :   -0.340338
   7 H :    0.183253
   8 H :    0.184042
   9 H :    0.181438
  10 H :    0.243160
  11 H :    0.243309
Sum of atomic charges:    0.0000000

LOEWDIN ATOMIC CHARGES
----------------------
   0 C :   -0.032481
   1 O :   -0.583943
   2 C :    0.388818
   3 O :   -0.450327
   4 C :   -0.172420
   5 C :    0.179695
   6 N :   -0.361354
   7 H :    0.191353
   8 H :    0.184760
   9 H :    0.186601
  10 H :    0.234660
  11 H :    0.234638

  Mayer bond orders larger than 0.100000
B(  0-C ,  1-O ) :   0.8210 B(  0-C ,  7-H ) :   0.9581 B(  0-C ,  8-H ) :   0.9519
B(  0-C ,  9-H ) :   0.9571 B(  1-O ,  2-C ) :   1.1387 B(  2-C ,  3-O ) :   1.8041
B(  2-C ,  4-C ) :   0.9309 B(  4-C ,  5-C ) :   1.0533 B(  4-C , 10-H ) :   0.9130
B(  4-C , 11-H ) :   0.9134 B(  5-C ,  6-N ) :   2.8765

Dispersion correction           -0.002772612
FINAL SINGLE POINT ENERGY      -360.560776945365

DIPOLE MOMENT
-------------

Method             : SCF
Type of density    : Electron Density
Multiplicity       :   1
Irrep              :   0
Energy             :  -360.5656647329491307 Eh
Relativity type    :
Basis              : AO
                                X                 Y                 Z
Electronic contribution:      4.924198053      -0.379973805      -0.543963192
Nuclear contribution   :     -7.119529022       1.587309318       2.252837392
                        -----------------------------------------
Total Dipole Moment    :     -2.195330969       1.207335514       1.708874201
                        -----------------------------------------
Magnitude (a.u.)       :      3.032719594
Magnitude (Debye)      :      7.708560599

Rotational constants in cm-1:             0.316997             0.047676             0.042099
Rotational constants in MHz :          9503.317517          1429.288749          1262.095906

                             ****ORCA TERMINATED NORMALLY****
TOTAL RUN TIME: 0 days 0 hours 0 minutes 20 seconds 686 msec
