                         Program Version 6.0.0  -   RELEASE  -
|  1> ! wb97x-v def2-tzvp def2/J RIJCOSX DEFGRID2 scfconv7 GCP(DFT/TZ) printgap
|  2> %output
|  3>     printlevel normal
|  4> end
|  5> * xyz 0 1
|  6> C -1.9525985027645503 -0.10757356245974521 -0.028113475024265148
|  7> C -0.5690237970580816 0.5339801879806889 0.026455917754493515
|  8> C 0.5266736739974339 -0.5106025324969414 -0.02590244709118425
|  9> O 1.804439350601065 0.15907989845981452 0.030203796123415425
| 10> H -2.738256208114945 0.652403843504466 0.006565780116853707
| 11> H -2.0837924913787553 -0.6835957852305717 -0.9504612663861659
| 12> H -2.105865284832862 -0.7872461125420842 0.8170283735356103
| 13> H -0.4610096334616461 1.118996316699126 0.947994391615934
| 14> H -0.44204925651333066 1.226743173050239 -0.814509057768789
| 15> H 0.428705486892407 -1.2043771587894527 0.8217728198983327
| 16> H 0.44834143399684795 -1.0939783785501225 -0.9548127282610805
| 17> H 2.4892298509984405 -0.5201697347157179 -0.006269428453935185
| 18> *
| 19>
| 20>                          ****END OF INPUT****

CARTESIAN COORDINATES (ANGSTROEM)
---------------------------------
  C     -1.952599   -0.107574   -0.028113
  C     -0.569024    0.533980    0.026456
  C      0.526674   -0.510603   -0.025902
  O      1.804439    0.159080    0.030204
  H     -2.738256    0.652404    0.006566
  H     -2.083792   -0.683596   -0.950461
  H     -2.105865   -0.787246    0.817028
  H     -0.461010    1.118996    0.947994
  H     -0.442049    1.226743   -0.814509
  H      0.428705   -1.204377    0.821773
  H      0.448341   -1.093978   -0.954813
  H      2.489230   -0.520170   -0.006269

 Total Charge           Charge          ....    0
 Multiplicity           Mult            ....    1
 Number of Electrons    NEL             ....   34
 Basis Dimension        Dim             ....  172

ORBITAL ENERGIES
----------------

  NO   OCC          E(Eh)            E(eV)
   0   2.0000     -21.667177      -589.5939
   1   2.0000     -12.089868      -328.9820
   2   2.0000     -12.040111      -327.6281
   3   2.0000     -12.037272      -327.5508
   4   2.0000      -1.664471       -45.2926
   5   2.0000      -1.293436       -35.1962
   6   2.0000      -1.187656       -32.3178
   7   2.0000      -1.074285       -29.2328
   8   2.0000      -1.031133       -28.0585
   9   2.0000      -0.937051       -25.4985
  10   2.0000      -0.936940       -25.4954
  11   2.0000      -0.867731       -23.6122
  12   2.0000      -0.843258       -22.9462
  13   2.0000      -0.823814       -22.4171
  14   2.0000      -0.799736       -21.7619
  15   2.0000      -0.775896       -21.1132
  16   2.0000      -0.749308       -20.3897
  17   0.0000      -0.144949        -3.9443
  18   0.0000      -0.039759        -1.0819
  19   0.0000      -0.007566        -0.2059
  20   0.0000       0.011405         0.3104
  21   0.0000       0.017031         0.4634

MULLIKEN ATOMIC CHARGES
-----------------------
   0 C :   -0.350759
   1 C :   -0.126494
   2 C :   -0.039431
   3 O :   -0.448627
   4 H :    0.118095
   5 H :    0.104234
   6 H :    0.104410
   7 H :    0.092933
   8 H :    0.092806
   9 H :    0.077696
  10 H :    0.077810
  11 H :    0.297328
Sum of atomic charges:    0.0000000

LOEWDIN ATOMIC CHARGES
----------------------
   0 C :   -0.307058
   1 C :   -0.293349
   2 C :   -0.335995
   3 O :   -0.066658
   4 H :    0.117852
   5 H :    0.115790
   6 H :    0.115780
   7 H :    0.133754
   8 H :    0.133768
   9 H :    0.110899
  10 H :    0.110896
  11 H :    0.164322

  Mayer bond orders larger than 0.100000
B(  0-C ,  1-C ) :   0.9729 B(  0-C ,  4-H ) :   0.9820 B(  0-C ,  5-H ) :   0.9781
B(  0-C ,  6-H ) :   0.9781 B(  1-C ,  2-C ) :   0.9998 B(  1-C ,  7-H ) :   0.9692
B(  1-C ,  8-H ) :   0.9693 B(  2-C ,  3-O ) :   1.0694 B(  2-C ,  9-H ) :   0.9691
B(  2-C , 10-H ) :   0.9692 B(  3-O , 11-H ) :   0.9087

FINAL SINGLE POINT ENERGY      -194.360577970607

DIPOLE MOMENT
-------------

Method             : SCF
Type of density    : Electron Density
Multiplicity       :   1
Irrep              :   0
Energy             :  -194.3688049013072998 Eh
Relativity type    :
Basis              : AO
                                X                 Y                 Z
Electronic contribution:      4.091091392       0.632243588       0.085963090
Nuclear contribution   :     -4.212977247      -1.238110848      -0.126350335
                        -----------------------------------------
Total Dipole Moment    :     -0.121885856      -0.605867260      -0.040387245
                        -----------------------------------------
Magnitude (a.u.)       :      0.619324170
Magnitude (Debye)      :      1.574196938

Rotational constants in cm-1:             0.882589             0.126421             0.117928
Rotational constants in MHz :         26459.348630          3789.992969          3535.404902

                             ****ORCA TERMINATED NORMALLY****
TOTAL RUN TIME: 0 days 0 hours 0 minutes 39 seconds 695 msec
