                         Program Version 6.0.0  -   RELEASE  -
|  1> ! wb97x-v def2-tzvp def2/J RIJCOSX DEFGRID2 scfconv7 GCP(DFT/TZ) printgap
|  2> %output
|  3>     printlevel normal
|  4> end
|  5> %cpcm
|  6>     smd true
|  7>     smdsolvent "water"
|  8> end
|  9> * xyz 0 1
| 10> C -1.9525985027645503 -0.10757356245974521 -0.028113475024265148
| 11> C -0.5690237970580816 0.5339801879806889 0.026455917754493515
| 12> C 0.5266736739974339 -0.5106025324969414 -0.02590244709118425
| 13> O 1.804439350601065 0.15907989845981452 0.030203796123415425
| 14> H -2.738256208114945 0.652403843504466 0.006565780116853707
| 15> H -2.0837924913787553 -0.6835957852305717 -0.9504612663861659
| 16> H -2.105865284832862 -0.7872461125420842 0.8170283735356103
| 17> H -0.4610096334616461 1.118996316699126 0.947994391615934
| 18> H -0.44204925651333066 1.226743173050239 -0.814509057768789
| 19> H 0.428705486892407 -1.2043771587894527 0.8217728198983327
| 20> H 0.44834143399684795 -1.0939783785501225 -0.9548127282610805
| 21> H 2.4892298509984405 -0.5201697347157179 -0.006269428453935185
| 22> *
| 23>
| 24>                          ****END OF INPUT****

CARTESIAN COORDINATES (ANGSTROEM)
---------------------------------
  C     -1.952599   -0.107574   -0.028113
  C     -0.569024    0.533980    0.026456
  C      0.526674   -0.510603   -0.025902
  O      1.804439    0.159080    0.030204
  H     -2.738256    0.652404    0.006566
  H     -2.083792   -0.683596   -0.950461
  H     -2.105865   -0.787246    0.817028
  H     -0.461010    1.118996    0.947994
  H     -0.442049    1.226743   -0.814509
  H      0.428705   -1.204377    0.821773
  H      0.448341   -1.093978   -0.954813
  H      2.489230   -0.520170   -0.006269

 Total Charge           Charge          ....    0
 Multiplicity           Mult            ....    1
 Number of Electrons    NEL             ....   34
 Basis Dimension        Dim             ....  172

ORBITAL ENERGIES
----------------

  NO   OCC          E(Eh)            E(eV)
   0   2.0000     -21.670687      -589.6894
   1   2.0000     -12.082534      -328.7825
   2   2.0000     -12.034388      -327.4723
   3   2.0000     -12.027800      -327.2931
   4   2.0000      -1.668131       -45.3922
   5   2.0000      -1.287421       -35.0325
   6   2.0000      -1.182200       -32.1693
   7   2.0000      -1.069621       -29.1059
   8   2.0000      -1.032491       -28.0955
   9   2.0000      -0.940370       -25.5888
  10   2.0000      -0.938345       -25.5337
  11   2.0000      -0.863487       -23.4967
  12   2.0000      -0.836387       -22.7592
  13   2.0000      -0.817117       -22.2349
  14   2.0000      -0.793192       -21.5839
  15   2.0000      -0.768422       -20.9098
  16   2.0000      -0.742584       -20.2067
  17   0.0000      -0.140025        -3.8103
  18   0.0000      -0.020043        -0.5454
  19   0.0000       0.002816         0.0766
  20   0.0000       0.019923         0.5421
  21   0.0000       0.027532         0.7492

MULLIKEN ATOMIC CHARGES
-----------------------
   0 C :   -0.402186
   1 C :   -0.138481
   2 C :   -0.047083
   3 O :   -0.559120
   4 H :    0.132768
   5 H :    0.122589
   6 H :    0.122678
   7 H :    0.099858
   8 H :    0.099808
   9 H :    0.104310
  10 H :    0.104505
  11 H :    0.360355
Sum of atomic charges:    0.0000000

LOEWDIN ATOMIC CHARGES
----------------------
   0 C :   -0.310276
   1 C :   -0.300917
   2 C :   -0.330402
   3 O :   -0.108666
   4 H :    0.120075
   5 H :    0.119763
   6 H :    0.119740
   7 H :    0.133028
   8 H :    0.133060
   9 H :    0.119048
  10 H :    0.119085
  11 H :    0.186462

  Mayer bond orders larger than 0.100000
B(  0-C ,  1-C ) :   0.9773 B(  0-C ,  4-H ) :   0.9776 B(  0-C ,  5-H ) :   0.9764
B(  0-C ,  6-H ) :   0.9764 B(  1-C ,  2-C ) :   0.9896 B(  1-C ,  7-H ) :   0.9641
B(  1-C ,  8-H ) :   0.9642 B(  2-C ,  3-O ) :   1.0157 B(  2-C ,  9-H ) :   0.9747
B(  2-C , 10-H ) :   0.9747 B(  3-O , 11-H ) :   0.8707

FINAL SINGLE POINT ENERGY      -194.368098487374

DIPOLE MOMENT
-------------

Method             : SCF
Type of density    : Electron Density
Multiplicity       :   1
Irrep              :   0
Energy             :  -194.3763254180735203 Eh
Relativity type    :
Basis              : AO
                                X                 Y                 Z
Electronic contribution:      4.029951923       0.372317876       0.068644192
Nuclear contribution   :     -4.212977247      -1.238110848      -0.126350335
                        -----------------------------------------
Total Dipole Moment    :     -0.183025324      -0.865792972      -0.057706143
                        -----------------------------------------
Magnitude (a.u.)       :      0.886806484
Magnitude (Debye)      :      2.254082946

Rotational constants in cm-1:             0.882589             0.126421             0.117928
Rotational constants in MHz :         26459.348630          3789.992969          3535.404902

                             ****ORCA TERMINATED NORMALLY****
TOTAL RUN TIME: 0 days 0 hours 0 minutes 47 seconds 519 msec
