                         Program Version 6.0.0  -   RELEASE  -
|  1> ! pbe def2-sv(p) def2/J RI DEFGRID1 loosescf d4 GCP(DFT/SV(P)) printgap
|  2> %output
|  3>     printlevel normal
|  4> end
|  5> * xyz 0 1
|  6> C 0.7678957436 -1.1548793831 -0.2882094112
|  7> C -0.7777679767 -1.230333562 -0.1499240869
|  8> N -1.3500639507 0.015731905 0.346981685
|  9> C -0.7481651862 1.1590881946 -0.3212854115
| 10> C 0.7852516164 1.2319716314 -0.0820621097
| 11> N 1.3248014823 -0.0211529441 0.4332900492
| 12> H 1.0510661203 -1.0328833825 -1.3368486461
| 13> H 1.2356740241 -2.0650893285 0.0895703588
| 14> H -1.231488408 -1.4314985855 -1.1249358794
| 15> H -1.0703339407 -2.0289691527 0.5331624416
| 16> H -1.1834566469 0.0939987357 1.3468630699
| 17> H -0.9627620377 1.0516503691 -1.3876325399
| 18> H -1.2399086187 2.0641747151 0.0378995584
| 19> H 1.301136923 1.4468043358 -1.0226697282
| 20> H 1.0323422506 2.0207611066 0.6298140515
| 21> H 1.0944930031 -0.1132895379 1.4192166653
| 22> *
| 23>
| 24>                          ****END OF INPUT****

CARTESIAN COORDINATES (ANGSTROEM)
---------------------------------
  C      0.767896   -1.154879   -0.288209
  C     -0.777768   -1.230334   -0.149924
  N     -1.350064    0.015732    0.346982
  C     -0.748165    1.159088   -0.321285
  C      0.785252    1.231972   -0.082062
  N      1.324801   -0.021153    0.433290
  H      1.051066   -1.032883   -1.336849
  H      1.235674   -2.065089    0.089570
  H     -1.231488   -1.431499   -1.124936
  H     -1.070334   -2.028969    0.533162
  H     -1.183457    0.093999    1.346863
  H     -0.962762    1.051650   -1.387633
  H     -1.239909    2.064175    0.037900
  H      1.301137    1.446804   -1.022670
  H      1.032342    2.020761    0.629814
  H      1.094493   -0.113290    1.419217

 Total Charge           Charge          ....    0
 Multiplicity           Mult            ....    1
 Number of Electrons    NEL             ....   48
 Basis Dimension        Dim             ....  104

ORBITAL ENERGIES
----------------

  NO   OCC          E(Eh)            E(eV)
   0   2.0000     -13.971767      -380.1911
   1   2.0000     -13.971588      -380.1862
   2   2.0000      -9.904271      -269.5089
   3   2.0000      -9.904226      -269.5077
   4   2.0000      -9.903754      -269.4948
   5   2.0000      -9.903749      -269.4947
   6   2.0000      -0.849922       -23.1276
   7   2.0000      -0.786423       -21.3997
   8   2.0000      -0.676205       -18.4005
   9   2.0000      -0.598569       -16.2879
  10   2.0000      -0.568458       -15.4685
  11   2.0000      -0.506344       -13.7783
  12   2.0000      -0.473525       -12.8853
  13   2.0000      -0.417179       -11.3520
  14   2.0000      -0.407538       -11.0897
  15   2.0000      -0.397375       -10.8131
  16   2.0000      -0.361326        -9.8322
  17   2.0000      -0.354810        -9.6549
  18   2.0000      -0.334562        -9.1039
  19   2.0000      -0.332252        -9.0410
  20   2.0000      -0.287886        -7.8338
  21   2.0000      -0.286855        -7.8057
  22   2.0000      -0.200452        -5.4546
  23   2.0000      -0.159046        -4.3279
  24   0.0000       0.013735         0.3737
  25   0.0000       0.047088         1.2813
  26   0.0000       0.069853         1.9008
  27   0.0000       0.072803         1.9811
  28   0.0000       0.091122         2.4796

MULLIKEN ATOMIC CHARGES
-----------------------
   0 C :   -0.089715
   1 C :   -0.089319
   2 N :   -0.333974
   3 C :   -0.089272
   4 C :   -0.090001
   5 N :   -0.333938
   6 H :    0.078805
   7 H :    0.088448
   8 H :    0.079714
   9 H :    0.083079
  10 H :    0.182931
  11 H :    0.078668
  12 H :    0.088474
  13 H :    0.079902
  14 H :    0.083179
  15 H :    0.183019
Sum of atomic charges:   -0.0000000

LOEWDIN ATOMIC CHARGES
----------------------
   0 C :   -0.194332
   1 C :   -0.194236
   2 N :   -0.254515
   3 C :   -0.194311
   4 C :   -0.194317
   5 N :   -0.254527
   6 H :    0.111102
   7 H :    0.113980
   8 H :    0.109855
   9 H :    0.111604
  10 H :    0.196523
  11 H :    0.111099
  12 H :    0.113980
  13 H :    0.109887
  14 H :    0.111640
  15 H :    0.196568

  Mayer bond orders larger than 0.100000
B(  0-C ,  1-C ) :   1.0366 B(  0-C ,  5-N ) :   1.1245 B(  0-C ,  6-H ) :   0.9198
B(  0-C ,  7-H ) :   0.9327 B(  1-C ,  2-N ) :   1.1255 B(  1-C ,  8-H ) :   0.9213
B(  1-C ,  9-H ) :   0.9341 B(  2-N ,  3-C ) :   1.1245 B(  2-N , 10-H ) :   0.8758
B(  3-C ,  4-C ) :   1.0369 B(  3-C , 11-H ) :   0.9197 B(  3-C , 12-H ) :   0.9327
B(  4-C ,  5-N ) :   1.1253 B(  4-C , 13-H ) :   0.9212 B(  4-C , 14-H ) :   0.9341
B(  5-N , 15-H ) :   0.8758

Dispersion correction           -0.013057363
FINAL SINGLE POINT ENERGY      -267.278796152844

DIPOLE MOMENT
-------------

Method             : SCF
Type of density    : Electron Density
Multiplicity       :   1
Irrep              :   0
Energy             :  -267.3441968119278727 Eh
Relativity type    :
Basis              : AO
                                X                 Y                 Z
Electronic contribution:     -0.034484687      -0.007342872       1.068012466
Nuclear contribution   :      0.024969528       0.005279662      -0.760859712
                        -----------------------------------------
Total Dipole Moment    :     -0.009515159      -0.002063209       0.307152754
                        -----------------------------------------
Magnitude (a.u.)       :      0.307307028
Magnitude (Debye)      :      0.781112388

Rotational constants in cm-1:             0.156856             0.151674             0.091758
Rotational constants in MHz :          4702.426609          4547.076226          2750.840387

                             ****ORCA TERMINATED NORMALLY****
TOTAL RUN TIME: 0 days 0 hours 0 minutes 5 seconds 152 msec
