                         Program Version 6.0.0  -   RELEASE  -
|  1> ! pbe def2-sv(p) def2/J RI DEFGRID1 loosescf d4 GCP(DFT/SV(P)) printgap
|  2> %output
|  3>     printlevel normal
|  4> end
|  5> * xyz 0 1
|  6> C -2.9230651274 -1.0560519257 0.3331562127
|  7> O -1.7429343479 -0.6971259799 -0.3900125128
|  8> C -1.031743159 0.3485616571 0.022195878
|  9> O -1.3433656294 1.0233987495 0.9818488229
| 10> C 0.1473263206 0.6426896627 -0.8850400295
| 11> C 0.8190663833 -0.6175598256 -1.4567611965
| 12> C 1.9825195883 -1.0816208699 -0.5715676397
| 13> C 1.70631579 -0.7350526102 0.8865460069
| 14> C 1.7271741165 0.7842105812 1.0799232009
| 15> C 1.1704184908 1.5120358626 -0.1517138643
| 16> H -3.6858158916 -1.2872353168 -0.4062071004
| 17> H -3.2345465818 -0.2276576834 0.9706446794
| 18> H -2.7066593354 -1.9329724526 0.9428349567
| 19> H -0.2871458899 1.2169709075 -1.7119118362
| 20> H 0.0744387235 -1.4081886752 -1.5430481117
| 21> H 1.1897352408 -0.4004740806 -2.4585753285
| 22> H 2.1227883477 -2.1568674529 -0.6858175574
| 23> H 2.9081424572 -0.5918815856 -0.8771785156
| 24> H 0.7273356036 -1.1315927818 1.1681934191
| 25> H 2.4465322861 -1.2005338119 1.5385726978
| 26> H 1.1323494503 1.0427830501 1.9574410889
| 27> H 2.7488571643 1.1208450931 1.2607613293
| 28> H 0.7042093214 2.448484952 0.1558707867
| 29> H 1.9746921746 1.7456566034 -0.849047327
| 30> *
| 31>
| 32>                          ****END OF INPUT****

CARTESIAN COORDINATES (ANGSTROEM)
---------------------------------
  C     -2.923065   -1.056052    0.333156
  O     -1.742934   -0.697126   -0.390013
  C     -1.031743    0.348562    0.022196
  O     -1.343366    1.023399    0.981849
  C      0.147326    0.642690   -0.885040
  C      0.819066   -0.617560   -1.456761
  C      1.982520   -1.081621   -0.571568
  C      1.706316   -0.735053    0.886546
  C      1.727174    0.784211    1.079923
  C      1.170418    1.512036   -0.151714
  H     -3.685816   -1.287235   -0.406207
  H     -3.234547   -0.227658    0.970645
  H     -2.706659   -1.932972    0.942835
  H     -0.287146    1.216971   -1.711912
  H      0.074439   -1.408189   -1.543048
  H      1.189735   -0.400474   -2.458575
  H      2.122788   -2.156867   -0.685818
  H      2.908142   -0.591882   -0.877179
  H      0.727336   -1.131593    1.168193
  H      2.446532   -1.200534    1.538573
  H      1.132349    1.042783    1.957441
  H      2.748857    1.120845    1.260761
  H      0.704209    2.448485    0.155871
  H      1.974692    1.745657   -0.849047

 Total Charge           Charge          ....    0
 Multiplicity           Mult            ....    1
 Number of Electrons    NEL             ....   78
 Basis Dimension        Dim             ....  168

ORBITAL ENERGIES
----------------

  NO   OCC          E(Eh)            E(eV)
   0   2.0000     -18.798496      -511.5331
   1   2.0000     -18.734017      -509.7785
   2   2.0000     -10.004921      -272.2477
   3   2.0000      -9.940249      -270.4879
   4   2.0000      -9.904190      -269.5067
   5   2.0000      -9.883617      -268.9469
   6   2.0000      -9.881540      -268.8904
   7   2.0000      -9.881287      -268.8835
   8   2.0000      -9.880071      -268.8504
   9   2.0000      -9.875777      -268.7335
  10   2.0000      -1.005199       -27.3529
  11   2.0000      -0.910079       -24.7645
  12   2.0000      -0.759862       -20.6769
  13   2.0000      -0.688659       -18.7394
  14   2.0000      -0.662367       -18.0239
  15   2.0000      -0.650591       -17.7035
  16   2.0000      -0.565770       -15.3954
  17   2.0000      -0.542017       -14.7490
  18   2.0000      -0.507576       -13.8119
  19   2.0000      -0.477656       -12.9977
  20   2.0000      -0.460396       -12.5280
  21   2.0000      -0.441140       -12.0040
  22   2.0000      -0.423304       -11.5187
  23   2.0000      -0.417439       -11.3591
  24   2.0000      -0.395751       -10.7689
  25   2.0000      -0.383895       -10.4463
  26   2.0000      -0.362732        -9.8704
  27   2.0000      -0.359443        -9.7809
  28   2.0000      -0.334432        -9.1004
  29   2.0000      -0.329020        -8.9531
  30   2.0000      -0.326591        -8.8870
  31   2.0000      -0.321177        -8.7397
  32   2.0000      -0.309247        -8.4150
  33   2.0000      -0.296668        -8.0727
  34   2.0000      -0.271177        -7.3791
  35   2.0000      -0.261265        -7.1094
  36   2.0000      -0.259065        -7.0495
  37   2.0000      -0.254998        -6.9388
  38   2.0000      -0.216654        -5.8955
  39   0.0000      -0.021191        -0.5766
  40   0.0000       0.030490         0.8297
  41   0.0000       0.045328         1.2334
  42   0.0000       0.068872         1.8741
  43   0.0000       0.073890         2.0107

MULLIKEN ATOMIC CHARGES
-----------------------
   0 C :   -0.127147
   1 O :   -0.243511
   2 C :    0.141268
   3 O :   -0.196604
   4 C :   -0.229898
   5 C :   -0.113817
   6 C :   -0.151603
   7 C :   -0.165820
   8 C :   -0.170312
   9 C :   -0.077217
  10 H :    0.122280
  11 H :    0.132832
  12 H :    0.120931
  13 H :    0.102522
  14 H :    0.099806
  15 H :    0.076882
  16 H :    0.084324
  17 H :    0.075780
  18 H :    0.088181
  19 H :    0.086252
  20 H :    0.098480
  21 H :    0.078374
  22 H :    0.094476
  23 H :    0.073539
Sum of atomic charges:   -0.0000000

LOEWDIN ATOMIC CHARGES
----------------------
   0 C :   -0.207940
   1 O :   -0.069920
   2 C :    0.042318
   3 O :   -0.167454
   4 C :   -0.167950
   5 C :   -0.221002
   6 C :   -0.226085
   7 C :   -0.231249
   8 C :   -0.231412
   9 C :   -0.214539
  10 H :    0.120785
  11 H :    0.124075
  12 H :    0.119205
  13 H :    0.144426
  14 H :    0.121087
  15 H :    0.117975
  16 H :    0.118002
  17 H :    0.114081
  18 H :    0.115341
  19 H :    0.118415
  20 H :    0.123370
  21 H :    0.115501
  22 H :    0.126032
  23 H :    0.116937

  Mayer bond orders larger than 0.100000
B(  0-C ,  1-O ) :   0.9372 B(  0-C , 10-H ) :   0.9610 B(  0-C , 11-H ) :   0.9306
B(  0-C , 12-H ) :   0.9593 B(  1-O ,  2-C ) :   1.2064 B(  2-C ,  3-O ) :   2.0632
B(  2-C ,  4-C ) :   0.9381 B(  4-C ,  5-C ) :   1.0785 B(  4-C ,  9-C ) :   1.1486
B(  4-C , 13-H ) :   0.8605 B(  5-C ,  6-C ) :   1.1424 B(  5-C , 14-H ) :   0.9081
B(  5-C , 15-H ) :   0.9116 B(  6-C ,  7-C ) :   1.1814 B(  6-C , 16-H ) :   0.9206
B(  6-C , 17-H ) :   0.9085 B(  7-C ,  8-C ) :   1.1522 B(  7-C , 18-H ) :   0.9011
B(  7-C , 19-H ) :   0.9196 B(  8-C ,  9-C ) :   1.1413 B(  8-C , 20-H ) :   0.9125
B(  8-C , 21-H ) :   0.9188 B(  9-C , 22-H ) :   0.9072 B(  9-C , 23-H ) :   0.9037

Dispersion correction           -0.024015272
FINAL SINGLE POINT ENERGY      -462.695585655159

DIPOLE MOMENT
-------------

Method             : SCF
Type of density    : Electron Density
Multiplicity       :   1
Irrep              :   0
Energy             :  -462.7839202631606668 Eh
Relativity type    :
Basis              : AO
                                X                 Y                 Z
Electronic contribution:     -5.821416182       2.056486404       0.080028274
Nuclear contribution   :      5.691052126      -2.587002490      -0.495458959
                        -----------------------------------------
Total Dipole Moment    :     -0.130364056      -0.530516087      -0.415430685
                        -----------------------------------------
Magnitude (a.u.)       :      0.686312436
Magnitude (Debye)      :      1.744467577

Rotational constants in cm-1:             0.071707             0.034289             0.030367
Rotational constants in MHz :          2149.708502          1027.967838           910.369792

                             ****ORCA TERMINATED NORMALLY****
TOTAL RUN TIME: 0 days 0 hours 0 minutes 11 seconds 334 msec
