                         Program Version 6.0.0  -   RELEASE  -
|  1> ! pbe def2-sv(p) def2/J RI DEFGRID1 loosescf d4 GCP(DFT/SV(P)) printgap
|  2> %output
|  3>     printlevel normal
|  4> end
|  5> * xyz 0 1
|  6> C -2.3793477398 -0.854772413 0.4855480989
|  7> C -0.9182216284 -0.4092064003 0.6223488425
|  8> H -0.6176493786 -0.4975664038 1.6764168965
|  9> C -0.7306304242 1.054469757 0.1697949449
| 10> H -1.4788795371 1.2811561437 -0.5984511814
| 11> C 0.6839284682 1.246820399 -0.4249085703
| 12> H 0.9823393984 2.2893248542 -0.2398143642
| 13> C 1.6646100339 0.3189603868 0.304521114
| 14> H 2.6663434544 0.4594920025 -0.1204429758
| 15> C 1.2572845391 -1.150501141 0.0201628381
| 16> H 1.5692137068 -1.7847699954 0.8677489218
| 17> O -0.1351524369 -1.2871160836 -0.1720856254
| 18> O 1.8986906951 -1.6516079021 -1.0946563046
| 19> O 1.6333851916 0.6425381263 1.6723574993
| 20> O 0.7648316877 0.9337303763 -1.7915179685
| 21> O -0.9710149214 1.9550869179 1.2180513554
| 22> O -2.8300622843 -0.7997165916 -0.8424528388
| 23> H -3.0091771426 -0.1713816982 1.0580152659
| 24> H -2.479667031 -1.870340578 0.8870095305
| 25> H 1.6100258538 -1.1386654104 -1.8699057841
| 26> H 2.4135714414 0.2845986675 2.1184248423
| 27> H 0.2158841573 1.5459468609 -2.30157427
| 28> H -0.2938204436 1.8233963508 1.9006446015
| 29> H -2.2701810482 -1.3860606021 -1.3722211171
| 30> *
| 31>
| 32>                          ****END OF INPUT****

CARTESIAN COORDINATES (ANGSTROEM)
---------------------------------
  C     -2.379348   -0.854772    0.485548
  C     -0.918222   -0.409206    0.622349
  H     -0.617649   -0.497566    1.676417
  C     -0.730630    1.054470    0.169795
  H     -1.478880    1.281156   -0.598451
  C      0.683928    1.246820   -0.424909
  H      0.982339    2.289325   -0.239814
  C      1.664610    0.318960    0.304521
  H      2.666343    0.459492   -0.120443
  C      1.257285   -1.150501    0.020163
  H      1.569214   -1.784770    0.867749
  O     -0.135152   -1.287116   -0.172086
  O      1.898691   -1.651608   -1.094656
  O      1.633385    0.642538    1.672357
  O      0.764832    0.933730   -1.791518
  O     -0.971015    1.955087    1.218051
  O     -2.830062   -0.799717   -0.842453
  H     -3.009177   -0.171382    1.058015
  H     -2.479667   -1.870341    0.887010
  H      1.610026   -1.138665   -1.869906
  H      2.413571    0.284599    2.118425
  H      0.215884    1.545947   -2.301574
  H     -0.293820    1.823396    1.900645
  H     -2.270181   -1.386061   -1.372221

 Total Charge           Charge          ....    0
 Multiplicity           Mult            ....    1
 Number of Electrons    NEL             ....   96
 Basis Dimension        Dim             ....  192

ORBITAL ENERGIES
----------------

  NO   OCC          E(Eh)            E(eV)
   0   2.0000     -18.781685      -511.0756
   1   2.0000     -18.772614      -510.8288
   2   2.0000     -18.764764      -510.6152
   3   2.0000     -18.749983      -510.2130
   4   2.0000     -18.744879      -510.0741
   5   2.0000     -18.743607      -510.0395
   6   2.0000      -9.985525      -271.7199
   7   2.0000      -9.951539      -270.7952
   8   2.0000      -9.949081      -270.7283
   9   2.0000      -9.936416      -270.3836
  10   2.0000      -9.935389      -270.3557
  11   2.0000      -9.927049      -270.1287
  12   2.0000      -0.982036       -26.7226
  13   2.0000      -0.953035       -25.9334
  14   2.0000      -0.945112       -25.7178
  15   2.0000      -0.927382       -25.2354
  16   2.0000      -0.919736       -25.0273
  17   2.0000      -0.904254       -24.6060
  18   2.0000      -0.701257       -19.0822
  19   2.0000      -0.685983       -18.6666
  20   2.0000      -0.616492       -16.7756
  21   2.0000      -0.589949       -16.0533
  22   2.0000      -0.562850       -15.3159
  23   2.0000      -0.528202       -14.3731
  24   2.0000      -0.510646       -13.8954
  25   2.0000      -0.498915       -13.5762
  26   2.0000      -0.469691       -12.7809
  27   2.0000      -0.458656       -12.4807
  28   2.0000      -0.449107       -12.2208
  29   2.0000      -0.439104       -11.9486
  30   2.0000      -0.420047       -11.4301
  31   2.0000      -0.390621       -10.6293
  32   2.0000      -0.380569       -10.3558
  33   2.0000      -0.368250       -10.0206
  34   2.0000      -0.358805        -9.7636
  35   2.0000      -0.351792        -9.5728
  36   2.0000      -0.336914        -9.1679
  37   2.0000      -0.327580        -8.9139
  38   2.0000      -0.308364        -8.3910
  39   2.0000      -0.296176        -8.0593
  40   2.0000      -0.280681        -7.6377
  41   2.0000      -0.268834        -7.3154
  42   2.0000      -0.260395        -7.0857
  43   2.0000      -0.247218        -6.7271
  44   2.0000      -0.238820        -6.4986
  45   2.0000      -0.219502        -5.9729
  46   2.0000      -0.216390        -5.8883
  47   2.0000      -0.194328        -5.2879
  48   0.0000      -0.001830        -0.0498
  49   0.0000       0.017614         0.4793
  50   0.0000       0.047594         1.2951
  51   0.0000       0.055964         1.5229
  52   0.0000       0.064599         1.7578

MULLIKEN ATOMIC CHARGES
-----------------------
   0 C :    0.083816
   1 C :   -0.002286
   2 H :    0.050286
   3 C :    0.070682
   4 H :    0.056502
   5 C :    0.062448
   6 H :    0.070890
   7 C :   -0.054800
   8 H :    0.085273
   9 C :    0.237517
  10 H :    0.047139
  11 O :   -0.314010
  12 O :   -0.395610
  13 O :   -0.419291
  14 O :   -0.424927
  15 O :   -0.426918
  16 O :   -0.438868
  17 H :    0.093003
  18 H :    0.077421
  19 H :    0.304690
  20 H :    0.317821
  21 H :    0.314623
  22 H :    0.303647
  23 H :    0.300953
Sum of atomic charges:    0.0000000

LOEWDIN ATOMIC CHARGES
----------------------
   0 C :   -0.123003
   1 C :   -0.082958
   2 H :    0.102404
   3 C :   -0.077606
   4 H :    0.112789
   5 C :   -0.072919
   6 H :    0.105410
   7 C :   -0.094719
   8 H :    0.113600
   9 C :    0.003110
  10 H :    0.091270
  11 O :   -0.160212
  12 O :   -0.297011
  13 O :   -0.312341
  14 O :   -0.314667
  15 O :   -0.313958
  16 O :   -0.332656
  17 H :    0.120987
  18 H :    0.101218
  19 H :    0.279451
  20 H :    0.297280
  21 H :    0.294617
  22 H :    0.277021
  23 H :    0.282893

  Mayer bond orders larger than 0.100000
B(  0-C ,  1-C ) :   1.0422 B(  0-C , 16-O ) :   1.0635 B(  0-C , 17-H ) :   0.9199
B(  0-C , 18-H ) :   0.9124 B(  1-C ,  2-H ) :   0.8664 B(  1-C ,  3-C ) :   0.9813
B(  1-C , 11-O ) :   1.0147 B(  3-C ,  4-H ) :   0.8726 B(  3-C ,  5-C ) :   0.9680
B(  3-C , 15-O ) :   1.0386 B(  5-C ,  6-H ) :   0.8939 B(  5-C ,  7-C ) :   1.0296
B(  5-C , 14-O ) :   1.0353 B(  7-C ,  8-H ) :   0.8992 B(  7-C ,  9-C ) :   0.9339
B(  7-C , 13-O ) :   1.0455 B(  9-C , 10-H ) :   0.9044 B(  9-C , 11-O ) :   1.0208
B(  9-C , 12-O ) :   1.1528 B( 12-O , 19-H ) :   0.8241 B( 13-O , 20-H ) :   0.8407
B( 14-O , 21-H ) :   0.8407 B( 15-O , 22-H ) :   0.8319 B( 16-O , 23-H ) :   0.8428

Dispersion correction           -0.025218920
FINAL SINGLE POINT ENERGY      -685.696899715414

DIPOLE MOMENT
-------------

Method             : SCF
Type of density    : Electron Density
Multiplicity       :   1
Irrep              :   0
Energy             :  -685.8282568252626561 Eh
Relativity type    :
Basis              : AO
                                X                 Y                 Z
Electronic contribution:      1.582728132      -0.473997435      -1.601440412
Nuclear contribution   :     -0.643867243       0.780426329       1.866861736
                        -----------------------------------------
Total Dipole Moment    :      0.938860889       0.306428894       0.265421324
                        -----------------------------------------
Magnitude (a.u.)       :      1.022647014
Magnitude (Debye)      :      2.599362134

Rotational constants in cm-1:             0.039103             0.028670             0.023377
Rotational constants in MHz :          1172.288789           859.500256           700.829662

                             ****ORCA TERMINATED NORMALLY****
TOTAL RUN TIME: 0 days 0 hours 0 minutes 12 seconds 520 msec
