                         Program Version 6.0.0  -   RELEASE  -
|  1> ! pbe def2-sv(p) def2/J RI DEFGRID1 loosescf d4 GCP(DFT/SV(P)) printgap
|  2> %output
|  3>     printlevel normal
|  4> end
|  5> * xyz 0 1
|  6> C -2.3392476364 -0.0258004322 0.2048498526
|  7> N -0.8968022301 -0.0286467686 0.2790652147
|  8> C -0.3456234188 1.2573304138 -0.1235177732
|  9> C 1.1737133279 1.1754283054 -0.3136377271
| 10> C 1.7243009908 0.020104639 0.5127093585
| 11> C 1.168074741 -1.2960882372 -0.0346651812
| 12> C -0.2925704895 -1.1116865989 -0.4750057116
| 13> H -2.7199993567 -0.9711798836 0.5872393159
| 14> H -2.7143337076 0.1167347579 -0.8229247228
| 15> H -2.7222806582 0.7829984512 0.8256364759
| 16> H -0.8179332272 1.6178230277 -1.0571222758
| 17> H -0.590333223 1.9710172874 0.6690621639
| 18> H 1.4136202804 1.005585726 -1.3652464792
| 19> H 1.6317474587 2.1185593002 -0.0157906282
| 20> H 2.8140794959 0.0097365173 0.4818821196
| 21> H 1.4089373605 0.1481036556 1.5480853198
| 22> H 1.7601744089 -1.6271691832 -0.8891824097
| 23> H 1.2312495906 -2.0643629361 0.7355499763
| 24> H -0.3457612588 -0.9152579954 -1.5619572439
| 25> H -0.8596399351 -2.0243404408 -0.2812328224
| 26> *
| 27>
| 28>                          ****END OF INPUT****

CARTESIAN COORDINATES (ANGSTROEM)
---------------------------------
  C     -2.339248   -0.025800    0.204850
  N     -0.896802   -0.028647    0.279065
  C     -0.345623    1.257330   -0.123518
  C      1.173713    1.175428   -0.313638
  C      1.724301    0.020105    0.512709
  C      1.168075   -1.296088   -0.034665
  C     -0.292570   -1.111687   -0.475006
  H     -2.719999   -0.971180    0.587239
  H     -2.714334    0.116735   -0.822925
  H     -2.722281    0.782998    0.825636
  H     -0.817933    1.617823   -1.057122
  H     -0.590333    1.971017    0.669062
  H      1.413620    1.005586   -1.365246
  H      1.631747    2.118559   -0.015791
  H      2.814079    0.009737    0.481882
  H      1.408937    0.148104    1.548085
  H      1.760174   -1.627169   -0.889182
  H      1.231250   -2.064363    0.735550
  H     -0.345761   -0.915258   -1.561957
  H     -0.859640   -2.024340   -0.281233

 Total Charge           Charge          ....    0
 Multiplicity           Mult            ....    1
 Number of Electrons    NEL             ....   56
 Basis Dimension        Dim             ....  124

ORBITAL ENERGIES
----------------

  NO   OCC          E(Eh)            E(eV)
   0   2.0000     -13.974680      -380.2704
   1   2.0000      -9.903434      -269.4861
   2   2.0000      -9.902852      -269.4703
   3   2.0000      -9.896590      -269.2999
   4   2.0000      -9.881288      -268.8835
   5   2.0000      -9.877717      -268.7863
   6   2.0000      -9.877292      -268.7748
   7   2.0000      -0.838942       -22.8288
   8   2.0000      -0.714482       -19.4420
   9   2.0000      -0.670111       -18.2346
  10   2.0000      -0.614833       -16.7305
  11   2.0000      -0.557465       -15.1694
  12   2.0000      -0.544728       -14.8228
  13   2.0000      -0.464117       -12.6293
  14   2.0000      -0.442320       -12.0361
  15   2.0000      -0.435835       -11.8597
  16   2.0000      -0.411887       -11.2080
  17   2.0000      -0.376012       -10.2318
  18   2.0000      -0.367174        -9.9913
  19   2.0000      -0.348086        -9.4719
  20   2.0000      -0.339996        -9.2518
  21   2.0000      -0.338436        -9.2093
  22   2.0000      -0.313657        -8.5350
  23   2.0000      -0.308511        -8.3950
  24   2.0000      -0.282053        -7.6751
  25   2.0000      -0.270445        -7.3592
  26   2.0000      -0.267521        -7.2796
  27   2.0000      -0.164179        -4.4675
  28   0.0000       0.030374         0.8265
  29   0.0000       0.058516         1.5923
  30   0.0000       0.062482         1.7002
  31   0.0000       0.069698         1.8966
  32   0.0000       0.095304         2.5934

MULLIKEN ATOMIC CHARGES
-----------------------
   0 C :   -0.153284
   1 N :   -0.315507
   2 C :   -0.040908
   3 C :   -0.191374
   4 C :   -0.140303
   5 C :   -0.132932
   6 C :   -0.062010
   7 H :    0.102041
   8 H :    0.066388
   9 H :    0.099804
  10 H :    0.055996
  11 H :    0.079726
  12 H :    0.083891
  13 H :    0.088956
  14 H :    0.083694
  15 H :    0.087620
  16 H :    0.075269
  17 H :    0.080903
  18 H :    0.050703
  19 H :    0.081327
Sum of atomic charges:   -0.0000000

LOEWDIN ATOMIC CHARGES
----------------------
   0 C :   -0.255856
   1 N :   -0.149261
   2 C :   -0.153696
   3 C :   -0.236062
   4 C :   -0.226659
   5 C :   -0.233110
   6 C :   -0.155389
   7 H :    0.112256
   8 H :    0.086359
   9 H :    0.112840
  10 H :    0.087138
  11 H :    0.108475
  12 H :    0.114818
  13 H :    0.120818
  14 H :    0.115602
  15 H :    0.120441
  16 H :    0.114488
  17 H :    0.118114
  18 H :    0.086108
  19 H :    0.112577

  Mayer bond orders larger than 0.100000
B(  0-C ,  1-N ) :   1.0535 B(  0-C ,  7-H ) :   0.9560 B(  0-C ,  8-H ) :   0.9240
B(  0-C ,  9-H ) :   0.9545 B(  1-N ,  2-C ) :   1.0456 B(  1-N ,  6-C ) :   1.0630
B(  2-C ,  3-C ) :   1.1122 B(  2-C , 10-H ) :   0.9065 B(  2-C , 11-H ) :   0.9244
B(  3-C ,  4-C ) :   1.1561 B(  3-C , 12-H ) :   0.9233 B(  3-C , 13-H ) :   0.9212
B(  4-C ,  5-C ) :   1.1571 B(  4-C , 14-H ) :   0.9229 B(  4-C , 15-H ) :   0.9109
B(  5-C ,  6-C ) :   1.1330 B(  5-C , 16-H ) :   0.9179 B(  5-C , 17-H ) :   0.9168
B(  6-C , 18-H ) :   0.8948 B(  6-C , 19-H ) :   0.9277

Dispersion correction           -0.017558859
FINAL SINGLE POINT ENERGY      -290.487356306694

DIPOLE MOMENT
-------------

Method             : SCF
Type of density    : Electron Density
Multiplicity       :   1
Irrep              :   0
Energy             :  -290.5598301623672342 Eh
Relativity type    :
Basis              : AO
                                X                 Y                 Z
Electronic contribution:      0.466413235      -0.140820348       0.963043300
Nuclear contribution   :     -0.483812514       0.157687812      -1.073610794
                        -----------------------------------------
Total Dipole Moment    :     -0.017399279       0.016867464      -0.110567494
                        -----------------------------------------
Magnitude (a.u.)       :      0.113191948
Magnitude (Debye)      :      0.287711066

Rotational constants in cm-1:             0.144364             0.079422             0.058542
Rotational constants in MHz :          4327.912511          2381.018458          1755.033169

                             ****ORCA TERMINATED NORMALLY****
TOTAL RUN TIME: 0 days 0 hours 0 minutes 7 seconds 351 msec
