                         Program Version 6.0.0  -   RELEASE  -
|  1> ! pbe def2-sv(p) def2/J RI DEFGRID1 loosescf d4 GCP(DFT/SV(P)) printgap
|  2> %output
|  3>     printlevel normal
|  4> end
|  5> * xyz 0 1
|  6> C -2.4084845019 0.008600451 0.0001719452
|  7> C -0.9733175473 0.5201651306 -0.0001834921
|  8> C 0.0296793123 -0.6390657343 -4.42327e-05
|  9> C 1.395690847 -0.1577773909 -0.0001639483
| 10> C 2.5152845854 0.2656802698 0.0001858896
| 11> H -2.5980159464 -0.5992680976 -0.8820064604
| 12> H -2.5977253426 -0.5985660739 0.8828854167
| 13> H -3.1078860991 0.8409531143 -2.57582e-05
| 14> H -0.8027590209 1.1417223555 -0.8820663505
| 15> H -0.8023943712 1.1422158298 0.8812838499
| 16> H -0.1256776031 -1.2613580358 -0.8857339691
| 17> H -0.1256517706 -1.2611592735 0.8857924861
| 18> H 3.5007582689 0.6240263671 0.0002740059
| 19> *
| 20>
| 21>                          ****END OF INPUT****

CARTESIAN COORDINATES (ANGSTROEM)
---------------------------------
  C     -2.408485    0.008600    0.000172
  C     -0.973318    0.520165   -0.000183
  C      0.029679   -0.639066   -0.000044
  C      1.395691   -0.157777   -0.000164
  C      2.515285    0.265680    0.000186
  H     -2.598016   -0.599268   -0.882006
  H     -2.597725   -0.598566    0.882885
  H     -3.107886    0.840953   -0.000026
  H     -0.802759    1.141722   -0.882066
  H     -0.802394    1.142216    0.881284
  H     -0.125678   -1.261358   -0.885734
  H     -0.125652   -1.261159    0.885792
  H      3.500758    0.624026    0.000274

 Total Charge           Charge          ....    0
 Multiplicity           Mult            ....    1
 Number of Electrons    NEL             ....   38
 Basis Dimension        Dim             ....   86

ORBITAL ENERGIES
----------------

  NO   OCC          E(Eh)            E(eV)
   0   2.0000      -9.910781      -269.6861
   1   2.0000      -9.894930      -269.2547
   2   2.0000      -9.887191      -269.0441
   3   2.0000      -9.880879      -268.8724
   4   2.0000      -9.872818      -268.6530
   5   2.0000      -0.733354       -19.9556
   6   2.0000      -0.666747       -18.1431
   7   2.0000      -0.615783       -16.7563
   8   2.0000      -0.536512       -14.5992
   9   2.0000      -0.471477       -12.8295
  10   2.0000      -0.430355       -11.7105
  11   2.0000      -0.419742       -11.4218
  12   2.0000      -0.379167       -10.3177
  13   2.0000      -0.361985        -9.8501
  14   2.0000      -0.324401        -8.8274
  15   2.0000      -0.312021        -8.4905
  16   2.0000      -0.300453        -8.1757
  17   2.0000      -0.231600        -6.3022
  18   2.0000      -0.231093        -6.2884
  19   0.0000       0.018570         0.5053
  20   0.0000       0.024043         0.6542
  21   0.0000       0.043025         1.1708
  22   0.0000       0.079397         2.1605
  23   0.0000       0.079889         2.1739

MULLIKEN ATOMIC CHARGES
-----------------------
   0 C :   -0.251072
   1 C :   -0.223822
   2 C :   -0.133505
   3 C :    0.448236
   4 C :   -0.619162
   5 H :    0.098368
   6 H :    0.098365
   7 H :    0.109035
   8 H :    0.102553
   9 H :    0.102565
  10 H :    0.108293
  11 H :    0.108317
  12 H :    0.051829
Sum of atomic charges:    0.0000000

LOEWDIN ATOMIC CHARGES
----------------------
   0 C :   -0.341099
   1 C :   -0.223134
   2 C :   -0.226326
   3 C :   -0.029653
   4 C :   -0.205912
   5 H :    0.118063
   6 H :    0.118062
   7 H :    0.122706
   8 H :    0.122249
   9 H :    0.122251
  10 H :    0.140034
  11 H :    0.140039
  12 H :    0.142720

  Mayer bond orders larger than 0.100000
B(  0-C ,  1-C ) :   1.1541 B(  0-C ,  5-H ) :   0.9524 B(  0-C ,  6-H ) :   0.9524
B(  0-C ,  7-H ) :   0.9523 B(  1-C ,  2-C ) :   1.1183 B(  1-C ,  8-H ) :   0.9294
B(  1-C ,  9-H ) :   0.9294 B(  2-C ,  3-C ) :   1.1107 B(  2-C , 10-H ) :   0.8841
B(  2-C , 11-H ) :   0.8841 B(  3-C ,  4-C ) :   2.2083 B(  3-C , 12-H ) :  -0.1279
B(  4-C , 12-H ) :   1.0894

Dispersion correction           -0.008107602
FINAL SINGLE POINT ENERGY      -194.797565976176

DIPOLE MOMENT
-------------

Method             : SCF
Type of density    : Electron Density
Multiplicity       :   1
Irrep              :   0
Energy             :  -194.8374026070812306 Eh
Relativity type    :
Basis              : AO
                                X                 Y                 Z
Electronic contribution:      5.927750090      -0.071073252      -0.000342935
Nuclear contribution   :     -6.247619675       0.026800005       0.000378290
                        -----------------------------------------
Total Dipole Moment    :     -0.319869585      -0.044273247       0.000035356
                        -----------------------------------------
Magnitude (a.u.)       :      0.322918989
Magnitude (Debye)      :      0.820794839

Rotational constants in cm-1:             0.777345             0.075869             0.071905
Rotational constants in MHz :         23304.204861          2274.502303          2155.667987

                             ****ORCA TERMINATED NORMALLY****
TOTAL RUN TIME: 0 days 0 hours 0 minutes 4 seconds 569 msec
