                         Program Version 6.0.0  -   RELEASE  -
|  1> ! pbe def2-sv(p) def2/J RI DEFGRID1 loosescf d4 GCP(DFT/SV(P)) printgap
|  2> %output
|  3>     printlevel normal
|  4> end
|  5> * xyz 0 1
|  6> C -3.0800224944 0.4091509766 -0.0044777198
|  7> C -1.6224781651 0.0569320322 0.0029727112
|  8> C -1.1961603471 -1.2622159769 0.0017554143
|  9> C 0.1532114455 -1.5676506881 0.0005699863
| 10> C 1.1055559479 -0.5578849526 -0.0002887764
| 11> C 0.6987897165 0.7802229132 0.0018281067
| 12> C -0.6584711692 1.0575940949 0.0032859324
| 13> C 1.7060177884 1.891900421 -0.0008720266
| 14> O 2.444464316 -0.8376281812 -0.0016702797
| 15> H -3.6932700623 -0.4794706242 0.118047522
| 16> H -3.3074202822 1.1067315873 0.7993197293
| 17> H -3.3467855912 0.8869573829 -0.9463239957
| 18> H -1.9202608851 -2.0637000283 0.0025083501
| 19> H 0.4689733653 -2.6016825161 0.0005383275
| 20> H -0.9720457749 2.0920221084 0.0054972515
| 21> H 1.5277322488 2.5658778158 0.8348880283
| 22> H 2.711402223 1.4885367456 0.0762558557
| 23> H 1.6284255355 2.4676380875 -0.9218958117
| 24> H 2.5819416363 -1.7958067383 0.0007921117
| 25> *
| 26>
| 27>                          ****END OF INPUT****

CARTESIAN COORDINATES (ANGSTROEM)
---------------------------------
  C     -3.080022    0.409151   -0.004478
  C     -1.622478    0.056932    0.002973
  C     -1.196160   -1.262216    0.001755
  C      0.153211   -1.567651    0.000570
  C      1.105556   -0.557885   -0.000289
  C      0.698790    0.780223    0.001828
  C     -0.658471    1.057594    0.003286
  C      1.706018    1.891900   -0.000872
  O      2.444464   -0.837628   -0.001670
  H     -3.693270   -0.479471    0.118048
  H     -3.307420    1.106732    0.799320
  H     -3.346786    0.886957   -0.946324
  H     -1.920261   -2.063700    0.002508
  H      0.468973   -2.601683    0.000538
  H     -0.972046    2.092022    0.005497
  H      1.527732    2.565878    0.834888
  H      2.711402    1.488537    0.076256
  H      1.628426    2.467638   -0.921896
  H      2.581942   -1.795807    0.000792

 Total Charge           Charge          ....    0
 Multiplicity           Mult            ....    1
 Number of Electrons    NEL             ....   66
 Basis Dimension        Dim             ....  146

ORBITAL ENERGIES
----------------

  NO   OCC          E(Eh)            E(eV)
   0   2.0000     -18.777116      -510.9513
   1   2.0000      -9.942818      -270.5578
   2   2.0000      -9.891602      -269.1642
   3   2.0000      -9.889735      -269.1134
   4   2.0000      -9.884966      -268.9836
   5   2.0000      -9.883991      -268.9571
   6   2.0000      -9.880732      -268.8684
   7   2.0000      -9.877971      -268.7933
   8   2.0000      -9.873349      -268.6675
   9   2.0000      -0.956991       -26.0411
  10   2.0000      -0.770826       -20.9752
  11   2.0000      -0.697664       -18.9844
  12   2.0000      -0.677972       -18.4486
  13   2.0000      -0.612356       -16.6630
  14   2.0000      -0.603360       -16.4183
  15   2.0000      -0.553204       -15.0534
  16   2.0000      -0.508028       -13.8242
  17   2.0000      -0.485015       -13.1979
  18   2.0000      -0.432991       -11.7823
  19   2.0000      -0.408054       -11.1037
  20   2.0000      -0.381978       -10.3942
  21   2.0000      -0.381197       -10.3729
  22   2.0000      -0.366120        -9.9626
  23   2.0000      -0.357681        -9.7330
  24   2.0000      -0.352593        -9.5945
  25   2.0000      -0.338863        -9.2209
  26   2.0000      -0.335049        -9.1172
  27   2.0000      -0.319192        -8.6857
  28   2.0000      -0.298472        -8.1218
  29   2.0000      -0.283882        -7.7248
  30   2.0000      -0.279299        -7.6001
  31   2.0000      -0.215221        -5.8565
  32   2.0000      -0.182945        -4.9782
  33   0.0000      -0.030204        -0.8219
  34   0.0000      -0.009480        -0.2580
  35   0.0000       0.024746         0.6734
  36   0.0000       0.051585         1.4037
  37   0.0000       0.064242         1.7481

MULLIKEN ATOMIC CHARGES
-----------------------
   0 C :   -0.221603
   1 C :    0.079120
   2 C :   -0.128658
   3 C :   -0.160397
   4 C :    0.184979
   5 C :   -0.018613
   6 C :   -0.211620
   7 C :   -0.213985
   8 O :   -0.343641
   9 H :    0.096576
  10 H :    0.109071
  11 H :    0.112651
  12 H :    0.031727
  13 H :    0.017452
  14 H :    0.016620
  15 H :    0.108440
  16 H :    0.114384
  17 H :    0.111430
  18 H :    0.316066
Sum of atomic charges:   -0.0000000

LOEWDIN ATOMIC CHARGES
----------------------
   0 C :   -0.322672
   1 C :   -0.067488
   2 C :   -0.126484
   3 C :   -0.174272
   4 C :    0.019200
   5 C :   -0.068781
   6 C :   -0.115146
   7 C :   -0.326220
   8 O :   -0.241994
   9 H :    0.122037
  10 H :    0.127993
  11 H :    0.129713
  12 H :    0.119751
  13 H :    0.117768
  14 H :    0.118579
  15 H :    0.129687
  16 H :    0.129926
  17 H :    0.131173
  18 H :    0.297229

  Mayer bond orders larger than 0.100000
B(  0-C ,  1-C ) :   1.0940 B(  0-C ,  9-H ) :   0.9455 B(  0-C , 10-H ) :   0.9392
B(  0-C , 11-H ) :   0.9363 B(  1-C ,  2-C ) :   1.3959 B(  1-C ,  6-C ) :   1.3388
B(  2-C ,  3-C ) :   1.3438 B(  2-C , 12-H ) :   0.9586 B(  3-C ,  4-C ) :   1.3168
B(  3-C , 13-H ) :   0.9558 B(  4-C ,  5-C ) :   1.3915 B(  4-C ,  8-O ) :   1.1787
B(  5-C ,  6-C ) :   1.3899 B(  5-C ,  7-C ) :   1.1147 B(  6-C , 14-H ) :   0.9718
B(  7-C , 15-H ) :   0.9367 B(  7-C , 16-H ) :   0.9340 B(  7-C , 17-H ) :   0.9357
B(  8-O , 18-H ) :   0.8415

Dispersion correction           -0.018919935
FINAL SINGLE POINT ENERGY      -385.239242721482

DIPOLE MOMENT
-------------

Method             : SCF
Type of density    : Electron Density
Multiplicity       :   1
Irrep              :   0
Energy             :  -385.2981574706441847 Eh
Relativity type    :
Basis              : AO
                                X                 Y                 Z
Electronic contribution:      4.008563787      -3.822276361       0.017581777
Nuclear contribution   :     -4.017888510       3.427948412      -0.028519406
                        -----------------------------------------
Total Dipole Moment    :     -0.009324723      -0.394327949      -0.010937630
                        -----------------------------------------
Magnitude (a.u.)       :      0.394589804
Magnitude (Debye)      :      1.002967576

Rotational constants in cm-1:             0.100004             0.044063             0.030937
Rotational constants in MHz :          2998.032633          1320.960921           927.468638

                             ****ORCA TERMINATED NORMALLY****
TOTAL RUN TIME: 0 days 0 hours 0 minutes 12 seconds 913 msec
