                         Program Version 6.0.0  -   RELEASE  -
|  1> ! pbe def2-sv(p) def2/J RI DEFGRID1 loosescf d4 GCP(DFT/SV(P)) printgap
|  2> %output
|  3>     printlevel normal
|  4> end
|  5> * xyz 0 1
|  6> C -1.8920345682 -0.5561482155 -0.8298081252
|  7> C -1.1972411882 -0.1062637702 0.461479423
|  8> H -1.9415264036 -0.0982084998 1.265723775
|  9> C -0.6071003875 1.3099591795 0.3290638117
| 10> H -1.3343358381 1.9407204909 -0.192284637
| 11> C 0.6946449416 1.3050582997 -0.4929251715
| 12> H 1.1749721917 2.2840007576 -0.3343069301
| 13> C 1.6689110664 0.2403220456 0.0505213582
| 14> H 2.4737160393 0.0891591521 -0.6833422295
| 15> C 0.9829612349 -1.1255707485 0.2470019408
| 16> H 1.6049769755 -1.7341657958 0.9284438912
| 17> O -0.2335022869 -1.0420373845 0.9354958527
| 18> O 0.8893611492 -1.7446991244 -0.9979954923
| 19> O 2.171455677 0.7382641304 1.2660775298
| 20> O 0.3709462162 1.1186283969 -1.8432183895
| 21> O -0.4121342964 1.9071701893 1.5848240228
| 22> O -2.5222532069 -1.797907832 -0.5928874303
| 23> H -1.1592943114 -0.6328521 -1.6390476003
| 24> H -2.6303683955 0.2117500883 -1.0896740768
| 25> H 0.4328002295 -2.5942153937 -0.8998243569
| 26> H 2.8787293257 0.1677343105 1.6001579869
| 27> H 1.1618295106 1.2281899529 -2.3911023069
| 28> H 0.3512218145 1.488225457 2.0164767291
| 29> H -3.0322255021 -2.0439675242 -1.3770766037
| 30> *
| 31>
| 32>                          ****END OF INPUT****

CARTESIAN COORDINATES (ANGSTROEM)
---------------------------------
  C     -1.892035   -0.556148   -0.829808
  C     -1.197241   -0.106264    0.461479
  H     -1.941526   -0.098208    1.265724
  C     -0.607100    1.309959    0.329064
  H     -1.334336    1.940720   -0.192285
  C      0.694645    1.305058   -0.492925
  H      1.174972    2.284001   -0.334307
  C      1.668911    0.240322    0.050521
  H      2.473716    0.089159   -0.683342
  C      0.982961   -1.125571    0.247002
  H      1.604977   -1.734166    0.928444
  O     -0.233502   -1.042037    0.935496
  O      0.889361   -1.744699   -0.997995
  O      2.171456    0.738264    1.266078
  O      0.370946    1.118628   -1.843218
  O     -0.412134    1.907170    1.584824
  O     -2.522253   -1.797908   -0.592887
  H     -1.159294   -0.632852   -1.639048
  H     -2.630368    0.211750   -1.089674
  H      0.432800   -2.594215   -0.899824
  H      2.878729    0.167734    1.600158
  H      1.161830    1.228190   -2.391102
  H      0.351222    1.488225    2.016477
  H     -3.032226   -2.043968   -1.377077

 Total Charge           Charge          ....    0
 Multiplicity           Mult            ....    1
 Number of Electrons    NEL             ....   96
 Basis Dimension        Dim             ....  192

ORBITAL ENERGIES
----------------

  NO   OCC          E(Eh)            E(eV)
   0   2.0000     -18.776521      -510.9351
   1   2.0000     -18.760178      -510.4904
   2   2.0000     -18.759554      -510.4734
   3   2.0000     -18.757845      -510.4269
   4   2.0000     -18.736809      -509.8545
   5   2.0000     -18.730535      -509.6838
   6   2.0000      -9.985952      -271.7316
   7   2.0000      -9.950333      -270.7623
   8   2.0000      -9.943762      -270.5835
   9   2.0000      -9.933049      -270.2920
  10   2.0000      -9.928741      -270.1748
  11   2.0000      -9.914226      -269.7798
  12   2.0000      -0.977657       -26.6034
  13   2.0000      -0.949300       -25.8318
  14   2.0000      -0.935859       -25.4660
  15   2.0000      -0.917599       -24.9691
  16   2.0000      -0.909729       -24.7550
  17   2.0000      -0.899866       -24.4866
  18   2.0000      -0.696725       -18.9589
  19   2.0000      -0.689170       -18.7533
  20   2.0000      -0.612838       -16.6762
  21   2.0000      -0.588620       -16.0172
  22   2.0000      -0.561393       -15.2763
  23   2.0000      -0.525747       -14.3063
  24   2.0000      -0.487057       -13.2535
  25   2.0000      -0.476513       -12.9666
  26   2.0000      -0.471538       -12.8312
  27   2.0000      -0.451980       -12.2990
  28   2.0000      -0.449218       -12.2238
  29   2.0000      -0.428811       -11.6686
  30   2.0000      -0.410380       -11.1670
  31   2.0000      -0.392365       -10.6768
  32   2.0000      -0.386320       -10.5123
  33   2.0000      -0.366245        -9.9660
  34   2.0000      -0.358280        -9.7493
  35   2.0000      -0.341683        -9.2977
  36   2.0000      -0.330076        -8.9818
  37   2.0000      -0.319605        -8.6969
  38   2.0000      -0.304618        -8.2891
  39   2.0000      -0.288385        -7.8474
  40   2.0000      -0.267388        -7.2760
  41   2.0000      -0.257520        -7.0075
  42   2.0000      -0.245499        -6.6804
  43   2.0000      -0.240795        -6.5524
  44   2.0000      -0.230538        -6.2733
  45   2.0000      -0.216697        -5.8966
  46   2.0000      -0.206354        -5.6152
  47   2.0000      -0.195236        -5.3127
  48   0.0000       0.007165         0.1950
  49   0.0000       0.016545         0.4502
  50   0.0000       0.028919         0.7869
  51   0.0000       0.043820         1.1924
  52   0.0000       0.065993         1.7958

MULLIKEN ATOMIC CHARGES
-----------------------
   0 C :   -0.008660
   1 C :    0.047921
   2 H :    0.076341
   3 C :    0.065496
   4 H :    0.074869
   5 C :    0.042624
   6 H :    0.076952
   7 C :    0.012832
   8 H :    0.061002
   9 C :    0.214628
  10 H :    0.040781
  11 O :   -0.312627
  12 O :   -0.398639
  13 O :   -0.419815
  14 O :   -0.396511
  15 O :   -0.429140
  16 O :   -0.438066
  17 H :    0.106188
  18 H :    0.064254
  19 H :    0.306871
  20 H :    0.310008
  21 H :    0.304408
  22 H :    0.301499
  23 H :    0.296782
Sum of atomic charges:   -0.0000000

LOEWDIN ATOMIC CHARGES
----------------------
   0 C :   -0.154195
   1 C :   -0.058997
   2 H :    0.122029
   3 C :   -0.060806
   4 H :    0.119766
   5 C :   -0.070405
   6 H :    0.106554
   7 C :   -0.088135
   8 H :    0.102662
   9 C :   -0.007985
  10 H :    0.086238
  11 O :   -0.139252
  12 O :   -0.310976
  13 O :   -0.304778
  14 O :   -0.302233
  15 O :   -0.319151
  16 O :   -0.349889
  17 H :    0.105185
  18 H :    0.098235
  19 H :    0.288905
  20 H :    0.291696
  21 H :    0.288623
  22 H :    0.273095
  23 H :    0.283813

  Mayer bond orders larger than 0.100000
B(  0-C ,  1-C ) :   1.0609 B(  0-C , 16-O ) :   1.0775 B(  0-C , 17-H ) :   0.8833
B(  0-C , 18-H ) :   0.9103 B(  1-C ,  2-H ) :   0.8935 B(  1-C ,  3-C ) :   1.0038
B(  1-C , 11-O ) :   0.9876 B(  3-C ,  4-H ) :   0.8908 B(  3-C ,  5-C ) :   0.9903
B(  3-C , 15-O ) :   1.0684 B(  5-C ,  6-H ) :   0.9005 B(  5-C ,  7-C ) :   0.9774
B(  5-C , 14-O ) :   1.0786 B(  7-C ,  8-H ) :   0.8909 B(  7-C ,  9-C ) :   0.9658
B(  7-C , 13-O ) :   1.0228 B(  9-C , 10-H ) :   0.9027 B(  9-C , 11-O ) :   1.0899
B(  9-C , 12-O ) :   1.1222 B( 12-O , 19-H ) :   0.8310 B( 13-O , 20-H ) :   0.8391
B( 14-O , 21-H ) :   0.8419 B( 15-O , 22-H ) :   0.8191 B( 16-O , 23-H ) :   0.8544

Dispersion correction           -0.025838363
FINAL SINGLE POINT ENERGY      -685.690897972079

DIPOLE MOMENT
-------------

Method             : SCF
Type of density    : Electron Density
Multiplicity       :   1
Irrep              :   0
Energy             :  -685.8211512298994421 Eh
Relativity type    :
Basis              : AO
                                X                 Y                 Z
Electronic contribution:      1.062864206      -0.836393358       1.785046453
Nuclear contribution   :     -0.014389264       0.275271520      -2.617769803
                        -----------------------------------------
Total Dipole Moment    :      1.048474942      -0.561121838      -0.832723350
                        -----------------------------------------
Magnitude (a.u.)       :      1.451752596
Magnitude (Debye)      :      3.690061844

Rotational constants in cm-1:             0.041598             0.028124             0.024876
Rotational constants in MHz :          1247.088286           843.143930           745.770715

                             ****ORCA TERMINATED NORMALLY****
TOTAL RUN TIME: 0 days 0 hours 0 minutes 12 seconds 296 msec
