                         Program Version 6.0.0  -   RELEASE  -
|  1> ! pbe def2-sv(p) def2/J RI DEFGRID1 loosescf d4 GCP(DFT/SV(P)) printgap
|  2> %output
|  3>     printlevel normal
|  4> end
|  5> * xyz 0 1
|  6> C -2.2136342742 -1.2095513548 0.0693299926
|  7> C -0.8596779263 -0.5746369116 0.4070350213
|  8> H -0.8295709651 -0.3401961224 1.480919653
|  9> C -0.622277935 0.7234271137 -0.3790161528
| 10> H -0.7194540103 0.5037752916 -1.4563981081
| 11> C 0.7980188938 1.283084532 -0.1282372874
| 12> H 0.6878638686 2.1314780769 0.5562079724
| 13> C 1.723845298 0.2231182834 0.506294335
| 14> H 2.7584240671 0.4835719957 0.2404285212
| 15> C 1.421454549 -1.1393407532 -0.1263814078
| 16> H 2.0676604431 -1.9065523137 0.3275422533
| 17> O 0.109373284 -1.5750039343 0.1119163565
| 18> O 1.6712764159 -1.0223277538 -1.4958600295
| 19> O 1.5752840643 0.0951088435 1.8950325941
| 20> O 1.3779979495 1.8116391987 -1.2916416065
| 21> O -1.5391426148 1.7232978817 -0.0092035869
| 22> O -3.2498895872 -0.3815811182 0.5448844725
| 23> H -2.2374550449 -2.1960702557 0.5447609157
| 24> H -2.2834378406 -1.3386417646 -1.018486037
| 25> H 1.538693606 -1.8799884375 -1.9286268501
| 26> H 1.8833632942 0.903689897 2.3302927687
| 27> H 1.5678567056 1.0797068342 -1.9014843708
| 28> H -2.40939513 1.3125244877 0.1422177162
| 29> H -4.1020304148 -0.8202857088 0.4104443907
| 30> *
| 31>
| 32>                          ****END OF INPUT****

CARTESIAN COORDINATES (ANGSTROEM)
---------------------------------
  C     -2.213634   -1.209551    0.069330
  C     -0.859678   -0.574637    0.407035
  H     -0.829571   -0.340196    1.480920
  C     -0.622278    0.723427   -0.379016
  H     -0.719454    0.503775   -1.456398
  C      0.798019    1.283085   -0.128237
  H      0.687864    2.131478    0.556208
  C      1.723845    0.223118    0.506294
  H      2.758424    0.483572    0.240429
  C      1.421455   -1.139341   -0.126381
  H      2.067660   -1.906552    0.327542
  O      0.109373   -1.575004    0.111916
  O      1.671276   -1.022328   -1.495860
  O      1.575284    0.095109    1.895033
  O      1.377998    1.811639   -1.291642
  O     -1.539143    1.723298   -0.009204
  O     -3.249890   -0.381581    0.544884
  H     -2.237455   -2.196070    0.544761
  H     -2.283438   -1.338642   -1.018486
  H      1.538694   -1.879988   -1.928627
  H      1.883363    0.903690    2.330293
  H      1.567857    1.079707   -1.901484
  H     -2.409395    1.312524    0.142218
  H     -4.102030   -0.820286    0.410444

 Total Charge           Charge          ....    0
 Multiplicity           Mult            ....    1
 Number of Electrons    NEL             ....   96
 Basis Dimension        Dim             ....  192

ORBITAL ENERGIES
----------------

  NO   OCC          E(Eh)            E(eV)
   0   2.0000     -18.776221      -510.9269
   1   2.0000     -18.775923      -510.9188
   2   2.0000     -18.768623      -510.7202
   3   2.0000     -18.758754      -510.4516
   4   2.0000     -18.728300      -509.6230
   5   2.0000     -18.725250      -509.5400
   6   2.0000      -9.989946      -271.8403
   7   2.0000      -9.941902      -270.5329
   8   2.0000      -9.940886      -270.5053
   9   2.0000      -9.937778      -270.4207
  10   2.0000      -9.927452      -270.1397
  11   2.0000      -9.927305      -270.1357
  12   2.0000      -0.985414       -26.8145
  13   2.0000      -0.949454       -25.8360
  14   2.0000      -0.935840       -25.4655
  15   2.0000      -0.918993       -25.0071
  16   2.0000      -0.913824       -24.8664
  17   2.0000      -0.898211       -24.4416
  18   2.0000      -0.698754       -19.0141
  19   2.0000      -0.686570       -18.6825
  20   2.0000      -0.624867       -17.0035
  21   2.0000      -0.571516       -15.5517
  22   2.0000      -0.564845       -15.3702
  23   2.0000      -0.523390       -14.2422
  24   2.0000      -0.505436       -13.7536
  25   2.0000      -0.489379       -13.3167
  26   2.0000      -0.465207       -12.6589
  27   2.0000      -0.458439       -12.4748
  28   2.0000      -0.451459       -12.2848
  29   2.0000      -0.430179       -11.7058
  30   2.0000      -0.408019       -11.1028
  31   2.0000      -0.405364       -11.0305
  32   2.0000      -0.376112       -10.2345
  33   2.0000      -0.360358        -9.8058
  34   2.0000      -0.355555        -9.6752
  35   2.0000      -0.351043        -9.5524
  36   2.0000      -0.337190        -9.1754
  37   2.0000      -0.317334        -8.6351
  38   2.0000      -0.312428        -8.5016
  39   2.0000      -0.292926        -7.9709
  40   2.0000      -0.281020        -7.6469
  41   2.0000      -0.259663        -7.0658
  42   2.0000      -0.243727        -6.6321
  43   2.0000      -0.239393        -6.5142
  44   2.0000      -0.234326        -6.3763
  45   2.0000      -0.223491        -6.0815
  46   2.0000      -0.201815        -5.4917
  47   2.0000      -0.192124        -5.2280
  48   0.0000       0.006615         0.1800
  49   0.0000       0.014895         0.4053
  50   0.0000       0.027048         0.7360
  51   0.0000       0.063437         1.7262
  52   0.0000       0.079114         2.1528

MULLIKEN ATOMIC CHARGES
-----------------------
   0 C :    0.064182
   1 C :    0.026655
   2 H :    0.073304
   3 C :    0.053345
   4 H :    0.027877
   5 C :    0.134316
   6 H :    0.055635
   7 C :   -0.026885
   8 H :    0.076972
   9 C :    0.191062
  10 H :    0.068367
  11 O :   -0.320566
  12 O :   -0.405450
  13 O :   -0.409349
  14 O :   -0.430833
  15 O :   -0.429886
  16 O :   -0.441147
  17 H :    0.089052
  18 H :    0.066152
  19 H :    0.309124
  20 H :    0.310593
  21 H :    0.300986
  22 H :    0.300322
  23 H :    0.316172
Sum of atomic charges:    0.0000000

LOEWDIN ATOMIC CHARGES
----------------------
   0 C :   -0.126360
   1 C :   -0.069840
   2 H :    0.113514
   3 C :   -0.069094
   4 H :    0.095114
   5 C :   -0.065894
   6 H :    0.117659
   7 C :   -0.093221
   8 H :    0.109760
   9 C :    0.005006
  10 H :    0.100064
  11 O :   -0.144598
  12 O :   -0.311715
  13 O :   -0.309217
  14 O :   -0.317741
  15 O :   -0.329227
  16 O :   -0.329735
  17 H :    0.106602
  18 H :    0.096977
  19 H :    0.290290
  20 H :    0.292896
  21 H :    0.271983
  22 H :    0.270490
  23 H :    0.296288

  Mayer bond orders larger than 0.100000
B(  0-C ,  1-C ) :   1.0452 B(  0-C , 16-O ) :   1.0474 B(  0-C , 17-H ) :   0.9171
B(  0-C , 18-H ) :   0.9065 B(  1-C ,  2-H ) :   0.8632 B(  1-C ,  3-C ) :   1.0836
B(  1-C , 11-O ) :   0.9678 B(  3-C ,  4-H ) :   0.8515 B(  3-C ,  5-C ) :   0.9926
B(  3-C , 15-O ) :   1.0906 B(  5-C ,  6-H ) :   0.8609 B(  5-C ,  7-C ) :   0.9880
B(  5-C , 14-O ) :   1.0504 B(  7-C ,  8-H ) :   0.8893 B(  7-C ,  9-C ) :   1.0271
B(  7-C , 13-O ) :   1.0394 B(  9-C , 10-H ) :   0.8964 B(  9-C , 11-O ) :   1.0767
B(  9-C , 12-O ) :   1.1021 B( 12-O , 19-H ) :   0.8378 B( 13-O , 20-H ) :   0.8459
B( 14-O , 21-H ) :   0.8273 B( 15-O , 22-H ) :   0.8054 B( 16-O , 22-H ) :   0.1062
B( 16-O , 23-H ) :   0.8413

Dispersion correction           -0.024818566
FINAL SINGLE POINT ENERGY      -685.693330380635

DIPOLE MOMENT
-------------

Method             : SCF
Type of density    : Electron Density
Multiplicity       :   1
Irrep              :   0
Energy             :  -685.8252766291827811 Eh
Relativity type    :
Basis              : AO
                                X                 Y                 Z
Electronic contribution:      1.541413186       0.555672467       0.153419476
Nuclear contribution   :     -1.949847276      -1.929540188      -0.258979896
                        -----------------------------------------
Total Dipole Moment    :     -0.408434090      -1.373867721      -0.105560420
                        -----------------------------------------
Magnitude (a.u.)       :      1.437175676
Magnitude (Debye)      :      3.653010258

Rotational constants in cm-1:             0.043356             0.025196             0.021854
Rotational constants in MHz :          1299.768569           755.371986           655.176077

                             ****ORCA TERMINATED NORMALLY****
TOTAL RUN TIME: 0 days 0 hours 0 minutes 12 seconds 455 msec
