                         Program Version 6.0.0  -   RELEASE  -
|  1> ! r2scan-3c def2/J RI DEFGRID2 scfconv6 printgap
|  2> %output
|  3>     printlevel normal
|  4> end
|  5> %cpcm
|  6>     smd true
|  7>     smdsolvent "water"
|  8> end
|  9> * xyz 0 1
| 10> C -2.5216548053 0.7330655786 -0.0047636902
| 11> C -1.2142505454 -0.0071544716 0.0032494582
| 12> C -1.1939900955 -1.3916192696 0.0002732489
| 13> C 3.93474e-05 -2.0902620845 0.0018866052
| 14> C 1.1940552885 -1.3915660737 0.0001051635
| 15> C 1.2142525415 -0.0071207904 0.0031622929
| 16> C -2.26897e-05 0.6986929678 0.0121527122
| 17> N -5.11762e-05 2.0804438059 -0.0458734226
| 18> C 2.5216359126 0.7331450052 -0.0046776812
| 19> H -3.3493135762 0.0303836361 -0.0515489042
| 20> H -2.6375612819 1.3317080984 0.8998344255
| 21> H -2.5827591322 1.3958749807 -0.8668281396
| 22> H -2.130254551 -1.932458742 -0.0035618906
| 23> H 7.09917e-05 -3.1702312476 0.0008312521
| 24> H 2.130324719 -1.9323976407 -0.0034673659
| 25> H -0.8438261405 2.5272442626 0.2723880153
| 26> H 0.8437172429 2.5272963294 0.2723261226
| 27> H 3.3493541914 0.0305385542 -0.0516652236
| 28> H 2.5826488132 1.3961606334 -0.8665801237
| 29> H 2.6375358674 1.3315775462 0.9000603878
| 30> *
| 31>
| 32>                          ****END OF INPUT****

CARTESIAN COORDINATES (ANGSTROEM)
---------------------------------
  C     -2.521655    0.733066   -0.004764
  C     -1.214251   -0.007154    0.003249
  C     -1.193990   -1.391619    0.000273
  C      0.000039   -2.090262    0.001887
  C      1.194055   -1.391566    0.000105
  C      1.214253   -0.007121    0.003162
  C     -0.000023    0.698693    0.012153
  N     -0.000051    2.080444   -0.045873
  C      2.521636    0.733145   -0.004678
  H     -3.349314    0.030384   -0.051549
  H     -2.637561    1.331708    0.899834
  H     -2.582759    1.395875   -0.866828
  H     -2.130255   -1.932459   -0.003562
  H      0.000071   -3.170231    0.000831
  H      2.130325   -1.932398   -0.003467
  H     -0.843826    2.527244    0.272388
  H      0.843717    2.527296    0.272326
  H      3.349354    0.030539   -0.051665
  H      2.582649    1.396161   -0.866580
  H      2.637536    1.331578    0.900060

 Total Charge           Charge          ....    0
 Multiplicity           Mult            ....    1
 Number of Electrons    NEL             ....   66
 Basis Dimension        Dim             ....  231

ORBITAL ENERGIES
----------------

  NO   OCC          E(Eh)            E(eV)
   0   2.0000     -14.156388      -385.2149
   1   2.0000     -10.064372      -273.8655
   2   2.0000     -10.031475      -272.9703
   3   2.0000     -10.031468      -272.9701
   4   2.0000     -10.019925      -272.6560
   5   2.0000     -10.019910      -272.6556
   6   2.0000     -10.018453      -272.6160
   7   2.0000     -10.018452      -272.6159
   8   2.0000     -10.014495      -272.5083
   9   2.0000      -0.885348       -24.0916
  10   2.0000      -0.804562       -21.8932
  11   2.0000      -0.746932       -20.3251
  12   2.0000      -0.706630       -19.2284
  13   2.0000      -0.650063       -17.6891
  14   2.0000      -0.640981       -17.4420
  15   2.0000      -0.552666       -15.0388
  16   2.0000      -0.545180       -14.8351
  17   2.0000      -0.477409       -12.9910
  18   2.0000      -0.476804       -12.9745
  19   2.0000      -0.421575       -11.4716
  20   2.0000      -0.402335       -10.9481
  21   2.0000      -0.398144       -10.8340
  22   2.0000      -0.380097       -10.3430
  23   2.0000      -0.378610       -10.3025
  24   2.0000      -0.364906        -9.9296
  25   2.0000      -0.363012        -9.8781
  26   2.0000      -0.334070        -9.0905
  27   2.0000      -0.326223        -8.8770
  28   2.0000      -0.305320        -8.3082
  29   2.0000      -0.295972        -8.0538
  30   2.0000      -0.286198        -7.7879
  31   2.0000      -0.218538        -5.9467
  32   2.0000      -0.180226        -4.9042
  33   0.0000      -0.018184        -0.4948
  34   0.0000      -0.008343        -0.2270
  35   0.0000       0.068716         1.8699
  36   0.0000       0.095226         2.5912
  37   0.0000       0.108909         2.9636

MULLIKEN ATOMIC CHARGES
-----------------------
   0 C :   -0.603104
   1 C :   -0.062383
   2 C :   -0.235958
   3 C :   -0.255151
   4 C :   -0.235962
   5 C :   -0.062397
   6 C :    0.447577
   7 N :   -0.620479
   8 C :   -0.603112
   9 H :    0.172574
  10 H :    0.180785
  11 H :    0.180157
  12 H :    0.173391
  13 H :    0.168924
  14 H :    0.173391
  15 H :    0.324104
  16 H :    0.324117
  17 H :    0.172577
  18 H :    0.180144
  19 H :    0.180804
Sum of atomic charges:    0.0000000

LOEWDIN ATOMIC CHARGES
----------------------
   0 C :   -0.391423
   1 C :   -0.100753
   2 C :   -0.185339
   3 C :   -0.221252
   4 C :   -0.185340
   5 C :   -0.100749
   6 C :    0.123350
   7 N :   -0.609734
   8 C :   -0.391425
   9 H :    0.167170
  10 H :    0.168056
  11 H :    0.168481
  12 H :    0.175930
  13 H :    0.172457
  14 H :    0.175930
  15 H :    0.265466
  16 H :    0.265466
  17 H :    0.167171
  18 H :    0.168478
  19 H :    0.168059

  Mayer bond orders larger than 0.100000
B(  0-C ,  1-C ) :   0.8105 B(  0-C ,  9-H ) :   0.9777 B(  0-C , 10-H ) :   0.9704
B(  0-C , 11-H ) :   0.9718 B(  1-C ,  2-C ) :   1.3320 B(  1-C ,  6-C ) :   1.3811
B(  2-C ,  3-C ) :   1.3869 B(  2-C , 12-H ) :   0.9501 B(  3-C ,  4-C ) :   1.3868
B(  3-C , 13-H ) :   0.9658 B(  4-C ,  5-C ) :   1.3320 B(  4-C , 14-H ) :   0.9501
B(  5-C ,  6-C ) :   1.3811 B(  5-C ,  8-C ) :   0.8105 B(  6-C ,  7-N ) :   1.0082
B(  7-N , 15-H ) :   0.8816 B(  7-N , 16-H ) :   0.8816 B(  8-C , 17-H ) :   0.9777
B(  8-C , 18-H ) :   0.9718 B(  8-C , 19-H ) :   0.9704

Dispersion correction           -0.006788042
FINAL SINGLE POINT ENERGY      -366.141804918889

DIPOLE MOMENT
-------------

Method             : SCF
Type of density    : Electron Density
Multiplicity       :   1
Irrep              :   0
Energy             :  -366.1443448012780095 Eh
Relativity type    :
Basis              : AO
                                X                 Y                 Z
Electronic contribution:      0.000070012      -2.247372803      -0.011797049
Nuclear contribution   :     -0.000059250       3.328479965       0.470510477
                        -----------------------------------------
Total Dipole Moment    :      0.000010761       1.081107162       0.458713428
                        -----------------------------------------
Magnitude (a.u.)       :      1.174398018
Magnitude (Debye)      :      2.985082535

Rotational constants in cm-1:             0.076704             0.058856             0.033747
Rotational constants in MHz :          2299.542558          1764.465782          1011.717492

                             ****ORCA TERMINATED NORMALLY****
TOTAL RUN TIME: 0 days 0 hours 0 minutes 35 seconds 661 msec
