                         Program Version 6.0.0  -   RELEASE  -
|  1> ! r2scan-3c def2/J RI DEFGRID2 scfconv6 printgap
|  2> %output
|  3>     printlevel normal
|  4> end
|  5> * xyz 0 1
|  6> C -3.44169145 -1.1708880643 0.0001749072
|  7> C -2.0501472057 -0.6168009402 4.75896e-05
|  8> C -1.866748315 0.7801989176 7.47002e-05
|  9> C -0.6258354581 1.3589811107 -4.19658e-05
| 10> C 0.5275794748 0.526567086 7.6374e-06
| 11> C 1.8418710487 1.0395570274 0.0002104774
| 12> C 2.9263098648 0.2058204733 0.0002135602
| 13> C 2.7527902959 -1.1854182501 -4.38466e-05
| 14> C 1.4934671425 -1.7157348167 -0.0001953055
| 15> C 0.3548131057 -0.8832014092 -0.0001096884
| 16> C -0.9469539389 -1.4258451258 -0.000131048
| 17> C -0.4894618983 2.8521111939 -0.0002338731
| 18> H -3.983066914 -0.8279737295 0.880598273
| 19> H -3.9838627545 -0.8264713227 -0.8791645034
| 20> H -3.4273212565 -2.2574183736 -0.0007308697
| 21> H -2.7465797001 1.4089914984 0.0001565066
| 22> H 1.9936597405 2.1074698641 0.0004255136
| 23> H 3.9258035382 0.6154807569 0.0004641635
| 24> H 3.6189195817 -1.8307822242 1.16852e-05
| 25> H 1.3486236055 -2.7869045506 -0.0002905
| 26> H -1.0564752879 -2.5014873936 -0.0002968889
| 27> H 0.0532289838 3.187469615 0.8822199016
| 28> H 0.0546368139 3.1870796082 -0.8819614264
| 29> H -1.4699028107 3.3208700444 -0.0011118219
| 30> *
| 31>
| 32>                          ****END OF INPUT****

CARTESIAN COORDINATES (ANGSTROEM)
---------------------------------
  C     -3.441691   -1.170888    0.000175
  C     -2.050147   -0.616801    0.000048
  C     -1.866748    0.780199    0.000075
  C     -0.625835    1.358981   -0.000042
  C      0.527579    0.526567    0.000008
  C      1.841871    1.039557    0.000210
  C      2.926310    0.205820    0.000214
  C      2.752790   -1.185418   -0.000044
  C      1.493467   -1.715735   -0.000195
  C      0.354813   -0.883201   -0.000110
  C     -0.946954   -1.425845   -0.000131
  C     -0.489462    2.852111   -0.000234
  H     -3.983067   -0.827974    0.880598
  H     -3.983863   -0.826471   -0.879165
  H     -3.427321   -2.257418   -0.000731
  H     -2.746580    1.408991    0.000157
  H      1.993660    2.107470    0.000426
  H      3.925804    0.615481    0.000464
  H      3.618920   -1.830782    0.000012
  H      1.348624   -2.786905   -0.000291
  H     -1.056475   -2.501487   -0.000297
  H      0.053229    3.187470    0.882220
  H      0.054637    3.187080   -0.881961
  H     -1.469903    3.320870   -0.001112

 Total Charge           Charge          ....    0
 Multiplicity           Mult            ....    1
 Number of Electrons    NEL             ....   84
 Basis Dimension        Dim             ....  288

ORBITAL ENERGIES
----------------

  NO   OCC          E(Eh)            E(eV)
   0   2.0000     -10.044769      -273.3321
   1   2.0000     -10.041252      -273.2364
   2   2.0000     -10.041232      -273.2358
   3   2.0000     -10.040152      -273.2064
   4   2.0000     -10.032852      -273.0078
   5   2.0000     -10.032448      -272.9968
   6   2.0000     -10.031895      -272.9817
   7   2.0000     -10.031492      -272.9708
   8   2.0000     -10.028568      -272.8912
   9   2.0000     -10.027443      -272.8606
  10   2.0000     -10.027311      -272.8570
  11   2.0000     -10.026144      -272.8252
  12   2.0000      -0.845665       -23.0117
  13   2.0000      -0.797056       -21.6890
  14   2.0000      -0.760539       -20.6953
  15   2.0000      -0.726130       -19.7590
  16   2.0000      -0.703512       -19.1435
  17   2.0000      -0.663413       -18.0524
  18   2.0000      -0.647577       -17.6215
  19   2.0000      -0.587697       -15.9921
  20   2.0000      -0.566269       -15.4090
  21   2.0000      -0.542944       -14.7743
  22   2.0000      -0.483965       -13.1693
  23   2.0000      -0.473009       -12.8712
  24   2.0000      -0.452197       -12.3049
  25   2.0000      -0.418207       -11.3800
  26   2.0000      -0.402401       -10.9499
  27   2.0000      -0.401970       -10.9381
  28   2.0000      -0.388045       -10.5593
  29   2.0000      -0.386509       -10.5174
  30   2.0000      -0.383107       -10.4249
  31   2.0000      -0.364505        -9.9187
  32   2.0000      -0.356921        -9.7123
  33   2.0000      -0.352382        -9.5888
  34   2.0000      -0.346877        -9.4390
  35   2.0000      -0.328195        -8.9306
  36   2.0000      -0.300733        -8.1834
  37   2.0000      -0.294362        -8.0100
  38   2.0000      -0.292975        -7.9723
  39   2.0000      -0.257681        -7.0119
  40   2.0000      -0.223829        -6.0907
  41   2.0000      -0.195934        -5.3316
  42   0.0000      -0.061429        -1.6716
  43   0.0000      -0.033237        -0.9044
  44   0.0000       0.004872         0.1326
  45   0.0000       0.064537         1.7561
  46   0.0000       0.074558         2.0288

MULLIKEN ATOMIC CHARGES
-----------------------
   0 C :   -0.567854
   1 C :    0.245778
   2 C :   -0.264960
   3 C :    0.142249
   4 C :    0.214174
   5 C :   -0.248168
   6 C :   -0.165847
   7 C :   -0.146818
   8 C :   -0.256150
   9 C :    0.165575
  10 C :   -0.341233
  11 C :   -0.599827
  12 H :    0.160951
  13 H :    0.160896
  14 H :    0.152069
  15 H :    0.144214
  16 H :    0.142393
  17 H :    0.144076
  18 H :    0.144583
  19 H :    0.142308
  20 H :    0.141658
  21 H :    0.169507
  22 H :    0.169442
  23 H :    0.150985
Sum of atomic charges:   -0.0000000

LOEWDIN ATOMIC CHARGES
----------------------
   0 C :   -0.388515
   1 C :   -0.093783
   2 C :   -0.161062
   3 C :   -0.071729
   4 C :   -0.056129
   5 C :   -0.147340
   6 C :   -0.167135
   7 C :   -0.165877
   8 C :   -0.146152
   9 C :   -0.049700
  10 C :   -0.155984
  11 C :   -0.389069
  12 H :    0.164253
  13 H :    0.164240
  14 H :    0.159259
  15 H :    0.169661
  16 H :    0.171531
  17 H :    0.166723
  18 H :    0.167033
  19 H :    0.169739
  20 H :    0.170316
  21 H :    0.164795
  22 H :    0.164786
  23 H :    0.160142

  Mayer bond orders larger than 0.100000
B(  0-C ,  1-C ) :   0.7502 B(  0-C , 12-H ) :   0.9765 B(  0-C , 13-H ) :   0.9766
B(  0-C , 14-H ) :   0.9960 B(  1-C ,  2-C ) :   1.2893 B(  1-C , 10-C ) :   1.5163
B(  2-C ,  3-C ) :   1.5049 B(  2-C , 15-H ) :   0.9198 B(  3-C ,  4-C ) :   1.2813
B(  3-C , 11-C ) :   0.7316 B(  4-C ,  5-C ) :   1.2422 B(  4-C ,  9-C ) :   1.4799
B(  5-C ,  6-C ) :   1.5077 B(  5-C , 16-H ) :   0.9445 B(  6-C ,  7-C ) :   1.2744
B(  6-C , 17-H ) :   0.9491 B(  7-C ,  8-C ) :   1.4921 B(  7-C , 18-H ) :   0.9471
B(  8-C ,  9-C ) :   1.1866 B(  8-C , 19-H ) :   0.9469 B(  9-C , 10-C ) :   1.1992
B( 10-C , 20-H ) :   0.9330 B( 11-C , 21-H ) :   0.9815 B( 11-C , 22-H ) :   0.9815
B( 11-C , 23-H ) :   0.9872

Dispersion correction           -0.009546999
FINAL SINGLE POINT ENERGY      -464.389659826761

DIPOLE MOMENT
-------------

Method             : SCF
Type of density    : Electron Density
Multiplicity       :   1
Irrep              :   0
Energy             :  -464.3872274519100074 Eh
Relativity type    :
Basis              : AO
                                X                 Y                 Z
Electronic contribution:      5.122640746      -2.488445627      -0.000152500
Nuclear contribution   :     -5.321611416       2.623424884       0.000300245
                        -----------------------------------------
Total Dipole Moment    :     -0.198970670       0.134979257       0.000147745
                        -----------------------------------------
Magnitude (a.u.)       :      0.240434501
Magnitude (Debye)      :      0.611135934

Rotational constants in cm-1:             0.053230             0.027560             0.018282
Rotational constants in MHz :          1595.801333           826.219562           548.067697

                             ****ORCA TERMINATED NORMALLY****
TOTAL RUN TIME: 0 days 0 hours 0 minutes 34 seconds 948 msec
