                         Program Version 6.0.0  -   RELEASE  -
|  1> ! r2scan-3c def2/J RI DEFGRID2 scfconv6 printgap
|  2> %output
|  3>     printlevel normal
|  4> end
|  5> %cpcm
|  6>     smd true
|  7>     smdsolvent "water"
|  8> end
|  9> * xyz 0 1
| 10> C -3.44169145 -1.1708880643 0.0001749072
| 11> C -2.0501472057 -0.6168009402 4.75896e-05
| 12> C -1.866748315 0.7801989176 7.47002e-05
| 13> C -0.6258354581 1.3589811107 -4.19658e-05
| 14> C 0.5275794748 0.526567086 7.6374e-06
| 15> C 1.8418710487 1.0395570274 0.0002104774
| 16> C 2.9263098648 0.2058204733 0.0002135602
| 17> C 2.7527902959 -1.1854182501 -4.38466e-05
| 18> C 1.4934671425 -1.7157348167 -0.0001953055
| 19> C 0.3548131057 -0.8832014092 -0.0001096884
| 20> C -0.9469539389 -1.4258451258 -0.000131048
| 21> C -0.4894618983 2.8521111939 -0.0002338731
| 22> H -3.983066914 -0.8279737295 0.880598273
| 23> H -3.9838627545 -0.8264713227 -0.8791645034
| 24> H -3.4273212565 -2.2574183736 -0.0007308697
| 25> H -2.7465797001 1.4089914984 0.0001565066
| 26> H 1.9936597405 2.1074698641 0.0004255136
| 27> H 3.9258035382 0.6154807569 0.0004641635
| 28> H 3.6189195817 -1.8307822242 1.16852e-05
| 29> H 1.3486236055 -2.7869045506 -0.0002905
| 30> H -1.0564752879 -2.5014873936 -0.0002968889
| 31> H 0.0532289838 3.187469615 0.8822199016
| 32> H 0.0546368139 3.1870796082 -0.8819614264
| 33> H -1.4699028107 3.3208700444 -0.0011118219
| 34> *
| 35>
| 36>                          ****END OF INPUT****

CARTESIAN COORDINATES (ANGSTROEM)
---------------------------------
  C     -3.441691   -1.170888    0.000175
  C     -2.050147   -0.616801    0.000048
  C     -1.866748    0.780199    0.000075
  C     -0.625835    1.358981   -0.000042
  C      0.527579    0.526567    0.000008
  C      1.841871    1.039557    0.000210
  C      2.926310    0.205820    0.000214
  C      2.752790   -1.185418   -0.000044
  C      1.493467   -1.715735   -0.000195
  C      0.354813   -0.883201   -0.000110
  C     -0.946954   -1.425845   -0.000131
  C     -0.489462    2.852111   -0.000234
  H     -3.983067   -0.827974    0.880598
  H     -3.983863   -0.826471   -0.879165
  H     -3.427321   -2.257418   -0.000731
  H     -2.746580    1.408991    0.000157
  H      1.993660    2.107470    0.000426
  H      3.925804    0.615481    0.000464
  H      3.618920   -1.830782    0.000012
  H      1.348624   -2.786905   -0.000291
  H     -1.056475   -2.501487   -0.000297
  H      0.053229    3.187470    0.882220
  H      0.054637    3.187080   -0.881961
  H     -1.469903    3.320870   -0.001112

 Total Charge           Charge          ....    0
 Multiplicity           Mult            ....    1
 Number of Electrons    NEL             ....   84
 Basis Dimension        Dim             ....  288

ORBITAL ENERGIES
----------------

  NO   OCC          E(Eh)            E(eV)
   0   2.0000     -10.044571      -273.3267
   1   2.0000     -10.042401      -273.2676
   2   2.0000     -10.041583      -273.2454
   3   2.0000     -10.040762      -273.2230
   4   2.0000     -10.032663      -273.0026
   5   2.0000     -10.032527      -272.9989
   6   2.0000     -10.031999      -272.9846
   7   2.0000     -10.031375      -272.9676
   8   2.0000     -10.025690      -272.8129
   9   2.0000     -10.024679      -272.7854
  10   2.0000     -10.018882      -272.6276
  11   2.0000     -10.018377      -272.6139
  12   2.0000      -0.847426       -23.0596
  13   2.0000      -0.797781       -21.7087
  14   2.0000      -0.758919       -20.6512
  15   2.0000      -0.725531       -19.7427
  16   2.0000      -0.702874       -19.1262
  17   2.0000      -0.658056       -17.9066
  18   2.0000      -0.644722       -17.5438
  19   2.0000      -0.586901       -15.9704
  20   2.0000      -0.564997       -15.3744
  21   2.0000      -0.540353       -14.7037
  22   2.0000      -0.481438       -13.1006
  23   2.0000      -0.470673       -12.8077
  24   2.0000      -0.450157       -12.2494
  25   2.0000      -0.415200       -11.2982
  26   2.0000      -0.399077       -10.8594
  27   2.0000      -0.398429       -10.8418
  28   2.0000      -0.384688       -10.4679
  29   2.0000      -0.380274       -10.3478
  30   2.0000      -0.377492       -10.2721
  31   2.0000      -0.358952        -9.7676
  32   2.0000      -0.353963        -9.6318
  33   2.0000      -0.350965        -9.5502
  34   2.0000      -0.340889        -9.2761
  35   2.0000      -0.323697        -8.8082
  36   2.0000      -0.298497        -8.1225
  37   2.0000      -0.296471        -8.0674
  38   2.0000      -0.289906        -7.8887
  39   2.0000      -0.260863        -7.0984
  40   2.0000      -0.227212        -6.1827
  41   2.0000      -0.198547        -5.4027
  42   0.0000      -0.063764        -1.7351
  43   0.0000      -0.036123        -0.9830
  44   0.0000       0.002322         0.0632
  45   0.0000       0.063960         1.7404
  46   0.0000       0.084359         2.2955

MULLIKEN ATOMIC CHARGES
-----------------------
   0 C :   -0.589880
   1 C :    0.211712
   2 C :   -0.259734
   3 C :    0.085490
   4 C :    0.200186
   5 C :   -0.257265
   6 C :   -0.209999
   7 C :   -0.177603
   8 C :   -0.276963
   9 C :    0.109583
  10 C :   -0.348030
  11 C :   -0.609745
  12 H :    0.177456
  13 H :    0.177409
  14 H :    0.171491
  15 H :    0.175918
  16 H :    0.174463
  17 H :    0.176163
  18 H :    0.177046
  19 H :    0.176671
  20 H :    0.174950
  21 H :    0.184575
  22 H :    0.184516
  23 H :    0.171592
Sum of atomic charges:    0.0000000

LOEWDIN ATOMIC CHARGES
----------------------
   0 C :   -0.393051
   1 C :   -0.099205
   2 C :   -0.167261
   3 C :   -0.077530
   4 C :   -0.071492
   5 C :   -0.153662
   6 C :   -0.178461
   7 C :   -0.175781
   8 C :   -0.156519
   9 C :   -0.066384
  10 C :   -0.168938
  11 C :   -0.392419
  12 H :    0.170823
  13 H :    0.170811
  14 H :    0.165050
  15 H :    0.181713
  16 H :    0.183387
  17 H :    0.177620
  18 H :    0.178015
  19 H :    0.181613
  20 H :    0.182266
  21 H :    0.171379
  22 H :    0.171369
  23 H :    0.166656

  Mayer bond orders larger than 0.100000
B(  0-C ,  1-C ) :   0.7791 B(  0-C , 12-H ) :   0.9681 B(  0-C , 13-H ) :   0.9681
B(  0-C , 14-H ) :   0.9909 B(  1-C ,  2-C ) :   1.2535 B(  1-C , 10-C ) :   1.4828
B(  2-C ,  3-C ) :   1.4953 B(  2-C , 15-H ) :   0.9367 B(  3-C ,  4-C ) :   1.2299
B(  3-C , 11-C ) :   0.7762 B(  4-C ,  5-C ) :   1.2277 B(  4-C ,  9-C ) :   1.3842
B(  5-C ,  6-C ) :   1.4718 B(  5-C , 16-H ) :   0.9582 B(  6-C ,  7-C ) :   1.2368
B(  6-C , 17-H ) :   0.9643 B(  7-C ,  8-C ) :   1.4554 B(  7-C , 18-H ) :   0.9600
B(  8-C ,  9-C ) :   1.1926 B(  8-C , 19-H ) :   0.9565 B(  9-C , 10-C ) :   1.1957
B( 10-C , 20-H ) :   0.9544 B( 11-C , 21-H ) :   0.9718 B( 11-C , 22-H ) :   0.9719
B( 11-C , 23-H ) :   0.9807

Dispersion correction           -0.009546999
FINAL SINGLE POINT ENERGY      -464.392765332702

DIPOLE MOMENT
-------------

Method             : SCF
Type of density    : Electron Density
Multiplicity       :   1
Irrep              :   0
Energy             :  -464.3903329578512853 Eh
Relativity type    :
Basis              : AO
                                X                 Y                 Z
Electronic contribution:      5.019617973      -2.398112544      -0.000094523
Nuclear contribution   :     -5.321611416       2.623424884       0.000300245
                        -----------------------------------------
Total Dipole Moment    :     -0.301993443       0.225312339       0.000205722
                        -----------------------------------------
Magnitude (a.u.)       :      0.376783402
Magnitude (Debye)      :      0.957707298

Rotational constants in cm-1:             0.053230             0.027560             0.018282
Rotational constants in MHz :          1595.801333           826.219562           548.067697

                             ****ORCA TERMINATED NORMALLY****
TOTAL RUN TIME: 0 days 0 hours 0 minutes 40 seconds 49 msec
