                         Program Version 6.0.0  -   RELEASE  -
|  1> ! pbe def2-sv(p) def2/J RI DEFGRID1 loosescf d4 GCP(DFT/SV(P)) printgap
|  2> %output
|  3>     printlevel normal
|  4> end
|  5> * xyz 0 1
|  6> C -2.3122408159 0.0052337962 -5.72498e-05
|  7> C -1.6123803296 1.2011302677 6.23266e-05
|  8> C -0.2302119232 1.1986743243 0.0001025666
|  9> C 0.457352942 -0.0085679509 -0.000254848
| 10> C -0.2384296409 -1.2095029704 -7.6041e-05
| 11> C -1.6216781543 -1.1952568873 6.4066e-06
| 12> S 2.2281848039 0.0431452646 4.21525e-05
| 13> H -3.3911188551 0.0095657125 0.0002362265
| 14> H -2.1423463679 2.1413911441 -0.0001847698
| 15> H 0.3236128917 2.1257477511 -0.0001646268
| 16> H 0.2939307703 -2.1484749254 0.0002288622
| 17> H -2.1604211267 -2.1304877238 0.0009007771
| 18> H 2.4177838631 -1.2715089901 0.0002264455
| 19> *
| 20>
| 21>                          ****END OF INPUT****

CARTESIAN COORDINATES (ANGSTROEM)
---------------------------------
  C     -2.312241    0.005234   -0.000057
  C     -1.612380    1.201130    0.000062
  C     -0.230212    1.198674    0.000103
  C      0.457353   -0.008568   -0.000255
  C     -0.238430   -1.209503   -0.000076
  C     -1.621678   -1.195257    0.000006
  S      2.228185    0.043145    0.000042
  H     -3.391119    0.009566    0.000236
  H     -2.142346    2.141391   -0.000185
  H      0.323613    2.125748   -0.000165
  H      0.293931   -2.148475    0.000229
  H     -2.160421   -2.130488    0.000901
  H      2.417784   -1.271509    0.000226

 Total Charge           Charge          ....    0
 Multiplicity           Mult            ....    1
 Number of Electrons    NEL             ....   58
 Basis Dimension        Dim             ....  114

ORBITAL ENERGIES
----------------

  NO   OCC          E(Eh)            E(eV)
   0   2.0000     -88.034870     -2395.5506
   1   2.0000      -9.930366      -270.2190
   2   2.0000      -9.898213      -269.3441
   3   2.0000      -9.898157      -269.3425
   4   2.0000      -9.897501      -269.3247
   5   2.0000      -9.896434      -269.2956
   6   2.0000      -9.893095      -269.2048
   7   2.0000      -7.681493      -209.0241
   8   2.0000      -5.709831      -155.3724
   9   2.0000      -5.705425      -155.2525
  10   2.0000      -5.698244      -155.0571
  11   2.0000      -0.788846       -21.4656
  12   2.0000      -0.717864       -19.5341
  13   2.0000      -0.677170       -18.4267
  14   2.0000      -0.637808       -17.3556
  15   2.0000      -0.552164       -15.0251
  16   2.0000      -0.532410       -14.4876
  17   2.0000      -0.472210       -12.8495
  18   2.0000      -0.423344       -11.5198
  19   2.0000      -0.408436       -11.1141
  20   2.0000      -0.384676       -10.4676
  21   2.0000      -0.379560       -10.3284
  22   2.0000      -0.346168        -9.4197
  23   2.0000      -0.334538        -9.1032
  24   2.0000      -0.309736        -8.4284
  25   2.0000      -0.295757        -8.0480
  26   2.0000      -0.267723        -7.2851
  27   2.0000      -0.235103        -6.3975
  28   2.0000      -0.191263        -5.2045
  29   0.0000      -0.039623        -1.0782
  30   0.0000      -0.034836        -0.9479
  31   0.0000      -0.010187        -0.2772
  32   0.0000       0.038655         1.0518
  33   0.0000       0.063977         1.7409

MULLIKEN ATOMIC CHARGES
-----------------------
   0 C :   -0.051978
   1 C :   -0.055331
   2 C :   -0.084758
   3 C :    0.022629
   4 C :   -0.101915
   5 C :   -0.053146
   6 S :   -0.093672
   7 H :    0.054128
   8 H :    0.058173
   9 H :    0.051860
  10 H :    0.040101
  11 H :    0.055861
  12 H :    0.158049
Sum of atomic charges:   -0.0000000

LOEWDIN ATOMIC CHARGES
----------------------
   0 C :   -0.137142
   1 C :   -0.114885
   2 C :   -0.142935
   3 C :   -0.161030
   4 C :   -0.150080
   5 C :   -0.116017
   6 S :    0.113047
   7 H :    0.124398
   8 H :    0.126485
   9 H :    0.125319
  10 H :    0.121000
  11 H :    0.125728
  12 H :    0.086114

  Mayer bond orders larger than 0.100000
B(  0-C ,  1-C ) :   1.3733 B(  0-C ,  5-C ) :   1.3807 B(  0-C ,  7-H ) :   0.9657
B(  1-C ,  2-C ) :   1.4142 B(  1-C ,  8-H ) :   0.9631 B(  2-C ,  3-C ) :   1.3787
B(  2-C ,  9-H ) :   0.9603 B(  3-C ,  4-C ) :   1.3841 B(  3-C ,  6-S ) :   1.0412
B(  4-C ,  5-C ) :   1.4059 B(  4-C , 10-H ) :   0.9546 B(  5-C , 11-H ) :   0.9600
B(  6-S , 12-H ) :   0.9028

Dispersion correction           -0.014282906
FINAL SINGLE POINT ENERGY      -629.618702176975

DIPOLE MOMENT
-------------

Method             : SCF
Type of density    : Electron Density
Multiplicity       :   1
Irrep              :   0
Energy             :  -629.6524754488244753 Eh
Relativity type    :
Basis              : AO
                                X                 Y                 Z
Electronic contribution:      4.228592460       0.852434476      -0.000871236
Nuclear contribution   :     -4.434423485      -1.196252766       0.001164862
                        -----------------------------------------
Total Dipole Moment    :     -0.205831025      -0.343818290       0.000293626
                        -----------------------------------------
Magnitude (a.u.)       :      0.400721242
Magnitude (Debye)      :      1.018552453

Rotational constants in cm-1:             0.188538             0.053172             0.041475
Rotational constants in MHz :          5652.234225          1594.053333          1243.390195

                             ****ORCA TERMINATED NORMALLY****
TOTAL RUN TIME: 0 days 0 hours 0 minutes 6 seconds 171 msec
