                         Program Version 6.0.0  -   RELEASE  -
|  1> ! pbe def2-sv(p) def2/J RI DEFGRID1 loosescf d4 GCP(DFT/SV(P)) printgap
|  2> %output
|  3>     printlevel normal
|  4> end
|  5> * xyz 0 1
|  6> C -1.9487207221 -0.1417851978 0.0001307816
|  7> C -0.5810138328 0.5289849978 2.6395e-06
|  8> C 0.5571823938 -0.5007180646 -0.0002551126
|  9> N 1.8979745492 0.0658264137 -4.35158e-05
| 10> H -2.0640986293 -0.767720664 -0.8817453002
| 11> H -2.0637435935 -0.7680855138 0.881804651
| 12> H -2.7397631173 0.6040190381 0.0004032068
| 13> H -0.4862744998 1.1669527627 0.883184877
| 14> H -0.4865149057 1.1666496619 -0.8834185431
| 15> H 0.4694515222 -1.1390935155 0.8835058673
| 16> H 0.4696840334 -1.1383609048 -0.8845933214
| 17> H 2.0165554097 0.654557373 0.8181368857
| 18> H 2.014928791 0.6590309724 -0.8152235236
| 19> *
| 20>
| 21>                          ****END OF INPUT****

CARTESIAN COORDINATES (ANGSTROEM)
---------------------------------
  C     -1.948721   -0.141785    0.000131
  C     -0.581014    0.528985    0.000003
  C      0.557182   -0.500718   -0.000255
  N      1.897975    0.065826   -0.000044
  H     -2.064099   -0.767721   -0.881745
  H     -2.063744   -0.768086    0.881805
  H     -2.739763    0.604019    0.000403
  H     -0.486274    1.166953    0.883185
  H     -0.486515    1.166650   -0.883419
  H      0.469452   -1.139094    0.883506
  H      0.469684   -1.138361   -0.884593
  H      2.016555    0.654557    0.818137
  H      2.014929    0.659031   -0.815224

 Total Charge           Charge          ....    0
 Multiplicity           Mult            ....    1
 Number of Electrons    NEL             ....   34
 Basis Dimension        Dim             ....   74

ORBITAL ENERGIES
----------------

  NO   OCC          E(Eh)            E(eV)
   0   2.0000     -13.953694      -379.6993
   1   2.0000      -9.902478      -269.4601
   2   2.0000      -9.881571      -268.8912
   3   2.0000      -9.874041      -268.6863
   4   2.0000      -0.790933       -21.5224
   5   2.0000      -0.687947       -18.7200
   6   2.0000      -0.583939       -15.8898
   7   2.0000      -0.522948       -14.2301
   8   2.0000      -0.449137       -12.2216
   9   2.0000      -0.398064       -10.8319
  10   2.0000      -0.393071       -10.6960
  11   2.0000      -0.357087        -9.7168
  12   2.0000      -0.323654        -8.8071
  13   2.0000      -0.322455        -8.7744
  14   2.0000      -0.301111        -8.1937
  15   2.0000      -0.288078        -7.8390
  16   2.0000      -0.178020        -4.8442
  17   0.0000       0.034153         0.9294
  18   0.0000       0.053369         1.4523
  19   0.0000       0.068678         1.8688
  20   0.0000       0.083687         2.2772
  21   0.0000       0.120200         3.2708

MULLIKEN ATOMIC CHARGES
-----------------------
   0 C :   -0.278673
   1 C :   -0.203461
   2 C :   -0.101058
   3 N :   -0.436102
   4 H :    0.099875
   5 H :    0.099864
   6 H :    0.103706
   7 H :    0.076098
   8 H :    0.076136
   9 H :    0.084785
  10 H :    0.084798
  11 H :    0.197017
  12 H :    0.197015
Sum of atomic charges:   -0.0000000

LOEWDIN ATOMIC CHARGES
----------------------
   0 C :   -0.341746
   1 C :   -0.259901
   2 C :   -0.184111
   3 N :   -0.407105
   4 H :    0.117563
   5 H :    0.117551
   6 H :    0.119485
   7 H :    0.108680
   8 H :    0.108704
   9 H :    0.110514
  10 H :    0.110496
  11 H :    0.199944
  12 H :    0.199928

  Mayer bond orders larger than 0.100000
B(  0-C ,  1-C ) :   1.1357 B(  0-C ,  4-H ) :   0.9556 B(  0-C ,  5-H ) :   0.9556
B(  0-C ,  6-H ) :   0.9514 B(  1-C ,  2-C ) :   1.0989 B(  1-C ,  7-H ) :   0.9253
B(  1-C ,  8-H ) :   0.9253 B(  2-C ,  3-N ) :   1.1474 B(  2-C ,  9-H ) :   0.9340
B(  2-C , 10-H ) :   0.9340 B(  3-N , 11-H ) :   0.9117 B(  3-N , 12-H ) :   0.9117

Dispersion correction           -0.007088254
FINAL SINGLE POINT ENERGY      -174.033151966570

DIPOLE MOMENT
-------------

Method             : SCF
Type of density    : Electron Density
Multiplicity       :   1
Irrep              :   0
Energy             :  -174.0831979355198769 Eh
Relativity type    :
Basis              : AO
                                X                 Y                 Z
Electronic contribution:      2.385693344       0.030104116      -0.000326697
Nuclear contribution   :     -2.681885476       0.411233888       0.001927514
                        -----------------------------------------
Total Dipole Moment    :     -0.296192133       0.441338004       0.001600818
                        -----------------------------------------
Magnitude (a.u.)       :      0.531518180
Magnitude (Debye)      :      1.351011847

Rotational constants in cm-1:             0.821517             0.124705             0.117410
Rotational constants in MHz :         24628.475018          3738.553073          3519.861115

                             ****ORCA TERMINATED NORMALLY****
TOTAL RUN TIME: 0 days 0 hours 0 minutes 4 seconds 933 msec
