                         Program Version 6.0.0  -   RELEASE  -
|  1> ! pbe def2-sv(p) def2/J RI DEFGRID1 loosescf d4 GCP(DFT/SV(P)) printgap
|  2> %output
|  3>     printlevel normal
|  4> end
|  5> * xyz 0 1
|  6> C -1.8853061097 -0.5932660687 -0.8243946913
|  7> C -1.2149341556 -0.1126912548 0.4760578044
|  8> H -1.9640561282 -0.1460732435 1.276560951
|  9> C -0.6547387103 1.3118957489 0.3514893573
| 10> H -1.4106535707 1.9380769265 -0.1450221613
| 11> C 0.643448456 1.3463869312 -0.4831709227
| 12> H 1.1165350963 2.3231579305 -0.3012347084
| 13> C 1.6334796854 0.2858129388 0.0287875184
| 14> H 2.4276998613 0.1754031643 -0.7175104491
| 15> C 0.9684134483 -1.0959264286 0.2368271769
| 16> H 1.6317309832 -1.6811495644 0.8954215982
| 17> O -0.2244738741 -1.0218613989 0.9547625446
| 18> O 0.7376733414 -1.785016101 -0.9641384065
| 19> O 2.2612975037 0.7026066737 1.2133785018
| 20> O 0.4252009706 1.1401533407 -1.8533754854
| 21> O -0.3170677486 1.8494705149 1.6113609897
| 22> O -2.3959761533 -1.8964629116 -0.6858569064
| 23> H -1.1737436837 -0.5443180322 -1.6541389016
| 24> H -2.7440077664 0.0467316287 -1.0371389709
| 25> H 1.5734476092 -2.0132733325 -1.3917419261
| 26> H 1.5787931016 1.0103748127 1.8345348109
| 27> H 0.0592890124 1.9408832899 -2.2549084469
| 28> H -1.0988744808 1.8769634776 2.181701325
| 29> H -1.6480282741 -2.4879986884 -0.5148102546
| 30> *
| 31>
| 32>                          ****END OF INPUT****

CARTESIAN COORDINATES (ANGSTROEM)
---------------------------------
  C     -1.885306   -0.593266   -0.824395
  C     -1.214934   -0.112691    0.476058
  H     -1.964056   -0.146073    1.276561
  C     -0.654739    1.311896    0.351489
  H     -1.410654    1.938077   -0.145022
  C      0.643448    1.346387   -0.483171
  H      1.116535    2.323158   -0.301235
  C      1.633480    0.285813    0.028788
  H      2.427700    0.175403   -0.717510
  C      0.968413   -1.095926    0.236827
  H      1.631731   -1.681150    0.895422
  O     -0.224474   -1.021861    0.954763
  O      0.737673   -1.785016   -0.964138
  O      2.261298    0.702607    1.213379
  O      0.425201    1.140153   -1.853375
  O     -0.317068    1.849471    1.611361
  O     -2.395976   -1.896463   -0.685857
  H     -1.173744   -0.544318   -1.654139
  H     -2.744008    0.046732   -1.037139
  H      1.573448   -2.013273   -1.391742
  H      1.578793    1.010375    1.834535
  H      0.059289    1.940883   -2.254908
  H     -1.098874    1.876963    2.181701
  H     -1.648028   -2.487999   -0.514810

 Total Charge           Charge          ....    0
 Multiplicity           Mult            ....    1
 Number of Electrons    NEL             ....   96
 Basis Dimension        Dim             ....  192

ORBITAL ENERGIES
----------------

  NO   OCC          E(Eh)            E(eV)
   0   2.0000     -18.776921      -510.9460
   1   2.0000     -18.768979      -510.7299
   2   2.0000     -18.767869      -510.6997
   3   2.0000     -18.761518      -510.5268
   4   2.0000     -18.741164      -509.9730
   5   2.0000     -18.725492      -509.5465
   6   2.0000      -9.983213      -271.6570
   7   2.0000      -9.955157      -270.8936
   8   2.0000      -9.951744      -270.8007
   9   2.0000      -9.942646      -270.5531
  10   2.0000      -9.939774      -270.4750
  11   2.0000      -9.915560      -269.8161
  12   2.0000      -0.982262       -26.7287
  13   2.0000      -0.953542       -25.9472
  14   2.0000      -0.942334       -25.6422
  15   2.0000      -0.918643       -24.9975
  16   2.0000      -0.915455       -24.9108
  17   2.0000      -0.899191       -24.4682
  18   2.0000      -0.708777       -19.2868
  19   2.0000      -0.684372       -18.6227
  20   2.0000      -0.615303       -16.7432
  21   2.0000      -0.595296       -16.1988
  22   2.0000      -0.564456       -15.3596
  23   2.0000      -0.523781       -14.2528
  24   2.0000      -0.500528       -13.6201
  25   2.0000      -0.487942       -13.2776
  26   2.0000      -0.476373       -12.9628
  27   2.0000      -0.462897       -12.5961
  28   2.0000      -0.440352       -11.9826
  29   2.0000      -0.438046       -11.9198
  30   2.0000      -0.417407       -11.3582
  31   2.0000      -0.395769       -10.7694
  32   2.0000      -0.379574       -10.3287
  33   2.0000      -0.376384       -10.2419
  34   2.0000      -0.370989       -10.0951
  35   2.0000      -0.347155        -9.4466
  36   2.0000      -0.326626        -8.8879
  37   2.0000      -0.316220        -8.6048
  38   2.0000      -0.309503        -8.4220
  39   2.0000      -0.289985        -7.8909
  40   2.0000      -0.275380        -7.4935
  41   2.0000      -0.268354        -7.3023
  42   2.0000      -0.257171        -6.9980
  43   2.0000      -0.246620        -6.7109
  44   2.0000      -0.232052        -6.3144
  45   2.0000      -0.225146        -6.1265
  46   2.0000      -0.203747        -5.5442
  47   2.0000      -0.193929        -5.2771
  48   0.0000       0.005010         0.1363
  49   0.0000       0.006918         0.1883
  50   0.0000       0.025360         0.6901
  51   0.0000       0.065773         1.7898
  52   0.0000       0.070245         1.9115

MULLIKEN ATOMIC CHARGES
-----------------------
   0 C :    0.037065
   1 C :    0.015922
   2 H :    0.058087
   3 C :    0.047057
   4 H :    0.055095
   5 C :    0.027938
   6 H :    0.082035
   7 C :    0.059091
   8 H :    0.062006
   9 C :    0.196449
  10 H :    0.066752
  11 O :   -0.310240
  12 O :   -0.408521
  13 O :   -0.430752
  14 O :   -0.394844
  15 O :   -0.422644
  16 O :   -0.447847
  17 H :    0.112869
  18 H :    0.067017
  19 H :    0.307130
  20 H :    0.304371
  21 H :    0.306145
  22 H :    0.310902
  23 H :    0.298917
Sum of atomic charges:    0.0000000

LOEWDIN ATOMIC CHARGES
----------------------
   0 C :   -0.151903
   1 C :   -0.072755
   2 H :    0.110609
   3 C :   -0.077806
   4 H :    0.100288
   5 C :   -0.071255
   6 H :    0.109535
   7 C :   -0.080463
   8 H :    0.113786
   9 C :   -0.002597
  10 H :    0.098828
  11 O :   -0.129439
  12 O :   -0.318705
  13 O :   -0.318303
  14 O :   -0.302134
  15 O :   -0.311092
  16 O :   -0.341887
  17 H :    0.109912
  18 H :    0.108285
  19 H :    0.293434
  20 H :    0.274759
  21 H :    0.290282
  22 H :    0.291982
  23 H :    0.276640

  Mayer bond orders larger than 0.100000
B(  0-C ,  1-C ) :   1.0479 B(  0-C , 16-O ) :   1.0696 B(  0-C , 17-H ) :   0.8876
B(  0-C , 18-H ) :   0.9102 B(  1-C ,  2-H ) :   0.8932 B(  1-C ,  3-C ) :   0.9783
B(  1-C , 11-O ) :   1.0092 B(  3-C ,  4-H ) :   0.8956 B(  3-C ,  5-C ) :   0.9642
B(  3-C , 15-O ) :   1.0119 B(  5-C ,  6-H ) :   0.9027 B(  5-C ,  7-C ) :   0.9875
B(  5-C , 14-O ) :   1.0813 B(  7-C ,  8-H ) :   0.8864 B(  7-C ,  9-C ) :   0.9745
B(  7-C , 13-O ) :   1.0599 B(  9-C , 10-H ) :   0.9065 B(  9-C , 11-O ) :   1.0749
B(  9-C , 12-O ) :   1.0367 B( 12-O , 19-H ) :   0.8369 B( 13-O , 20-H ) :   0.8151
B( 14-O , 21-H ) :   0.8423 B( 15-O , 22-H ) :   0.8404 B( 16-O , 23-H ) :   0.8385

Dispersion correction           -0.026042168
FINAL SINGLE POINT ENERGY      -685.691250769729

DIPOLE MOMENT
-------------

Method             : SCF
Type of density    : Electron Density
Multiplicity       :   1
Irrep              :   0
Energy             :  -685.8224200051118942 Eh
Relativity type    :
Basis              : AO
                                X                 Y                 Z
Electronic contribution:      1.537160947      -1.293729897       1.518920387
Nuclear contribution   :     -1.542523890       2.273009912      -1.711153612
                        -----------------------------------------
Total Dipole Moment    :     -0.005362942       0.979280015      -0.192233225
                        -----------------------------------------
Magnitude (a.u.)       :      0.997983828
Magnitude (Debye)      :      2.536673299

Rotational constants in cm-1:             0.041893             0.028306             0.025263
Rotational constants in MHz :          1255.932063           848.600948           757.380055

                             ****ORCA TERMINATED NORMALLY****
TOTAL RUN TIME: 0 days 0 hours 0 minutes 12 seconds 371 msec
