                         Program Version 6.0.0  -   RELEASE  -
|  1> ! wb97x-v def2-tzvp def2/J RIJCOSX DEFGRID2 scfconv7 GCP(DFT/TZ) printgap
|  2> %output
|  3>     printlevel normal
|  4> end
|  5> * xyz 0 1
|  6> C -2.184375047501109 0.28022863378001583 0.12969405476943513
|  7> C -0.9244483322865114 -0.3941758966609382 -0.3880351291946692
|  8> S 0.5673665758266869 0.3797900448266764 0.3643919349561996
|  9> C 1.8522986366834164 -0.6244345735077385 -0.4613208839491724
| 10> H -3.064026165032249 -0.18775634519696333 -0.3237217598703945
| 11> H -2.273175780800054 0.18259754108539497 1.2161295087719188
| 12> H -2.20084073182308 1.3448966060202128 -0.12328544949027281
| 13> H -0.8498345009638324 -0.29661530035847977 -1.476435535527592
| 14> H -0.9222162418803906 -1.4604279197181735 -0.13738971244466927
| 15> H 2.825664065159945 -0.2749451102514564 -0.1078951260091843
| 16> H 1.8032332588424786 -0.4991785854710306 -1.5468802626151843
| 17> H 1.7411406298153742 -1.6822119363829273 -0.205771516558931
| 18> *
| 19>
| 20>                          ****END OF INPUT****

CARTESIAN COORDINATES (ANGSTROEM)
---------------------------------
  C     -2.184375    0.280229    0.129694
  C     -0.924448   -0.394176   -0.388035
  S      0.567367    0.379790    0.364392
  C      1.852299   -0.624435   -0.461321
  H     -3.064026   -0.187756   -0.323722
  H     -2.273176    0.182598    1.216130
  H     -2.200841    1.344897   -0.123285
  H     -0.849835   -0.296615   -1.476436
  H     -0.922216   -1.460428   -0.137390
  H      2.825664   -0.274945   -0.107895
  H      1.803233   -0.499179   -1.546880
  H      1.741141   -1.682212   -0.205772

 Total Charge           Charge          ....    0
 Multiplicity           Mult            ....    1
 Number of Electrons    NEL             ....   42
 Basis Dimension        Dim             ....  178

ORBITAL ENERGIES
----------------

  NO   OCC          E(Eh)            E(eV)
   0   2.0000     -94.112552     -2560.9327
   1   2.0000     -12.075449      -328.5897
   2   2.0000     -12.069265      -328.4214
   3   2.0000     -12.044158      -327.7382
   4   2.0000      -9.622780      -261.8492
   5   2.0000      -7.600542      -206.8213
   6   2.0000      -7.599487      -206.7926
   7   2.0000      -7.598623      -206.7691
   8   2.0000      -1.303246       -35.4631
   9   2.0000      -1.237537       -33.6751
  10   2.0000      -1.135430       -30.8966
  11   2.0000      -1.058914       -28.8145
  12   2.0000      -0.883162       -24.0320
  13   2.0000      -0.870615       -23.6906
  14   2.0000      -0.854661       -23.2565
  15   2.0000      -0.843873       -22.9630
  16   2.0000      -0.820777       -22.3345
  17   2.0000      -0.789105       -21.4726
  18   2.0000      -0.784607       -21.3503
  19   2.0000      -0.730516       -19.8783
  20   2.0000      -0.627483       -17.0747
  21   0.0000      -0.190639        -5.1875
  22   0.0000      -0.171543        -4.6679
  23   0.0000      -0.019559        -0.5322
  24   0.0000      -0.012201        -0.3320
  25   0.0000       0.019621         0.5339

MULLIKEN ATOMIC CHARGES
-----------------------
   0 C :   -0.326166
   1 C :   -0.183106
   2 S :   -0.092661
   3 C :   -0.346511
   4 H :    0.113284
   5 H :    0.118469
   6 H :    0.118460
   7 H :    0.106440
   8 H :    0.106814
   9 H :    0.137258
  10 H :    0.123853
  11 H :    0.123865
Sum of atomic charges:    0.0000000

LOEWDIN ATOMIC CHARGES
----------------------
   0 C :   -0.337137
   1 C :   -0.473720
   2 S :    0.420093
   3 C :   -0.511721
   4 H :    0.119602
   5 H :    0.118643
   6 H :    0.118664
   7 H :    0.116530
   8 H :    0.116499
   9 H :    0.109886
  10 H :    0.101322
  11 H :    0.101340

  Mayer bond orders larger than 0.100000
B(  0-C ,  1-C ) :   1.0009 B(  0-C ,  4-H ) :   0.9729 B(  0-C ,  5-H ) :   0.9768
B(  0-C ,  6-H ) :   0.9767 B(  1-C ,  2-S ) :   1.0911 B(  1-C ,  7-H ) :   0.9636
B(  1-C ,  8-H ) :   0.9636 B(  2-S ,  3-C ) :   1.0793 B(  3-C ,  9-H ) :   0.9670
B(  3-C , 10-H ) :   0.9687 B(  3-C , 11-H ) :   0.9685

FINAL SINGLE POINT ENERGY      -517.279002137093

DIPOLE MOMENT
-------------

Method             : SCF
Type of density    : Electron Density
Multiplicity       :   1
Irrep              :   0
Energy             :  -517.2871118407929316 Eh
Relativity type    :
Basis              : AO
                                X                 Y                 Z
Electronic contribution:      2.672867446       2.268441578       2.150552852
Nuclear contribution   :     -2.787878194      -2.747299401      -2.579146074
                        -----------------------------------------
Total Dipole Moment    :     -0.115010748      -0.478857823      -0.428593222
                        -----------------------------------------
Magnitude (a.u.)       :      0.652858665
Magnitude (Debye)      :      1.659434849

Rotational constants in cm-1:             0.521920             0.104278             0.091430
Rotational constants in MHz :         15646.756185          3126.166045          2741.003016

                             ****ORCA TERMINATED NORMALLY****
TOTAL RUN TIME: 0 days 0 hours 0 minutes 45 seconds 158 msec
