                         Program Version 6.0.0  -   RELEASE  -
|  1> ! wb97x-v def2-tzvp def2/J RIJCOSX DEFGRID2 scfconv7 GCP(DFT/TZ) printgap
|  2> %output
|  3>     printlevel normal
|  4> end
|  5> %cpcm
|  6>     smd true
|  7>     smdsolvent "water"
|  8> end
|  9> * xyz 0 1
| 10> C -2.184375047501109 0.28022863378001583 0.12969405476943513
| 11> C -0.9244483322865114 -0.3941758966609382 -0.3880351291946692
| 12> S 0.5673665758266869 0.3797900448266764 0.3643919349561996
| 13> C 1.8522986366834164 -0.6244345735077385 -0.4613208839491724
| 14> H -3.064026165032249 -0.18775634519696333 -0.3237217598703945
| 15> H -2.273175780800054 0.18259754108539497 1.2161295087719188
| 16> H -2.20084073182308 1.3448966060202128 -0.12328544949027281
| 17> H -0.8498345009638324 -0.29661530035847977 -1.476435535527592
| 18> H -0.9222162418803906 -1.4604279197181735 -0.13738971244466927
| 19> H 2.825664065159945 -0.2749451102514564 -0.1078951260091843
| 20> H 1.8032332588424786 -0.4991785854710306 -1.5468802626151843
| 21> H 1.7411406298153742 -1.6822119363829273 -0.205771516558931
| 22> *
| 23>
| 24>                          ****END OF INPUT****

CARTESIAN COORDINATES (ANGSTROEM)
---------------------------------
  C     -2.184375    0.280229    0.129694
  C     -0.924448   -0.394176   -0.388035
  S      0.567367    0.379790    0.364392
  C      1.852299   -0.624435   -0.461321
  H     -3.064026   -0.187756   -0.323722
  H     -2.273176    0.182598    1.216130
  H     -2.200841    1.344897   -0.123285
  H     -0.849835   -0.296615   -1.476436
  H     -0.922216   -1.460428   -0.137390
  H      2.825664   -0.274945   -0.107895
  H      1.803233   -0.499179   -1.546880
  H      1.741141   -1.682212   -0.205772

 Total Charge           Charge          ....    0
 Multiplicity           Mult            ....    1
 Number of Electrons    NEL             ....   42
 Basis Dimension        Dim             ....  178

ORBITAL ENERGIES
----------------

  NO   OCC          E(Eh)            E(eV)
   0   2.0000     -94.110683     -2560.8819
   1   2.0000     -12.065522      -328.3196
   2   2.0000     -12.058422      -328.1263
   3   2.0000     -12.033498      -327.4481
   4   2.0000      -9.620953      -261.7994
   5   2.0000      -7.598743      -206.7723
   6   2.0000      -7.597697      -206.7438
   7   2.0000      -7.597051      -206.7263
   8   2.0000      -1.296059       -35.2676
   9   2.0000      -1.228765       -33.4364
  10   2.0000      -1.126423       -30.6515
  11   2.0000      -1.050464       -28.5846
  12   2.0000      -0.873010       -23.7558
  13   2.0000      -0.861617       -23.4458
  14   2.0000      -0.844499       -22.9800
  15   2.0000      -0.833138       -22.6708
  16   2.0000      -0.810164       -22.0457
  17   2.0000      -0.780884       -21.2489
  18   2.0000      -0.774158       -21.0659
  19   2.0000      -0.725988       -19.7551
  20   2.0000      -0.625757       -17.0277
  21   0.0000      -0.186384        -5.0718
  22   0.0000      -0.165503        -4.5036
  23   0.0000      -0.008767        -0.2386
  24   0.0000      -0.000188        -0.0051
  25   0.0000       0.033404         0.9090

MULLIKEN ATOMIC CHARGES
-----------------------
   0 C :   -0.357890
   1 C :   -0.199912
   2 S :   -0.159688
   3 C :   -0.383282
   4 H :    0.134786
   5 H :    0.125586
   6 H :    0.125397
   7 H :    0.130843
   8 H :    0.130875
   9 H :    0.159122
  10 H :    0.147102
  11 H :    0.147061
Sum of atomic charges:   -0.0000000

LOEWDIN ATOMIC CHARGES
----------------------
   0 C :   -0.342246
   1 C :   -0.469864
   2 S :    0.383573
   3 C :   -0.511106
   4 H :    0.125037
   5 H :    0.118908
   6 H :    0.118877
   7 H :    0.123354
   8 H :    0.123227
   9 H :    0.114580
  10 H :    0.107830
  11 H :    0.107830

  Mayer bond orders larger than 0.100000
B(  0-C ,  1-C ) :   0.9964 B(  0-C ,  4-H ) :   0.9705 B(  0-C ,  5-H ) :   0.9732
B(  0-C ,  6-H ) :   0.9732 B(  1-C ,  2-S ) :   1.0755 B(  1-C ,  7-H ) :   0.9636
B(  1-C ,  8-H ) :   0.9635 B(  2-S ,  3-C ) :   1.0724 B(  3-C ,  9-H ) :   0.9587
B(  3-C , 10-H ) :   0.9658 B(  3-C , 11-H ) :   0.9657

FINAL SINGLE POINT ENERGY      -517.280148097354

DIPOLE MOMENT
-------------

Method             : SCF
Type of density    : Electron Density
Multiplicity       :   1
Irrep              :   0
Energy             :  -517.2882578010536463 Eh
Relativity type    :
Basis              : AO
                                X                 Y                 Z
Electronic contribution:      2.643238644       2.064035564       1.968790986
Nuclear contribution   :     -2.787878194      -2.747299401      -2.579146074
                        -----------------------------------------
Total Dipole Moment    :     -0.144639549      -0.683263837      -0.610355088
                        -----------------------------------------
Magnitude (a.u.)       :      0.927525419
Magnitude (Debye)      :      2.357582256

Rotational constants in cm-1:             0.521920             0.104278             0.091430
Rotational constants in MHz :         15646.756185          3126.166045          2741.003016

                             ****ORCA TERMINATED NORMALLY****
TOTAL RUN TIME: 0 days 0 hours 0 minutes 49 seconds 386 msec
