                         Program Version 6.0.0  -   RELEASE  -
|  1> ! r2scan-3c def2/J RI DEFGRID2 scfconv6 printgap
|  2> %output
|  3>     printlevel normal
|  4> end
|  5> * xyz 0 1
|  6> C -3.4307663867 0.5797029925 0.0677625687
|  7> C -1.9368496046 0.486932741 0.1114546403
|  8> C -1.1352291984 1.5075535886 -0.1588012589
|  9> C 0.3598323355 1.4444469081 -0.1508796246
| 10> C 0.8560492007 -0.006411537 -0.1788877616
| 11> H 0.590977696 -0.4321067 -1.1534527306
| 12> C 0.0810787335 -0.7880834752 0.8816881906
| 13> C -1.3883472203 -0.8789182909 0.4614317962
| 14> H -1.9804948293 -1.2894162723 1.297431186
| 15> O -1.5684105162 -1.7130120411 -0.6774300836
| 16> C 2.3558585541 -0.0582777568 -0.0200486569
| 17> C 2.9605486404 -0.0979837087 1.1569374945
| 18> C 3.1256704885 -0.0312576681 -1.305922231
| 19> H -3.8200940116 -0.1832599437 -0.6047508729
| 20> H -3.7503972997 1.5582159855 -0.2786305875
| 21> H -3.8494598906 0.3996790576 1.0575085248
| 22> H -1.5624671105 2.472957326 -0.3959730886
| 23> H 0.7491225289 1.9952133906 -1.0100808041
| 24> H 0.738201765 1.9403518693 0.7496145272
| 25> H 0.5006398824 -1.7895297786 0.9979354602
| 26> H 0.1315168456 -0.2781888166 1.8439832489
| 27> H -1.2610368334 -2.6042877949 -0.4652308117
| 28> H 4.0345491058 -0.1143513329 1.2375655884
| 29> H 2.4193574922 -0.1166169559 2.0864484303
| 30> H 2.9149213931 -0.9293640342 -1.8853763646
| 31> H 2.8259805077 0.8262627617 -1.9061436596
| 32> H 4.1951133561 0.0237393689 -1.122251056
| 33> *
| 34>
| 35>                          ****END OF INPUT****

CARTESIAN COORDINATES (ANGSTROEM)
---------------------------------
  C     -3.430766    0.579703    0.067763
  C     -1.936850    0.486933    0.111455
  C     -1.135229    1.507554   -0.158801
  C      0.359832    1.444447   -0.150880
  C      0.856049   -0.006412   -0.178888
  H      0.590978   -0.432107   -1.153453
  C      0.081079   -0.788083    0.881688
  C     -1.388347   -0.878918    0.461432
  H     -1.980495   -1.289416    1.297431
  O     -1.568411   -1.713012   -0.677430
  C      2.355859   -0.058278   -0.020049
  C      2.960549   -0.097984    1.156937
  C      3.125670   -0.031258   -1.305922
  H     -3.820094   -0.183260   -0.604751
  H     -3.750397    1.558216   -0.278631
  H     -3.849460    0.399679    1.057509
  H     -1.562467    2.472957   -0.395973
  H      0.749123    1.995213   -1.010081
  H      0.738202    1.940352    0.749615
  H      0.500640   -1.789530    0.997935
  H      0.131517   -0.278189    1.843983
  H     -1.261037   -2.604288   -0.465231
  H      4.034549   -0.114351    1.237566
  H      2.419357   -0.116617    2.086448
  H      2.914921   -0.929364   -1.885376
  H      2.825981    0.826263   -1.906144
  H      4.195113    0.023739   -1.122251

 Total Charge           Charge          ....    0
 Multiplicity           Mult            ....    1
 Number of Electrons    NEL             ....   84
 Basis Dimension        Dim             ....  294

ORBITAL ENERGIES
----------------

  NO   OCC          E(Eh)            E(eV)
   0   2.0000     -18.948446      -515.6134
   1   2.0000     -10.083079      -274.3745
   2   2.0000     -10.036396      -273.1042
   3   2.0000     -10.033900      -273.0363
   4   2.0000     -10.031181      -272.9623
   5   2.0000     -10.030077      -272.9323
   6   2.0000     -10.026587      -272.8373
   7   2.0000     -10.023081      -272.7419
   8   2.0000     -10.022739      -272.7326
   9   2.0000     -10.018041      -272.6048
  10   2.0000     -10.008688      -272.3502
  11   2.0000      -0.986071       -26.8323
  12   2.0000      -0.812220       -22.1016
  13   2.0000      -0.769798       -20.9473
  14   2.0000      -0.719970       -19.5914
  15   2.0000      -0.703069       -19.1315
  16   2.0000      -0.652279       -17.7494
  17   2.0000      -0.642160       -17.4741
  18   2.0000      -0.589430       -16.0392
  19   2.0000      -0.572991       -15.5919
  20   2.0000      -0.499009       -13.5787
  21   2.0000      -0.485994       -13.2246
  22   2.0000      -0.462209       -12.5773
  23   2.0000      -0.447870       -12.1872
  24   2.0000      -0.421955       -11.4820
  25   2.0000      -0.411838       -11.2067
  26   2.0000      -0.397330       -10.8119
  27   2.0000      -0.392368       -10.6769
  28   2.0000      -0.385408       -10.4875
  29   2.0000      -0.378096       -10.2885
  30   2.0000      -0.369164       -10.0455
  31   2.0000      -0.368720       -10.0334
  32   2.0000      -0.338984        -9.2242
  33   2.0000      -0.337812        -9.1923
  34   2.0000      -0.325477        -8.8567
  35   2.0000      -0.315697        -8.5905
  36   2.0000      -0.300652        -8.1812
  37   2.0000      -0.288423        -7.8484
  38   2.0000      -0.271480        -7.3873
  39   2.0000      -0.237080        -6.4513
  40   2.0000      -0.222340        -6.0502
  41   2.0000      -0.217583        -5.9207
  42   0.0000      -0.013092        -0.3563
  43   0.0000      -0.002091        -0.0569
  44   0.0000       0.062787         1.7085
  45   0.0000       0.085546         2.3278
  46   0.0000       0.095494         2.5985

MULLIKEN ATOMIC CHARGES
-----------------------
   0 C :   -0.547059
   1 C :    0.085990
   2 C :   -0.208044
   3 C :   -0.323197
   4 C :   -0.077768
   5 H :    0.201230
   6 C :   -0.379950
   7 C :    0.032356
   8 H :    0.139497
   9 O :   -0.422391
  10 C :    0.108540
  11 C :   -0.387416
  12 C :   -0.532545
  13 H :    0.175442
  14 H :    0.148197
  15 H :    0.152627
  16 H :    0.150479
  17 H :    0.144843
  18 H :    0.179007
  19 H :    0.170647
  20 H :    0.159343
  21 H :    0.285336
  22 H :    0.141427
  23 H :    0.139630
  24 H :    0.163886
  25 H :    0.150909
  26 H :    0.148984
Sum of atomic charges:   -0.0000000

LOEWDIN ATOMIC CHARGES
----------------------
   0 C :   -0.386350
   1 C :   -0.093938
   2 C :   -0.177537
   3 C :   -0.260699
   4 C :   -0.198638
   5 H :    0.182850
   6 C :   -0.256055
   7 C :    0.078193
   8 H :    0.171456
   9 O :   -0.607385
  10 C :   -0.117355
  11 C :   -0.329891
  12 C :   -0.392126
  13 H :    0.170167
  14 H :    0.157465
  15 H :    0.159240
  16 H :    0.164117
  17 H :    0.164863
  18 H :    0.172595
  19 H :    0.165866
  20 H :    0.169347
  21 H :    0.267848
  22 H :    0.156604
  23 H :    0.158420
  24 H :    0.162330
  25 H :    0.160910
  26 H :    0.157706

  Mayer bond orders larger than 0.100000
B(  0-C ,  1-C ) :   0.8226 B(  0-C , 13-H ) :   0.9700 B(  0-C , 14-H ) :   0.9971
B(  0-C , 15-H ) :   0.9719 B(  1-C ,  2-C ) :   1.8701 B(  1-C ,  7-C ) :   0.9447
B(  2-C ,  3-C ) :   0.9450 B(  2-C , 16-H ) :   0.9230 B(  3-C ,  4-C ) :   0.9561
B(  3-C , 17-H ) :   0.9561 B(  3-C , 18-H ) :   0.9825 B(  4-C ,  5-H ) :   1.0175
B(  4-C ,  6-C ) :   0.8383 B(  4-C , 10-C ) :   0.8377 B(  6-C ,  7-C ) :   0.9499
B(  6-C , 19-H ) :   0.9865 B(  6-C , 20-H ) :   0.9740 B(  7-C ,  8-H ) :   0.9824
B(  7-C ,  9-O ) :   0.9508 B(  9-O , 21-H ) :   0.9026 B( 10-C , 11-C ) :   1.8519
B( 10-C , 12-C ) :   0.8964 B( 11-C , 22-H ) :   0.9684 B( 11-C , 23-H ) :   0.9841
B( 12-C , 24-H ) :   0.9781 B( 12-C , 25-H ) :   0.9656 B( 12-C , 26-H ) :   0.9892

Dispersion correction           -0.009551357
FINAL SINGLE POINT ENERGY      -465.757187607912

DIPOLE MOMENT
-------------

Method             : SCF
Type of density    : Electron Density
Multiplicity       :   1
Irrep              :   0
Energy             :  -465.7591632100875358 Eh
Relativity type    :
Basis              : AO
                                X                 Y                 Z
Electronic contribution:     -2.577321310      -1.515747617      -0.169784613
Nuclear contribution   :      2.675313350       1.362426144       0.410813229
                        -----------------------------------------
Total Dipole Moment    :      0.097992040      -0.153321473       0.241028616
                        -----------------------------------------
Magnitude (a.u.)       :      0.302001171
Magnitude (Debye)      :      0.767625974

Rotational constants in cm-1:             0.071589             0.022281             0.020356
Rotational constants in MHz :          2146.179858           667.953774           610.267224

                             ****ORCA TERMINATED NORMALLY****
TOTAL RUN TIME: 0 days 0 hours 0 minutes 43 seconds 467 msec
