                         Program Version 6.0.0  -   RELEASE  -
|  1> ! r2scan-3c def2/J RI DEFGRID2 scfconv6 printgap
|  2> %output
|  3>     printlevel normal
|  4> end
|  5> %cpcm
|  6>     smd true
|  7>     smdsolvent "water"
|  8> end
|  9> * xyz 0 1
| 10> C -3.4307663867 0.5797029925 0.0677625687
| 11> C -1.9368496046 0.486932741 0.1114546403
| 12> C -1.1352291984 1.5075535886 -0.1588012589
| 13> C 0.3598323355 1.4444469081 -0.1508796246
| 14> C 0.8560492007 -0.006411537 -0.1788877616
| 15> H 0.590977696 -0.4321067 -1.1534527306
| 16> C 0.0810787335 -0.7880834752 0.8816881906
| 17> C -1.3883472203 -0.8789182909 0.4614317962
| 18> H -1.9804948293 -1.2894162723 1.297431186
| 19> O -1.5684105162 -1.7130120411 -0.6774300836
| 20> C 2.3558585541 -0.0582777568 -0.0200486569
| 21> C 2.9605486404 -0.0979837087 1.1569374945
| 22> C 3.1256704885 -0.0312576681 -1.305922231
| 23> H -3.8200940116 -0.1832599437 -0.6047508729
| 24> H -3.7503972997 1.5582159855 -0.2786305875
| 25> H -3.8494598906 0.3996790576 1.0575085248
| 26> H -1.5624671105 2.472957326 -0.3959730886
| 27> H 0.7491225289 1.9952133906 -1.0100808041
| 28> H 0.738201765 1.9403518693 0.7496145272
| 29> H 0.5006398824 -1.7895297786 0.9979354602
| 30> H 0.1315168456 -0.2781888166 1.8439832489
| 31> H -1.2610368334 -2.6042877949 -0.4652308117
| 32> H 4.0345491058 -0.1143513329 1.2375655884
| 33> H 2.4193574922 -0.1166169559 2.0864484303
| 34> H 2.9149213931 -0.9293640342 -1.8853763646
| 35> H 2.8259805077 0.8262627617 -1.9061436596
| 36> H 4.1951133561 0.0237393689 -1.122251056
| 37> *
| 38>
| 39>                          ****END OF INPUT****

CARTESIAN COORDINATES (ANGSTROEM)
---------------------------------
  C     -3.430766    0.579703    0.067763
  C     -1.936850    0.486933    0.111455
  C     -1.135229    1.507554   -0.158801
  C      0.359832    1.444447   -0.150880
  C      0.856049   -0.006412   -0.178888
  H      0.590978   -0.432107   -1.153453
  C      0.081079   -0.788083    0.881688
  C     -1.388347   -0.878918    0.461432
  H     -1.980495   -1.289416    1.297431
  O     -1.568411   -1.713012   -0.677430
  C      2.355859   -0.058278   -0.020049
  C      2.960549   -0.097984    1.156937
  C      3.125670   -0.031258   -1.305922
  H     -3.820094   -0.183260   -0.604751
  H     -3.750397    1.558216   -0.278631
  H     -3.849460    0.399679    1.057509
  H     -1.562467    2.472957   -0.395973
  H      0.749123    1.995213   -1.010081
  H      0.738202    1.940352    0.749615
  H      0.500640   -1.789530    0.997935
  H      0.131517   -0.278189    1.843983
  H     -1.261037   -2.604288   -0.465231
  H      4.034549   -0.114351    1.237566
  H      2.419357   -0.116617    2.086448
  H      2.914921   -0.929364   -1.885376
  H      2.825981    0.826263   -1.906144
  H      4.195113    0.023739   -1.122251

 Total Charge           Charge          ....    0
 Multiplicity           Mult            ....    1
 Number of Electrons    NEL             ....   84
 Basis Dimension        Dim             ....  294

ORBITAL ENERGIES
----------------

  NO   OCC          E(Eh)            E(eV)
   0   2.0000     -18.949833      -515.6512
   1   2.0000     -10.078281      -274.2440
   2   2.0000     -10.036411      -273.1046
   3   2.0000     -10.029566      -272.9184
   4   2.0000     -10.028590      -272.8918
   5   2.0000     -10.025479      -272.8072
   6   2.0000     -10.021072      -272.6872
   7   2.0000     -10.018005      -272.6038
   8   2.0000     -10.014712      -272.5142
   9   2.0000     -10.014356      -272.5045
  10   2.0000     -10.004609      -272.2393
  11   2.0000      -0.986786       -26.8518
  12   2.0000      -0.808782       -22.0081
  13   2.0000      -0.767710       -20.8904
  14   2.0000      -0.716367       -19.4933
  15   2.0000      -0.697886       -18.9904
  16   2.0000      -0.647398       -17.6166
  17   2.0000      -0.639423       -17.3996
  18   2.0000      -0.585335       -15.9278
  19   2.0000      -0.568215       -15.4619
  20   2.0000      -0.494858       -13.4658
  21   2.0000      -0.482855       -13.1391
  22   2.0000      -0.458247       -12.4695
  23   2.0000      -0.443823       -12.0770
  24   2.0000      -0.416362       -11.3298
  25   2.0000      -0.409069       -11.1313
  26   2.0000      -0.392505       -10.6806
  27   2.0000      -0.387579       -10.5466
  28   2.0000      -0.380956       -10.3663
  29   2.0000      -0.373742       -10.1701
  30   2.0000      -0.364998        -9.9321
  31   2.0000      -0.364076        -9.9070
  32   2.0000      -0.335879        -9.1397
  33   2.0000      -0.332279        -9.0418
  34   2.0000      -0.322618        -8.7789
  35   2.0000      -0.313266        -8.5244
  36   2.0000      -0.296112        -8.0576
  37   2.0000      -0.284944        -7.7537
  38   2.0000      -0.267981        -7.2921
  39   2.0000      -0.238869        -6.5000
  40   2.0000      -0.222713        -6.0603
  41   2.0000      -0.217897        -5.9293
  42   0.0000      -0.012234        -0.3329
  43   0.0000      -0.001310        -0.0356
  44   0.0000       0.074167         2.0182
  45   0.0000       0.095738         2.6052
  46   0.0000       0.106147         2.8884

MULLIKEN ATOMIC CHARGES
-----------------------
   0 C :   -0.567836
   1 C :    0.029063
   2 C :   -0.241443
   3 C :   -0.344564
   4 C :   -0.034490
   5 H :    0.197927
   6 C :   -0.396094
   7 C :    0.062077
   8 H :    0.160171
   9 O :   -0.503586
  10 C :    0.068560
  11 C :   -0.460629
  12 C :   -0.567739
  13 H :    0.172944
  14 H :    0.167267
  15 H :    0.174099
  16 H :    0.175046
  17 H :    0.170002
  18 H :    0.189848
  19 H :    0.183430
  20 H :    0.178026
  21 H :    0.340985
  22 H :    0.165805
  23 H :    0.164766
  24 H :    0.180619
  25 H :    0.171246
  26 H :    0.164498
Sum of atomic charges:   -0.0000000

LOEWDIN ATOMIC CHARGES
----------------------
   0 C :   -0.394089
   1 C :   -0.108854
   2 C :   -0.185628
   3 C :   -0.263430
   4 C :   -0.199410
   5 H :    0.180420
   6 C :   -0.255249
   7 C :    0.080868
   8 H :    0.181537
   9 O :   -0.639922
  10 C :   -0.118048
  11 C :   -0.355919
  12 C :   -0.399509
  13 H :    0.168000
  14 H :    0.162955
  15 H :    0.166753
  16 H :    0.172144
  17 H :    0.171853
  18 H :    0.175841
  19 H :    0.172045
  20 H :    0.175250
  21 H :    0.287014
  22 H :    0.162434
  23 H :    0.164979
  24 H :    0.168280
  25 H :    0.168086
  26 H :    0.161598

  Mayer bond orders larger than 0.100000
B(  0-C ,  1-C ) :   0.8357 B(  0-C , 13-H ) :   0.9671 B(  0-C , 14-H ) :   0.9914
B(  0-C , 15-H ) :   0.9659 B(  1-C ,  2-C ) :   1.8626 B(  1-C ,  7-C ) :   0.9244
B(  2-C ,  3-C ) :   0.9250 B(  2-C , 16-H ) :   0.9322 B(  3-C ,  4-C ) :   0.9322
B(  3-C , 17-H ) :   0.9566 B(  3-C , 18-H ) :   0.9806 B(  4-C ,  5-H ) :   1.0153
B(  4-C ,  6-C ) :   0.8197 B(  4-C , 10-C ) :   0.8198 B(  6-C ,  7-C ) :   0.9490
B(  6-C , 19-H ) :   0.9773 B(  6-C , 20-H ) :   0.9742 B(  7-C ,  8-H ) :   0.9741
B(  7-C ,  9-O ) :   0.9332 B(  9-O , 21-H ) :   0.8765 B( 10-C , 11-C ) :   1.8398
B( 10-C , 12-C ) :   0.8996 B( 11-C , 22-H ) :   0.9691 B( 11-C , 23-H ) :   0.9828
B( 12-C , 24-H ) :   0.9713 B( 12-C , 25-H ) :   0.9596 B( 12-C , 26-H ) :   0.9845

Dispersion correction           -0.009551357
FINAL SINGLE POINT ENERGY      -465.764390749561

DIPOLE MOMENT
-------------

Method             : SCF
Type of density    : Electron Density
Multiplicity       :   1
Irrep              :   0
Energy             :  -465.7663663517371333 Eh
Relativity type    :
Basis              : AO
                                X                 Y                 Z
Electronic contribution:     -2.514893047      -1.567331769       0.018115277
Nuclear contribution   :      2.675313350       1.362426144       0.410813229
                        -----------------------------------------
Total Dipole Moment    :      0.160420303      -0.204905625       0.428928506
                        -----------------------------------------
Magnitude (a.u.)       :      0.501697769
Magnitude (Debye)      :      1.275214387

Rotational constants in cm-1:             0.071589             0.022281             0.020356
Rotational constants in MHz :          2146.179858           667.953774           610.267224

                             ****ORCA TERMINATED NORMALLY****
TOTAL RUN TIME: 0 days 0 hours 0 minutes 57 seconds 500 msec
