                         Program Version 6.0.0  -   RELEASE  -
|  1> ! pbe def2-sv(p) def2/J RI DEFGRID1 loosescf d4 GCP(DFT/SV(P)) printgap
|  2> %output
|  3>     printlevel normal
|  4> end
|  5> * xyz 0 1
|  6> C -1.2753747672 -0.9410479579 -0.1594077057
|  7> C -0.4097565788 0.3077880279 -0.3069351795
|  8> C -1.1324307768 1.5402367045 0.2283959844
|  9> C 0.9249573418 0.117036186 0.4188310956
| 10> O 1.6643549135 -0.9010660642 -0.227704033
| 11> H -0.7257510004 -1.8132548468 -0.5040704139
| 12> H -2.1843808017 -0.8451046949 -0.7472804632
| 13> H -1.548578394 -1.0900934742 0.883145768
| 14> H -0.1823813863 0.4514089028 -1.3684360262
| 15> H -1.3370092409 1.4257618293 1.2905965623
| 16> H -2.0766633842 1.6739247755 -0.2922108765
| 17> H -0.5299479725 2.434154312 0.0866768892
| 18> H 1.488352318 1.0604994704 0.3995615111
| 19> H 0.7350245155 -0.1548359822 1.4661946029
| 20> H 2.4949255374 -1.0417697568 0.2448136942
| 21> *
| 22>
| 23>                          ****END OF INPUT****

CARTESIAN COORDINATES (ANGSTROEM)
---------------------------------
  C     -1.275375   -0.941048   -0.159408
  C     -0.409757    0.307788   -0.306935
  C     -1.132431    1.540237    0.228396
  C      0.924957    0.117036    0.418831
  O      1.664355   -0.901066   -0.227704
  H     -0.725751   -1.813255   -0.504070
  H     -2.184381   -0.845105   -0.747280
  H     -1.548578   -1.090093    0.883146
  H     -0.182381    0.451409   -1.368436
  H     -1.337009    1.425762    1.290597
  H     -2.076663    1.673925   -0.292211
  H     -0.529948    2.434154    0.086677
  H      1.488352    1.060499    0.399562
  H      0.735025   -0.154836    1.466195
  H      2.494926   -1.041770    0.244814

 Total Charge           Charge          ....    0
 Multiplicity           Mult            ....    1
 Number of Electrons    NEL             ....   42
 Basis Dimension        Dim             ....   90

ORBITAL ENERGIES
----------------

  NO   OCC          E(Eh)            E(eV)
   0   2.0000     -18.738468      -509.8996
   1   2.0000      -9.924913      -270.0706
   2   2.0000      -9.889923      -269.1185
   3   2.0000      -9.872789      -268.6522
   4   2.0000      -9.864251      -268.4199
   5   2.0000      -0.914394       -24.8819
   6   2.0000      -0.717979       -19.5372
   7   2.0000      -0.606829       -16.5127
   8   2.0000      -0.597608       -16.2617
   9   2.0000      -0.495410       -13.4808
  10   2.0000      -0.458903       -12.4874
  11   2.0000      -0.417981       -11.3739
  12   2.0000      -0.389729       -10.6051
  13   2.0000      -0.371809       -10.1174
  14   2.0000      -0.342045        -9.3075
  15   2.0000      -0.332009        -9.0344
  16   2.0000      -0.310054        -8.4370
  17   2.0000      -0.290276        -7.8988
  18   2.0000      -0.285376        -7.7655
  19   2.0000      -0.264482        -7.1969
  20   2.0000      -0.210245        -5.7211
  21   0.0000       0.029693         0.8080
  22   0.0000       0.045439         1.2365
  23   0.0000       0.075629         2.0580
  24   0.0000       0.089020         2.4224
  25   0.0000       0.109239         2.9725

MULLIKEN ATOMIC CHARGES
-----------------------
   0 C :   -0.250395
   1 C :   -0.185665
   2 C :   -0.253226
   3 C :    0.026505
   4 O :   -0.432619
   5 H :    0.114599
   6 H :    0.096782
   7 H :    0.084810
   8 H :    0.080814
   9 H :    0.093364
  10 H :    0.103099
  11 H :    0.099147
  12 H :    0.066560
  13 H :    0.058801
  14 H :    0.297423
Sum of atomic charges:   -0.0000000

LOEWDIN ATOMIC CHARGES
----------------------
   0 C :   -0.332141
   1 C :   -0.169799
   2 C :   -0.329122
   3 C :   -0.114218
   4 O :   -0.348093
   5 H :    0.123367
   6 H :    0.116135
   7 H :    0.113086
   8 H :    0.119738
   9 H :    0.115923
  10 H :    0.120527
  11 H :    0.116340
  12 H :    0.091772
  13 H :    0.091597
  14 H :    0.284887

  Mayer bond orders larger than 0.100000
B(  0-C ,  1-C ) :   1.1104 B(  0-C ,  5-H ) :   0.9449 B(  0-C ,  6-H ) :   0.9536
B(  0-C ,  7-H ) :   0.9505 B(  1-C ,  2-C ) :   1.1014 B(  1-C ,  3-C ) :   1.0738
B(  1-C ,  8-H ) :   0.8994 B(  2-C ,  9-H ) :   0.9498 B(  2-C , 10-H ) :   0.9529
B(  2-C , 11-H ) :   0.9500 B(  3-C ,  4-O ) :   1.0867 B(  3-C , 12-H ) :   0.9265
B(  3-C , 13-H ) :   0.9150 B(  4-O , 14-H ) :   0.8526

Dispersion correction           -0.009666101
FINAL SINGLE POINT ENERGY      -233.088765319751

DIPOLE MOMENT
-------------

Method             : SCF
Type of density    : Electron Density
Multiplicity       :   1
Irrep              :   0
Energy             :  -233.1482332633064232 Eh
Relativity type    :
Basis              : AO
                                X                 Y                 Z
Electronic contribution:      3.890209891      -1.736617368      -0.940173595
Nuclear contribution   :     -3.602582019       1.957395868       1.365394895
                        -----------------------------------------
Total Dipole Moment    :      0.287627872       0.220778500       0.425221299
                        -----------------------------------------
Magnitude (a.u.)       :      0.558825637
Magnitude (Debye)      :      1.420421886

Rotational constants in cm-1:             0.255787             0.117148             0.089161
Rotational constants in MHz :          7668.294798          3512.021543          2672.967777

                             ****ORCA TERMINATED NORMALLY****
TOTAL RUN TIME: 0 days 0 hours 0 minutes 5 seconds 454 msec
