                         Program Version 6.0.0  -   RELEASE  -
|  1> ! pbe def2-sv(p) def2/J RI DEFGRID1 loosescf d4 GCP(DFT/SV(P)) printgap
|  2> %output
|  3>     printlevel normal
|  4> end
|  5> * xyz 0 1
|  6> C -2.0219988964 -1.4094905314 -0.154707307
|  7> C -1.0341118895 -0.4848721131 0.5868361856
|  8> H -1.4977560134 -0.1565724842 1.5268857791
|  9> C -0.6479102563 0.7528305915 -0.2380582217
| 10> H -0.5860186396 0.4909345515 -1.2997333115
| 11> C 0.7323645661 1.2541255255 0.2237628516
| 12> H 0.7120261435 1.3908735401 1.320616918
| 13> C 1.7894711866 0.1977321423 -0.1198071016
| 14> H 2.0411083452 0.287619169 -1.1811147658
| 15> C 1.2073851333 -1.2214339536 0.110678829
| 16> H 1.967698174 -1.8200165896 0.6311543004
| 17> O 0.116953999 -1.2180940437 1.0044907353
| 18> O 0.8805516506 -1.7693391222 -1.124936788
| 19> O 2.9948174541 0.3774716892 0.5707534657
| 20> O 1.0557726275 2.4764518168 -0.3863814414
| 21> O -1.5925446854 1.7866689943 -0.1649385634
| 22> O -3.3013879869 -0.8512737922 -0.2925004145
| 23> H -2.0593139753 -2.3638649781 0.3856336358
| 24> H -1.6591610161 -1.5897662336 -1.1687486111
| 25> H 0.7838738964 -2.7315831263 -1.057011994
| 26> H 2.8235019237 0.4938846433 1.5173061511
| 27> H 0.2248777843 2.9201478093 -0.6301607922
| 28> H -1.7602281344 2.0192757981 0.7611869718
| 29> H -3.7380951137 -0.8125119078 0.5701276053
| 30> *
| 31>
| 32>                          ****END OF INPUT****

CARTESIAN COORDINATES (ANGSTROEM)
---------------------------------
  C     -2.021999   -1.409491   -0.154707
  C     -1.034112   -0.484872    0.586836
  H     -1.497756   -0.156572    1.526886
  C     -0.647910    0.752831   -0.238058
  H     -0.586019    0.490935   -1.299733
  C      0.732365    1.254126    0.223763
  H      0.712026    1.390874    1.320617
  C      1.789471    0.197732   -0.119807
  H      2.041108    0.287619   -1.181115
  C      1.207385   -1.221434    0.110679
  H      1.967698   -1.820017    0.631154
  O      0.116954   -1.218094    1.004491
  O      0.880552   -1.769339   -1.124937
  O      2.994817    0.377472    0.570753
  O      1.055773    2.476452   -0.386381
  O     -1.592545    1.786669   -0.164939
  O     -3.301388   -0.851274   -0.292500
  H     -2.059314   -2.363865    0.385634
  H     -1.659161   -1.589766   -1.168749
  H      0.783874   -2.731583   -1.057012
  H      2.823502    0.493885    1.517306
  H      0.224878    2.920148   -0.630161
  H     -1.760228    2.019276    0.761187
  H     -3.738095   -0.812512    0.570128

 Total Charge           Charge          ....    0
 Multiplicity           Mult            ....    1
 Number of Electrons    NEL             ....   96
 Basis Dimension        Dim             ....  192

ORBITAL ENERGIES
----------------

  NO   OCC          E(Eh)            E(eV)
   0   2.0000     -18.774534      -510.8811
   1   2.0000     -18.771944      -510.8106
   2   2.0000     -18.770007      -510.7578
   3   2.0000     -18.752638      -510.2852
   4   2.0000     -18.747619      -510.1487
   5   2.0000     -18.740981      -509.9680
   6   2.0000      -9.986780      -271.7541
   7   2.0000      -9.951372      -270.7906
   8   2.0000      -9.948898      -270.7233
   9   2.0000      -9.941716      -270.5278
  10   2.0000      -9.937371      -270.4096
  11   2.0000      -9.932832      -270.2861
  12   2.0000      -0.986182       -26.8354
  13   2.0000      -0.954025       -25.9603
  14   2.0000      -0.931133       -25.3374
  15   2.0000      -0.928152       -25.2563
  16   2.0000      -0.918627       -24.9971
  17   2.0000      -0.910749       -24.7827
  18   2.0000      -0.705323       -19.1928
  19   2.0000      -0.692577       -18.8460
  20   2.0000      -0.619096       -16.8465
  21   2.0000      -0.592513       -16.1231
  22   2.0000      -0.570067       -15.5123
  23   2.0000      -0.534474       -14.5438
  24   2.0000      -0.508286       -13.8312
  25   2.0000      -0.490947       -13.3593
  26   2.0000      -0.472681       -12.8623
  27   2.0000      -0.464224       -12.6322
  28   2.0000      -0.448563       -12.2060
  29   2.0000      -0.433643       -11.8000
  30   2.0000      -0.417623       -11.3641
  31   2.0000      -0.397703       -10.8220
  32   2.0000      -0.381460       -10.3801
  33   2.0000      -0.376040       -10.2326
  34   2.0000      -0.364311        -9.9134
  35   2.0000      -0.353394        -9.6163
  36   2.0000      -0.338850        -9.2206
  37   2.0000      -0.309785        -8.4297
  38   2.0000      -0.297391        -8.0924
  39   2.0000      -0.291545        -7.9333
  40   2.0000      -0.283884        -7.7249
  41   2.0000      -0.273437        -7.4406
  42   2.0000      -0.269171        -7.3245
  43   2.0000      -0.243939        -6.6379
  44   2.0000      -0.240366        -6.5407
  45   2.0000      -0.225635        -6.1398
  46   2.0000      -0.211284        -5.7493
  47   2.0000      -0.199717        -5.4346
  48   0.0000       0.006340         0.1725
  49   0.0000       0.015719         0.4277
  50   0.0000       0.025543         0.6951
  51   0.0000       0.032643         0.8883
  52   0.0000       0.047430         1.2906

MULLIKEN ATOMIC CHARGES
-----------------------
   0 C :    0.049326
   1 C :    0.061041
   2 H :    0.036515
   3 C :   -0.010433
   4 H :    0.088139
   5 C :    0.054225
   6 H :    0.018811
   7 C :    0.109323
   8 H :    0.082430
   9 C :    0.141329
  10 H :    0.064787
  11 O :   -0.321193
  12 O :   -0.389654
  13 O :   -0.410529
  14 O :   -0.406429
  15 O :   -0.401266
  16 O :   -0.423660
  17 H :    0.072419
  18 H :    0.090519
  19 H :    0.309719
  20 H :    0.297398
  21 H :    0.297433
  22 H :    0.296749
  23 H :    0.293003
Sum of atomic charges:    0.0000000

LOEWDIN ATOMIC CHARGES
----------------------
   0 C :   -0.138666
   1 C :   -0.074089
   2 H :    0.101818
   3 C :   -0.083761
   4 H :    0.127046
   5 C :   -0.079558
   6 H :    0.088288
   7 C :   -0.073976
   8 H :    0.129165
   9 C :   -0.012728
  10 H :    0.100430
  11 O :   -0.154476
  12 O :   -0.301596
  13 O :   -0.305748
  14 O :   -0.320575
  15 O :   -0.296317
  16 O :   -0.328041
  17 H :    0.093854
  18 H :    0.115479
  19 H :    0.290262
  20 H :    0.282286
  21 H :    0.276946
  22 H :    0.282167
  23 H :    0.281789

  Mayer bond orders larger than 0.100000
B(  0-C ,  1-C ) :   1.0367 B(  0-C , 16-O ) :   1.0805 B(  0-C , 17-H ) :   0.9200
B(  0-C , 18-H ) :   0.9088 B(  1-C ,  2-H ) :   0.8822 B(  1-C ,  3-C ) :   0.9606
B(  1-C , 11-O ) :   0.9808 B(  3-C ,  4-H ) :   0.8751 B(  3-C ,  5-C ) :   1.0220
B(  3-C , 15-O ) :   1.0259 B(  5-C ,  6-H ) :   0.8446 B(  5-C ,  7-C ) :   1.0172
B(  5-C , 14-O ) :   1.1306 B(  7-C ,  8-H ) :   0.8673 B(  7-C ,  9-C ) :   0.9632
B(  7-C , 13-O ) :   1.0564 B(  9-C , 10-H ) :   0.8981 B(  9-C , 11-O ) :   1.0586
B(  9-C , 12-O ) :   1.1075 B( 12-O , 19-H ) :   0.8345 B( 13-O , 20-H ) :   0.8488
B( 14-O , 21-H ) :   0.8206 B( 15-O , 22-H ) :   0.8438 B( 16-O , 23-H ) :   0.8529

Dispersion correction           -0.024518665
FINAL SINGLE POINT ENERGY      -685.685306220298

DIPOLE MOMENT
-------------

Method             : SCF
Type of density    : Electron Density
Multiplicity       :   1
Irrep              :   0
Energy             :  -685.8152082559190603 Eh
Relativity type    :
Basis              : AO
                                X                 Y                 Z
Electronic contribution:      1.824337440       1.067095675      -0.032776894
Nuclear contribution   :     -2.575326004      -1.743980723       1.285225501
                        -----------------------------------------
Total Dipole Moment    :     -0.750988565      -0.676885048       1.252448608
                        -----------------------------------------
Magnitude (a.u.)       :      1.609591472
Magnitude (Debye)      :      4.091256384

Rotational constants in cm-1:             0.043523             0.026017             0.018599
Rotational constants in MHz :          1304.785098           779.955257           557.574335

                             ****ORCA TERMINATED NORMALLY****
TOTAL RUN TIME: 0 days 0 hours 0 minutes 11 seconds 905 msec
