                         Program Version 6.0.0  -   RELEASE  -
|  1> ! pbe def2-sv(p) def2/J RI DEFGRID1 loosescf d4 GCP(DFT/SV(P)) printgap
|  2> %output
|  3>     printlevel normal
|  4> end
|  5> * xyz 0 1
|  6> C -2.2452626911 -0.9756387574 -0.3696093372
|  7> C -1.1438427921 -0.2329986973 0.3964625686
|  8> H -1.5869458477 0.1872971228 1.3087908155
|  9> C -0.5579247733 0.909466108 -0.452511185
| 10> H -0.3710245266 0.5600242101 -1.4736669243
| 11> C 0.7780536607 1.3211360289 0.1810324494
| 12> H 0.6115531178 1.5007471875 1.2587310372
| 13> C 1.7725831539 0.157713682 0.0209682736
| 14> H 2.2225997549 0.2203147149 -0.975291606
| 15> C 1.0455955957 -1.204581298 0.1067338851
| 16> H 1.6796603224 -1.8984809519 0.6772153201
| 17> O -0.1391014442 -1.1381606014 0.8634653259
| 18> O 0.8302543262 -1.663969327 -1.1898302675
| 19> O 2.8372095686 0.2514306662 0.9307046567
| 20> O 1.2436602171 2.4965062988 -0.4290787878
| 21> O -1.4709944055 1.9613226949 -0.5796474935
| 22> O -2.9900986209 -1.8320152368 0.4602665755
| 23> H -1.7970847807 -1.5292497236 -1.2039304747
| 24> H -2.9458783641 -0.2395870228 -0.7687198381
| 25> H 0.6417918016 -2.6148532468 -1.1907618195
| 26> H 2.508133987 0.1712798149 1.8387041812
| 27> H 2.1485735922 2.6723685243 -0.1314423285
| 28> H -1.4896021724 2.4879860789 0.2329355672
| 29> H -2.3770648815 -2.4134491583 0.9337558255
| 30> *
| 31>
| 32>                          ****END OF INPUT****

CARTESIAN COORDINATES (ANGSTROEM)
---------------------------------
  C     -2.245263   -0.975639   -0.369609
  C     -1.143843   -0.232999    0.396463
  H     -1.586946    0.187297    1.308791
  C     -0.557925    0.909466   -0.452511
  H     -0.371025    0.560024   -1.473667
  C      0.778054    1.321136    0.181032
  H      0.611553    1.500747    1.258731
  C      1.772583    0.157714    0.020968
  H      2.222600    0.220315   -0.975292
  C      1.045596   -1.204581    0.106734
  H      1.679660   -1.898481    0.677215
  O     -0.139101   -1.138161    0.863465
  O      0.830254   -1.663969   -1.189830
  O      2.837210    0.251431    0.930705
  O      1.243660    2.496506   -0.429079
  O     -1.470994    1.961323   -0.579647
  O     -2.990099   -1.832015    0.460267
  H     -1.797085   -1.529250   -1.203930
  H     -2.945878   -0.239587   -0.768720
  H      0.641792   -2.614853   -1.190762
  H      2.508134    0.171280    1.838704
  H      2.148574    2.672369   -0.131442
  H     -1.489602    2.487986    0.232936
  H     -2.377065   -2.413449    0.933756

 Total Charge           Charge          ....    0
 Multiplicity           Mult            ....    1
 Number of Electrons    NEL             ....   96
 Basis Dimension        Dim             ....  192

ORBITAL ENERGIES
----------------

  NO   OCC          E(Eh)            E(eV)
   0   2.0000     -18.778254      -510.9823
   1   2.0000     -18.775949      -510.9195
   2   2.0000     -18.766758      -510.6694
   3   2.0000     -18.753913      -510.3199
   4   2.0000     -18.752359      -510.2776
   5   2.0000     -18.740432      -509.9531
   6   2.0000      -9.995284      -271.9855
   7   2.0000      -9.948909      -270.7236
   8   2.0000      -9.948130      -270.7024
   9   2.0000      -9.944252      -270.5969
  10   2.0000      -9.942524      -270.5498
  11   2.0000      -9.923257      -270.0256
  12   2.0000      -0.989780       -26.9333
  13   2.0000      -0.949793       -25.8452
  14   2.0000      -0.938614       -25.5410
  15   2.0000      -0.926796       -25.2194
  16   2.0000      -0.919365       -25.0172
  17   2.0000      -0.912055       -24.8183
  18   2.0000      -0.708287       -19.2735
  19   2.0000      -0.694949       -18.9105
  20   2.0000      -0.621782       -16.9195
  21   2.0000      -0.590806       -16.0767
  22   2.0000      -0.567893       -15.4532
  23   2.0000      -0.537546       -14.6274
  24   2.0000      -0.511824       -13.9274
  25   2.0000      -0.497064       -13.5258
  26   2.0000      -0.467752       -12.7282
  27   2.0000      -0.460502       -12.5309
  28   2.0000      -0.453556       -12.3419
  29   2.0000      -0.436379       -11.8745
  30   2.0000      -0.416037       -11.3209
  31   2.0000      -0.395972       -10.7750
  32   2.0000      -0.382709       -10.4140
  33   2.0000      -0.376230       -10.2377
  34   2.0000      -0.365290        -9.9400
  35   2.0000      -0.353696        -9.6246
  36   2.0000      -0.335505        -9.1296
  37   2.0000      -0.316590        -8.6148
  38   2.0000      -0.307292        -8.3618
  39   2.0000      -0.291112        -7.9216
  40   2.0000      -0.286572        -7.7980
  41   2.0000      -0.277198        -7.5429
  42   2.0000      -0.262014        -7.1298
  43   2.0000      -0.243743        -6.6326
  44   2.0000      -0.242221        -6.5912
  45   2.0000      -0.222807        -6.0629
  46   2.0000      -0.216032        -5.8785
  47   2.0000      -0.202211        -5.5024
  48   0.0000       0.007318         0.1991
  49   0.0000       0.015195         0.4135
  50   0.0000       0.026776         0.7286
  51   0.0000       0.042498         1.1564
  52   0.0000       0.051296         1.3958

MULLIKEN ATOMIC CHARGES
-----------------------
   0 C :    0.085206
   1 C :    0.029775
   2 H :    0.053118
   3 C :    0.027156
   4 H :    0.085026
   5 C :    0.054151
   6 H :    0.022489
   7 C :    0.060247
   8 H :    0.088022
   9 C :    0.145098
  10 H :    0.063371
  11 O :   -0.332250
  12 O :   -0.387890
  13 O :   -0.420081
  14 O :   -0.399609
  15 O :   -0.398238
  16 O :   -0.435558
  17 H :    0.060331
  18 H :    0.092607
  19 H :    0.309176
  20 H :    0.300906
  21 H :    0.304175
  22 H :    0.300591
  23 H :    0.292182
Sum of atomic charges:    0.0000000

LOEWDIN ATOMIC CHARGES
----------------------
   0 C :   -0.134167
   1 C :   -0.077803
   2 H :    0.108871
   3 C :   -0.072968
   4 H :    0.125015
   5 C :   -0.079468
   6 H :    0.090198
   7 C :   -0.087431
   8 H :    0.129300
   9 C :   -0.013149
  10 H :    0.098685
  11 O :   -0.161567
  12 O :   -0.303413
  13 O :   -0.311517
  14 O :   -0.315859
  15 O :   -0.297471
  16 O :   -0.339853
  17 H :    0.094945
  18 H :    0.121190
  19 H :    0.290019
  20 H :    0.284351
  21 H :    0.287686
  22 H :    0.286841
  23 H :    0.277564

  Mayer bond orders larger than 0.100000
B(  0-C ,  1-C ) :   1.0766 B(  0-C , 16-O ) :   1.0698 B(  0-C , 17-H ) :   0.9018
B(  0-C , 18-H ) :   0.9085 B(  1-C ,  2-H ) :   0.8748 B(  1-C ,  3-C ) :   0.9428
B(  1-C , 11-O ) :   0.9406 B(  3-C ,  4-H ) :   0.8760 B(  3-C ,  5-C ) :   1.0210
B(  3-C , 15-O ) :   1.0508 B(  5-C ,  6-H ) :   0.8504 B(  5-C ,  7-C ) :   1.0276
B(  5-C , 14-O ) :   1.1155 B(  7-C ,  8-H ) :   0.8641 B(  7-C ,  9-C ) :   0.9843
B(  7-C , 13-O ) :   1.0318 B(  9-C , 10-H ) :   0.8988 B(  9-C , 11-O ) :   1.0755
B(  9-C , 12-O ) :   1.1091 B( 12-O , 19-H ) :   0.8337 B( 13-O , 20-H ) :   0.8471
B( 14-O , 21-H ) :   0.8413 B( 15-O , 22-H ) :   0.8464 B( 16-O , 23-H ) :   0.8477

Dispersion correction           -0.024378440
FINAL SINGLE POINT ENERGY      -685.689168330847

DIPOLE MOMENT
-------------

Method             : SCF
Type of density    : Electron Density
Multiplicity       :   1
Irrep              :   0
Energy             :  -685.8187116066640101 Eh
Relativity type    :
Basis              : AO
                                X                 Y                 Z
Electronic contribution:      1.544688779       0.344098237       0.474909846
Nuclear contribution   :     -0.703982365      -0.839114673       0.475841899
                        -----------------------------------------
Total Dipole Moment    :      0.840706415      -0.495016437       0.950751744
                        -----------------------------------------
Magnitude (a.u.)       :      1.362261879
Magnitude (Debye)      :      3.462594520

Rotational constants in cm-1:             0.042671             0.025445             0.018639
Rotational constants in MHz :          1279.235428           762.834942           558.777380

                             ****ORCA TERMINATED NORMALLY****
TOTAL RUN TIME: 0 days 0 hours 0 minutes 11 seconds 722 msec
