                         Program Version 6.0.0  -   RELEASE  -
|  1> ! wb97x-v def2-tzvp def2/J RIJCOSX DEFGRID2 scfconv7 GCP(DFT/TZ) printgap
|  2> %output
|  3>     printlevel normal
|  4> end
|  5> * xyz 0 1
|  6> C -2.35111835776269 1.3901446408608827e-05 0.0006021433844199628
|  7> C -1.6531113890423401 -1.205000724291382 0.00013456684273674394
|  8> C -0.2600051133686488 -1.2160195647724255 -0.0002651388168370758
|  9> C 0.41150403112048944 -1.6458046873043598e-05 -0.00011014271762241397
| 10> C -0.2599780618750533 1.216001712091005 0.00041215891236689236
| 11> C -1.6530857096048246 1.2050144477277946 0.0007329738490673742
| 12> Cl 2.1772888389192833 -3.7638648771269943e-05 -0.00039200781368809606
| 13> H -3.435949165448499 2.370187075079391e-05 0.0009170407706937708
| 14> H -2.1894864000789327 -2.148444027564927 0.00011216454800753093
| 15> H 0.2878898441049154 -2.1513445374648157 -0.0006116923647599728
| 16> H 0.2879389341828269 2.1513142429871883 0.0006179406003063483
| 17> H -2.1894401515590163 2.148467473764444 0.0011830596711617997
| 18> *
| 19>
| 20>                          ****END OF INPUT****

CARTESIAN COORDINATES (ANGSTROEM)
---------------------------------
  C     -2.351118    0.000014    0.000602
  C     -1.653111   -1.205001    0.000135
  C     -0.260005   -1.216020   -0.000265
  C      0.411504   -0.000016   -0.000110
  C     -0.259978    1.216002    0.000412
  C     -1.653086    1.205014    0.000733
  Cl     2.177289   -0.000038   -0.000392
  H     -3.435949    0.000024    0.000917
  H     -2.189486   -2.148444    0.000112
  H      0.287890   -2.151345   -0.000612
  H      0.287939    2.151314    0.000618
  H     -2.189440    2.148467    0.001183

 Total Charge           Charge          ....    0
 Multiplicity           Mult            ....    1
 Number of Electrons    NEL             ....   58
 Basis Dimension        Dim             ....  253

ORBITAL ENERGIES
----------------

  NO   OCC          E(Eh)            E(eV)
   0   2.0000    -107.142622     -2915.4990
   1   2.0000     -12.120169      -329.8066
   2   2.0000     -12.068995      -328.4141
   3   2.0000     -12.068555      -328.4021
   4   2.0000     -12.066986      -328.3594
   5   2.0000     -12.066681      -328.3511
   6   2.0000     -12.063027      -328.2516
   7   2.0000     -11.295739      -307.3727
   8   2.0000      -9.087213      -247.2756
   9   2.0000      -9.084644      -247.2057
  10   2.0000      -9.084608      -247.2048
  11   2.0000      -1.431659       -38.9574
  12   2.0000      -1.379451       -37.5368
  13   2.0000      -1.292119       -35.1603
  14   2.0000      -1.276413       -34.7330
  15   2.0000      -1.127857       -30.6906
  16   2.0000      -1.112239       -30.2656
  17   2.0000      -0.983326       -26.7576
  18   2.0000      -0.973157       -26.4810
  19   2.0000      -0.937612       -25.5137
  20   2.0000      -0.902117       -24.5478
  21   2.0000      -0.892868       -24.2962
  22   2.0000      -0.836633       -22.7659
  23   2.0000      -0.831275       -22.6201
  24   2.0000      -0.824894       -22.4465
  25   2.0000      -0.787800       -21.4371
  26   2.0000      -0.771825       -21.0024
  27   2.0000      -0.654699       -17.8153
  28   2.0000      -0.654630       -17.8134
  29   0.0000      -0.265267        -7.2183
  30   0.0000      -0.259939        -7.0733
  31   0.0000      -0.251981        -6.8567
  32   0.0000      -0.084861        -2.3092
  33   0.0000      -0.031576        -0.8592

MULLIKEN ATOMIC CHARGES
-----------------------
   0 C :   -0.123604
   1 C :   -0.106611
   2 C :   -0.175283
   3 C :    0.147310
   4 C :   -0.175224
   5 C :   -0.106641
   6 Cl:   -0.105810
   7 H :    0.124089
   8 H :    0.125395
   9 H :    0.135483
  10 H :    0.135498
  11 H :    0.125397
Sum of atomic charges:   -0.0000000

LOEWDIN ATOMIC CHARGES
----------------------
   0 C :   -0.139364
   1 C :   -0.130714
   2 C :   -0.141307
   3 C :   -0.401275
   4 C :   -0.141306
   5 C :   -0.130714
   6 Cl:    0.356912
   7 H :    0.143466
   8 H :    0.144780
   9 H :    0.147371
  10 H :    0.147371
  11 H :    0.144780

  Mayer bond orders larger than 0.100000
B(  0-C ,  1-C ) :   1.4292 B(  0-C ,  5-C ) :   1.4292 B(  0-C ,  7-H ) :   0.9692
B(  1-C ,  2-C ) :   1.4131 B(  1-C ,  8-H ) :   0.9672 B(  2-C ,  3-C ) :   1.3991
B(  2-C ,  9-H ) :   0.9651 B(  3-C ,  4-C ) :   1.3991 B(  3-C ,  6-Cl) :   0.9805
B(  4-C ,  5-C ) :   1.4131 B(  4-C , 10-H ) :   0.9651 B(  5-C , 11-H ) :   0.9671

FINAL SINGLE POINT ENERGY      -691.801650323578

DIPOLE MOMENT
-------------

Method             : SCF
Type of density    : Electron Density
Multiplicity       :   1
Irrep              :   0
Energy             :  -691.8073780256781902 Eh
Relativity type    :
Basis              : AO
                                X                 Y                 Z
Electronic contribution:      8.994763932      -0.000099733      -0.002165495
Nuclear contribution   :     -9.732961375       0.000107913       0.002416107
                        -----------------------------------------
Total Dipole Moment    :     -0.738197443       0.000008180       0.000250612
                        -----------------------------------------
Magnitude (a.u.)       :      0.738197485
Magnitude (Debye)      :      1.876348892

Rotational constants in cm-1:             0.189331             0.051791             0.040667
Rotational constants in MHz :          5676.000725          1552.657518          1219.159201

                             ****ORCA TERMINATED NORMALLY****
TOTAL RUN TIME: 0 days 0 hours 1 minutes 47 seconds 184 msec
