                         Program Version 6.0.0  -   RELEASE  -
|  1> ! wb97x-v def2-tzvp def2/J RIJCOSX DEFGRID2 scfconv7 GCP(DFT/TZ) printgap
|  2> %output
|  3>     printlevel normal
|  4> end
|  5> %cpcm
|  6>     smd true
|  7>     smdsolvent "water"
|  8> end
|  9> * xyz 0 1
| 10> C -2.35111835776269 1.3901446408608827e-05 0.0006021433844199628
| 11> C -1.6531113890423401 -1.205000724291382 0.00013456684273674394
| 12> C -0.2600051133686488 -1.2160195647724255 -0.0002651388168370758
| 13> C 0.41150403112048944 -1.6458046873043598e-05 -0.00011014271762241397
| 14> C -0.2599780618750533 1.216001712091005 0.00041215891236689236
| 15> C -1.6530857096048246 1.2050144477277946 0.0007329738490673742
| 16> Cl 2.1772888389192833 -3.7638648771269943e-05 -0.00039200781368809606
| 17> H -3.435949165448499 2.370187075079391e-05 0.0009170407706937708
| 18> H -2.1894864000789327 -2.148444027564927 0.00011216454800753093
| 19> H 0.2878898441049154 -2.1513445374648157 -0.0006116923647599728
| 20> H 0.2879389341828269 2.1513142429871883 0.0006179406003063483
| 21> H -2.1894401515590163 2.148467473764444 0.0011830596711617997
| 22> *
| 23>
| 24>                          ****END OF INPUT****

CARTESIAN COORDINATES (ANGSTROEM)
---------------------------------
  C     -2.351118    0.000014    0.000602
  C     -1.653111   -1.205001    0.000135
  C     -0.260005   -1.216020   -0.000265
  C      0.411504   -0.000016   -0.000110
  C     -0.259978    1.216002    0.000412
  C     -1.653086    1.205014    0.000733
  Cl     2.177289   -0.000038   -0.000392
  H     -3.435949    0.000024    0.000917
  H     -2.189486   -2.148444    0.000112
  H      0.287890   -2.151345   -0.000612
  H      0.287939    2.151314    0.000618
  H     -2.189440    2.148467    0.001183

 Total Charge           Charge          ....    0
 Multiplicity           Mult            ....    1
 Number of Electrons    NEL             ....   58
 Basis Dimension        Dim             ....  253

ORBITAL ENERGIES
----------------

  NO   OCC          E(Eh)            E(eV)
   0   2.0000    -107.146142     -2915.5948
   1   2.0000     -12.116999      -329.7203
   2   2.0000     -12.062045      -328.2249
   3   2.0000     -12.061575      -328.2121
   4   2.0000     -12.058672      -328.1332
   5   2.0000     -12.058336      -328.1240
   6   2.0000     -12.054306      -328.0143
   7   2.0000     -11.299355      -307.4711
   8   2.0000      -9.090810      -247.3735
   9   2.0000      -9.088307      -247.3054
  10   2.0000      -9.088273      -247.3045
  11   2.0000      -1.431876       -38.9633
  12   2.0000      -1.376418       -37.4542
  13   2.0000      -1.285457       -34.9791
  14   2.0000      -1.271609       -34.6022
  15   2.0000      -1.120902       -30.5013
  16   2.0000      -1.105732       -30.0885
  17   2.0000      -0.976828       -26.5808
  18   2.0000      -0.966697       -26.3052
  19   2.0000      -0.931368       -25.3438
  20   2.0000      -0.894944       -24.3527
  21   2.0000      -0.883743       -24.0479
  22   2.0000      -0.828134       -22.5347
  23   2.0000      -0.826715       -22.4961
  24   2.0000      -0.822887       -22.3919
  25   2.0000      -0.790255       -21.5039
  26   2.0000      -0.769912       -20.9504
  27   2.0000      -0.651002       -17.7147
  28   2.0000      -0.648939       -17.6585
  29   0.0000      -0.265578        -7.2268
  30   0.0000      -0.255453        -6.9512
  31   0.0000      -0.246014        -6.6944
  32   0.0000      -0.078860        -2.1459
  33   0.0000      -0.015161        -0.4125

MULLIKEN ATOMIC CHARGES
-----------------------
   0 C :   -0.159561
   1 C :   -0.149585
   2 C :   -0.208368
   3 C :    0.156050
   4 C :   -0.208310
   5 C :   -0.149612
   6 Cl:   -0.126210
   7 H :    0.166558
   8 H :    0.168154
   9 H :    0.171357
  10 H :    0.171372
  11 H :    0.168156
Sum of atomic charges:   -0.0000000

LOEWDIN ATOMIC CHARGES
----------------------
   0 C :   -0.141788
   1 C :   -0.133668
   2 C :   -0.146546
   3 C :   -0.413719
   4 C :   -0.146545
   5 C :   -0.133667
   6 Cl:    0.339036
   7 H :    0.153673
   8 H :    0.155411
   9 H :    0.156201
  10 H :    0.156200
  11 H :    0.155411

  Mayer bond orders larger than 0.100000
B(  0-C ,  1-C ) :   1.4063 B(  0-C ,  5-C ) :   1.4063 B(  0-C ,  7-H ) :   0.9701
B(  1-C ,  2-C ) :   1.4039 B(  1-C ,  8-H ) :   0.9682 B(  2-C ,  3-C ) :   1.3667
B(  2-C ,  9-H ) :   0.9695 B(  3-C ,  4-C ) :   1.3668 B(  3-C ,  6-Cl) :   0.9720
B(  4-C ,  5-C ) :   1.4039 B(  4-C , 10-H ) :   0.9695 B(  5-C , 11-H ) :   0.9682

FINAL SINGLE POINT ENERGY      -691.803906943693

DIPOLE MOMENT
-------------

Method             : SCF
Type of density    : Electron Density
Multiplicity       :   1
Irrep              :   0
Energy             :  -691.8096346457933805 Eh
Relativity type    :
Basis              : AO
                                X                 Y                 Z
Electronic contribution:      8.725226016      -0.000096554      -0.002071859
Nuclear contribution   :     -9.732961375       0.000107913       0.002416107
                        -----------------------------------------
Total Dipole Moment    :     -1.007735359       0.000011359       0.000344248
                        -----------------------------------------
Magnitude (a.u.)       :      1.007735417
Magnitude (Debye)      :      2.561459869

Rotational constants in cm-1:             0.189331             0.051791             0.040667
Rotational constants in MHz :          5676.000725          1552.657518          1219.159201

                             ****ORCA TERMINATED NORMALLY****
TOTAL RUN TIME: 0 days 0 hours 1 minutes 48 seconds 378 msec
