                         Program Version 6.0.0  -   RELEASE  -
|  1> ! pbe def2-sv(p) def2/J RI DEFGRID1 loosescf d4 GCP(DFT/SV(P)) printgap
|  2> %output
|  3>     printlevel normal
|  4> end
|  5> * xyz 0 1
|  6> C -1.6780857433 -1.3218581217 -0.5879218739
|  7> C -1.1452263338 -0.4945314471 0.5999397949
|  8> H -1.8996806978 -0.4973531827 1.3954075882
|  9> C -0.8774188517 0.9816732994 0.2129362036
| 10> H -1.2689637882 1.1688709505 -0.7928101586
| 11> C 0.6296143939 1.2685571199 0.2052670747
| 12> H 0.9846113664 1.3809842181 1.2443596996
| 13> C 1.381309239 0.0862967036 -0.418412899
| 14> H 0.9822095806 -0.1013308414 -1.4239693739
| 15> C 1.1646779621 -1.1656746742 0.4501823358
| 16> H 1.9660689056 -1.209077811 1.2050876223
| 17> O -0.0169544568 -1.1096977599 1.2108140024
| 18> O 1.2091653877 -2.2800083347 -0.3865671079
| 19> O 2.7407397838 0.4379699303 -0.4828537395
| 20> O 0.8605990571 2.4513758549 -0.5111922607
| 21> O -1.58220597 1.8683734787 1.0432258406
| 22> O -2.7828886619 -0.723057624 -1.2112644057
| 23> H -1.9225166592 -2.3293186354 -0.2283241164
| 24> H -0.9109999135 -1.4100307161 -1.3593734246
| 25> H 1.1765622877 -3.09599302 0.1356409124
| 26> H 3.2263005985 -0.2179045874 -1.0026229817
| 27> H 1.8173375332 2.5373259683 -0.6494817146
| 28> H -1.1736065523 1.8953188279 1.9209677617
| 29> H -3.5207265095 -0.6667391161 -0.5875244375
| 30> *
| 31>
| 32>                          ****END OF INPUT****

CARTESIAN COORDINATES (ANGSTROEM)
---------------------------------
  C     -1.678086   -1.321858   -0.587922
  C     -1.145226   -0.494531    0.599940
  H     -1.899681   -0.497353    1.395408
  C     -0.877419    0.981673    0.212936
  H     -1.268964    1.168871   -0.792810
  C      0.629614    1.268557    0.205267
  H      0.984611    1.380984    1.244360
  C      1.381309    0.086297   -0.418413
  H      0.982210   -0.101331   -1.423969
  C      1.164678   -1.165675    0.450182
  H      1.966069   -1.209078    1.205088
  O     -0.016954   -1.109698    1.210814
  O      1.209165   -2.280008   -0.386567
  O      2.740740    0.437970   -0.482854
  O      0.860599    2.451376   -0.511192
  O     -1.582206    1.868373    1.043226
  O     -2.782889   -0.723058   -1.211264
  H     -1.922517   -2.329319   -0.228324
  H     -0.911000   -1.410031   -1.359373
  H      1.176562   -3.095993    0.135641
  H      3.226301   -0.217905   -1.002623
  H      1.817338    2.537326   -0.649482
  H     -1.173607    1.895319    1.920968
  H     -3.520727   -0.666739   -0.587524

 Total Charge           Charge          ....    0
 Multiplicity           Mult            ....    1
 Number of Electrons    NEL             ....   96
 Basis Dimension        Dim             ....  192

ORBITAL ENERGIES
----------------

  NO   OCC          E(Eh)            E(eV)
   0   2.0000     -18.771975      -510.8114
   1   2.0000     -18.770805      -510.7796
   2   2.0000     -18.768836      -510.7260
   3   2.0000     -18.751457      -510.2531
   4   2.0000     -18.741445      -509.9806
   5   2.0000     -18.741173      -509.9732
   6   2.0000      -9.989110      -271.8175
   7   2.0000      -9.946998      -270.6716
   8   2.0000      -9.941640      -270.5258
   9   2.0000      -9.940270      -270.4885
  10   2.0000      -9.934071      -270.3198
  11   2.0000      -9.929525      -270.1961
  12   2.0000      -0.984400       -26.7869
  13   2.0000      -0.947794       -25.7908
  14   2.0000      -0.932783       -25.3823
  15   2.0000      -0.925179       -25.1754
  16   2.0000      -0.915982       -24.9251
  17   2.0000      -0.909391       -24.7458
  18   2.0000      -0.701188       -19.0803
  19   2.0000      -0.691325       -18.8119
  20   2.0000      -0.620191       -16.8762
  21   2.0000      -0.584694       -15.9103
  22   2.0000      -0.570160       -15.5148
  23   2.0000      -0.524924       -14.2839
  24   2.0000      -0.510106       -13.8807
  25   2.0000      -0.489178       -13.3112
  26   2.0000      -0.470308       -12.7977
  27   2.0000      -0.456073       -12.4104
  28   2.0000      -0.451528       -12.2867
  29   2.0000      -0.427933       -11.6446
  30   2.0000      -0.412870       -11.2348
  31   2.0000      -0.398876       -10.8540
  32   2.0000      -0.384506       -10.4629
  33   2.0000      -0.378404       -10.2969
  34   2.0000      -0.359632        -9.7861
  35   2.0000      -0.342710        -9.3256
  36   2.0000      -0.334054        -9.0901
  37   2.0000      -0.310572        -8.4511
  38   2.0000      -0.300435        -8.1753
  39   2.0000      -0.296947        -8.0803
  40   2.0000      -0.280029        -7.6200
  41   2.0000      -0.262240        -7.1359
  42   2.0000      -0.257606        -7.0098
  43   2.0000      -0.246712        -6.7134
  44   2.0000      -0.232464        -6.3257
  45   2.0000      -0.228100        -6.2069
  46   2.0000      -0.214960        -5.8494
  47   2.0000      -0.196588        -5.3494
  48   0.0000       0.016103         0.4382
  49   0.0000       0.023671         0.6441
  50   0.0000       0.026545         0.7223
  51   0.0000       0.034749         0.9456
  52   0.0000       0.056815         1.5460

MULLIKEN ATOMIC CHARGES
-----------------------
   0 C :    0.014983
   1 C :   -0.003261
   2 H :    0.056057
   3 C :    0.090837
   4 H :    0.088420
   5 C :    0.071357
   6 H :    0.039294
   7 C :   -0.029100
   8 H :    0.079240
   9 C :    0.205119
  10 H :    0.060300
  11 O :   -0.310708
  12 O :   -0.394415
  13 O :   -0.419982
  14 O :   -0.407869
  15 O :   -0.416284
  16 O :   -0.420960
  17 H :    0.072313
  18 H :    0.108651
  19 H :    0.303318
  20 H :    0.312339
  21 H :    0.302962
  22 H :    0.295630
  23 H :    0.301760
Sum of atomic charges:    0.0000000

LOEWDIN ATOMIC CHARGES
----------------------
   0 C :   -0.144230
   1 C :   -0.080017
   2 H :    0.110155
   3 C :   -0.068393
   4 H :    0.127521
   5 C :   -0.067577
   6 H :    0.097443
   7 C :   -0.091313
   8 H :    0.112521
   9 C :   -0.013627
  10 H :    0.098967
  11 O :   -0.148909
  12 O :   -0.310584
  13 O :   -0.316451
  14 O :   -0.314350
  15 O :   -0.310939
  16 O :   -0.324720
  17 H :    0.096832
  18 H :    0.115306
  19 H :    0.286581
  20 H :    0.294732
  21 H :    0.282927
  22 H :    0.281290
  23 H :    0.286834

  Mayer bond orders larger than 0.100000
B(  0-C ,  1-C ) :   1.0180 B(  0-C , 16-O ) :   1.0570 B(  0-C , 17-H ) :   0.9142
B(  0-C , 18-H ) :   0.9081 B(  1-C ,  2-H ) :   0.8909 B(  1-C ,  3-C ) :   0.9578
B(  1-C , 11-O ) :   1.0149 B(  3-C ,  4-H ) :   0.8687 B(  3-C ,  5-C ) :   1.0272
B(  3-C , 15-O ) :   1.0415 B(  5-C ,  6-H ) :   0.8582 B(  5-C ,  7-C ) :   1.0118
B(  5-C , 14-O ) :   1.1090 B(  7-C ,  8-H ) :   0.8833 B(  7-C ,  9-C ) :   0.9770
B(  7-C , 13-O ) :   1.0649 B(  9-C , 10-H ) :   0.8860 B(  9-C , 11-O ) :   1.0592
B(  9-C , 12-O ) :   1.1223 B( 12-O , 19-H ) :   0.8395 B( 13-O , 20-H ) :   0.8431
B( 14-O , 21-H ) :   0.8329 B( 15-O , 22-H ) :   0.8508 B( 16-O , 23-H ) :   0.8491

Dispersion correction           -0.024569486
FINAL SINGLE POINT ENERGY      -685.690392857632

DIPOLE MOMENT
-------------

Method             : SCF
Type of density    : Electron Density
Multiplicity       :   1
Irrep              :   0
Energy             :  -685.8199997369561061 Eh
Relativity type    :
Basis              : AO
                                X                 Y                 Z
Electronic contribution:      1.235409010       1.165994481       0.780808890
Nuclear contribution   :     -0.503457908      -2.378320877      -0.138827940
                        -----------------------------------------
Total Dipole Moment    :      0.731951103      -1.212326396       0.641980950
                        -----------------------------------------
Magnitude (a.u.)       :      1.554872100
Magnitude (Debye)      :      3.952170794

Rotational constants in cm-1:             0.035765             0.029504             0.020083
Rotational constants in MHz :          1072.195044           884.501432           602.073448

                             ****ORCA TERMINATED NORMALLY****
TOTAL RUN TIME: 0 days 0 hours 0 minutes 12 seconds 176 msec
