                         Program Version 6.0.0  -   RELEASE  -
|  1> ! wb97x-v def2-tzvp def2/J RIJCOSX DEFGRID2 scfconv7 GCP(DFT/TZ) printgap
|  2> %output
|  3>     printlevel normal
|  4> end
|  5> * xyz 0 1
|  6> C 1.8992334822286205 -1.0460311332029701 0.07690117019406846
|  7> C 1.0995476645946756 0.18710078821571563 0.4883828343173509
|  8> C -0.36661961076198873 0.2065782633040397 0.026770626619142316
|  9> C -1.0285095484130533 1.5051035793725778 0.46533383164325315
| 10> C -1.1490809696173134 -0.9980208735045074 0.5419115460846939
| 11> O -0.42421575317111204 0.22399637375772544 -1.4302533864186004
| 12> H 2.9407126763214952 -0.9439218146980669 0.3973430010441038
| 13> H 1.9085081886799502 -1.1826638778169418 -1.0103711727655635
| 14> H 1.5039483267511213 -1.9596519762393434 0.5309265341550575
| 15> H 1.5827488223066255 1.0875475393386278 0.08921355343690109
| 16> H 1.109135047418195 0.2803161675692203 1.5813358046442842
| 17> H -0.4825770344798893 2.3679920657004976 0.07035487637072782
| 18> H -2.0614595115196206 1.5499573248000875 0.10639670961909287
| 19> H -1.0390236769379562 1.573742589752013 1.5567385847017599
| 20> H -2.2006702485457206 -0.9175881696731701 0.24950343587410598
| 21> H -0.7509452884202658 -1.9326463191756582 0.13400008887914963
| 22> H -1.0960643544614916 -1.053206650565056 1.6341332213725617
| 23> H -0.09861638304727392 -0.6310329135262791 -1.7409225324498843
| 24> *
| 25>
| 26>                          ****END OF INPUT****

CARTESIAN COORDINATES (ANGSTROEM)
---------------------------------
  C      1.899233   -1.046031    0.076901
  C      1.099548    0.187101    0.488383
  C     -0.366620    0.206578    0.026771
  C     -1.028510    1.505104    0.465334
  C     -1.149081   -0.998021    0.541912
  O     -0.424216    0.223996   -1.430253
  H      2.940713   -0.943922    0.397343
  H      1.908508   -1.182664   -1.010371
  H      1.503948   -1.959652    0.530927
  H      1.582749    1.087548    0.089214
  H      1.109135    0.280316    1.581336
  H     -0.482577    2.367992    0.070355
  H     -2.061460    1.549957    0.106397
  H     -1.039024    1.573743    1.556739
  H     -2.200670   -0.917588    0.249503
  H     -0.750945   -1.932646    0.134000
  H     -1.096064   -1.053207    1.634133
  H     -0.098616   -0.631033   -1.740923

 Total Charge           Charge          ....    0
 Multiplicity           Mult            ....    1
 Number of Electrons    NEL             ....   50
 Basis Dimension        Dim             ....  258

ORBITAL ENERGIES
----------------

  NO   OCC          E(Eh)            E(eV)
   0   2.0000     -21.661920      -589.4508
   1   2.0000     -12.101799      -329.3067
   2   2.0000     -12.042068      -327.6813
   3   2.0000     -12.040182      -327.6300
   4   2.0000     -12.036762      -327.5369
   5   2.0000     -12.030565      -327.3683
   6   2.0000      -1.660110       -45.1739
   7   2.0000      -1.320584       -35.9349
   8   2.0000      -1.243890       -33.8480
   9   2.0000      -1.187070       -32.3018
  10   2.0000      -1.122369       -30.5412
  11   2.0000      -1.082713       -29.4621
  12   2.0000      -0.991802       -26.9883
  13   2.0000      -0.934316       -25.4240
  14   2.0000      -0.926230       -25.2040
  15   2.0000      -0.877478       -23.8774
  16   2.0000      -0.855803       -23.2876
  17   2.0000      -0.850132       -23.1333
  18   2.0000      -0.822356       -22.3774
  19   2.0000      -0.816871       -22.2282
  20   2.0000      -0.811704       -22.0876
  21   2.0000      -0.800339       -21.7783
  22   2.0000      -0.783852       -21.3297
  23   2.0000      -0.770371       -20.9629
  24   2.0000      -0.758808       -20.6482
  25   0.0000      -0.148622        -4.0442
  26   0.0000      -0.059101        -1.6082
  27   0.0000      -0.030330        -0.8253
  28   0.0000      -0.020674        -0.5626
  29   0.0000      -0.013277        -0.3613

MULLIKEN ATOMIC CHARGES
-----------------------
   0 C :   -0.384113
   1 C :   -0.162562
   2 C :    0.196664
   3 C :   -0.322052
   4 C :   -0.381005
   5 O :   -0.447339
   6 H :    0.122031
   7 H :    0.098251
   8 H :    0.118688
   9 H :    0.101179
  10 H :    0.088743
  11 H :    0.116222
  12 H :    0.116139
  13 H :    0.102555
  14 H :    0.125154
  15 H :    0.109592
  16 H :    0.108977
  17 H :    0.292877
Sum of atomic charges:   -0.0000000

LOEWDIN ATOMIC CHARGES
----------------------
   0 C :   -0.309797
   1 C :   -0.255231
   2 C :   -0.421709
   3 C :   -0.257053
   4 C :   -0.266180
   5 O :   -0.014927
   6 H :    0.120276
   7 H :    0.112669
   8 H :    0.115915
   9 H :    0.139637
  10 H :    0.137883
  11 H :    0.124309
  12 H :    0.123710
  13 H :    0.122346
  14 H :    0.124555
  15 H :    0.117254
  16 H :    0.124472
  17 H :    0.161872

  Mayer bond orders larger than 0.100000
B(  0-C ,  1-C ) :   0.9596 B(  0-C ,  6-H ) :   0.9835 B(  0-C ,  7-H ) :   0.9801
B(  0-C ,  8-H ) :   0.9840 B(  1-C ,  2-C ) :   0.9717 B(  1-C ,  9-H ) :   0.9747
B(  1-C , 10-H ) :   0.9633 B(  2-C ,  3-C ) :   0.9550 B(  2-C ,  4-C ) :   0.9899
B(  2-C ,  5-O ) :   0.9842 B(  3-C , 11-H ) :   0.9815 B(  3-C , 12-H ) :   0.9814
B(  3-C , 13-H ) :   0.9743 B(  4-C , 14-H ) :   0.9834 B(  4-C , 15-H ) :   0.9719
B(  4-C , 16-H ) :   0.9725 B(  5-O , 17-H ) :   0.9035

FINAL SINGLE POINT ENERGY      -273.000195553478

DIPOLE MOMENT
-------------

Method             : SCF
Type of density    : Electron Density
Multiplicity       :   1
Irrep              :   0
Energy             :  -273.0133630972779883 Eh
Relativity type    :
Basis              : AO
                                X                 Y                 Z
Electronic contribution:     -0.999039329       1.211521528      -2.912505242
Nuclear contribution   :      1.228203533      -1.657101081       3.360899467
                        -----------------------------------------
Total Dipole Moment    :      0.229164204      -0.445579553       0.448394225
                        -----------------------------------------
Magnitude (a.u.)       :      0.672394788
Magnitude (Debye)      :      1.709091728

Rotational constants in cm-1:             0.150586             0.086027             0.084325
Rotational constants in MHz :          4514.462268          2579.028256          2528.007754

                             ****ORCA TERMINATED NORMALLY****
TOTAL RUN TIME: 0 days 0 hours 1 minutes 44 seconds 664 msec
