                         Program Version 6.0.0  -   RELEASE  -
|  1> ! wb97x-v def2-tzvp def2/J RIJCOSX DEFGRID2 scfconv7 GCP(DFT/TZ) printgap
|  2> %output
|  3>     printlevel normal
|  4> end
|  5> %cpcm
|  6>     smd true
|  7>     smdsolvent "water"
|  8> end
|  9> * xyz 0 1
| 10> C 1.8992334822286205 -1.0460311332029701 0.07690117019406846
| 11> C 1.0995476645946756 0.18710078821571563 0.4883828343173509
| 12> C -0.36661961076198873 0.2065782633040397 0.026770626619142316
| 13> C -1.0285095484130533 1.5051035793725778 0.46533383164325315
| 14> C -1.1490809696173134 -0.9980208735045074 0.5419115460846939
| 15> O -0.42421575317111204 0.22399637375772544 -1.4302533864186004
| 16> H 2.9407126763214952 -0.9439218146980669 0.3973430010441038
| 17> H 1.9085081886799502 -1.1826638778169418 -1.0103711727655635
| 18> H 1.5039483267511213 -1.9596519762393434 0.5309265341550575
| 19> H 1.5827488223066255 1.0875475393386278 0.08921355343690109
| 20> H 1.109135047418195 0.2803161675692203 1.5813358046442842
| 21> H -0.4825770344798893 2.3679920657004976 0.07035487637072782
| 22> H -2.0614595115196206 1.5499573248000875 0.10639670961909287
| 23> H -1.0390236769379562 1.573742589752013 1.5567385847017599
| 24> H -2.2006702485457206 -0.9175881696731701 0.24950343587410598
| 25> H -0.7509452884202658 -1.9326463191756582 0.13400008887914963
| 26> H -1.0960643544614916 -1.053206650565056 1.6341332213725617
| 27> H -0.09861638304727392 -0.6310329135262791 -1.7409225324498843
| 28> *
| 29>
| 30>                          ****END OF INPUT****

CARTESIAN COORDINATES (ANGSTROEM)
---------------------------------
  C      1.899233   -1.046031    0.076901
  C      1.099548    0.187101    0.488383
  C     -0.366620    0.206578    0.026771
  C     -1.028510    1.505104    0.465334
  C     -1.149081   -0.998021    0.541912
  O     -0.424216    0.223996   -1.430253
  H      2.940713   -0.943922    0.397343
  H      1.908508   -1.182664   -1.010371
  H      1.503948   -1.959652    0.530927
  H      1.582749    1.087548    0.089214
  H      1.109135    0.280316    1.581336
  H     -0.482577    2.367992    0.070355
  H     -2.061460    1.549957    0.106397
  H     -1.039024    1.573743    1.556739
  H     -2.200670   -0.917588    0.249503
  H     -0.750945   -1.932646    0.134000
  H     -1.096064   -1.053207    1.634133
  H     -0.098616   -0.631033   -1.740923

 Total Charge           Charge          ....    0
 Multiplicity           Mult            ....    1
 Number of Electrons    NEL             ....   50
 Basis Dimension        Dim             ....  258

ORBITAL ENERGIES
----------------

  NO   OCC          E(Eh)            E(eV)
   0   2.0000     -21.666891      -589.5861
   1   2.0000     -12.097417      -329.1875
   2   2.0000     -12.032033      -327.4083
   3   2.0000     -12.025973      -327.2434
   4   2.0000     -12.025125      -327.2203
   5   2.0000     -12.024758      -327.2103
   6   2.0000      -1.665532       -45.3214
   7   2.0000      -1.313953       -35.7545
   8   2.0000      -1.233773       -33.5727
   9   2.0000      -1.179088       -32.0846
  10   2.0000      -1.114199       -30.3189
  11   2.0000      -1.081649       -29.4332
  12   2.0000      -0.994055       -27.0496
  13   2.0000      -0.932934       -25.3864
  14   2.0000      -0.927652       -25.2427
  15   2.0000      -0.868499       -23.6331
  16   2.0000      -0.850593       -23.1458
  17   2.0000      -0.842159       -22.9163
  18   2.0000      -0.813760       -22.1435
  19   2.0000      -0.806476       -21.9453
  20   2.0000      -0.803001       -21.8508
  21   2.0000      -0.791707       -21.5434
  22   2.0000      -0.774935       -21.0870
  23   2.0000      -0.759511       -20.6673
  24   2.0000      -0.749898       -20.4058
  25   0.0000      -0.144882        -3.9424
  26   0.0000      -0.039184        -1.0662
  27   0.0000      -0.021844        -0.5944
  28   0.0000      -0.009769        -0.2658
  29   0.0000      -0.003664        -0.0997

MULLIKEN ATOMIC CHARGES
-----------------------
   0 C :   -0.417026
   1 C :   -0.198727
   2 C :    0.238895
   3 C :   -0.379639
   4 C :   -0.434543
   5 O :   -0.562556
   6 H :    0.135042
   7 H :    0.119104
   8 H :    0.131946
   9 H :    0.108195
  10 H :    0.110727
  11 H :    0.129154
  12 H :    0.129260
  13 H :    0.130946
  14 H :    0.132451
  15 H :    0.141358
  16 H :    0.131632
  17 H :    0.353781
Sum of atomic charges:   -0.0000000

LOEWDIN ATOMIC CHARGES
----------------------
   0 C :   -0.312534
   1 C :   -0.256626
   2 C :   -0.420765
   3 C :   -0.266626
   4 C :   -0.267857
   5 O :   -0.058401
   6 H :    0.121231
   7 H :    0.118104
   8 H :    0.119624
   9 H :    0.139123
  10 H :    0.143937
  11 H :    0.124226
  12 H :    0.123670
  13 H :    0.129953
  14 H :    0.124409
  15 H :    0.125010
  16 H :    0.130468
  17 H :    0.183055

  Mayer bond orders larger than 0.100000
B(  0-C ,  1-C ) :   0.9674 B(  0-C ,  6-H ) :   0.9807 B(  0-C ,  7-H ) :   0.9744
B(  0-C ,  8-H ) :   0.9805 B(  1-C ,  2-C ) :   0.9754 B(  1-C ,  9-H ) :   0.9715
B(  1-C , 10-H ) :   0.9637 B(  2-C ,  3-C ) :   0.9571 B(  2-C ,  4-C ) :   0.9871
B(  2-C ,  5-O ) :   0.9429 B(  3-C , 11-H ) :   0.9761 B(  3-C , 12-H ) :   0.9774
B(  3-C , 13-H ) :   0.9732 B(  4-C , 14-H ) :   0.9760 B(  4-C , 15-H ) :   0.9712
B(  4-C , 16-H ) :   0.9697 B(  5-O , 17-H ) :   0.8711

FINAL SINGLE POINT ENERGY      -273.007243137763

DIPOLE MOMENT
-------------

Method             : SCF
Type of density    : Electron Density
Multiplicity       :   1
Irrep              :   0
Energy             :  -273.0204106815627938 Eh
Relativity type    :
Basis              : AO
                                X                 Y                 Z
Electronic contribution:     -0.911248286       0.977800673      -2.707105805
Nuclear contribution   :      1.228203533      -1.657101081       3.360899467
                        -----------------------------------------
Total Dipole Moment    :      0.316955247      -0.679300408       0.653793662
                        -----------------------------------------
Magnitude (a.u.)       :      0.994663674
Magnitude (Debye)      :      2.528234138

Rotational constants in cm-1:             0.150586             0.086027             0.084325
Rotational constants in MHz :          4514.462268          2579.028256          2528.007754

                             ****ORCA TERMINATED NORMALLY****
TOTAL RUN TIME: 0 days 0 hours 1 minutes 58 seconds 541 msec
