                         Program Version 6.0.0  -   RELEASE  -
|  1> ! r2scan-3c def2/J RI DEFGRID2 scfconv6 printgap
|  2> %output
|  3>     printlevel normal
|  4> end
|  5> * xyz 0 1
|  6> C 1.8278627841 -1.4808923438 -0.0014087319
|  7> C 0.5423086545 -0.7108112319 0.0007192164
|  8> C -0.664660425 -1.4006993831 0.0010929174
|  9> C -1.8619641153 -0.7057582053 0.0002928435
| 10> C -1.8034053692 0.677221382 -0.0008192751
| 11> N -0.6660111679 1.3514663515 -0.0004663971
| 12> C 0.4867059161 0.6888165471 0.0003027032
| 13> C 1.7185129042 1.5421300584 0.0008348834
| 14> H 2.6925249975 -0.8280540918 0.0288943539
| 15> H 1.8607687994 -2.1460696443 0.8600054142
| 16> H 1.8862261642 -2.0963302406 -0.8980212406
| 17> H -0.6604943751 -2.4817581893 0.0022442187
| 18> H -2.8096117494 -1.2204323978 0.0003404201
| 19> H -2.7013483294 1.2813111199 -0.002482919
| 20> H 1.4212466298 2.5859799107 0.004272706
| 21> H 2.3223340387 1.3419911177 0.8835252309
| 22> H 2.3199298429 1.3464999287 -0.8843870328
| 23> *
| 24>
| 25>                          ****END OF INPUT****

CARTESIAN COORDINATES (ANGSTROEM)
---------------------------------
  C      1.827863   -1.480892   -0.001409
  C      0.542309   -0.710811    0.000719
  C     -0.664660   -1.400699    0.001093
  C     -1.861964   -0.705758    0.000293
  C     -1.803405    0.677221   -0.000819
  N     -0.666011    1.351466   -0.000466
  C      0.486706    0.688817    0.000303
  C      1.718513    1.542130    0.000835
  H      2.692525   -0.828054    0.028894
  H      1.860769   -2.146070    0.860005
  H      1.886226   -2.096330   -0.898021
  H     -0.660494   -2.481758    0.002244
  H     -2.809612   -1.220432    0.000340
  H     -2.701348    1.281311   -0.002483
  H      1.421247    2.585980    0.004273
  H      2.322334    1.341991    0.883525
  H      2.319930    1.346500   -0.884387

 Total Charge           Charge          ....    0
 Multiplicity           Mult            ....    1
 Number of Electrons    NEL             ....   58
 Basis Dimension        Dim             ....  202

ORBITAL ENERGIES
----------------

  NO   OCC          E(Eh)            E(eV)
   0   2.0000     -14.144588      -384.8938
   1   2.0000     -10.068799      -273.9859
   2   2.0000     -10.057532      -273.6794
   3   2.0000     -10.047644      -273.4103
   4   2.0000     -10.045002      -273.3384
   5   2.0000     -10.036718      -273.1130
   6   2.0000     -10.034281      -273.0467
   7   2.0000     -10.022250      -272.7193
   8   2.0000      -0.909222       -24.7412
   9   2.0000      -0.782248       -21.2861
  10   2.0000      -0.755944       -20.5703
  11   2.0000      -0.688439       -18.7334
  12   2.0000      -0.653346       -17.7785
  13   2.0000      -0.580717       -15.8021
  14   2.0000      -0.566337       -15.4108
  15   2.0000      -0.474492       -12.9116
  16   2.0000      -0.464167       -12.6306
  17   2.0000      -0.414445       -11.2776
  18   2.0000      -0.413976       -11.2649
  19   2.0000      -0.383820       -10.4443
  20   2.0000      -0.378828       -10.3084
  21   2.0000      -0.374481       -10.1901
  22   2.0000      -0.367355        -9.9962
  23   2.0000      -0.347595        -9.4585
  24   2.0000      -0.343132        -9.3371
  25   2.0000      -0.317927        -8.6512
  26   2.0000      -0.259934        -7.0732
  27   2.0000      -0.227571        -6.1925
  28   2.0000      -0.215946        -5.8762
  29   0.0000      -0.047621        -1.2958
  30   0.0000      -0.030697        -0.8353
  31   0.0000       0.079866         2.1733
  32   0.0000       0.097225         2.6456
  33   0.0000       0.102078         2.7777

MULLIKEN ATOMIC CHARGES
-----------------------
   0 C :   -0.549012
   1 C :    0.157128
   2 C :   -0.201324
   3 C :   -0.113040
   4 C :   -0.103272
   5 N :   -0.174126
   6 C :    0.243126
   7 C :   -0.683801
   8 H :    0.161007
   9 H :    0.164516
  10 H :    0.166953
  11 H :    0.146803
  12 H :    0.146792
  13 H :    0.133079
  14 H :    0.182823
  15 H :    0.160916
  16 H :    0.161435
Sum of atomic charges:   -0.0000000

LOEWDIN ATOMIC CHARGES
----------------------
   0 C :   -0.388271
   1 C :   -0.076852
   2 C :   -0.122153
   3 C :   -0.153210
   4 C :    0.075831
   5 N :   -0.626116
   6 C :    0.129596
   7 C :   -0.365291
   8 H :    0.163671
   9 H :    0.166909
  10 H :    0.167407
  11 H :    0.170056
  12 H :    0.168764
  13 H :    0.183214
  14 H :    0.178381
  15 H :    0.163921
  16 H :    0.164144

  Mayer bond orders larger than 0.100000
B(  0-C ,  1-C ) :   0.7532 B(  0-C ,  8-H ) :   0.9729 B(  0-C ,  9-H ) :   0.9854
B(  0-C , 10-H ) :   0.9842 B(  1-C ,  2-C ) :   1.3647 B(  1-C ,  6-C ) :   1.4021
B(  2-C ,  3-C ) :   1.4363 B(  2-C , 11-H ) :   0.9536 B(  3-C ,  4-C ) :   1.3527
B(  3-C , 12-H ) :   0.9371 B(  4-C ,  5-N ) :   1.4591 B(  4-C , 13-H ) :   0.9808
B(  5-N ,  6-C ) :   1.3261 B(  5-N ,  7-C ) :   0.1058 B(  6-C ,  7-C ) :   0.7980
B(  7-C , 14-H ) :   0.9912 B(  7-C , 15-H ) :   0.9757 B(  7-C , 16-H ) :   0.9744

Dispersion correction           -0.005365543
FINAL SINGLE POINT ENERGY      -326.821676179670

DIPOLE MOMENT
-------------

Method             : SCF
Type of density    : Electron Density
Multiplicity       :   1
Irrep              :   0
Energy             :  -326.8242145914099979 Eh
Relativity type    :
Basis              : AO
                                X                 Y                 Z
Electronic contribution:     -5.624737794       1.269356201       0.003383073
Nuclear contribution   :      5.936433637      -2.072380535      -0.005264603
                        -----------------------------------------
Total Dipole Moment    :      0.311695842      -0.803024334      -0.001881530
                        -----------------------------------------
Magnitude (a.u.)       :      0.861397655
Magnitude (Debye)      :      2.189498836

Rotational constants in cm-1:             0.105389             0.076496             0.045067
Rotational constants in MHz :          3159.468007          2293.297354          1351.064093

                             ****ORCA TERMINATED NORMALLY****
TOTAL RUN TIME: 0 days 0 hours 0 minutes 24 seconds 527 msec
