                         Program Version 6.0.0  -   RELEASE  -
|  1> ! r2scan-3c def2/J RI DEFGRID2 scfconv6 printgap
|  2> %output
|  3>     printlevel normal
|  4> end
|  5> %cpcm
|  6>     smd true
|  7>     smdsolvent "water"
|  8> end
|  9> * xyz 0 1
| 10> C 1.8278627841 -1.4808923438 -0.0014087319
| 11> C 0.5423086545 -0.7108112319 0.0007192164
| 12> C -0.664660425 -1.4006993831 0.0010929174
| 13> C -1.8619641153 -0.7057582053 0.0002928435
| 14> C -1.8034053692 0.677221382 -0.0008192751
| 15> N -0.6660111679 1.3514663515 -0.0004663971
| 16> C 0.4867059161 0.6888165471 0.0003027032
| 17> C 1.7185129042 1.5421300584 0.0008348834
| 18> H 2.6925249975 -0.8280540918 0.0288943539
| 19> H 1.8607687994 -2.1460696443 0.8600054142
| 20> H 1.8862261642 -2.0963302406 -0.8980212406
| 21> H -0.6604943751 -2.4817581893 0.0022442187
| 22> H -2.8096117494 -1.2204323978 0.0003404201
| 23> H -2.7013483294 1.2813111199 -0.002482919
| 24> H 1.4212466298 2.5859799107 0.004272706
| 25> H 2.3223340387 1.3419911177 0.8835252309
| 26> H 2.3199298429 1.3464999287 -0.8843870328
| 27> *
| 28>
| 29>                          ****END OF INPUT****

CARTESIAN COORDINATES (ANGSTROEM)
---------------------------------
  C      1.827863   -1.480892   -0.001409
  C      0.542309   -0.710811    0.000719
  C     -0.664660   -1.400699    0.001093
  C     -1.861964   -0.705758    0.000293
  C     -1.803405    0.677221   -0.000819
  N     -0.666011    1.351466   -0.000466
  C      0.486706    0.688817    0.000303
  C      1.718513    1.542130    0.000835
  H      2.692525   -0.828054    0.028894
  H      1.860769   -2.146070    0.860005
  H      1.886226   -2.096330   -0.898021
  H     -0.660494   -2.481758    0.002244
  H     -2.809612   -1.220432    0.000340
  H     -2.701348    1.281311   -0.002483
  H      1.421247    2.585980    0.004273
  H      2.322334    1.341991    0.883525
  H      2.319930    1.346500   -0.884387

 Total Charge           Charge          ....    0
 Multiplicity           Mult            ....    1
 Number of Electrons    NEL             ....   58
 Basis Dimension        Dim             ....  202

ORBITAL ENERGIES
----------------

  NO   OCC          E(Eh)            E(eV)
   0   2.0000     -14.150116      -385.0442
   1   2.0000     -10.069058      -273.9930
   2   2.0000     -10.057499      -273.6784
   3   2.0000     -10.044982      -273.3379
   4   2.0000     -10.040549      -273.2172
   5   2.0000     -10.033350      -273.0213
   6   2.0000     -10.019902      -272.6554
   7   2.0000     -10.016020      -272.5498
   8   2.0000      -0.913022       -24.8446
   9   2.0000      -0.778855       -21.1937
  10   2.0000      -0.753903       -20.5148
  11   2.0000      -0.681724       -18.5506
  12   2.0000      -0.647987       -17.6326
  13   2.0000      -0.577105       -15.7038
  14   2.0000      -0.563653       -15.3378
  15   2.0000      -0.470355       -12.7990
  16   2.0000      -0.460998       -12.5444
  17   2.0000      -0.409411       -11.1406
  18   2.0000      -0.407064       -11.0768
  19   2.0000      -0.374322       -10.1858
  20   2.0000      -0.373105       -10.1527
  21   2.0000      -0.368999       -10.0410
  22   2.0000      -0.355188        -9.6652
  23   2.0000      -0.347191        -9.4475
  24   2.0000      -0.338926        -9.2226
  25   2.0000      -0.312384        -8.5004
  26   2.0000      -0.261313        -7.1107
  27   2.0000      -0.226715        -6.1692
  28   2.0000      -0.224112        -6.0984
  29   0.0000      -0.048515        -1.3202
  30   0.0000      -0.030498        -0.8299
  31   0.0000       0.084750         2.3062
  32   0.0000       0.104796         2.8517
  33   0.0000       0.108365         2.9488

MULLIKEN ATOMIC CHARGES
-----------------------
   0 C :   -0.568442
   1 C :    0.144280
   2 C :   -0.202968
   3 C :   -0.158258
   4 C :   -0.125476
   5 N :   -0.231309
   6 C :    0.231278
   7 C :   -0.697632
   8 H :    0.176438
   9 H :    0.180837
  10 H :    0.183039
  11 H :    0.182102
  12 H :    0.181218
  13 H :    0.158608
  14 H :    0.178817
  15 H :    0.183682
  16 H :    0.183788
Sum of atomic charges:   -0.0000000

LOEWDIN ATOMIC CHARGES
----------------------
   0 C :   -0.388975
   1 C :   -0.073747
   2 C :   -0.118146
   3 C :   -0.157366
   4 C :    0.062834
   5 N :   -0.673702
   6 C :    0.124030
   7 C :   -0.369271
   8 H :    0.168845
   9 H :    0.173986
  10 H :    0.174494
  11 H :    0.183473
  12 H :    0.180972
  13 H :    0.191260
  14 H :    0.174265
  15 H :    0.173490
  16 H :    0.173557

  Mayer bond orders larger than 0.100000
B(  0-C ,  1-C ) :   0.7721 B(  0-C ,  8-H ) :   0.9695 B(  0-C ,  9-H ) :   0.9761
B(  0-C , 10-H ) :   0.9749 B(  1-C ,  2-C ) :   1.3553 B(  1-C ,  6-C ) :   1.3855
B(  2-C ,  3-C ) :   1.4083 B(  2-C , 11-H ) :   0.9557 B(  3-C ,  4-C ) :   1.3551
B(  3-C , 12-H ) :   0.9427 B(  4-C ,  5-N ) :   1.4481 B(  4-C , 13-H ) :   0.9707
B(  5-N ,  6-C ) :   1.3247 B(  5-N ,  7-C ) :   0.1164 B(  6-C ,  7-C ) :   0.8140
B(  7-C , 14-H ) :   0.9978 B(  7-C , 15-H ) :   0.9621 B(  7-C , 16-H ) :   0.9611

Dispersion correction           -0.005365543
FINAL SINGLE POINT ENERGY      -326.827717368902

DIPOLE MOMENT
-------------

Method             : SCF
Type of density    : Electron Density
Multiplicity       :   1
Irrep              :   0
Energy             :  -326.8302557806413802 Eh
Relativity type    :
Basis              : AO
                                X                 Y                 Z
Electronic contribution:     -5.462773078       0.846664482       0.002855901
Nuclear contribution   :      5.936433637      -2.072380535      -0.005264603
                        -----------------------------------------
Total Dipole Moment    :      0.473660559      -1.225716053      -0.002408702
                        -----------------------------------------
Magnitude (a.u.)       :      1.314054782
Magnitude (Debye)      :      3.340061816

Rotational constants in cm-1:             0.105389             0.076496             0.045067
Rotational constants in MHz :          3159.468007          2293.297354          1351.064093

                             ****ORCA TERMINATED NORMALLY****
TOTAL RUN TIME: 0 days 0 hours 0 minutes 33 seconds 122 msec
