                         Program Version 6.0.0  -   RELEASE  -
|  1> ! wb97x-v def2-tzvp def2/J RIJCOSX DEFGRID2 scfconv7 GCP(DFT/TZ) printgap
|  2> %output
|  3>     printlevel normal
|  4> end
|  5> * xyz 0 1
|  6> C -3.9176039929129733 1.532579432170512 0.04194037889568178
|  7> C -3.1643483923926503 1.471624252023276 1.21149864396484
|  8> C -1.88072164702063 0.9341032259349652 1.1885180840833922
|  9> C -1.3415330441086315 0.4414264081133834 -0.004481068400918911
| 10> C -2.1031291934348517 0.5066215778470937 -1.176729844251727
| 11> C -3.38201207827965 1.0524431404527161 -1.1517608256259841
| 12> C 0.041610698322810905 -0.08659781094008694 -0.020895341400740557
| 13> C 1.0805855967754996 0.739925917153604 0.4267345081468876
| 14> C 2.3897845685967796 0.28517699048991973 0.41744540957885196
| 15> C 2.719553622760119 -0.9885684104165335 -0.0255895742585579
| 16> C 1.6982617638339461 -1.8243315723524698 -0.4592377450314807
| 17> C 0.38311614974333313 -1.3742922302843332 -0.4523208873172586
| 18> Cl -0.8669035445469471 -2.5082234073278604 -0.9490447686691851
| 19> Cl 3.6678138463198744 1.356865885261394 0.975556605723299
| 20> H -4.917064777380844 1.9555167469501855 0.05882120319686537
| 21> H -3.575484306737773 1.8422960539082642 2.145150241203222
| 22> H -1.293305168576197 0.8849243368904087 2.100469700329372
| 23> H -1.684964542715689 0.14710693059817878 -2.111369184419105
| 24> H -3.959484595425126 1.1082796864602102 -2.0691827467595494
| 25> H 0.8465359217499743 1.7437844453470877 0.763075290223541
| 26> H 3.746941400788299 -1.3328549239257468 -0.030658307678729776
| 27> H 1.9297951507789868 -2.8296116708875494 -0.791974138295295
| 28> *
| 29>
| 30>                          ****END OF INPUT****

CARTESIAN COORDINATES (ANGSTROEM)
---------------------------------
  C     -3.917604    1.532579    0.041940
  C     -3.164348    1.471624    1.211499
  C     -1.880722    0.934103    1.188518
  C     -1.341533    0.441426   -0.004481
  C     -2.103129    0.506622   -1.176730
  C     -3.382012    1.052443   -1.151761
  C      0.041611   -0.086598   -0.020895
  C      1.080586    0.739926    0.426735
  C      2.389785    0.285177    0.417445
  C      2.719554   -0.988568   -0.025590
  C      1.698262   -1.824332   -0.459238
  C      0.383116   -1.374292   -0.452321
  Cl    -0.866904   -2.508223   -0.949045
  Cl     3.667814    1.356866    0.975557
  H     -4.917065    1.955517    0.058821
  H     -3.575484    1.842296    2.145150
  H     -1.293305    0.884924    2.100470
  H     -1.684965    0.147107   -2.111369
  H     -3.959485    1.108280   -2.069183
  H      0.846536    1.743784    0.763075
  H      3.746941   -1.332855   -0.030658
  H      1.929795   -2.829612   -0.791974

 Total Charge           Charge          ....    0
 Multiplicity           Mult            ....    1
 Number of Electrons    NEL             ....  114
 Basis Dimension        Dim             ....  494

ORBITAL ENERGIES
----------------

  NO   OCC          E(Eh)            E(eV)
   0   2.0000    -107.149930     -2915.6978
   1   2.0000    -107.148472     -2915.6581
   2   2.0000     -12.128155      -330.0239
   3   2.0000     -12.127496      -330.0059
   4   2.0000     -12.090531      -329.0001
   5   2.0000     -12.079695      -328.7052
   6   2.0000     -12.077494      -328.6453
   7   2.0000     -12.077216      -328.6378
   8   2.0000     -12.073910      -328.5478
   9   2.0000     -12.062012      -328.2240
  10   2.0000     -12.061050      -328.1979
  11   2.0000     -12.060319      -328.1780
  12   2.0000     -12.058959      -328.1410
  13   2.0000     -12.057599      -328.1039
  14   2.0000     -11.303013      -307.5706
  15   2.0000     -11.301609      -307.5324
  16   2.0000      -9.094536      -247.4749
  17   2.0000      -9.093190      -247.4383
  18   2.0000      -9.091920      -247.4037
  19   2.0000      -9.091898      -247.4031
  20   2.0000      -9.090482      -247.3646
  21   2.0000      -9.090443      -247.3635
  22   2.0000      -1.451313       -39.4922
  23   2.0000      -1.428321       -38.8666
  24   2.0000      -1.397634       -38.0316
  25   2.0000      -1.375552       -37.4307
  26   2.0000      -1.325496       -36.0686
  27   2.0000      -1.283854       -34.9354
  28   2.0000      -1.281539       -34.8724
  29   2.0000      -1.266092       -34.4521
  30   2.0000      -1.159741       -31.5582
  31   2.0000      -1.130467       -30.7616
  32   2.0000      -1.113272       -30.2937
  33   2.0000      -1.096445       -29.8358
  34   2.0000      -1.004934       -27.3456
  35   2.0000      -0.999345       -27.1936
  36   2.0000      -0.973110       -26.4797
  37   2.0000      -0.959708       -26.1150
  38   2.0000      -0.952059       -25.9069
  39   2.0000      -0.934113       -25.4185
  40   2.0000      -0.911129       -24.7931
  41   2.0000      -0.900033       -24.4912
  42   2.0000      -0.883418       -24.0390
  43   2.0000      -0.874462       -23.7953
  44   2.0000      -0.857563       -23.3355
  45   2.0000      -0.842657       -22.9299
  46   2.0000      -0.830374       -22.5956
  47   2.0000      -0.821250       -22.3474
  48   2.0000      -0.816537       -22.2191
  49   2.0000      -0.796367       -21.6702
  50   2.0000      -0.795832       -21.6557
  51   2.0000      -0.783410       -21.3177
  52   2.0000      -0.769601       -20.9419
  53   2.0000      -0.681256       -18.5379
  54   2.0000      -0.667642       -18.1675
  55   2.0000      -0.647142       -17.6096
  56   2.0000      -0.640338       -17.4245
  57   0.0000      -0.291976        -7.9451
  58   0.0000      -0.276339        -7.5196
  59   0.0000      -0.272025        -7.4022
  60   0.0000      -0.270765        -7.3679
  61   0.0000      -0.244315        -6.6481

MULLIKEN ATOMIC CHARGES
-----------------------
   0 C :   -0.121829
   1 C :   -0.114352
   2 C :   -0.241067
   3 C :    0.206236
   4 C :   -0.216714
   5 C :   -0.108032
   6 C :    0.145991
   7 C :   -0.292522
   8 C :    0.170870
   9 C :   -0.178522
  10 C :   -0.188388
  11 C :    0.041796
  12 Cl:   -0.079373
  13 Cl:   -0.093961
  14 H :    0.121202
  15 H :    0.120831
  16 H :    0.138260
  17 H :    0.136827
  18 H :    0.120961
  19 H :    0.154167
  20 H :    0.138793
  21 H :    0.138825
Sum of atomic charges:   -0.0000000

LOEWDIN ATOMIC CHARGES
----------------------
   0 C :   -0.134938
   1 C :   -0.135084
   2 C :   -0.098548
   3 C :   -0.113602
   4 C :   -0.099938
   5 C :   -0.133591
   6 C :   -0.100497
   7 C :   -0.095043
   8 C :   -0.406105
   9 C :   -0.135828
  10 C :   -0.133266
  11 C :   -0.366269
  12 Cl:    0.395623
  13 Cl:    0.371291
  14 H :    0.142514
  15 H :    0.143247
  16 H :    0.149583
  17 H :    0.148373
  18 H :    0.143470
  19 H :    0.157752
  20 H :    0.150176
  21 H :    0.150679

  Mayer bond orders larger than 0.100000
B(  0-C ,  1-C ) :   1.4236 B(  0-C ,  5-C ) :   1.4144 B(  0-C , 14-H ) :   0.9712
B(  1-C ,  2-C ) :   1.4479 B(  1-C , 15-H ) :   0.9736 B(  2-C ,  3-C ) :   1.3881
B(  2-C , 16-H ) :   0.9665 B(  3-C ,  4-C ) :   1.3616 B(  3-C ,  6-C ) :   0.8239
B(  4-C ,  5-C ) :   1.4555 B(  4-C , 17-H ) :   0.9636 B(  5-C , 18-H ) :   0.9727
B(  6-C ,  7-C ) :   1.3575 B(  6-C , 11-C ) :   1.3049 B(  7-C ,  8-C ) :   1.3985
B(  7-C , 19-H ) :   0.9630 B(  8-C ,  9-C ) :   1.3884 B(  8-C , 13-Cl) :   0.9712
B(  9-C , 10-C ) :   1.4001 B(  9-C , 20-H ) :   0.9665 B( 10-C , 11-C ) :   1.4142
B( 10-C , 21-H ) :   0.9628 B( 11-C , 12-Cl) :   1.0791

FINAL SINGLE POINT ENERGY     -1382.414450897931

DIPOLE MOMENT
-------------

Method             : SCF
Type of density    : Electron Density
Multiplicity       :   1
Irrep              :   0
Energy             : -1382.4251003142308036 Eh
Relativity type    :
Basis              : AO
                                X                 Y                 Z
Electronic contribution:     11.887627489      -4.901079208      -0.051140488
Nuclear contribution   :    -12.127068618       4.954410143       0.004324535
                        -----------------------------------------
Total Dipole Moment    :     -0.239441129       0.053330935      -0.046815953
                        -----------------------------------------
Magnitude (a.u.)       :      0.249735813
Magnitude (Debye)      :      0.634777989

Rotational constants in cm-1:             0.027432             0.011783             0.008766
Rotational constants in MHz :           822.397101           353.249914           262.805650

                             ****ORCA TERMINATED NORMALLY****
TOTAL RUN TIME: 0 days 0 hours 7 minutes 37 seconds 447 msec
