                         Program Version 6.0.0  -   RELEASE  -
|  1> ! wb97x-v def2-tzvp def2/J RIJCOSX DEFGRID2 scfconv7 GCP(DFT/TZ) printgap
|  2> %output
|  3>     printlevel normal
|  4> end
|  5> %cpcm
|  6>     smd true
|  7>     smdsolvent "water"
|  8> end
|  9> * xyz 0 1
| 10> C -3.9176039929129733 1.532579432170512 0.04194037889568178
| 11> C -3.1643483923926503 1.471624252023276 1.21149864396484
| 12> C -1.88072164702063 0.9341032259349652 1.1885180840833922
| 13> C -1.3415330441086315 0.4414264081133834 -0.004481068400918911
| 14> C -2.1031291934348517 0.5066215778470937 -1.176729844251727
| 15> C -3.38201207827965 1.0524431404527161 -1.1517608256259841
| 16> C 0.041610698322810905 -0.08659781094008694 -0.020895341400740557
| 17> C 1.0805855967754996 0.739925917153604 0.4267345081468876
| 18> C 2.3897845685967796 0.28517699048991973 0.41744540957885196
| 19> C 2.719553622760119 -0.9885684104165335 -0.0255895742585579
| 20> C 1.6982617638339461 -1.8243315723524698 -0.4592377450314807
| 21> C 0.38311614974333313 -1.3742922302843332 -0.4523208873172586
| 22> Cl -0.8669035445469471 -2.5082234073278604 -0.9490447686691851
| 23> Cl 3.6678138463198744 1.356865885261394 0.975556605723299
| 24> H -4.917064777380844 1.9555167469501855 0.05882120319686537
| 25> H -3.575484306737773 1.8422960539082642 2.145150241203222
| 26> H -1.293305168576197 0.8849243368904087 2.100469700329372
| 27> H -1.684964542715689 0.14710693059817878 -2.111369184419105
| 28> H -3.959484595425126 1.1082796864602102 -2.0691827467595494
| 29> H 0.8465359217499743 1.7437844453470877 0.763075290223541
| 30> H 3.746941400788299 -1.3328549239257468 -0.030658307678729776
| 31> H 1.9297951507789868 -2.8296116708875494 -0.791974138295295
| 32> *
| 33>
| 34>                          ****END OF INPUT****

CARTESIAN COORDINATES (ANGSTROEM)
---------------------------------
  C     -3.917604    1.532579    0.041940
  C     -3.164348    1.471624    1.211499
  C     -1.880722    0.934103    1.188518
  C     -1.341533    0.441426   -0.004481
  C     -2.103129    0.506622   -1.176730
  C     -3.382012    1.052443   -1.151761
  C      0.041611   -0.086598   -0.020895
  C      1.080586    0.739926    0.426735
  C      2.389785    0.285177    0.417445
  C      2.719554   -0.988568   -0.025590
  C      1.698262   -1.824332   -0.459238
  C      0.383116   -1.374292   -0.452321
  Cl    -0.866904   -2.508223   -0.949045
  Cl     3.667814    1.356866    0.975557
  H     -4.917065    1.955517    0.058821
  H     -3.575484    1.842296    2.145150
  H     -1.293305    0.884924    2.100470
  H     -1.684965    0.147107   -2.111369
  H     -3.959485    1.108280   -2.069183
  H      0.846536    1.743784    0.763075
  H      3.746941   -1.332855   -0.030658
  H      1.929795   -2.829612   -0.791974

 Total Charge           Charge          ....    0
 Multiplicity           Mult            ....    1
 Number of Electrons    NEL             ....  114
 Basis Dimension        Dim             ....  494

ORBITAL ENERGIES
----------------

  NO   OCC          E(Eh)            E(eV)
   0   2.0000    -107.150413     -2915.7110
   1   2.0000    -107.149552     -2915.6875
   2   2.0000     -12.124114      -329.9139
   3   2.0000     -12.122869      -329.8800
   4   2.0000     -12.085369      -328.8596
   5   2.0000     -12.071392      -328.4793
   6   2.0000     -12.070470      -328.4542
   7   2.0000     -12.069050      -328.4155
   8   2.0000     -12.068880      -328.4109
   9   2.0000     -12.054926      -328.0312
  10   2.0000     -12.054402      -328.0170
  11   2.0000     -12.053105      -327.9817
  12   2.0000     -12.051727      -327.9442
  13   2.0000     -12.050327      -327.9061
  14   2.0000     -11.303587      -307.5862
  15   2.0000     -11.302774      -307.5641
  16   2.0000      -9.095098      -247.4902
  17   2.0000      -9.094336      -247.4695
  18   2.0000      -9.092530      -247.4203
  19   2.0000      -9.092523      -247.4201
  20   2.0000      -9.091678      -247.3971
  21   2.0000      -9.091647      -247.3963
  22   2.0000      -1.448581       -39.4179
  23   2.0000      -1.428053       -38.8593
  24   2.0000      -1.393477       -37.9184
  25   2.0000      -1.372564       -37.3494
  26   2.0000      -1.319249       -35.8986
  27   2.0000      -1.278676       -34.7945
  28   2.0000      -1.275740       -34.7146
  29   2.0000      -1.261164       -34.3180
  30   2.0000      -1.153468       -31.3874
  31   2.0000      -1.124215       -30.5914
  32   2.0000      -1.106512       -30.1097
  33   2.0000      -1.090492       -29.6738
  34   2.0000      -0.999518       -27.1983
  35   2.0000      -0.993426       -27.0325
  36   2.0000      -0.966152       -26.2903
  37   2.0000      -0.953574       -25.9481
  38   2.0000      -0.947060       -25.7708
  39   2.0000      -0.928721       -25.2718
  40   2.0000      -0.901910       -24.5422
  41   2.0000      -0.891485       -24.2585
  42   2.0000      -0.875137       -23.8137
  43   2.0000      -0.869068       -23.6485
  44   2.0000      -0.849357       -23.1122
  45   2.0000      -0.840670       -22.8758
  46   2.0000      -0.823113       -22.3981
  47   2.0000      -0.821417       -22.3519
  48   2.0000      -0.808548       -22.0017
  49   2.0000      -0.797141       -21.6913
  50   2.0000      -0.795626       -21.6501
  51   2.0000      -0.780338       -21.2341
  52   2.0000      -0.767051       -20.8725
  53   2.0000      -0.675917       -18.3926
  54   2.0000      -0.663494       -18.0546
  55   2.0000      -0.642594       -17.4859
  56   2.0000      -0.635634       -17.2965
  57   0.0000      -0.287340        -7.8189
  58   0.0000      -0.272996        -7.4286
  59   0.0000      -0.270021        -7.3477
  60   0.0000      -0.266367        -7.2482
  61   0.0000      -0.239310        -6.5119

MULLIKEN ATOMIC CHARGES
-----------------------
   0 C :   -0.163975
   1 C :   -0.155735
   2 C :   -0.262554
   3 C :    0.177435
   4 C :   -0.257393
   5 C :   -0.150741
   6 C :    0.165016
   7 C :   -0.300973
   8 C :    0.179566
   9 C :   -0.211417
  10 C :   -0.224109
  11 C :    0.056098
  12 Cl:   -0.099944
  13 Cl:   -0.111340
  14 H :    0.162932
  15 H :    0.162038
  16 H :    0.171014
  17 H :    0.170099
  18 H :    0.162076
  19 H :    0.181304
  20 H :    0.176091
  21 H :    0.174513
Sum of atomic charges:   -0.0000000

LOEWDIN ATOMIC CHARGES
----------------------
   0 C :   -0.143316
   1 C :   -0.142740
   2 C :   -0.100853
   3 C :   -0.121506
   4 C :   -0.109526
   5 C :   -0.143123
   6 C :   -0.101202
   7 C :   -0.091483
   8 C :   -0.412116
   9 C :   -0.132400
  10 C :   -0.130477
  11 C :   -0.369719
  12 Cl:    0.380998
  13 Cl:    0.357182
  14 H :    0.151854
  15 H :    0.152667
  16 H :    0.158938
  17 H :    0.155489
  18 H :    0.152735
  19 H :    0.166502
  20 H :    0.160952
  21 H :    0.161143

  Mayer bond orders larger than 0.100000
B(  0-C ,  1-C ) :   1.4002 B(  0-C ,  5-C ) :   1.3940 B(  0-C , 14-H ) :   0.9737
B(  1-C ,  2-C ) :   1.4291 B(  1-C , 15-H ) :   0.9774 B(  2-C ,  3-C ) :   1.3723
B(  2-C , 16-H ) :   0.9740 B(  3-C ,  4-C ) :   1.3334 B(  3-C ,  6-C ) :   0.8264
B(  4-C ,  5-C ) :   1.4408 B(  4-C , 17-H ) :   0.9708 B(  5-C , 18-H ) :   0.9759
B(  6-C ,  7-C ) :   1.3642 B(  6-C , 11-C ) :   1.2928 B(  7-C ,  8-C ) :   1.3809
B(  7-C , 19-H ) :   0.9626 B(  8-C ,  9-C ) :   1.3558 B(  8-C , 13-Cl) :   0.9664
B(  9-C , 10-C ) :   1.4089 B(  9-C , 20-H ) :   0.9689 B( 10-C , 11-C ) :   1.3849
B( 10-C , 21-H ) :   0.9668 B( 11-C , 12-Cl) :   1.0521

FINAL SINGLE POINT ENERGY     -1382.418126940933

DIPOLE MOMENT
-------------

Method             : SCF
Type of density    : Electron Density
Multiplicity       :   1
Irrep              :   0
Energy             : -1382.4287763572335734 Eh
Relativity type    :
Basis              : AO
                                X                 Y                 Z
Electronic contribution:     11.955256635      -4.873110600      -0.037140786
Nuclear contribution   :    -12.127068618       4.954410143       0.004324535
                        -----------------------------------------
Total Dipole Moment    :     -0.171811983       0.081299543      -0.032816251
                        -----------------------------------------
Magnitude (a.u.)       :      0.192888257
Magnitude (Debye)      :      0.490282985

Rotational constants in cm-1:             0.027432             0.011783             0.008766
Rotational constants in MHz :           822.397101           353.249914           262.805650

                             ****ORCA TERMINATED NORMALLY****
TOTAL RUN TIME: 0 days 0 hours 7 minutes 10 seconds 102 msec
