                         Program Version 6.0.0  -   RELEASE  -
|  1> ! pbe def2-sv(p) def2/J RI DEFGRID1 loosescf d4 GCP(DFT/SV(P)) printgap
|  2> %output
|  3>     printlevel normal
|  4> end
|  5> * xyz 0 1
|  6> C -1.85661939 -2.1737668913 -0.0001102042
|  7> C -1.3904513009 -0.7491505582 -3.67251e-05
|  8> C -2.3019886265 0.2757667202 3.4644e-06
|  9> C -1.8993999278 1.6190350863 5.81661e-05
| 10> C -0.5722127433 1.9381395932 1.24652e-05
| 11> C 0.4051304866 0.9208632895 3.0351e-06
| 12> C -0.0022553424 -0.4406581493 4.64061e-05
| 13> C 0.9992556246 -1.4360389819 0.0001319965
| 14> C 2.3259311832 -1.1048467824 7.1723e-05
| 15> C 2.7239852242 0.2399731221 -9.2343e-05
| 16> C 1.781858368 1.2292060358 -9.0992e-05
| 17> H -2.9425861855 -2.2149966817 -0.0007533481
| 18> H -1.4904885319 -2.6971146707 -0.881965755
| 19> H -1.4915419724 -2.6968054917 0.8823343398
| 20> H -3.3588846437 0.049853025 9.67203e-05
| 21> H -2.6502169607 2.3954349581 0.0001902156
| 22> H -0.2496348 2.9692858545 1.45318e-05
| 23> H 0.7120090029 -2.4755292178 0.0002090816
| 24> H 3.0782971047 -1.8798041439 0.0001250069
| 25> H 3.7758211631 0.4847355962 -0.0001096784
| 26> H 2.0761520688 2.2691539326 -0.0001052721
| 27> *
| 28>
| 29>                          ****END OF INPUT****

CARTESIAN COORDINATES (ANGSTROEM)
---------------------------------
  C     -1.856619   -2.173767   -0.000110
  C     -1.390451   -0.749151   -0.000037
  C     -2.301989    0.275767    0.000003
  C     -1.899400    1.619035    0.000058
  C     -0.572213    1.938140    0.000012
  C      0.405130    0.920863    0.000003
  C     -0.002255   -0.440658    0.000046
  C      0.999256   -1.436039    0.000132
  C      2.325931   -1.104847    0.000072
  C      2.723985    0.239973   -0.000092
  C      1.781858    1.229206   -0.000091
  H     -2.942586   -2.214997   -0.000753
  H     -1.490489   -2.697115   -0.881966
  H     -1.491542   -2.696805    0.882334
  H     -3.358885    0.049853    0.000097
  H     -2.650217    2.395435    0.000190
  H     -0.249635    2.969286    0.000015
  H      0.712009   -2.475529    0.000209
  H      3.078297   -1.879804    0.000125
  H      3.775821    0.484736   -0.000110
  H      2.076152    2.269154   -0.000105

 Total Charge           Charge          ....    0
 Multiplicity           Mult            ....    1
 Number of Electrons    NEL             ....   76
 Basis Dimension        Dim             ....  174

ORBITAL ENERGIES
----------------

  NO   OCC          E(Eh)            E(eV)
   0   2.0000      -9.903903      -269.4989
   1   2.0000      -9.901574      -269.4355
   2   2.0000      -9.901454      -269.4323
   3   2.0000      -9.892080      -269.1772
   4   2.0000      -9.891959      -269.1739
   5   2.0000      -9.891250      -269.1546
   6   2.0000      -9.890715      -269.1400
   7   2.0000      -9.889943      -269.1190
   8   2.0000      -9.889230      -269.0996
   9   2.0000      -9.888494      -269.0796
  10   2.0000      -9.884780      -268.9785
  11   2.0000      -0.794741       -21.6260
  12   2.0000      -0.744695       -20.2642
  13   2.0000      -0.709191       -19.2981
  14   2.0000      -0.664744       -18.0886
  15   2.0000      -0.658796       -17.9268
  16   2.0000      -0.612588       -16.6694
  17   2.0000      -0.557606       -15.1732
  18   2.0000      -0.548807       -14.9338
  19   2.0000      -0.517797       -14.0900
  20   2.0000      -0.461441       -12.5564
  21   2.0000      -0.449556       -12.2330
  22   2.0000      -0.443989       -12.0816
  23   2.0000      -0.402797       -10.9607
  24   2.0000      -0.386727       -10.5234
  25   2.0000      -0.383756       -10.4425
  26   2.0000      -0.372991       -10.1496
  27   2.0000      -0.364605        -9.9214
  28   2.0000      -0.352459        -9.5909
  29   2.0000      -0.343873        -9.3572
  30   2.0000      -0.338505        -9.2112
  31   2.0000      -0.323412        -8.8005
  32   2.0000      -0.293951        -7.9988
  33   2.0000      -0.292122        -7.9490
  34   2.0000      -0.285065        -7.7570
  35   2.0000      -0.251107        -6.8330
  36   2.0000      -0.223787        -6.0896
  37   2.0000      -0.193591        -5.2679
  38   0.0000      -0.067313        -1.8317
  39   0.0000      -0.038127        -1.0375
  40   0.0000      -0.001094        -0.0298
  41   0.0000       0.042479         1.1559
  42   0.0000       0.055462         1.5092

MULLIKEN ATOMIC CHARGES
-----------------------
   0 C :   -0.210152
   1 C :   -0.018531
   2 C :   -0.150673
   3 C :   -0.029996
   4 C :   -0.123965
   5 C :    0.134045
   6 C :    0.125853
   7 C :   -0.163098
   8 C :   -0.032100
   9 C :   -0.038967
  10 C :   -0.126466
  11 H :    0.102582
  12 H :    0.117199
  13 H :    0.117197
  14 H :    0.035207
  15 H :    0.048666
  16 H :    0.036152
  17 H :    0.037469
  18 H :    0.049682
  19 H :    0.051362
  20 H :    0.038535
Sum of atomic charges:   -0.0000000

LOEWDIN ATOMIC CHARGES
----------------------
   0 C :   -0.323623
   1 C :   -0.036309
   2 C :   -0.128218
   3 C :   -0.124072
   4 C :   -0.116741
   5 C :   -0.023413
   6 C :   -0.024303
   7 C :   -0.117269
   8 C :   -0.122667
   9 C :   -0.125859
  10 C :   -0.109514
  11 H :    0.125727
  12 H :    0.132151
  13 H :    0.132164
  14 H :    0.120901
  15 H :    0.123776
  16 H :    0.122684
  17 H :    0.123771
  18 H :    0.123577
  19 H :    0.123906
  20 H :    0.123332

  Mayer bond orders larger than 0.100000
B(  0-C ,  1-C ) :   1.1456 B(  0-C , 11-H ) :   0.9377 B(  0-C , 12-H ) :   0.9185
B(  0-C , 13-H ) :   0.9185 B(  1-C ,  2-C ) :   1.4946 B(  1-C ,  6-C ) :   1.2528
B(  2-C ,  3-C ) :   1.2402 B(  2-C , 14-H ) :   0.9548 B(  3-C ,  4-C ) :   1.4499
B(  3-C , 15-H ) :   0.9617 B(  4-C ,  5-C ) :   1.2367 B(  4-C , 16-H ) :   0.9669
B(  5-C ,  6-C ) :   1.2487 B(  5-C , 10-C ) :   1.2434 B(  6-C ,  7-C ) :   1.2666
B(  7-C ,  8-C ) :   1.4592 B(  7-C , 17-H ) :   0.9470 B(  8-C ,  9-C ) :   1.2624
B(  8-C , 18-H ) :   0.9599 B(  9-C , 10-C ) :   1.4549 B(  9-C , 19-H ) :   0.9628
B( 10-C , 20-H ) :   0.9642

Dispersion correction           -0.025821208
FINAL SINGLE POINT ENERGY      -424.269284050095

DIPOLE MOMENT
-------------

Method             : SCF
Type of density    : Electron Density
Multiplicity       :   1
Irrep              :   0
Energy             :  -424.3203777708411053 Eh
Relativity type    :
Basis              : AO
                                X                 Y                 Z
Electronic contribution:      2.336012924       3.429370538       0.000044616
Nuclear contribution   :     -2.383958704      -3.561092651       0.000033626
                        -----------------------------------------
Total Dipole Moment    :     -0.047945780      -0.131722113       0.000078242
                        -----------------------------------------
Magnitude (a.u.)       :      0.140176742
Magnitude (Debye)      :      0.356300962

Rotational constants in cm-1:             0.064142             0.037984             0.023963
Rotational constants in MHz :          1922.930308          1138.727419           718.388528

                             ****ORCA TERMINATED NORMALLY****
TOTAL RUN TIME: 0 days 0 hours 0 minutes 11 seconds 217 msec
