                         Program Version 6.0.0  -   RELEASE  -
|  1> ! pbe def2-sv(p) def2/J RI DEFGRID1 loosescf d4 GCP(DFT/SV(P)) printgap
|  2> %output
|  3>     printlevel normal
|  4> end
|  5> * xyz 0 1
|  6> C -2.5667037781 -0.6686942093 -0.2865091461
|  7> C -1.1718825238 -0.2950649894 0.2270323457
|  8> H -1.2011477828 -0.212316334 1.3244118439
|  9> C -0.7075299844 1.0434640054 -0.3592738551
| 10> H -0.7010755248 0.9529999763 -1.4592219996
| 11> C 0.7169867075 1.3370655225 0.1289319032
| 12> H 0.6914890131 1.5041104317 1.2124475281
| 13> C 1.6573870489 0.1587938808 -0.1614425326
| 14> H 1.822900273 0.0671341106 -1.2469532989
| 15> C 1.0384896724 -1.1652296775 0.3139104569
| 16> H 1.0400169634 -1.1620814376 1.4230666652
| 17> O -0.283431087 -1.3304940055 -0.1534102773
| 18> O 1.7970053308 -2.1946716551 -0.1964396881
| 19> O 2.8785627678 0.3134118433 0.5124041602
| 20> O 1.2124282193 2.536474852 -0.4165788508
| 21> O -1.6007708074 2.0495059034 0.0390254076
| 22> O -3.1108119021 -1.7733531101 0.3836594624
| 23> H -2.5013889644 -0.8576952774 -1.3647781406
| 24> H -3.2368268533 0.1721030332 -0.1023261508
| 25> H 1.4237570828 -3.0504287199 0.0669704829
| 26> H 3.2280450673 1.1996427321 0.3254077365
| 27> H 1.2770566735 2.4586827563 -1.3808655575
| 28> H -1.168245874 2.9118108581 -0.0733330119
| 29> H -2.5366541681 -2.5381329728 0.2346525881
| 30> *
| 31>
| 32>                          ****END OF INPUT****

CARTESIAN COORDINATES (ANGSTROEM)
---------------------------------
  C     -2.566704   -0.668694   -0.286509
  C     -1.171883   -0.295065    0.227032
  H     -1.201148   -0.212316    1.324412
  C     -0.707530    1.043464   -0.359274
  H     -0.701076    0.953000   -1.459222
  C      0.716987    1.337066    0.128932
  H      0.691489    1.504110    1.212448
  C      1.657387    0.158794   -0.161443
  H      1.822900    0.067134   -1.246953
  C      1.038490   -1.165230    0.313910
  H      1.040017   -1.162081    1.423067
  O     -0.283431   -1.330494   -0.153410
  O      1.797005   -2.194672   -0.196440
  O      2.878563    0.313412    0.512404
  O      1.212428    2.536475   -0.416579
  O     -1.600771    2.049506    0.039025
  O     -3.110812   -1.773353    0.383659
  H     -2.501389   -0.857695   -1.364778
  H     -3.236827    0.172103   -0.102326
  H      1.423757   -3.050429    0.066970
  H      3.228045    1.199643    0.325408
  H      1.277057    2.458683   -1.380866
  H     -1.168246    2.911811   -0.073333
  H     -2.536654   -2.538133    0.234653

 Total Charge           Charge          ....    0
 Multiplicity           Mult            ....    1
 Number of Electrons    NEL             ....   96
 Basis Dimension        Dim             ....  192

ORBITAL ENERGIES
----------------

  NO   OCC          E(Eh)            E(eV)
   0   2.0000     -18.778828      -510.9979
   1   2.0000     -18.778340      -510.9846
   2   2.0000     -18.763417      -510.5785
   3   2.0000     -18.759058      -510.4599
   4   2.0000     -18.753732      -510.3150
   5   2.0000     -18.743422      -510.0344
   6   2.0000      -9.992209      -271.9018
   7   2.0000      -9.951895      -270.8048
   8   2.0000      -9.949220      -270.7320
   9   2.0000      -9.947367      -270.6816
  10   2.0000      -9.945257      -270.6242
  11   2.0000      -9.928180      -270.1595
  12   2.0000      -0.988443       -26.8969
  13   2.0000      -0.962378       -26.1876
  14   2.0000      -0.938074       -25.5263
  15   2.0000      -0.926198       -25.2031
  16   2.0000      -0.924059       -25.1449
  17   2.0000      -0.913037       -24.8450
  18   2.0000      -0.710312       -19.3286
  19   2.0000      -0.695355       -18.9216
  20   2.0000      -0.623389       -16.9633
  21   2.0000      -0.586709       -15.9652
  22   2.0000      -0.565847       -15.3975
  23   2.0000      -0.537390       -14.6231
  24   2.0000      -0.508675       -13.8417
  25   2.0000      -0.493304       -13.4235
  26   2.0000      -0.483168       -13.1477
  27   2.0000      -0.462928       -12.5969
  28   2.0000      -0.445694       -12.1279
  29   2.0000      -0.437820       -11.9137
  30   2.0000      -0.430744       -11.7211
  31   2.0000      -0.413818       -11.2606
  32   2.0000      -0.387955       -10.5568
  33   2.0000      -0.374150       -10.1811
  34   2.0000      -0.366163        -9.9638
  35   2.0000      -0.358893        -9.7660
  36   2.0000      -0.323751        -8.8097
  37   2.0000      -0.314165        -8.5489
  38   2.0000      -0.306176        -8.3315
  39   2.0000      -0.300070        -8.1653
  40   2.0000      -0.291336        -7.9276
  41   2.0000      -0.273551        -7.4437
  42   2.0000      -0.259142        -7.0516
  43   2.0000      -0.250263        -6.8100
  44   2.0000      -0.238842        -6.4992
  45   2.0000      -0.226548        -6.1647
  46   2.0000      -0.215661        -5.8684
  47   2.0000      -0.210655        -5.7322
  48   0.0000      -0.000314        -0.0085
  49   0.0000       0.026127         0.7110
  50   0.0000       0.035254         0.9593
  51   0.0000       0.042772         1.1639
  52   0.0000       0.051934         1.4132

MULLIKEN ATOMIC CHARGES
-----------------------
   0 C :    0.098593
   1 C :   -0.019109
   2 H :    0.058984
   3 C :    0.062660
   4 H :    0.037330
   5 C :    0.036960
   6 H :    0.070463
   7 C :    0.040874
   8 H :    0.047547
   9 C :    0.198916
  10 H :    0.044668
  11 O :   -0.321668
  12 O :   -0.366190
  13 O :   -0.406100
  14 O :   -0.419854
  15 O :   -0.410856
  16 O :   -0.431363
  17 H :    0.066222
  18 H :    0.102399
  19 H :    0.305920
  20 H :    0.302407
  21 H :    0.301642
  22 H :    0.304679
  23 H :    0.294879
Sum of atomic charges:    0.0000000

LOEWDIN ATOMIC CHARGES
----------------------
   0 C :   -0.125044
   1 C :   -0.071076
   2 H :    0.108268
   3 C :   -0.077868
   4 H :    0.094559
   5 C :   -0.093089
   6 H :    0.121360
   7 C :   -0.085732
   8 H :    0.102150
   9 C :    0.008380
  10 H :    0.086013
  11 O :   -0.160515
  12 O :   -0.284829
  13 O :   -0.312996
  14 O :   -0.311521
  15 O :   -0.316480
  16 O :   -0.333628
  17 H :    0.100287
  18 H :    0.125401
  19 H :    0.290287
  20 H :    0.284470
  21 H :    0.286114
  22 H :    0.284877
  23 H :    0.280612

  Mayer bond orders larger than 0.100000
B(  0-C ,  1-C ) :   1.0523 B(  0-C , 16-O ) :   1.0831 B(  0-C , 17-H ) :   0.9058
B(  0-C , 18-H ) :   0.9116 B(  1-C ,  2-H ) :   0.8697 B(  1-C ,  3-C ) :   0.9944
B(  1-C , 11-O ) :   0.9819 B(  3-C ,  4-H ) :   0.8628 B(  3-C ,  5-C ) :   1.0095
B(  3-C , 15-O ) :   1.0737 B(  5-C ,  6-H ) :   0.8608 B(  5-C ,  7-C ) :   1.0132
B(  5-C , 14-O ) :   1.0176 B(  7-C ,  8-H ) :   0.8613 B(  7-C ,  9-C ) :   0.9890
B(  7-C , 13-O ) :   1.0825 B(  9-C , 10-H ) :   0.8863 B(  9-C , 11-O ) :   1.0058
B(  9-C , 12-O ) :   1.2020 B( 12-O , 19-H ) :   0.8407 B( 13-O , 20-H ) :   0.8369
B( 14-O , 21-H ) :   0.8452 B( 15-O , 22-H ) :   0.8305 B( 16-O , 23-H ) :   0.8499

Dispersion correction           -0.023568670
FINAL SINGLE POINT ENERGY      -685.699586276719

DIPOLE MOMENT
-------------

Method             : SCF
Type of density    : Electron Density
Multiplicity       :   1
Irrep              :   0
Energy             :  -685.8290990722628067 Eh
Relativity type    :
Basis              : AO
                                X                 Y                 Z
Electronic contribution:      2.213216084      -1.022654850       0.367070489
Nuclear contribution   :     -1.733713191       1.350520859      -0.973687389
                        -----------------------------------------
Total Dipole Moment    :      0.479502892       0.327866009      -0.606616900
                        -----------------------------------------
Magnitude (a.u.)       :      0.839882853
Magnitude (Debye)      :      2.134812557

Rotational constants in cm-1:             0.039250             0.025852             0.016394
Rotational constants in MHz :          1176.671867           775.026835           491.488716

                             ****ORCA TERMINATED NORMALLY****
TOTAL RUN TIME: 0 days 0 hours 0 minutes 11 seconds 959 msec
