                         Program Version 6.0.0  -   RELEASE  -
|  1> ! r2scan-3c def2/J RI DEFGRID2 scfconv6 printgap
|  2> %output
|  3>     printlevel normal
|  4> end
|  5> * xyz 0 1
|  6> C -2.5316046613 0.076016238 -4.62309e-05
|  7> C -1.1231324607 -0.5107189524 8.1937e-05
|  8> C -0.0874295139 0.5997227202 4.62208e-05
|  9> Cl 1.5787129634 -0.079264818 -2.02042e-05
| 10> H -2.6890654778 0.6905857441 -0.8822994926
| 11> H -3.2663905262 -0.7234958108 -0.0002279501
| 12> H -2.6892139333 0.6908213253 0.8821580788
| 13> H -0.9827118699 -1.1368768745 0.8824821356
| 14> H -0.9827071774 -1.1367287232 -0.8824021042
| 15> H -0.1634697697 1.2187045506 0.8924688453
| 16> H -0.1634303397 1.218624332 -0.8924451073
| 17> *
| 18>
| 19>                          ****END OF INPUT****

CARTESIAN COORDINATES (ANGSTROEM)
---------------------------------
  C     -2.531605    0.076016   -0.000046
  C     -1.123132   -0.510719    0.000082
  C     -0.087430    0.599723    0.000046
  Cl     1.578713   -0.079265   -0.000020
  H     -2.689065    0.690586   -0.882299
  H     -3.266391   -0.723496   -0.000228
  H     -2.689214    0.690821    0.882158
  H     -0.982712   -1.136877    0.882482
  H     -0.982707   -1.136729   -0.882402
  H     -0.163470    1.218705    0.892469
  H     -0.163430    1.218624   -0.892445

 Total Charge           Charge          ....    0
 Multiplicity           Mult            ....    1
 Number of Electrons    NEL             ....   42
 Basis Dimension        Dim             ....  119

ORBITAL ENERGIES
----------------

  NO   OCC          E(Eh)            E(eV)
   0   2.0000    -101.196876     -2753.7070
   1   2.0000     -10.091763      -274.6108
   2   2.0000     -10.043219      -273.2899
   3   2.0000     -10.032288      -272.9924
   4   2.0000      -9.352911      -254.5056
   5   2.0000      -7.099113      -193.1767
   6   2.0000      -7.088966      -192.9006
   7   2.0000      -7.088950      -192.9001
   8   2.0000      -0.820550       -22.3283
   9   2.0000      -0.744606       -20.2618
  10   2.0000      -0.639779       -17.4093
  11   2.0000      -0.568793       -15.4776
  12   2.0000      -0.459235       -12.4964
  13   2.0000      -0.419088       -11.4040
  14   2.0000      -0.399672       -10.8756
  15   2.0000      -0.387180       -10.5357
  16   2.0000      -0.340609        -9.2684
  17   2.0000      -0.332910        -9.0589
  18   2.0000      -0.320285        -8.7154
  19   2.0000      -0.263222        -7.1626
  20   2.0000      -0.262756        -7.1500
  21   0.0000       0.008617         0.2345
  22   0.0000       0.097413         2.6508
  23   0.0000       0.107088         2.9140
  24   0.0000       0.134112         3.6494
  25   0.0000       0.138428         3.7668

MULLIKEN ATOMIC CHARGES
-----------------------
   0 C :   -0.455229
   1 C :   -0.242505
   2 C :   -0.145398
   3 Cl:   -0.203751
   4 H :    0.142259
   5 H :    0.153756
   6 H :    0.142246
   7 H :    0.150065
   8 H :    0.150055
   9 H :    0.154250
  10 H :    0.154251
Sum of atomic charges:    0.0000000

LOEWDIN ATOMIC CHARGES
----------------------
   0 C :   -0.421759
   1 C :   -0.336848
   2 C :   -0.323672
   3 Cl:   -0.006393
   4 H :    0.151341
   5 H :    0.156295
   6 H :    0.151358
   7 H :    0.158289
   8 H :    0.158285
   9 H :    0.156549
  10 H :    0.156554

  Mayer bond orders larger than 0.100000
B(  0-C ,  1-C ) :   0.8965 B(  0-C ,  4-H ) :   0.9772 B(  0-C ,  5-H ) :   0.9672
B(  0-C ,  6-H ) :   0.9772 B(  1-C ,  2-C ) :   0.9481 B(  1-C ,  7-H ) :   0.9631
B(  1-C ,  8-H ) :   0.9631 B(  2-C ,  3-Cl) :   0.9777 B(  2-C ,  9-H ) :   0.9585
B(  2-C , 10-H ) :   0.9585

Dispersion correction           -0.002216679
FINAL SINGLE POINT ENERGY      -578.670278479284

DIPOLE MOMENT
-------------

Method             : SCF
Type of density    : Electron Density
Multiplicity       :   1
Irrep              :   0
Energy             :  -578.6755950577420435 Eh
Relativity type    :
Basis              : AO
                                X                 Y                 Z
Electronic contribution:     11.498378398      -0.663047387       0.000158719
Nuclear contribution   :    -12.379683229       0.877222172      -0.000222057
                        -----------------------------------------
Total Dipole Moment    :     -0.881304831       0.214174785      -0.000063338
                        -----------------------------------------
Magnitude (a.u.)       :      0.906955924
Magnitude (Debye)      :      2.305298753

Rotational constants in cm-1:             0.861031             0.079270             0.075680
Rotational constants in MHz :         25813.050977          2376.455358          2268.817832

                             ****ORCA TERMINATED NORMALLY****
TOTAL RUN TIME: 0 days 0 hours 0 minutes 10 seconds 375 msec
