                         Program Version 6.0.0  -   RELEASE  -
|  1> ! r2scan-3c def2/J RI DEFGRID2 scfconv6 printgap
|  2> %output
|  3>     printlevel normal
|  4> end
|  5> %cpcm
|  6>     smd true
|  7>     smdsolvent "water"
|  8> end
|  9> * xyz 0 1
| 10> C -2.5316046613 0.076016238 -4.62309e-05
| 11> C -1.1231324607 -0.5107189524 8.1937e-05
| 12> C -0.0874295139 0.5997227202 4.62208e-05
| 13> Cl 1.5787129634 -0.079264818 -2.02042e-05
| 14> H -2.6890654778 0.6905857441 -0.8822994926
| 15> H -3.2663905262 -0.7234958108 -0.0002279501
| 16> H -2.6892139333 0.6908213253 0.8821580788
| 17> H -0.9827118699 -1.1368768745 0.8824821356
| 18> H -0.9827071774 -1.1367287232 -0.8824021042
| 19> H -0.1634697697 1.2187045506 0.8924688453
| 20> H -0.1634303397 1.218624332 -0.8924451073
| 21> *
| 22>
| 23>                          ****END OF INPUT****

CARTESIAN COORDINATES (ANGSTROEM)
---------------------------------
  C     -2.531605    0.076016   -0.000046
  C     -1.123132   -0.510719    0.000082
  C     -0.087430    0.599723    0.000046
  Cl     1.578713   -0.079265   -0.000020
  H     -2.689065    0.690586   -0.882299
  H     -3.266391   -0.723496   -0.000228
  H     -2.689214    0.690821    0.882158
  H     -0.982712   -1.136877    0.882482
  H     -0.982707   -1.136729   -0.882402
  H     -0.163470    1.218705    0.892469
  H     -0.163430    1.218624   -0.892445

 Total Charge           Charge          ....    0
 Multiplicity           Mult            ....    1
 Number of Electrons    NEL             ....   42
 Basis Dimension        Dim             ....  119

ORBITAL ENERGIES
----------------

  NO   OCC          E(Eh)            E(eV)
   0   2.0000    -101.198200     -2753.7430
   1   2.0000     -10.080375      -274.3009
   2   2.0000     -10.029231      -272.9092
   3   2.0000     -10.014333      -272.5038
   4   2.0000      -9.354621      -254.5522
   5   2.0000      -7.100394      -193.2116
   6   2.0000      -7.090855      -192.9520
   7   2.0000      -7.090841      -192.9516
   8   2.0000      -0.816457       -22.2169
   9   2.0000      -0.732871       -19.9424
  10   2.0000      -0.627742       -17.0817
  11   2.0000      -0.554850       -15.0982
  12   2.0000      -0.444562       -12.0971
  13   2.0000      -0.408697       -11.1212
  14   2.0000      -0.388545       -10.5728
  15   2.0000      -0.372006       -10.1228
  16   2.0000      -0.330018        -8.9802
  17   2.0000      -0.318528        -8.6676
  18   2.0000      -0.304419        -8.2837
  19   2.0000      -0.264296        -7.1919
  20   2.0000      -0.263727        -7.1764
  21   0.0000       0.013504         0.3675
  22   0.0000       0.111774         3.0415
  23   0.0000       0.119508         3.2520
  24   0.0000       0.146240         3.9794
  25   0.0000       0.156264         4.2521

MULLIKEN ATOMIC CHARGES
-----------------------
   0 C :   -0.496825
   1 C :   -0.246724
   2 C :   -0.153322
   3 Cl:   -0.253319
   4 H :    0.156885
   5 H :    0.164417
   6 H :    0.156872
   7 H :    0.156593
   8 H :    0.156584
   9 H :    0.179420
  10 H :    0.179419
Sum of atomic charges:    0.0000000

LOEWDIN ATOMIC CHARGES
----------------------
   0 C :   -0.425870
   1 C :   -0.337055
   2 C :   -0.318218
   3 Cl:   -0.040074
   4 H :    0.155678
   5 H :    0.158942
   6 H :    0.155694
   7 H :    0.159383
   8 H :    0.159380
   9 H :    0.166068
  10 H :    0.166072

  Mayer bond orders larger than 0.100000
B(  0-C ,  1-C ) :   0.8982 B(  0-C ,  4-H ) :   0.9749 B(  0-C ,  5-H ) :   0.9647
B(  0-C ,  6-H ) :   0.9749 B(  1-C ,  2-C ) :   0.9422 B(  1-C ,  7-H ) :   0.9631
B(  1-C ,  8-H ) :   0.9631 B(  2-C ,  3-Cl) :   0.9344 B(  2-C ,  9-H ) :   0.9516
B(  2-C , 10-H ) :   0.9516

Dispersion correction           -0.002216679
FINAL SINGLE POINT ENERGY      -578.672259725780

DIPOLE MOMENT
-------------

Method             : SCF
Type of density    : Electron Density
Multiplicity       :   1
Irrep              :   0
Energy             :  -578.6775763042385279 Eh
Relativity type    :
Basis              : AO
                                X                 Y                 Z
Electronic contribution:     11.261789607      -0.546025591       0.000130646
Nuclear contribution   :    -12.379683229       0.877222172      -0.000222057
                        -----------------------------------------
Total Dipole Moment    :     -1.117893622       0.331196581      -0.000091411
                        -----------------------------------------
Magnitude (a.u.)       :      1.165923382
Magnitude (Debye)      :      2.963541721

Rotational constants in cm-1:             0.861031             0.079270             0.075680
Rotational constants in MHz :         25813.050977          2376.455358          2268.817832

                             ****ORCA TERMINATED NORMALLY****
TOTAL RUN TIME: 0 days 0 hours 0 minutes 12 seconds 920 msec
