                         Program Version 6.0.0  -   RELEASE  -
|  1> ! wb97x-v def2-tzvp def2/J RIJCOSX DEFGRID2 scfconv7 GCP(DFT/TZ) printgap
|  2> %output
|  3>     printlevel normal
|  4> end
|  5> * xyz 0 1
|  6> C -2.1909972757715774 0.3305532308861123 0.3109043003025315
|  7> C -1.0073960096765004 0.13582219685063981 -0.6451162003876448
|  8> C 0.0045914291390441115 -0.8168774340933719 -0.08500735651521527
|  9> C 1.2735826970761375 -0.5602720573483163 0.2527609437320389
| 10> C 2.00403401831742 0.7398877333803217 0.13874704496643803
| 11> H -1.8575980960415093 0.7693513205091871 1.2571089027570757
| 12> H -2.673813112520966 -0.6265683816769477 0.5359352660963788
| 13> H -2.9439777253880712 0.993860366720925 -0.1267562479804302
| 14> H -1.3872801816813187 -0.26780325169598956 -1.5935288347276342
| 15> H -0.5546064361329638 1.1049092307768258 -0.8742322489829112
| 16> H -0.3651475432618762 -1.8301422381703005 0.08024486079346109
| 17> H 1.8599591709190126 -1.3835510799961035 0.6615651413253953
| 18> H 2.874872752799818 0.6366923966199305 -0.5205402853970503
| 19> H 2.3948304262580953 1.0460766483726878 1.116829616371078
| 20> H 1.3803896915143452 1.5493243294877377 -0.24630760009678834
| 21> *
| 22>
| 23>                          ****END OF INPUT****

CARTESIAN COORDINATES (ANGSTROEM)
---------------------------------
  C     -2.190997    0.330553    0.310904
  C     -1.007396    0.135822   -0.645116
  C      0.004591   -0.816877   -0.085007
  C      1.273583   -0.560272    0.252761
  C      2.004034    0.739888    0.138747
  H     -1.857598    0.769351    1.257109
  H     -2.673813   -0.626568    0.535935
  H     -2.943978    0.993860   -0.126756
  H     -1.387280   -0.267803   -1.593529
  H     -0.554606    1.104909   -0.874232
  H     -0.365148   -1.830142    0.080245
  H      1.859959   -1.383551    0.661565
  H      2.874873    0.636692   -0.520540
  H      2.394830    1.046077    1.116830
  H      1.380390    1.549324   -0.246308

 Total Charge           Charge          ....    0
 Multiplicity           Mult            ....    1
 Number of Electrons    NEL             ....   40
 Basis Dimension        Dim             ....  215

ORBITAL ENERGIES
----------------

  NO   OCC          E(Eh)            E(eV)
   0   2.0000     -12.043812      -327.7288
   1   2.0000     -12.042794      -327.7011
   2   2.0000     -12.038993      -327.5977
   3   2.0000     -12.038276      -327.5781
   4   2.0000     -12.034818      -327.4840
   5   2.0000      -1.318756       -35.8852
   6   2.0000      -1.256105       -34.1804
   7   2.0000      -1.182875       -32.1877
   8   2.0000      -1.104304       -30.0496
   9   2.0000      -0.989034       -26.9130
  10   2.0000      -0.918165       -24.9845
  11   2.0000      -0.885311       -24.0905
  12   2.0000      -0.855320       -23.2744
  13   2.0000      -0.830456       -22.5979
  14   2.0000      -0.822277       -22.3753
  15   2.0000      -0.811351       -22.0780
  16   2.0000      -0.799400       -21.7528
  17   2.0000      -0.769860       -20.9490
  18   2.0000      -0.758962       -20.6524
  19   2.0000      -0.637179       -17.3385
  20   0.0000      -0.192824        -5.2470
  21   0.0000      -0.031199        -0.8490
  22   0.0000      -0.004109        -0.1118
  23   0.0000       0.004631         0.1260
  24   0.0000       0.009732         0.2648

MULLIKEN ATOMIC CHARGES
-----------------------
   0 C :   -0.334296
   1 C :   -0.114843
   2 C :   -0.165323
   3 C :   -0.133689
   4 C :   -0.301009
   5 H :    0.109520
   6 H :    0.104891
   7 H :    0.110501
   8 H :    0.095227
   9 H :    0.082594
  10 H :    0.106606
  11 H :    0.106207
  12 H :    0.116662
  13 H :    0.115913
  14 H :    0.101039
Sum of atomic charges:    0.0000000

LOEWDIN ATOMIC CHARGES
----------------------
   0 C :   -0.300613
   1 C :   -0.275863
   2 C :   -0.186073
   3 C :   -0.205916
   4 C :   -0.291146
   5 H :    0.117272
   6 H :    0.116129
   7 H :    0.114518
   8 H :    0.137209
   9 H :    0.131018
  10 H :    0.139683
  11 H :    0.137425
  12 H :    0.124466
  13 H :    0.124185
  14 H :    0.117706

  Mayer bond orders larger than 0.100000
B(  0-C ,  1-C ) :   0.9696 B(  0-C ,  5-H ) :   0.9787 B(  0-C ,  6-H ) :   0.9828
B(  0-C ,  7-H ) :   0.9795 B(  1-C ,  2-C ) :   0.9599 B(  1-C ,  8-H ) :   0.9724
B(  1-C ,  9-H ) :   0.9842 B(  2-C ,  3-C ) :   1.9747 B(  2-C , 10-H ) :   0.9578
B(  3-C ,  4-C ) :   0.9563 B(  3-C , 11-H ) :   0.9639 B(  4-C , 12-H ) :   0.9712
B(  4-C , 13-H ) :   0.9717 B(  4-C , 14-H ) :   0.9897

FINAL SINGLE POINT ENERGY      -196.536604482435

DIPOLE MOMENT
-------------

Method             : SCF
Type of density    : Electron Density
Multiplicity       :   1
Irrep              :   0
Energy             :  -196.5462218122347053 Eh
Relativity type    :
Basis              : AO
                                X                 Y                 Z
Electronic contribution:      1.159687270      -1.777294256      -0.302681405
Nuclear contribution   :     -1.156808860       1.874930697       0.277747334
                        -----------------------------------------
Total Dipole Moment    :      0.002878409       0.097636442      -0.024934071
                        -----------------------------------------
Magnitude (a.u.)       :      0.100811050
Magnitude (Debye)      :      0.256241326

Rotational constants in cm-1:             0.362314             0.087162             0.079622
Rotational constants in MHz :         10861.887551          2613.045950          2387.006570

                             ****ORCA TERMINATED NORMALLY****
TOTAL RUN TIME: 0 days 0 hours 1 minutes 6 seconds 38 msec
