                         Program Version 6.0.0  -   RELEASE  -
|  1> ! wb97x-v def2-tzvp def2/J RIJCOSX DEFGRID2 scfconv7 GCP(DFT/TZ) printgap
|  2> %output
|  3>     printlevel normal
|  4> end
|  5> %cpcm
|  6>     smd true
|  7>     smdsolvent "water"
|  8> end
|  9> * xyz 0 1
| 10> C -2.1909972757715774 0.3305532308861123 0.3109043003025315
| 11> C -1.0073960096765004 0.13582219685063981 -0.6451162003876448
| 12> C 0.0045914291390441115 -0.8168774340933719 -0.08500735651521527
| 13> C 1.2735826970761375 -0.5602720573483163 0.2527609437320389
| 14> C 2.00403401831742 0.7398877333803217 0.13874704496643803
| 15> H -1.8575980960415093 0.7693513205091871 1.2571089027570757
| 16> H -2.673813112520966 -0.6265683816769477 0.5359352660963788
| 17> H -2.9439777253880712 0.993860366720925 -0.1267562479804302
| 18> H -1.3872801816813187 -0.26780325169598956 -1.5935288347276342
| 19> H -0.5546064361329638 1.1049092307768258 -0.8742322489829112
| 20> H -0.3651475432618762 -1.8301422381703005 0.08024486079346109
| 21> H 1.8599591709190126 -1.3835510799961035 0.6615651413253953
| 22> H 2.874872752799818 0.6366923966199305 -0.5205402853970503
| 23> H 2.3948304262580953 1.0460766483726878 1.116829616371078
| 24> H 1.3803896915143452 1.5493243294877377 -0.24630760009678834
| 25> *
| 26>
| 27>                          ****END OF INPUT****

CARTESIAN COORDINATES (ANGSTROEM)
---------------------------------
  C     -2.190997    0.330553    0.310904
  C     -1.007396    0.135822   -0.645116
  C      0.004591   -0.816877   -0.085007
  C      1.273583   -0.560272    0.252761
  C      2.004034    0.739888    0.138747
  H     -1.857598    0.769351    1.257109
  H     -2.673813   -0.626568    0.535935
  H     -2.943978    0.993860   -0.126756
  H     -1.387280   -0.267803   -1.593529
  H     -0.554606    1.104909   -0.874232
  H     -0.365148   -1.830142    0.080245
  H      1.859959   -1.383551    0.661565
  H      2.874873    0.636692   -0.520540
  H      2.394830    1.046077    1.116830
  H      1.380390    1.549324   -0.246308

 Total Charge           Charge          ....    0
 Multiplicity           Mult            ....    1
 Number of Electrons    NEL             ....   40
 Basis Dimension        Dim             ....  215

ORBITAL ENERGIES
----------------

  NO   OCC          E(Eh)            E(eV)
   0   2.0000     -12.040125      -327.6285
   1   2.0000     -12.036878      -327.5401
   2   2.0000     -12.035441      -327.5010
   3   2.0000     -12.030647      -327.3705
   4   2.0000     -12.027770      -327.2923
   5   2.0000      -1.315451       -35.7953
   6   2.0000      -1.250340       -34.0235
   7   2.0000      -1.177560       -32.0430
   8   2.0000      -1.098667       -29.8962
   9   2.0000      -0.983793       -26.7704
  10   2.0000      -0.913595       -24.8602
  11   2.0000      -0.880121       -23.9493
  12   2.0000      -0.848862       -23.0987
  13   2.0000      -0.824060       -22.4238
  14   2.0000      -0.815453       -22.1896
  15   2.0000      -0.805218       -21.9111
  16   2.0000      -0.792440       -21.5634
  17   2.0000      -0.763609       -20.7789
  18   2.0000      -0.752490       -20.4763
  19   2.0000      -0.636173       -17.3111
  20   0.0000      -0.191375        -5.2076
  21   0.0000      -0.024696        -0.6720
  22   0.0000       0.006787         0.1847
  23   0.0000       0.010748         0.2925
  24   0.0000       0.016672         0.4537

MULLIKEN ATOMIC CHARGES
-----------------------
   0 C :   -0.384950
   1 C :   -0.125407
   2 C :   -0.230765
   3 C :   -0.182158
   4 C :   -0.345860
   5 H :    0.119888
   6 H :    0.122671
   7 H :    0.128223
   8 H :    0.109428
   9 H :    0.108165
  10 H :    0.142772
  11 H :    0.141268
  12 H :    0.134315
  13 H :    0.134304
  14 H :    0.128108
Sum of atomic charges:    0.0000000

LOEWDIN ATOMIC CHARGES
----------------------
   0 C :   -0.306991
   1 C :   -0.277852
   2 C :   -0.199938
   3 C :   -0.218956
   4 C :   -0.296430
   5 H :    0.117971
   6 H :    0.119047
   7 H :    0.118064
   8 H :    0.140639
   9 H :    0.136319
  10 H :    0.145162
  11 H :    0.142916
  12 H :    0.128525
  13 H :    0.128446
  14 H :    0.123078

  Mayer bond orders larger than 0.100000
B(  0-C ,  1-C ) :   0.9624 B(  0-C ,  5-H ) :   0.9766 B(  0-C ,  6-H ) :   0.9805
B(  0-C ,  7-H ) :   0.9768 B(  1-C ,  2-C ) :   0.9566 B(  1-C ,  8-H ) :   0.9665
B(  1-C ,  9-H ) :   0.9834 B(  2-C ,  3-C ) :   1.9473 B(  2-C , 10-H ) :   0.9594
B(  3-C ,  4-C ) :   0.9557 B(  3-C , 11-H ) :   0.9649 B(  4-C , 12-H ) :   0.9660
B(  4-C , 13-H ) :   0.9666 B(  4-C , 14-H ) :   0.9868

FINAL SINGLE POINT ENERGY      -196.535242528831

DIPOLE MOMENT
-------------

Method             : SCF
Type of density    : Electron Density
Multiplicity       :   1
Irrep              :   0
Energy             :  -196.5448598586309856 Eh
Relativity type    :
Basis              : AO
                                X                 Y                 Z
Electronic contribution:      1.153050112      -1.725592244      -0.325186171
Nuclear contribution   :     -1.156808860       1.874930697       0.277747334
                        -----------------------------------------
Total Dipole Moment    :     -0.003758748       0.149338453      -0.047438838
                        -----------------------------------------
Magnitude (a.u.)       :      0.156737185
Magnitude (Debye)      :      0.398394262

Rotational constants in cm-1:             0.362314             0.087162             0.079622
Rotational constants in MHz :         10861.887551          2613.045950          2387.006570

                             ****ORCA TERMINATED NORMALLY****
TOTAL RUN TIME: 0 days 0 hours 1 minutes 3 seconds 59 msec
