                         Program Version 6.0.0  -   RELEASE  -
|  1> ! wb97x-v def2-tzvp def2/J RIJCOSX DEFGRID2 scfconv7 GCP(DFT/TZ) printgap
|  2> %output
|  3>     printlevel normal
|  4> end
|  5> * xyz 0 1
|  6> C 0.6896590927134453 -1.4282516759196129 -0.10026030012485963
|  7> C 0.4495226380693265 0.01053491980774559 0.33568268004096363
|  8> C 1.618782211537863 0.9102459040332598 -0.01747528317010981
|  9> O -0.7095538665572485 0.5842167310869288 -0.31127505991402826
| 10> C -1.9422068187436223 0.002162508103633241 0.10943312166859546
| 11> H 0.8285790642876059 -1.4787876049481876 -1.1860669158164838
| 12> H 1.5950743163797718 -1.8108248151840383 0.3810377901283606
| 13> H -0.13702854846208704 -2.086602708581697 0.18022184301958008
| 14> H 0.27654311078214083 0.038242057137703865 1.4240245920125971
| 15> H 2.5275022507646807 0.5575290420848299 0.47842639575482554
| 16> H 1.4289879932119418 1.9398413517152948 0.300264565463919
| 17> H 1.792425102990354 0.9029083489795978 -1.0991803328706662
| 18> H -2.0633328269681237 -1.025899519741256 -0.2564501519434092
| 19> H -2.7446204488848434 0.6164580391254305 -0.3077147475985016
| 20> H -2.02595672299944 0.001982963970348954 1.206179355838898
| 21> *
| 22>
| 23>                          ****END OF INPUT****

CARTESIAN COORDINATES (ANGSTROEM)
---------------------------------
  C      0.689659   -1.428252   -0.100260
  C      0.449523    0.010535    0.335683
  C      1.618782    0.910246   -0.017475
  O     -0.709554    0.584217   -0.311275
  C     -1.942207    0.002163    0.109433
  H      0.828579   -1.478788   -1.186067
  H      1.595074   -1.810825    0.381038
  H     -0.137029   -2.086603    0.180222
  H      0.276543    0.038242    1.424025
  H      2.527502    0.557529    0.478426
  H      1.428988    1.939841    0.300265
  H      1.792425    0.902908   -1.099180
  H     -2.063333   -1.025900   -0.256450
  H     -2.744620    0.616458   -0.307715
  H     -2.025957    0.001983    1.206179

 Total Charge           Charge          ....    0
 Multiplicity           Mult            ....    1
 Number of Electrons    NEL             ....   42
 Basis Dimension        Dim             ....  215

ORBITAL ENERGIES
----------------

  NO   OCC          E(Eh)            E(eV)
   0   2.0000     -21.666867      -589.5854
   1   2.0000     -12.096107      -329.1518
   2   2.0000     -12.083248      -328.8019
   3   2.0000     -12.035554      -327.5041
   4   2.0000     -12.032075      -327.4094
   5   2.0000      -1.668489       -45.4019
   6   2.0000      -1.302540       -35.4439
   7   2.0000      -1.199917       -32.6514
   8   2.0000      -1.177864       -32.0513
   9   2.0000      -1.077308       -29.3150
  10   2.0000      -0.981660       -26.7123
  11   2.0000      -0.953619       -25.9493
  12   2.0000      -0.944979       -25.7142
  13   2.0000      -0.870710       -23.6932
  14   2.0000      -0.838092       -22.8056
  15   2.0000      -0.826572       -22.4922
  16   2.0000      -0.810402       -22.0522
  17   2.0000      -0.805846       -21.9282
  18   2.0000      -0.796119       -21.6635
  19   2.0000      -0.782200       -21.2847
  20   2.0000      -0.758922       -20.6513
  21   0.0000      -0.160680        -4.3723
  22   0.0000      -0.098835        -2.6894
  23   0.0000      -0.023344        -0.6352
  24   0.0000      -0.010134        -0.2758
  25   0.0000       0.003169         0.0862

MULLIKEN ATOMIC CHARGES
-----------------------
   0 C :   -0.344281
   1 C :    0.102422
   2 C :   -0.312254
   3 O :   -0.295659
   4 C :   -0.192843
   5 H :    0.113252
   6 H :    0.109474
   7 H :    0.112734
   8 H :    0.056823
   9 H :    0.101233
  10 H :    0.116755
  11 H :    0.109795
  12 H :    0.102679
  13 H :    0.124072
  14 H :    0.095799
Sum of atomic charges:   -0.0000000

LOEWDIN ATOMIC CHARGES
----------------------
   0 C :   -0.287138
   1 C :   -0.370389
   2 C :   -0.280844
   3 O :    0.127467
   4 C :   -0.345141
   5 H :    0.122876
   6 H :    0.122948
   7 H :    0.116187
   8 H :    0.128566
   9 H :    0.120377
  10 H :    0.121189
  11 H :    0.122374
  12 H :    0.095903
  13 H :    0.108266
  14 H :    0.097358

  Mayer bond orders larger than 0.100000
B(  0-C ,  1-C ) :   0.9642 B(  0-C ,  5-H ) :   0.9732 B(  0-C ,  6-H ) :   0.9741
B(  0-C ,  7-H ) :   0.9797 B(  1-C ,  2-C ) :   0.9877 B(  1-C ,  3-O ) :   1.0116
B(  1-C ,  8-H ) :   0.9779 B(  2-C ,  9-H ) :   0.9735 B(  2-C , 10-H ) :   0.9794
B(  2-C , 11-H ) :   0.9764 B(  3-O ,  4-C ) :   1.0010 B(  4-C , 12-H ) :   0.9772
B(  4-C , 13-H ) :   0.9806 B(  4-C , 14-H ) :   0.9743

FINAL SINGLE POINT ENERGY      -233.667077233879

DIPOLE MOMENT
-------------

Method             : SCF
Type of density    : Electron Density
Multiplicity       :   1
Irrep              :   0
Energy             :  -233.6778588314790284 Eh
Relativity type    :
Basis              : AO
                                X                 Y                 Z
Electronic contribution:     -1.369894302       1.917710489      -0.688650029
Nuclear contribution   :      1.384418801      -2.307357830       1.036483003
                        -----------------------------------------
Total Dipole Moment    :      0.014524499      -0.389647341       0.347832974
                        -----------------------------------------
Magnitude (a.u.)       :      0.522516784
Magnitude (Debye)      :      1.328132116

Rotational constants in cm-1:             0.254974             0.125710             0.093512
Rotational constants in MHz :          7643.920264          3768.694552          2803.414851

                             ****ORCA TERMINATED NORMALLY****
TOTAL RUN TIME: 0 days 0 hours 1 minutes 8 seconds 245 msec
