                         Program Version 6.0.0  -   RELEASE  -
|  1> ! wb97x-v def2-tzvp def2/J RIJCOSX DEFGRID2 scfconv7 GCP(DFT/TZ) printgap
|  2> %output
|  3>     printlevel normal
|  4> end
|  5> %cpcm
|  6>     smd true
|  7>     smdsolvent "water"
|  8> end
|  9> * xyz 0 1
| 10> C 0.6896590927134453 -1.4282516759196129 -0.10026030012485963
| 11> C 0.4495226380693265 0.01053491980774559 0.33568268004096363
| 12> C 1.618782211537863 0.9102459040332598 -0.01747528317010981
| 13> O -0.7095538665572485 0.5842167310869288 -0.31127505991402826
| 14> C -1.9422068187436223 0.002162508103633241 0.10943312166859546
| 15> H 0.8285790642876059 -1.4787876049481876 -1.1860669158164838
| 16> H 1.5950743163797718 -1.8108248151840383 0.3810377901283606
| 17> H -0.13702854846208704 -2.086602708581697 0.18022184301958008
| 18> H 0.27654311078214083 0.038242057137703865 1.4240245920125971
| 19> H 2.5275022507646807 0.5575290420848299 0.47842639575482554
| 20> H 1.4289879932119418 1.9398413517152948 0.300264565463919
| 21> H 1.792425102990354 0.9029083489795978 -1.0991803328706662
| 22> H -2.0633328269681237 -1.025899519741256 -0.2564501519434092
| 23> H -2.7446204488848434 0.6164580391254305 -0.3077147475985016
| 24> H -2.02595672299944 0.001982963970348954 1.206179355838898
| 25> *
| 26>
| 27>                          ****END OF INPUT****

CARTESIAN COORDINATES (ANGSTROEM)
---------------------------------
  C      0.689659   -1.428252   -0.100260
  C      0.449523    0.010535    0.335683
  C      1.618782    0.910246   -0.017475
  O     -0.709554    0.584217   -0.311275
  C     -1.942207    0.002163    0.109433
  H      0.828579   -1.478788   -1.186067
  H      1.595074   -1.810825    0.381038
  H     -0.137029   -2.086603    0.180222
  H      0.276543    0.038242    1.424025
  H      2.527502    0.557529    0.478426
  H      1.428988    1.939841    0.300265
  H      1.792425    0.902908   -1.099180
  H     -2.063333   -1.025900   -0.256450
  H     -2.744620    0.616458   -0.307715
  H     -2.025957    0.001983    1.206179

 Total Charge           Charge          ....    0
 Multiplicity           Mult            ....    1
 Number of Electrons    NEL             ....   42
 Basis Dimension        Dim             ....  215

ORBITAL ENERGIES
----------------

  NO   OCC          E(Eh)            E(eV)
   0   2.0000     -21.672987      -589.7520
   1   2.0000     -12.091203      -329.0184
   2   2.0000     -12.076563      -328.6200
   3   2.0000     -12.026690      -327.2629
   4   2.0000     -12.025801      -327.2387
   5   2.0000      -1.674708       -45.5711
   6   2.0000      -1.298822       -35.3427
   7   2.0000      -1.195913       -32.5425
   8   2.0000      -1.172614       -31.9085
   9   2.0000      -1.075353       -29.2618
  10   2.0000      -0.980338       -26.6763
  11   2.0000      -0.957812       -26.0634
  12   2.0000      -0.945707       -25.7340
  13   2.0000      -0.865457       -23.5503
  14   2.0000      -0.832748       -22.6602
  15   2.0000      -0.819717       -22.3056
  16   2.0000      -0.803710       -21.8701
  17   2.0000      -0.800475       -21.7820
  18   2.0000      -0.791769       -21.5451
  19   2.0000      -0.776228       -21.1222
  20   2.0000      -0.754354       -20.5270
  21   0.0000      -0.157790        -4.2937
  22   0.0000      -0.096786        -2.6337
  23   0.0000      -0.011529        -0.3137
  24   0.0000      -0.003117        -0.0848
  25   0.0000       0.009790         0.2664

MULLIKEN ATOMIC CHARGES
-----------------------
   0 C :   -0.395023
   1 C :    0.114116
   2 C :   -0.367655
   3 O :   -0.382096
   4 C :   -0.221666
   5 H :    0.121204
   6 H :    0.133465
   7 H :    0.138074
   8 H :    0.085719
   9 H :    0.129149
  10 H :    0.128365
  11 H :    0.122804
  12 H :    0.128671
  13 H :    0.141437
  14 H :    0.123437
Sum of atomic charges:   -0.0000000

LOEWDIN ATOMIC CHARGES
----------------------
   0 C :   -0.290312
   1 C :   -0.369072
   2 C :   -0.289667
   3 O :    0.090028
   4 C :   -0.346019
   5 H :    0.123373
   6 H :    0.129052
   7 H :    0.121769
   8 H :    0.137260
   9 H :    0.128089
  10 H :    0.121044
  11 H :    0.123020
  12 H :    0.103872
  13 H :    0.111440
  14 H :    0.106122

  Mayer bond orders larger than 0.100000
B(  0-C ,  1-C ) :   0.9687 B(  0-C ,  5-H ) :   0.9674 B(  0-C ,  6-H ) :   0.9706
B(  0-C ,  7-H ) :   0.9751 B(  1-C ,  2-C ) :   0.9820 B(  1-C ,  3-O ) :   0.9747
B(  1-C ,  8-H ) :   0.9813 B(  2-C ,  9-H ) :   0.9713 B(  2-C , 10-H ) :   0.9767
B(  2-C , 11-H ) :   0.9708 B(  3-O ,  4-C ) :   0.9656 B(  4-C , 12-H ) :   0.9759
B(  4-C , 13-H ) :   0.9732 B(  4-C , 14-H ) :   0.9739

FINAL SINGLE POINT ENERGY      -233.669457427495

DIPOLE MOMENT
-------------

Method             : SCF
Type of density    : Electron Density
Multiplicity       :   1
Irrep              :   0
Energy             :  -233.6802390250954318 Eh
Relativity type    :
Basis              : AO
                                X                 Y                 Z
Electronic contribution:     -1.350076590       1.698978928      -0.476669422
Nuclear contribution   :      1.384418801      -2.307357830       1.036483003
                        -----------------------------------------
Total Dipole Moment    :      0.034342212      -0.608378902       0.559813581
                        -----------------------------------------
Magnitude (a.u.)       :      0.827463305
Magnitude (Debye)      :      2.103244573

Rotational constants in cm-1:             0.254974             0.125710             0.093512
Rotational constants in MHz :          7643.920264          3768.694552          2803.414851

                             ****ORCA TERMINATED NORMALLY****
TOTAL RUN TIME: 0 days 0 hours 1 minutes 17 seconds 298 msec
