                         Program Version 6.0.0  -   RELEASE  -
|  1> ! pbe def2-sv(p) def2/J RI DEFGRID1 loosescf d4 GCP(DFT/SV(P)) printgap
|  2> %output
|  3>     printlevel normal
|  4> end
|  5> * xyz 0 1
|  6> C -2.4373354052 -0.2121450545 -0.5849028946
|  7> C -1.2178852688 -0.2078969134 0.345761872
|  8> H -1.5154314127 -0.5628692008 1.3470111217
|  9> C -0.6060377088 1.2037431576 0.4838699966
| 10> H -1.3579413368 1.9460055833 0.1923114194
| 11> C 0.5921348768 1.3449541093 -0.4679662798
| 12> H 1.0347006323 2.341454532 -0.3122859717
| 13> C 1.6698011917 0.308550719 -0.0807417235
| 14> H 2.3092262967 0.0902176205 -0.9424696939
| 15> C 1.0040906346 -1.021125298 0.3405879912
| 16> H 0.9387122204 -1.0454392379 1.4489370183
| 17> O -0.2939729299 -1.1413293963 -0.1960446388
| 18> O 1.7681173665 -2.0653036633 -0.1393370817
| 19> O 2.5208703262 0.8083818688 0.9137098789
| 20> O 0.1147983418 1.2101490956 -1.7779578607
| 21> O -0.1299116107 1.4496305487 1.7872422026
| 22> O -3.043038505 -1.4763554627 -0.6553505181
| 23> H -2.1118383107 0.1288656426 -1.5741495106
| 24> H -3.1986158579 0.4657243138 -0.1952424545
| 25> H 1.3224637271 -2.9101789214 0.0309469252
| 26> H 1.9794019796 1.1071398665 1.6634747212
| 27> H 0.8463809159 1.3046928871 -2.4047335989
| 28> H -0.8682518288 1.648334708 2.3804340037
| 29> H -2.390532391 -2.1050205955 -0.9952247526
| 30> *
| 31>
| 32>                          ****END OF INPUT****

CARTESIAN COORDINATES (ANGSTROEM)
---------------------------------
  C     -2.437335   -0.212145   -0.584903
  C     -1.217885   -0.207897    0.345762
  H     -1.515431   -0.562869    1.347011
  C     -0.606038    1.203743    0.483870
  H     -1.357941    1.946006    0.192311
  C      0.592135    1.344954   -0.467966
  H      1.034701    2.341455   -0.312286
  C      1.669801    0.308551   -0.080742
  H      2.309226    0.090218   -0.942470
  C      1.004091   -1.021125    0.340588
  H      0.938712   -1.045439    1.448937
  O     -0.293973   -1.141329   -0.196045
  O      1.768117   -2.065304   -0.139337
  O      2.520870    0.808382    0.913710
  O      0.114798    1.210149   -1.777958
  O     -0.129912    1.449631    1.787242
  O     -3.043039   -1.476355   -0.655351
  H     -2.111838    0.128866   -1.574150
  H     -3.198616    0.465724   -0.195242
  H      1.322464   -2.910179    0.030947
  H      1.979402    1.107140    1.663475
  H      0.846381    1.304693   -2.404734
  H     -0.868252    1.648335    2.380434
  H     -2.390532   -2.105021   -0.995225

 Total Charge           Charge          ....    0
 Multiplicity           Mult            ....    1
 Number of Electrons    NEL             ....   96
 Basis Dimension        Dim             ....  192

ORBITAL ENERGIES
----------------

  NO   OCC          E(Eh)            E(eV)
   0   2.0000     -18.780270      -511.0371
   1   2.0000     -18.767299      -510.6842
   2   2.0000     -18.761733      -510.5327
   3   2.0000     -18.756765      -510.3975
   4   2.0000     -18.739072      -509.9161
   5   2.0000     -18.738830      -509.9095
   6   2.0000      -9.981393      -271.6075
   7   2.0000      -9.956359      -270.9263
   8   2.0000      -9.947080      -270.6738
   9   2.0000      -9.943674      -270.5811
  10   2.0000      -9.934478      -270.3309
  11   2.0000      -9.927274      -270.1348
  12   2.0000      -0.982183       -26.7266
  13   2.0000      -0.955802       -26.0087
  14   2.0000      -0.938009       -25.5245
  15   2.0000      -0.924101       -25.1461
  16   2.0000      -0.916091       -24.9281
  17   2.0000      -0.905798       -24.6480
  18   2.0000      -0.706736       -19.2313
  19   2.0000      -0.684001       -18.6126
  20   2.0000      -0.620472       -16.8839
  21   2.0000      -0.580608       -15.7991
  22   2.0000      -0.565089       -15.3769
  23   2.0000      -0.524952       -14.2847
  24   2.0000      -0.507202       -13.8017
  25   2.0000      -0.492184       -13.3930
  26   2.0000      -0.477940       -13.0054
  27   2.0000      -0.464742       -12.6463
  28   2.0000      -0.456010       -12.4087
  29   2.0000      -0.436726       -11.8839
  30   2.0000      -0.407945       -11.1007
  31   2.0000      -0.394654       -10.7391
  32   2.0000      -0.379128       -10.3166
  33   2.0000      -0.368316       -10.0224
  34   2.0000      -0.360848        -9.8192
  35   2.0000      -0.354278        -9.6404
  36   2.0000      -0.326371        -8.8810
  37   2.0000      -0.318252        -8.6601
  38   2.0000      -0.312923        -8.5151
  39   2.0000      -0.302534        -8.2324
  40   2.0000      -0.280660        -7.6372
  41   2.0000      -0.266023        -7.2389
  42   2.0000      -0.254397        -6.9225
  43   2.0000      -0.238043        -6.4775
  44   2.0000      -0.237019        -6.4496
  45   2.0000      -0.225178        -6.1274
  46   2.0000      -0.208684        -5.6786
  47   2.0000      -0.195477        -5.3192
  48   0.0000       0.000761         0.0207
  49   0.0000       0.022279         0.6062
  50   0.0000       0.032701         0.8898
  51   0.0000       0.052875         1.4388
  52   0.0000       0.060640         1.6501

MULLIKEN ATOMIC CHARGES
-----------------------
   0 C :    0.060516
   1 C :    0.059156
   2 H :    0.048954
   3 C :   -0.034388
   4 H :    0.080437
   5 C :    0.060353
   6 H :    0.071440
   7 C :    0.049853
   8 H :    0.063093
   9 C :    0.207995
  10 H :    0.030146
  11 O :   -0.324711
  12 O :   -0.378207
  13 O :   -0.426825
  14 O :   -0.404141
  15 O :   -0.424276
  16 O :   -0.437529
  17 H :    0.094244
  18 H :    0.075147
  19 H :    0.300972
  20 H :    0.304421
  21 H :    0.308641
  22 H :    0.315936
  23 H :    0.298772
Sum of atomic charges:    0.0000000

LOEWDIN ATOMIC CHARGES
----------------------
   0 C :   -0.132096
   1 C :   -0.073849
   2 H :    0.099154
   3 C :   -0.070394
   4 H :    0.112663
   5 C :   -0.073212
   6 H :    0.104554
   7 C :   -0.083032
   8 H :    0.117510
   9 C :    0.000872
  10 H :    0.077200
  11 O :   -0.163842
  12 O :   -0.292350
  13 O :   -0.313002
  14 O :   -0.309138
  15 O :   -0.313632
  16 O :   -0.337468
  17 H :    0.109931
  18 H :    0.110923
  19 H :    0.285958
  20 H :    0.274613
  21 H :    0.291191
  22 H :    0.295480
  23 H :    0.281968

  Mayer bond orders larger than 0.100000
B(  0-C ,  1-C ) :   1.0476 B(  0-C , 16-O ) :   1.0753 B(  0-C , 17-H ) :   0.9012
B(  0-C , 18-H ) :   0.9166 B(  1-C ,  2-H ) :   0.8866 B(  1-C ,  3-C ) :   0.9472
B(  1-C , 11-O ) :   0.9829 B(  3-C ,  4-H ) :   0.9005 B(  3-C ,  5-C ) :   1.0272
B(  3-C , 15-O ) :   1.0378 B(  5-C ,  6-H ) :   0.8951 B(  5-C ,  7-C ) :   0.9631
B(  5-C , 14-O ) :   1.0650 B(  7-C ,  8-H ) :   0.8809 B(  7-C ,  9-C ) :   0.9649
B(  7-C , 13-O ) :   1.0532 B(  9-C , 10-H ) :   0.8815 B(  9-C , 11-O ) :   1.0397
B(  9-C , 12-O ) :   1.1721 B( 12-O , 19-H ) :   0.8411 B( 13-O , 20-H ) :   0.8245
B( 14-O , 21-H ) :   0.8431 B( 15-O , 22-H ) :   0.8415 B( 16-O , 23-H ) :   0.8458

Dispersion correction           -0.024828656
FINAL SINGLE POINT ENERGY      -685.690008743751

DIPOLE MOMENT
-------------

Method             : SCF
Type of density    : Electron Density
Multiplicity       :   1
Irrep              :   0
Energy             :  -685.8201993000468519 Eh
Relativity type    :
Basis              : AO
                                X                 Y                 Z
Electronic contribution:      2.406582724      -1.820424398      -0.214529107
Nuclear contribution   :     -2.811631594       2.241986470       0.598495858
                        -----------------------------------------
Total Dipole Moment    :     -0.405048869       0.421562071       0.383966751
                        -----------------------------------------
Magnitude (a.u.)       :      0.699435224
Magnitude (Debye)      :      1.777823053

Rotational constants in cm-1:             0.041842             0.025826             0.021629
Rotational constants in MHz :          1254.397314           774.230484           648.407311

                             ****ORCA TERMINATED NORMALLY****
TOTAL RUN TIME: 0 days 0 hours 0 minutes 11 seconds 893 msec
