                         Program Version 6.0.0  -   RELEASE  -
|  1> ! pbe def2-sv(p) def2/J RI DEFGRID1 loosescf d4 GCP(DFT/SV(P)) printgap
|  2> %output
|  3>     printlevel normal
|  4> end
|  5> * xyz 0 1
|  6> C -2.485739472 -0.7879206432 -0.0010595326
|  7> C -1.103469894 -0.5138560384 0.5906962203
|  8> H -1.090198368 -0.8377980877 1.6445735408
|  9> C -0.7395393565 0.9961802346 0.5624921151
| 10> H -1.6135604696 1.5651235876 0.2275869247
| 11> C 0.4090057225 1.2431885038 -0.4264691853
| 12> H 0.745151182 2.2821871641 -0.3174408961
| 13> C 1.6142470815 0.3434934322 -0.0636986053
| 14> H 2.2768390434 0.3068039352 -0.9367462186
| 15> C 1.1471247784 -1.1006840512 0.2338990185
| 16> H 1.2274397792 -1.2743777477 1.3311435638
| 17> O -0.188668481 -1.3055788203 -0.1496812652
| 18> O 1.9436730913 -1.9858499508 -0.4674230865
| 19> O 2.2526542355 0.9146161217 1.0540921418
| 20> O 0.0212321185 1.0906677774 -1.7625443513
| 21> O -0.430960003 1.4711719187 1.8505109363
| 22> O -2.5288044067 -0.2473074661 -1.3011927781
| 23> H -3.2387739595 -0.3237412513 0.6461374428
| 24> H -2.6362872444 -1.8730328114 -0.027135022
| 25> H 1.4943855886 -2.8430663249 -0.5342101734
| 26> H 3.1470803333 0.5576762665 1.1481197672
| 27> H -0.6205485991 0.3629554972 -1.8363125569
| 28> H 0.5220890627 1.3677145662 2.0115132705
| 29> H -3.3807833606 -0.4516238071 -1.7110605006
| 30> *
| 31>
| 32>                          ****END OF INPUT****

CARTESIAN COORDINATES (ANGSTROEM)
---------------------------------
  C     -2.485739   -0.787921   -0.001060
  C     -1.103470   -0.513856    0.590696
  H     -1.090198   -0.837798    1.644574
  C     -0.739539    0.996180    0.562492
  H     -1.613560    1.565124    0.227587
  C      0.409006    1.243189   -0.426469
  H      0.745151    2.282187   -0.317441
  C      1.614247    0.343493   -0.063699
  H      2.276839    0.306804   -0.936746
  C      1.147125   -1.100684    0.233899
  H      1.227440   -1.274378    1.331144
  O     -0.188668   -1.305579   -0.149681
  O      1.943673   -1.985850   -0.467423
  O      2.252654    0.914616    1.054092
  O      0.021232    1.090668   -1.762544
  O     -0.430960    1.471172    1.850511
  O     -2.528804   -0.247307   -1.301193
  H     -3.238774   -0.323741    0.646137
  H     -2.636287   -1.873033   -0.027135
  H      1.494386   -2.843066   -0.534210
  H      3.147080    0.557676    1.148120
  H     -0.620549    0.362955   -1.836313
  H      0.522089    1.367715    2.011513
  H     -3.380783   -0.451624   -1.711061

 Total Charge           Charge          ....    0
 Multiplicity           Mult            ....    1
 Number of Electrons    NEL             ....   96
 Basis Dimension        Dim             ....  192

ORBITAL ENERGIES
----------------

  NO   OCC          E(Eh)            E(eV)
   0   2.0000     -18.772741      -510.8323
   1   2.0000     -18.771721      -510.8045
   2   2.0000     -18.770314      -510.7662
   3   2.0000     -18.761437      -510.5247
   4   2.0000     -18.733340      -509.7601
   5   2.0000     -18.728920      -509.6398
   6   2.0000      -9.986010      -271.7331
   7   2.0000      -9.946039      -270.6455
   8   2.0000      -9.945950      -270.6431
   9   2.0000      -9.936355      -270.3820
  10   2.0000      -9.932722      -270.2831
  11   2.0000      -9.932560      -270.2787
  12   2.0000      -0.987880       -26.8816
  13   2.0000      -0.946240       -25.7485
  14   2.0000      -0.943906       -25.6850
  15   2.0000      -0.923132       -25.1197
  16   2.0000      -0.909164       -24.7396
  17   2.0000      -0.904177       -24.6039
  18   2.0000      -0.700440       -19.0599
  19   2.0000      -0.683947       -18.6111
  20   2.0000      -0.618435       -16.8285
  21   2.0000      -0.588156       -16.0045
  22   2.0000      -0.559534       -15.2257
  23   2.0000      -0.516205       -14.0467
  24   2.0000      -0.507770       -13.8171
  25   2.0000      -0.496059       -13.4984
  26   2.0000      -0.478699       -13.0261
  27   2.0000      -0.464972       -12.6525
  28   2.0000      -0.455220       -12.3872
  29   2.0000      -0.423820       -11.5327
  30   2.0000      -0.410803       -11.1785
  31   2.0000      -0.398362       -10.8400
  32   2.0000      -0.384796       -10.4708
  33   2.0000      -0.375152       -10.2084
  34   2.0000      -0.352014        -9.5788
  35   2.0000      -0.346427        -9.4268
  36   2.0000      -0.328409        -8.9365
  37   2.0000      -0.318496        -8.6667
  38   2.0000      -0.309822        -8.4307
  39   2.0000      -0.297261        -8.0889
  40   2.0000      -0.286146        -7.7864
  41   2.0000      -0.255647        -6.9565
  42   2.0000      -0.252417        -6.8686
  43   2.0000      -0.242810        -6.6072
  44   2.0000      -0.239697        -6.5225
  45   2.0000      -0.227252        -6.1839
  46   2.0000      -0.200016        -5.4427
  47   2.0000      -0.195613        -5.3229
  48   0.0000       0.008996         0.2448
  49   0.0000       0.017945         0.4883
  50   0.0000       0.036478         0.9926
  51   0.0000       0.058106         1.5811
  52   0.0000       0.064962         1.7677

MULLIKEN ATOMIC CHARGES
-----------------------
   0 C :    0.056168
   1 C :    0.021156
   2 H :    0.065435
   3 C :    0.010971
   4 H :    0.085242
   5 C :    0.038975
   6 H :    0.081424
   7 C :    0.026101
   8 H :    0.081132
   9 C :    0.207821
  10 H :    0.024227
  11 O :   -0.311626
  12 O :   -0.386331
  13 O :   -0.424877
  14 O :   -0.426308
  15 O :   -0.430604
  16 O :   -0.437206
  17 H :    0.089439
  18 H :    0.081004
  19 H :    0.303745
  20 H :    0.315866
  21 H :    0.309685
  22 H :    0.304599
  23 H :    0.313963
Sum of atomic charges:   -0.0000000

LOEWDIN ATOMIC CHARGES
----------------------
   0 C :   -0.123254
   1 C :   -0.072725
   2 H :    0.110450
   3 C :   -0.074221
   4 H :    0.118135
   5 C :   -0.067357
   6 H :    0.118267
   7 C :   -0.091378
   8 H :    0.118935
   9 C :   -0.001533
  10 H :    0.071915
  11 O :   -0.156216
  12 O :   -0.301137
  13 O :   -0.312771
  14 O :   -0.317397
  15 O :   -0.326454
  16 O :   -0.327099
  17 H :    0.107302
  18 H :    0.104369
  19 H :    0.287483
  20 H :    0.296483
  21 H :    0.269772
  22 H :    0.273220
  23 H :    0.295209

  Mayer bond orders larger than 0.100000
B(  0-C ,  1-C ) :   1.0645 B(  0-C , 16-O ) :   1.0588 B(  0-C , 17-H ) :   0.9159
B(  0-C , 18-H ) :   0.9110 B(  1-C ,  2-H ) :   0.8759 B(  1-C ,  3-C ) :   0.9413
B(  1-C , 11-O ) :   0.9930 B(  3-C ,  4-H ) :   0.8990 B(  3-C ,  5-C ) :   1.0261
B(  3-C , 15-O ) :   1.0715 B(  5-C ,  6-H ) :   0.8951 B(  5-C ,  7-C ) :   0.9670
B(  5-C , 14-O ) :   1.0946 B(  7-C ,  8-H ) :   0.8821 B(  7-C ,  9-C ) :   0.9693
B(  7-C , 13-O ) :   1.0217 B(  9-C , 10-H ) :   0.8776 B(  9-C , 11-O ) :   1.0424
B(  9-C , 12-O ) :   1.1601 B( 12-O , 19-H ) :   0.8383 B( 13-O , 20-H ) :   0.8416
B( 14-O , 21-H ) :   0.8038 B( 15-O , 22-H ) :   0.8132 B( 16-O , 23-H ) :   0.8418

Dispersion correction           -0.025278364
FINAL SINGLE POINT ENERGY      -685.692912235179

DIPOLE MOMENT
-------------

Method             : SCF
Type of density    : Electron Density
Multiplicity       :   1
Irrep              :   0
Energy             :  -685.8254037532577740 Eh
Relativity type    :
Basis              : AO
                                X                 Y                 Z
Electronic contribution:      2.512336744      -0.169113762      -1.278762491
Nuclear contribution   :     -2.955502883      -1.090306105       1.532887121
                        -----------------------------------------
Total Dipole Moment    :     -0.443166139      -1.259419867       0.254124630
                        -----------------------------------------
Magnitude (a.u.)       :      1.359085706
Magnitude (Debye)      :      3.454521329

Rotational constants in cm-1:             0.041095             0.027848             0.023451
Rotational constants in MHz :          1232.009482           834.872758           703.052899

                             ****ORCA TERMINATED NORMALLY****
TOTAL RUN TIME: 0 days 0 hours 0 minutes 11 seconds 873 msec
