                         Program Version 6.0.0  -   RELEASE  -
|  1> ! pbe def2-sv(p) def2/J RI DEFGRID1 loosescf d4 GCP(DFT/SV(P)) printgap
|  2> %output
|  3>     printlevel normal
|  4> end
|  5> * xyz 0 1
|  6> C -2.2718456809 -0.9362717427 0.7751263516
|  7> C -0.8155995124 -0.4368692137 0.7491819777
|  8> H -0.5400610694 -0.1151643555 1.7630554201
|  9> C -0.6143368157 0.7366413174 -0.213504779
| 10> H -0.7366347652 0.3569099408 -1.2407137437
| 11> C 0.820073762 1.2786236119 -0.0660419549
| 12> H 0.8328342205 2.0251581418 0.7361025716
| 13> C 1.7957927715 0.1545348564 0.3421407416
| 14> H 2.7599785481 0.3543812894 -0.1464213553
| 15> C 1.2663851762 -1.191600218 -0.1808863564
| 16> H 1.9375458727 -2.0124655603 0.1196451803
| 17> O 0.021402099 -1.5293021116 0.370984197
| 18> O 1.2184704204 -1.090990822 -1.5747021524
| 19> O 1.9237656401 0.162491557 1.7390875975
| 20> O 1.2373192965 1.9430038245 -1.2300989889
| 21> O -1.5867945252 1.7172411876 0.0564264254
| 22> O -2.9200499351 -0.8904880945 -0.4692673138
| 23> H -2.8218777325 -0.3505225387 1.5180116797
| 24> H -2.2557322559 -1.9854658833 1.0760726025
| 25> H 0.8905712778 -1.9216602763 -1.9527809244
| 26> H 2.6175202425 -0.4530849234 2.0173625996
| 27> H 1.3094024404 1.2970884813 -1.9503737904
| 28> H -1.3607953518 2.5221819964 -0.4326475298
| 29> H -3.1025331892 0.037122839 -0.6810389944
| 30> *
| 31>
| 32>                          ****END OF INPUT****

CARTESIAN COORDINATES (ANGSTROEM)
---------------------------------
  C     -2.271846   -0.936272    0.775126
  C     -0.815600   -0.436869    0.749182
  H     -0.540061   -0.115164    1.763055
  C     -0.614337    0.736641   -0.213505
  H     -0.736635    0.356910   -1.240714
  C      0.820074    1.278624   -0.066042
  H      0.832834    2.025158    0.736103
  C      1.795793    0.154535    0.342141
  H      2.759979    0.354381   -0.146421
  C      1.266385   -1.191600   -0.180886
  H      1.937546   -2.012466    0.119645
  O      0.021402   -1.529302    0.370984
  O      1.218470   -1.090991   -1.574702
  O      1.923766    0.162492    1.739088
  O      1.237319    1.943004   -1.230099
  O     -1.586795    1.717241    0.056426
  O     -2.920050   -0.890488   -0.469267
  H     -2.821878   -0.350523    1.518012
  H     -2.255732   -1.985466    1.076073
  H      0.890571   -1.921660   -1.952781
  H      2.617520   -0.453085    2.017363
  H      1.309402    1.297088   -1.950374
  H     -1.360795    2.522182   -0.432648
  H     -3.102533    0.037123   -0.681039

 Total Charge           Charge          ....    0
 Multiplicity           Mult            ....    1
 Number of Electrons    NEL             ....   96
 Basis Dimension        Dim             ....  192

ORBITAL ENERGIES
----------------

  NO   OCC          E(Eh)            E(eV)
   0   2.0000     -18.775449      -510.9059
   1   2.0000     -18.765287      -510.6294
   2   2.0000     -18.764962      -510.6206
   3   2.0000     -18.759963      -510.4846
   4   2.0000     -18.749791      -510.2078
   5   2.0000     -18.735178      -509.8101
   6   2.0000      -9.990905      -271.8663
   7   2.0000      -9.948301      -270.7070
   8   2.0000      -9.940944      -270.5068
   9   2.0000      -9.937295      -270.4075
  10   2.0000      -9.933710      -270.3100
  11   2.0000      -9.920928      -269.9622
  12   2.0000      -0.984707       -26.7952
  13   2.0000      -0.944290       -25.6955
  14   2.0000      -0.938761       -25.5450
  15   2.0000      -0.925700       -25.1896
  16   2.0000      -0.915830       -24.9210
  17   2.0000      -0.907616       -24.6975
  18   2.0000      -0.701581       -19.0910
  19   2.0000      -0.689509       -18.7625
  20   2.0000      -0.616028       -16.7630
  21   2.0000      -0.591711       -16.1013
  22   2.0000      -0.561352       -15.2752
  23   2.0000      -0.524986       -14.2856
  24   2.0000      -0.504778       -13.7357
  25   2.0000      -0.485936       -13.2230
  26   2.0000      -0.471973       -12.8430
  27   2.0000      -0.453340       -12.3360
  28   2.0000      -0.445824       -12.1315
  29   2.0000      -0.433750       -11.8029
  30   2.0000      -0.425293       -11.5728
  31   2.0000      -0.389263       -10.5924
  32   2.0000      -0.379745       -10.3334
  33   2.0000      -0.367591       -10.0027
  34   2.0000      -0.362235        -9.8569
  35   2.0000      -0.355311        -9.6685
  36   2.0000      -0.339453        -9.2370
  37   2.0000      -0.313544        -8.5320
  38   2.0000      -0.300011        -8.1637
  39   2.0000      -0.297013        -8.0821
  40   2.0000      -0.277013        -7.5379
  41   2.0000      -0.265460        -7.2235
  42   2.0000      -0.260387        -7.0855
  43   2.0000      -0.243484        -6.6255
  44   2.0000      -0.229101        -6.2342
  45   2.0000      -0.218784        -5.9534
  46   2.0000      -0.213003        -5.7961
  47   2.0000      -0.204838        -5.5739
  48   0.0000       0.009952         0.2708
  49   0.0000       0.019361         0.5268
  50   0.0000       0.027333         0.7438
  51   0.0000       0.061741         1.6801
  52   0.0000       0.064098         1.7442

MULLIKEN ATOMIC CHARGES
-----------------------
   0 C :    0.073458
   1 C :    0.041817
   2 H :    0.069654
   3 C :    0.041144
   4 H :    0.041124
   5 C :    0.072866
   6 H :    0.075128
   7 C :    0.013686
   8 H :    0.073216
   9 C :    0.159453
  10 H :    0.050636
  11 O :   -0.309468
  12 O :   -0.401725
  13 O :   -0.405951
  14 O :   -0.431993
  15 O :   -0.422646
  16 O :   -0.441810
  17 H :    0.078048
  18 H :    0.088007
  19 H :    0.311846
  20 H :    0.305181
  21 H :    0.304717
  22 H :    0.310402
  23 H :    0.303212
Sum of atomic charges:   -0.0000000

LOEWDIN ATOMIC CHARGES
----------------------
   0 C :   -0.124333
   1 C :   -0.064977
   2 H :    0.112408
   3 C :   -0.090116
   4 H :    0.098757
   5 C :   -0.068901
   6 H :    0.124045
   7 C :   -0.087000
   8 H :    0.109188
   9 C :   -0.011426
  10 H :    0.090217
  11 O :   -0.143939
  12 O :   -0.317379
  13 O :   -0.305602
  14 O :   -0.317423
  15 O :   -0.321031
  16 O :   -0.337588
  17 H :    0.103842
  18 H :    0.118661
  19 H :    0.291755
  20 H :    0.290151
  21 H :    0.280501
  22 H :    0.291319
  23 H :    0.278871

  Mayer bond orders larger than 0.100000
B(  0-C ,  1-C ) :   1.0002 B(  0-C , 16-O ) :   1.1043 B(  0-C , 17-H ) :   0.9192
B(  0-C , 18-H ) :   0.9213 B(  1-C ,  2-H ) :   0.8683 B(  1-C ,  3-C ) :   1.0778
B(  1-C , 11-O ) :   0.9690 B(  3-C ,  4-H ) :   0.8231 B(  3-C ,  5-C ) :   1.0590
B(  3-C , 15-O ) :   1.0496 B(  5-C ,  6-H ) :   0.8528 B(  5-C ,  7-C ) :   0.9966
B(  5-C , 14-O ) :   1.0367 B(  7-C ,  8-H ) :   0.8830 B(  7-C ,  9-C ) :   1.0260
B(  7-C , 13-O ) :   1.0422 B(  9-C , 10-H ) :   0.8950 B(  9-C , 11-O ) :   1.0947
B(  9-C , 12-O ) :   1.1058 B( 12-O , 19-H ) :   0.8348 B( 13-O , 20-H ) :   0.8444
B( 14-O , 21-H ) :   0.8372 B( 15-O , 22-H ) :   0.8405 B( 16-O , 23-H ) :   0.8340

Dispersion correction           -0.025076140
FINAL SINGLE POINT ENERGY      -685.694009161570

DIPOLE MOMENT
-------------

Method             : SCF
Type of density    : Electron Density
Multiplicity       :   1
Irrep              :   0
Energy             :  -685.8252386579712265 Eh
Relativity type    :
Basis              : AO
                                X                 Y                 Z
Electronic contribution:      1.271748335      -0.052330322      -0.998684812
Nuclear contribution   :     -0.442303873      -0.225718861       0.758777220
                        -----------------------------------------
Total Dipole Moment    :      0.829444461      -0.278049183      -0.239907592
                        -----------------------------------------
Magnitude (a.u.)       :      0.907108106
Magnitude (Debye)      :      2.305685569

Rotational constants in cm-1:             0.041552             0.026723             0.022946
Rotational constants in MHz :          1245.704311           801.140051           687.889863

                             ****ORCA TERMINATED NORMALLY****
TOTAL RUN TIME: 0 days 0 hours 0 minutes 12 seconds 226 msec
