                         Program Version 6.0.0  -   RELEASE  -
|  1> ! wb97x-v def2-tzvp def2/J RIJCOSX DEFGRID2 scfconv7 GCP(DFT/TZ) printgap
|  2> %output
|  3>     printlevel normal
|  4> end
|  5> * xyz 0 1
|  6> C -3.9971474881278435 -0.49647681745166056 -0.0014172821357227776
|  7> C -2.5476288942316305 -0.09555300950307449 0.0007636557018072536
|  8> C -2.1786248341742187 1.2721319726714062 0.00011553630044517918
|  9> C -0.857703430902983 1.6581851073032057 -0.0004761669510559354
| 10> C 0.1788687188068741 0.6951532713959274 -0.00039118365078479565
| 11> C 1.5501792519686017 1.0548082315910507 -0.0013918690764053248
| 12> C 2.54605497393798 0.10249971493742392 -0.0011765442417965963
| 13> C 2.176175845760954 -1.2694967312596785 -0.0001978944764175276
| 14> C 0.8588810233599751 -1.6547564156348347 0.0007778531811713598
| 15> C -0.18063341586162435 -0.6892932356040546 0.0006407549192699256
| 16> C -1.547718971609254 -1.0487690659452698 0.0013244589557884349
| 17> C 3.999756937530807 0.47709189433533594 0.0007324963390526458
| 18> H -4.650304828926298 0.3791445439035548 0.024171372118609865
| 19> H -4.243156669461762 -1.078292977058576 -0.8963757528132358
| 20> H -4.233643068220423 -1.1244928714097635 0.8641284774424747
| 21> H -2.960841196499024 2.0263671312347453 0.0003343548975685156
| 22> H -0.5939643151241064 2.712469421903174 -0.0006593445601584904
| 23> H 1.8092599273788468 2.11113299565528 -0.0025005592075651563
| 24> H 2.9601309030086775 -2.022500894824816 -0.00045338700028948727
| 25> H 0.5935671739545952 -2.70866343035095 0.0011541646340321357
| 26> H -1.807110140779614 -2.1054916244641886 0.002131494210169816
| 27> H 4.1306838710096025 1.5615365174398828 -0.028394938532047866
| 28> H 4.5008840981358595 0.09395531047373047 0.8970481368379908
| 29> H 4.5170363362334385 0.04327191782996539 -0.8623734950355577
| 30> *
| 31>
| 32>                          ****END OF INPUT****

CARTESIAN COORDINATES (ANGSTROEM)
---------------------------------
  C     -3.997147   -0.496477   -0.001417
  C     -2.547629   -0.095553    0.000764
  C     -2.178625    1.272132    0.000116
  C     -0.857703    1.658185   -0.000476
  C      0.178869    0.695153   -0.000391
  C      1.550179    1.054808   -0.001392
  C      2.546055    0.102500   -0.001177
  C      2.176176   -1.269497   -0.000198
  C      0.858881   -1.654756    0.000778
  C     -0.180633   -0.689293    0.000641
  C     -1.547719   -1.048769    0.001324
  C      3.999757    0.477092    0.000732
  H     -4.650305    0.379145    0.024171
  H     -4.243157   -1.078293   -0.896376
  H     -4.233643   -1.124493    0.864128
  H     -2.960841    2.026367    0.000334
  H     -0.593964    2.712469   -0.000659
  H      1.809260    2.111133   -0.002501
  H      2.960131   -2.022501   -0.000453
  H      0.593567   -2.708663    0.001154
  H     -1.807110   -2.105492    0.002131
  H      4.130684    1.561537   -0.028395
  H      4.500884    0.093955    0.897048
  H      4.517036    0.043272   -0.862373

 Total Charge           Charge          ....    0
 Multiplicity           Mult            ....    1
 Number of Electrons    NEL             ....   84
 Basis Dimension        Dim             ....  444

ORBITAL ENERGIES
----------------

  NO   OCC          E(Eh)            E(eV)
   0   2.0000     -12.058228      -328.1211
   1   2.0000     -12.058160      -328.1192
   2   2.0000     -12.056956      -328.0864
   3   2.0000     -12.055258      -328.0403
   4   2.0000     -12.050589      -327.9132
   5   2.0000     -12.049943      -327.8956
   6   2.0000     -12.047525      -327.8298
   7   2.0000     -12.047361      -327.8254
   8   2.0000     -12.045705      -327.7803
   9   2.0000     -12.045358      -327.7709
  10   2.0000     -12.043057      -327.7082
  11   2.0000     -12.042803      -327.7013
  12   2.0000      -1.399726       -38.0885
  13   2.0000      -1.354751       -36.8646
  14   2.0000      -1.300897       -35.3992
  15   2.0000      -1.292992       -35.1841
  16   2.0000      -1.248923       -33.9849
  17   2.0000      -1.216485       -33.1022
  18   2.0000      -1.172513       -31.9057
  19   2.0000      -1.128303       -30.7027
  20   2.0000      -1.089027       -29.6339
  21   2.0000      -1.084340       -29.5064
  22   2.0000      -0.990078       -26.9414
  23   2.0000      -0.972267       -26.4567
  24   2.0000      -0.969990       -26.3948
  25   2.0000      -0.906543       -24.6683
  26   2.0000      -0.900144       -24.4942
  27   2.0000      -0.895569       -24.3697
  28   2.0000      -0.872128       -23.7318
  29   2.0000      -0.857094       -23.3227
  30   2.0000      -0.839168       -22.8349
  31   2.0000      -0.836628       -22.7658
  32   2.0000      -0.835543       -22.7363
  33   2.0000      -0.827524       -22.5181
  34   2.0000      -0.815408       -22.1884
  35   2.0000      -0.808923       -22.0119
  36   2.0000      -0.784810       -21.3558
  37   2.0000      -0.784533       -21.3482
  38   2.0000      -0.713584       -19.4176
  39   2.0000      -0.674734       -18.3604
  40   2.0000      -0.621008       -16.8985
  41   2.0000      -0.593525       -16.1506
  42   0.0000      -0.279869        -7.6156
  43   0.0000      -0.254312        -6.9202
  44   0.0000      -0.194167        -5.2836
  45   0.0000      -0.131616        -3.5815
  46   0.0000      -0.057312        -1.5595

MULLIKEN ATOMIC CHARGES
-----------------------
   0 C :   -0.370570
   1 C :    0.173914
   2 C :   -0.184888
   3 C :   -0.203729
   4 C :    0.172863
   5 C :   -0.315002
   6 C :    0.191112
   7 C :   -0.189743
   8 C :   -0.197499
   9 C :    0.202469
  10 C :   -0.296403
  11 C :   -0.369055
  12 H :    0.116020
  13 H :    0.124616
  14 H :    0.124353
  15 H :    0.110368
  16 H :    0.109735
  17 H :    0.106789
  18 H :    0.114015
  19 H :    0.110257
  20 H :    0.108364
  21 H :    0.116660
  22 H :    0.122896
  23 H :    0.122459
Sum of atomic charges:   -0.0000000

LOEWDIN ATOMIC CHARGES
----------------------
   0 C :   -0.252665
   1 C :   -0.169882
   2 C :   -0.118054
   3 C :   -0.099953
   4 C :   -0.092882
   5 C :   -0.082651
   6 C :   -0.171222
   7 C :   -0.114199
   8 C :   -0.099682
   9 C :   -0.093025
  10 C :   -0.078678
  11 C :   -0.252389
  12 H :    0.123296
  13 H :    0.127596
  14 H :    0.127437
  15 H :    0.142858
  16 H :    0.144596
  17 H :    0.145581
  18 H :    0.144383
  19 H :    0.144612
  20 H :    0.146790
  21 H :    0.124157
  22 H :    0.127125
  23 H :    0.126851

  Mayer bond orders larger than 0.100000
B(  0-C ,  1-C ) :   0.9143 B(  0-C , 12-H ) :   0.9964 B(  0-C , 13-H ) :   0.9760
B(  0-C , 14-H ) :   0.9782 B(  1-C ,  2-C ) :   1.2660 B(  1-C , 10-C ) :   1.5047
B(  2-C ,  3-C ) :   1.5704 B(  2-C , 15-H ) :   0.9706 B(  3-C ,  4-C ) :   1.2117
B(  3-C , 16-H ) :   0.9869 B(  4-C ,  5-C ) :   1.2162 B(  4-C ,  9-C ) :   1.2661
B(  5-C ,  6-C ) :   1.5652 B(  5-C , 17-H ) :   0.9653 B(  6-C ,  7-C ) :   1.2095
B(  6-C , 11-C ) :   0.9093 B(  7-C ,  8-C ) :   1.5924 B(  7-C , 18-H ) :   0.9835
B(  8-C ,  9-C ) :   1.1853 B(  8-C , 19-H ) :   0.9858 B(  9-C , 10-C ) :   1.2223
B( 10-C , 20-H ) :   0.9865 B( 11-C , 21-H ) :   0.9984 B( 11-C , 22-H ) :   0.9738
B( 11-C , 23-H ) :   0.9761

FINAL SINGLE POINT ENERGY      -464.540405627551

DIPOLE MOMENT
-------------

Method             : SCF
Type of density    : Electron Density
Multiplicity       :   1
Irrep              :   0
Energy             :  -464.5536086213509179 Eh
Relativity type    :
Basis              : AO
                                X                 Y                 Z
Electronic contribution:     -0.017034280       0.066743172       0.000955873
Nuclear contribution   :      0.019113130      -0.101344851      -0.000946285
                        -----------------------------------------
Total Dipole Moment    :      0.002078850      -0.034601680       0.000009587
                        -----------------------------------------
Magnitude (a.u.)       :      0.034664073
Magnitude (Debye)      :      0.088109071

Rotational constants in cm-1:             0.089221             0.019284             0.015951
Rotational constants in MHz :          2674.784462           578.126821           478.189838

                             ****ORCA TERMINATED NORMALLY****
TOTAL RUN TIME: 0 days 0 hours 6 minutes 14 seconds 434 msec
