                         Program Version 6.0.0  -   RELEASE  -
|  1> ! wb97x-v def2-tzvp def2/J RIJCOSX DEFGRID2 scfconv7 GCP(DFT/TZ) printgap
|  2> %output
|  3>     printlevel normal
|  4> end
|  5> %cpcm
|  6>     smd true
|  7>     smdsolvent "water"
|  8> end
|  9> * xyz 0 1
| 10> C -3.9971474881278435 -0.49647681745166056 -0.0014172821357227776
| 11> C -2.5476288942316305 -0.09555300950307449 0.0007636557018072536
| 12> C -2.1786248341742187 1.2721319726714062 0.00011553630044517918
| 13> C -0.857703430902983 1.6581851073032057 -0.0004761669510559354
| 14> C 0.1788687188068741 0.6951532713959274 -0.00039118365078479565
| 15> C 1.5501792519686017 1.0548082315910507 -0.0013918690764053248
| 16> C 2.54605497393798 0.10249971493742392 -0.0011765442417965963
| 17> C 2.176175845760954 -1.2694967312596785 -0.0001978944764175276
| 18> C 0.8588810233599751 -1.6547564156348347 0.0007778531811713598
| 19> C -0.18063341586162435 -0.6892932356040546 0.0006407549192699256
| 20> C -1.547718971609254 -1.0487690659452698 0.0013244589557884349
| 21> C 3.999756937530807 0.47709189433533594 0.0007324963390526458
| 22> H -4.650304828926298 0.3791445439035548 0.024171372118609865
| 23> H -4.243156669461762 -1.078292977058576 -0.8963757528132358
| 24> H -4.233643068220423 -1.1244928714097635 0.8641284774424747
| 25> H -2.960841196499024 2.0263671312347453 0.0003343548975685156
| 26> H -0.5939643151241064 2.712469421903174 -0.0006593445601584904
| 27> H 1.8092599273788468 2.11113299565528 -0.0025005592075651563
| 28> H 2.9601309030086775 -2.022500894824816 -0.00045338700028948727
| 29> H 0.5935671739545952 -2.70866343035095 0.0011541646340321357
| 30> H -1.807110140779614 -2.1054916244641886 0.002131494210169816
| 31> H 4.1306838710096025 1.5615365174398828 -0.028394938532047866
| 32> H 4.5008840981358595 0.09395531047373047 0.8970481368379908
| 33> H 4.5170363362334385 0.04327191782996539 -0.8623734950355577
| 34> *
| 35>
| 36>                          ****END OF INPUT****

CARTESIAN COORDINATES (ANGSTROEM)
---------------------------------
  C     -3.997147   -0.496477   -0.001417
  C     -2.547629   -0.095553    0.000764
  C     -2.178625    1.272132    0.000116
  C     -0.857703    1.658185   -0.000476
  C      0.178869    0.695153   -0.000391
  C      1.550179    1.054808   -0.001392
  C      2.546055    0.102500   -0.001177
  C      2.176176   -1.269497   -0.000198
  C      0.858881   -1.654756    0.000778
  C     -0.180633   -0.689293    0.000641
  C     -1.547719   -1.048769    0.001324
  C      3.999757    0.477092    0.000732
  H     -4.650305    0.379145    0.024171
  H     -4.243157   -1.078293   -0.896376
  H     -4.233643   -1.124493    0.864128
  H     -2.960841    2.026367    0.000334
  H     -0.593964    2.712469   -0.000659
  H      1.809260    2.111133   -0.002501
  H      2.960131   -2.022501   -0.000453
  H      0.593567   -2.708663    0.001154
  H     -1.807110   -2.105492    0.002131
  H      4.130684    1.561537   -0.028395
  H      4.500884    0.093955    0.897048
  H      4.517036    0.043272   -0.862373

 Total Charge           Charge          ....    0
 Multiplicity           Mult            ....    1
 Number of Electrons    NEL             ....   84
 Basis Dimension        Dim             ....  444

ORBITAL ENERGIES
----------------

  NO   OCC          E(Eh)            E(eV)
   0   2.0000     -12.058624      -328.1318
   1   2.0000     -12.057885      -328.1117
   2   2.0000     -12.057837      -328.1104
   3   2.0000     -12.056791      -328.0820
   4   2.0000     -12.049635      -327.8872
   5   2.0000     -12.049103      -327.8728
   6   2.0000     -12.046380      -327.7987
   7   2.0000     -12.046260      -327.7954
   8   2.0000     -12.044386      -327.7444
   9   2.0000     -12.044078      -327.7360
  10   2.0000     -12.033725      -327.4543
  11   2.0000     -12.033404      -327.4456
  12   2.0000      -1.401408       -38.1342
  13   2.0000      -1.354789       -36.8657
  14   2.0000      -1.301504       -35.4157
  15   2.0000      -1.291788       -35.1513
  16   2.0000      -1.249000       -33.9870
  17   2.0000      -1.211719       -32.9725
  18   2.0000      -1.167647       -31.7733
  19   2.0000      -1.127900       -30.6917
  20   2.0000      -1.087025       -29.5794
  21   2.0000      -1.083737       -29.4900
  22   2.0000      -0.988649       -26.9025
  23   2.0000      -0.971457       -26.4347
  24   2.0000      -0.969173       -26.3725
  25   2.0000      -0.904146       -24.6031
  26   2.0000      -0.897313       -24.4171
  27   2.0000      -0.892445       -24.2847
  28   2.0000      -0.869783       -23.6680
  29   2.0000      -0.853119       -23.2146
  30   2.0000      -0.832904       -22.6645
  31   2.0000      -0.831115       -22.6158
  32   2.0000      -0.828989       -22.5579
  33   2.0000      -0.822435       -22.3796
  34   2.0000      -0.809226       -22.0202
  35   2.0000      -0.801374       -21.8065
  36   2.0000      -0.785952       -21.3868
  37   2.0000      -0.781955       -21.2781
  38   2.0000      -0.714344       -19.4383
  39   2.0000      -0.677053       -18.4235
  40   2.0000      -0.623146       -16.9567
  41   2.0000      -0.594914       -16.1884
  42   0.0000      -0.281028        -7.6472
  43   0.0000      -0.256375        -6.9763
  44   0.0000      -0.196101        -5.3362
  45   0.0000      -0.131688        -3.5834
  46   0.0000      -0.052149        -1.4190

MULLIKEN ATOMIC CHARGES
-----------------------
   0 C :   -0.400603
   1 C :    0.151855
   2 C :   -0.225845
   3 C :   -0.242802
   4 C :    0.150694
   5 C :   -0.361714
   6 C :    0.169068
   7 C :   -0.225392
   8 C :   -0.241321
   9 C :    0.174256
  10 C :   -0.333847
  11 C :   -0.398062
  12 H :    0.142103
  13 H :    0.141650
  14 H :    0.141775
  15 H :    0.157045
  16 H :    0.156761
  17 H :    0.154417
  18 H :    0.157145
  19 H :    0.156628
  20 H :    0.153158
  21 H :    0.141540
  22 H :    0.140738
  23 H :    0.140750
Sum of atomic charges:    0.0000000

LOEWDIN ATOMIC CHARGES
----------------------
   0 C :   -0.253932
   1 C :   -0.177116
   2 C :   -0.124890
   3 C :   -0.109389
   4 C :   -0.108773
   5 C :   -0.090981
   6 C :   -0.178490
   7 C :   -0.119958
   8 C :   -0.108691
   9 C :   -0.108659
  10 C :   -0.085330
  11 C :   -0.253745
  12 H :    0.129193
  13 H :    0.132227
  14 H :    0.132090
  15 H :    0.153380
  16 H :    0.155236
  17 H :    0.156704
  18 H :    0.154504
  19 H :    0.155347
  20 H :    0.157663
  21 H :    0.129525
  22 H :    0.132154
  23 H :    0.131931

  Mayer bond orders larger than 0.100000
B(  0-C ,  1-C ) :   0.9298 B(  0-C , 12-H ) :   0.9919 B(  0-C , 13-H ) :   0.9696
B(  0-C , 14-H ) :   0.9717 B(  1-C ,  2-C ) :   1.2480 B(  1-C , 10-C ) :   1.4838
B(  2-C ,  3-C ) :   1.5481 B(  2-C , 15-H ) :   0.9788 B(  3-C ,  4-C ) :   1.2007
B(  3-C , 16-H ) :   0.9930 B(  4-C ,  5-C ) :   1.2015 B(  4-C ,  9-C ) :   1.2341
B(  5-C ,  6-C ) :   1.5462 B(  5-C , 17-H ) :   0.9807 B(  6-C ,  7-C ) :   1.1908
B(  6-C , 11-C ) :   0.9254 B(  7-C ,  8-C ) :   1.5747 B(  7-C , 18-H ) :   0.9897
B(  8-C ,  9-C ) :   1.1743 B(  8-C , 19-H ) :   0.9931 B(  9-C , 10-C ) :   1.2196
B( 10-C , 20-H ) :   0.9964 B( 11-C , 21-H ) :   0.9933 B( 11-C , 22-H ) :   0.9675
B( 11-C , 23-H ) :   0.9697

FINAL SINGLE POINT ENERGY      -464.543180935676

DIPOLE MOMENT
-------------

Method             : SCF
Type of density    : Electron Density
Multiplicity       :   1
Irrep              :   0
Energy             :  -464.5563839294762829 Eh
Relativity type    :
Basis              : AO
                                X                 Y                 Z
Electronic contribution:     -0.014989665       0.051367015       0.000921638
Nuclear contribution   :      0.019113130      -0.101344851      -0.000946285
                        -----------------------------------------
Total Dipole Moment    :      0.004123465      -0.049977836      -0.000024647
                        -----------------------------------------
Magnitude (a.u.)       :      0.050147659
Magnitude (Debye)      :      0.127465219

Rotational constants in cm-1:             0.089221             0.019284             0.015951
Rotational constants in MHz :          2674.784462           578.126821           478.189838

                             ****ORCA TERMINATED NORMALLY****
TOTAL RUN TIME: 0 days 0 hours 6 minutes 33 seconds 525 msec
