                         Program Version 6.0.0  -   RELEASE  -
|  1> ! pbe def2-sv(p) def2/J RI DEFGRID1 loosescf d4 GCP(DFT/SV(P)) printgap
|  2> %output
|  3>     printlevel normal
|  4> end
|  5> * xyz 0 1
|  6> C 1.841565056 -1.4400854398 0.0003590314
|  7> C 0.5328873742 -0.7174603755 -9.66448e-05
|  8> C -0.6716430612 -1.4059152262 -0.0003125972
|  9> C -1.8671231188 -0.7038417938 -0.0001456516
| 10> C -1.8064717718 0.6781392048 0.0002772811
| 11> N -0.6675362012 1.3530875417 0.0002056547
| 12> C 0.4792024182 0.6843649983 -8.0083e-05
| 13> C 1.72808101 1.5069672217 -0.0002828026
| 14> H 2.424401073 -1.1709672295 -0.8789898846
| 15> H 2.4244326533 -1.1697423831 0.8794461838
| 16> H 1.6840409624 -2.51538814 0.0011660031
| 17> H -0.6749122476 -2.4870380365 -0.0004439817
| 18> H -2.8163577362 -1.2155985262 -0.0003435287
| 19> H -2.7038869328 1.2829207067 0.0005642812
| 20> H 1.4654905501 2.5598970928 -0.0016091479
| 21> H 2.3270332147 1.286019571 0.8810617472
| 22> H 2.3281401995 1.2839120279 -0.8803554398
| 23> *
| 24>
| 25>                          ****END OF INPUT****

CARTESIAN COORDINATES (ANGSTROEM)
---------------------------------
  C      1.841565   -1.440085    0.000359
  C      0.532887   -0.717460   -0.000097
  C     -0.671643   -1.405915   -0.000313
  C     -1.867123   -0.703842   -0.000146
  C     -1.806472    0.678139    0.000277
  N     -0.667536    1.353088    0.000206
  C      0.479202    0.684365   -0.000080
  C      1.728081    1.506967   -0.000283
  H      2.424401   -1.170967   -0.878990
  H      2.424433   -1.169742    0.879446
  H      1.684041   -2.515388    0.001166
  H     -0.674912   -2.487038   -0.000444
  H     -2.816358   -1.215599   -0.000344
  H     -2.703887    1.282921    0.000564
  H      1.465491    2.559897   -0.001609
  H      2.327033    1.286020    0.881062
  H      2.328140    1.283912   -0.880355

 Total Charge           Charge          ....    0
 Multiplicity           Mult            ....    1
 Number of Electrons    NEL             ....   58
 Basis Dimension        Dim             ....  130

ORBITAL ENERGIES
----------------

  NO   OCC          E(Eh)            E(eV)
   0   2.0000     -13.973344      -380.2340
   1   2.0000      -9.927231      -270.1337
   2   2.0000      -9.911407      -269.7031
   3   2.0000      -9.907707      -269.6024
   4   2.0000      -9.901313      -269.4284
   5   2.0000      -9.892470      -269.1878
   6   2.0000      -9.892036      -269.1760
   7   2.0000      -9.878364      -268.8039
   8   2.0000      -0.853204       -23.2169
   9   2.0000      -0.733805       -19.9679
  10   2.0000      -0.709378       -19.3031
  11   2.0000      -0.645708       -17.5706
  12   2.0000      -0.614345       -16.7172
  13   2.0000      -0.546866       -14.8810
  14   2.0000      -0.534331       -14.5399
  15   2.0000      -0.453567       -12.3422
  16   2.0000      -0.444878       -12.1057
  17   2.0000      -0.402582       -10.9548
  18   2.0000      -0.392660       -10.6848
  19   2.0000      -0.364822        -9.9273
  20   2.0000      -0.363805        -9.8996
  21   2.0000      -0.359207        -9.7745
  22   2.0000      -0.355291        -9.6680
  23   2.0000      -0.335611        -9.1324
  24   2.0000      -0.329211        -8.9583
  25   2.0000      -0.306747        -8.3470
  26   2.0000      -0.252034        -6.8582
  27   2.0000      -0.221917        -6.0387
  28   2.0000      -0.197670        -5.3789
  29   0.0000      -0.045794        -1.2461
  30   0.0000      -0.037679        -1.0253
  31   0.0000       0.038053         1.0355
  32   0.0000       0.052076         1.4171
  33   0.0000       0.081961         2.2303

MULLIKEN ATOMIC CHARGES
-----------------------
   0 C :   -0.198568
   1 C :   -0.029456
   2 C :   -0.076836
   3 C :   -0.064430
   4 C :   -0.059086
   5 N :   -0.055578
   6 C :   -0.150209
   7 C :   -0.188148
   8 H :    0.114189
   9 H :    0.114172
  10 H :    0.101610
  11 H :    0.048478
  12 H :    0.056534
  13 H :    0.064669
  14 H :    0.108547
  15 H :    0.107091
  16 H :    0.107021
Sum of atomic charges:   -0.0000000

LOEWDIN ATOMIC CHARGES
----------------------
   0 C :   -0.320930
   1 C :   -0.063750
   2 C :   -0.102881
   3 C :   -0.148286
   4 C :   -0.086799
   5 N :   -0.074827
   6 C :   -0.016670
   7 C :   -0.333674
   8 H :    0.132923
   9 H :    0.132914
  10 H :    0.125366
  11 H :    0.123427
  12 H :    0.126501
  13 H :    0.112595
  14 H :    0.132807
  15 H :    0.130666
  16 H :    0.130619

  Mayer bond orders larger than 0.100000
B(  0-C ,  1-C ) :   1.1460 B(  0-C ,  8-H ) :   0.9225 B(  0-C ,  9-H ) :   0.9225
B(  0-C , 10-H ) :   0.9348 B(  1-C ,  2-C ) :   1.4470 B(  1-C ,  6-C ) :   1.3256
B(  2-C ,  3-C ) :   1.3980 B(  2-C , 11-H ) :   0.9476 B(  3-C ,  4-C ) :   1.3822
B(  3-C , 12-H ) :   0.9468 B(  4-C ,  5-N ) :   1.5294 B(  4-C , 13-H ) :   0.9520
B(  5-N ,  6-C ) :   1.5872 B(  6-C ,  7-C ) :   1.1542 B(  7-C , 14-H ) :   0.9276
B(  7-C , 15-H ) :   0.9238 B(  7-C , 16-H ) :   0.9239

Dispersion correction           -0.016761908
FINAL SINGLE POINT ENERGY      -326.184841598155

DIPOLE MOMENT
-------------

Method             : SCF
Type of density    : Electron Density
Multiplicity       :   1
Irrep              :   0
Energy             :  -326.2332363437154754 Eh
Relativity type    :
Basis              : AO
                                X                 Y                 Z
Electronic contribution:     -5.753767713       1.263859722      -0.000427041
Nuclear contribution   :      6.055390409      -2.005876541       0.000466677
                        -----------------------------------------
Total Dipole Moment    :      0.301622696      -0.742016819       0.000039637
                        -----------------------------------------
Magnitude (a.u.)       :      0.800977660
Magnitude (Debye)      :      2.035923415

Rotational constants in cm-1:             0.107764             0.075853             0.045264
Rotational constants in MHz :          3230.674138          2274.028384          1356.989148

                             ****ORCA TERMINATED NORMALLY****
TOTAL RUN TIME: 0 days 0 hours 0 minutes 8 seconds 288 msec
