                         Program Version 6.0.0  -   RELEASE  -
|  1> ! pbe def2-sv(p) def2/J RI DEFGRID1 loosescf d4 GCP(DFT/SV(P)) printgap
|  2> %output
|  3>     printlevel normal
|  4> end
|  5> * xyz 0 1
|  6> C -2.0153076745 -1.1938189429 -0.3570239438
|  7> C -1.286608674 -0.3806233809 0.7242361057
|  8> H -1.9548498477 -0.2909818842 1.5871070684
|  9> C -0.9591318233 1.0483694299 0.2491593495
| 10> H -1.312074037 1.1811064022 -0.7836445905
| 11> C 0.5565390159 1.2729126039 0.2374249756
| 12> H 0.9190316703 1.3529130728 1.2754900278
| 13> C 1.223483676 0.0643263583 -0.4229537523
| 14> H 0.7444322536 -0.1281777247 -1.3913442817
| 15> C 1.0031693786 -1.1564404365 0.4829102053
| 16> H 1.8219791442 -1.1936472353 1.2218066145
| 17> O -0.1583686656 -1.052751928 1.2703012215
| 18> O 1.008036833 -2.2995609953 -0.3121748059
| 19> O 2.5903375957 0.3551379077 -0.5822779911
| 20> O 0.819058092 2.4635272394 -0.4598160234
| 21> O -1.6138829527 1.9540540531 1.1032085317
| 22> O -1.3879401356 -1.0448026201 -1.6111406497
| 23> H -3.0475021207 -0.8245359841 -0.4053524235
| 24> H -2.0203230779 -2.2437872076 -0.0440474389
| 25> H 0.9324658761 -3.0902838499 0.2433967546
| 26> H 3.0084457565 -0.338197929 -1.1116429461
| 27> H 1.7656337504 2.4836001368 -0.6698181756
| 28> H -1.3671946627 2.8538773271 0.8414340238
| 29> H -1.8360793256 -1.6096306441 -2.2566341931
| 30> *
| 31>
| 32>                          ****END OF INPUT****

CARTESIAN COORDINATES (ANGSTROEM)
---------------------------------
  C     -2.015308   -1.193819   -0.357024
  C     -1.286609   -0.380623    0.724236
  H     -1.954850   -0.290982    1.587107
  C     -0.959132    1.048369    0.249159
  H     -1.312074    1.181106   -0.783645
  C      0.556539    1.272913    0.237425
  H      0.919032    1.352913    1.275490
  C      1.223484    0.064326   -0.422954
  H      0.744432   -0.128178   -1.391344
  C      1.003169   -1.156440    0.482910
  H      1.821979   -1.193647    1.221807
  O     -0.158369   -1.052752    1.270301
  O      1.008037   -2.299561   -0.312175
  O      2.590338    0.355138   -0.582278
  O      0.819058    2.463527   -0.459816
  O     -1.613883    1.954054    1.103209
  O     -1.387940   -1.044803   -1.611141
  H     -3.047502   -0.824536   -0.405352
  H     -2.020323   -2.243787   -0.044047
  H      0.932466   -3.090284    0.243397
  H      3.008446   -0.338198   -1.111643
  H      1.765634    2.483600   -0.669818
  H     -1.367195    2.853877    0.841434
  H     -1.836079   -1.609631   -2.256634

 Total Charge           Charge          ....    0
 Multiplicity           Mult            ....    1
 Number of Electrons    NEL             ....   96
 Basis Dimension        Dim             ....  192

ORBITAL ENERGIES
----------------

  NO   OCC          E(Eh)            E(eV)
   0   2.0000     -18.758911      -510.4559
   1   2.0000     -18.757035      -510.4049
   2   2.0000     -18.756059      -510.3783
   3   2.0000     -18.755038      -510.3505
   4   2.0000     -18.741085      -509.9708
   5   2.0000     -18.737529      -509.8741
   6   2.0000      -9.976538      -271.4754
   7   2.0000      -9.939796      -270.4756
   8   2.0000      -9.933843      -270.3136
   9   2.0000      -9.930123      -270.2124
  10   2.0000      -9.929850      -270.2050
  11   2.0000      -9.929552      -270.1968
  12   2.0000      -0.972048       -26.4508
  13   2.0000      -0.937963       -25.5233
  14   2.0000      -0.929783       -25.3007
  15   2.0000      -0.922713       -25.1083
  16   2.0000      -0.905766       -24.6471
  17   2.0000      -0.903499       -24.5855
  18   2.0000      -0.697485       -18.9795
  19   2.0000      -0.687529       -18.7086
  20   2.0000      -0.615976       -16.7616
  21   2.0000      -0.571833       -15.5604
  22   2.0000      -0.561301       -15.2738
  23   2.0000      -0.515287       -14.0217
  24   2.0000      -0.502027       -13.6608
  25   2.0000      -0.472685       -12.8624
  26   2.0000      -0.461626       -12.5615
  27   2.0000      -0.455938       -12.4067
  28   2.0000      -0.436917       -11.8891
  29   2.0000      -0.429134       -11.6773
  30   2.0000      -0.406030       -11.0486
  31   2.0000      -0.397536       -10.8175
  32   2.0000      -0.377671       -10.2770
  33   2.0000      -0.374942       -10.2027
  34   2.0000      -0.346602        -9.4315
  35   2.0000      -0.344702        -9.3798
  36   2.0000      -0.326267        -8.8782
  37   2.0000      -0.307141        -8.3577
  38   2.0000      -0.302364        -8.2277
  39   2.0000      -0.289439        -7.8760
  40   2.0000      -0.274486        -7.4691
  41   2.0000      -0.262713        -7.1488
  42   2.0000      -0.240280        -6.5384
  43   2.0000      -0.227690        -6.1958
  44   2.0000      -0.224742        -6.1155
  45   2.0000      -0.214979        -5.8499
  46   2.0000      -0.207686        -5.6514
  47   2.0000      -0.205296        -5.5864
  48   0.0000       0.018931         0.5151
  49   0.0000       0.023949         0.6517
  50   0.0000       0.039039         1.0623
  51   0.0000       0.054255         1.4763
  52   0.0000       0.066047         1.7972

MULLIKEN ATOMIC CHARGES
-----------------------
   0 C :    0.022056
   1 C :    0.042243
   2 H :    0.085537
   3 C :    0.078781
   4 H :    0.074465
   5 C :    0.047094
   6 H :    0.054996
   7 C :   -0.021347
   8 H :    0.089409
   9 C :    0.207320
  10 H :    0.051999
  11 O :   -0.315347
  12 O :   -0.393636
  13 O :   -0.425003
  14 O :   -0.430792
  15 O :   -0.422430
  16 O :   -0.419997
  17 H :    0.080735
  18 H :    0.069207
  19 H :    0.296957
  20 H :    0.310095
  21 H :    0.306840
  22 H :    0.305677
  23 H :    0.305139
Sum of atomic charges:    0.0000000

LOEWDIN ATOMIC CHARGES
----------------------
   0 C :   -0.135062
   1 C :   -0.052595
   2 H :    0.130662
   3 C :   -0.063707
   4 H :    0.109379
   5 C :   -0.071622
   6 H :    0.103888
   7 C :   -0.097506
   8 H :    0.117298
   9 C :   -0.011019
  10 H :    0.094146
  11 O :   -0.148183
  12 O :   -0.313450
  13 O :   -0.320547
  14 O :   -0.327196
  15 O :   -0.323039
  16 O :   -0.330620
  17 H :    0.103395
  18 H :    0.099236
  19 H :    0.282249
  20 H :    0.293016
  21 H :    0.284967
  22 H :    0.287354
  23 H :    0.288956

  Mayer bond orders larger than 0.100000
B(  0-C ,  1-C ) :   1.0652 B(  0-C , 16-O ) :   1.0699 B(  0-C , 17-H ) :   0.9109
B(  0-C , 18-H ) :   0.9074 B(  1-C ,  2-H ) :   0.8857 B(  1-C ,  3-C ) :   0.9863
B(  1-C , 11-O ) :   1.0369 B(  3-C ,  4-H ) :   0.8797 B(  3-C ,  5-C ) :   1.0484
B(  3-C , 15-O ) :   1.0689 B(  5-C ,  6-H ) :   0.8650 B(  5-C ,  7-C ) :   1.0232
B(  5-C , 14-O ) :   1.0863 B(  7-C ,  8-H ) :   0.8670 B(  7-C ,  9-C ) :   0.9967
B(  7-C , 13-O ) :   1.0501 B(  9-C , 10-H ) :   0.8863 B(  9-C , 11-O ) :   1.0493
B(  9-C , 12-O ) :   1.1358 B( 12-O , 19-H ) :   0.8426 B( 13-O , 20-H ) :   0.8447
B( 14-O , 21-H ) :   0.8301 B( 15-O , 22-H ) :   0.8433 B( 16-O , 23-H ) :   0.8461

Dispersion correction           -0.025113245
FINAL SINGLE POINT ENERGY      -685.693505231817

DIPOLE MOMENT
-------------

Method             : SCF
Type of density    : Electron Density
Multiplicity       :   1
Irrep              :   0
Energy             :  -685.8235766914898477 Eh
Relativity type    :
Basis              : AO
                                X                 Y                 Z
Electronic contribution:      2.234949225       0.713081804       0.783560087
Nuclear contribution   :     -2.182354194      -1.727935255      -1.409690809
                        -----------------------------------------
Total Dipole Moment    :      0.052595030      -1.014853451      -0.626130722
                        -----------------------------------------
Magnitude (a.u.)       :      1.193621986
Magnitude (Debye)      :      3.033945978

Rotational constants in cm-1:             0.034747             0.033205             0.022243
Rotational constants in MHz :          1041.678149           995.463663           666.835210

                             ****ORCA TERMINATED NORMALLY****
TOTAL RUN TIME: 0 days 0 hours 0 minutes 12 seconds 384 msec
