                         Program Version 6.0.0  -   RELEASE  -
|  1> ! pbe def2-sv(p) def2/J RI DEFGRID1 loosescf d4 GCP(DFT/SV(P)) printgap
|  2> %output
|  3>     printlevel normal
|  4> end
|  5> * xyz 0 1
|  6> C -1.1894734027 0.9204062881 1.0267411315
|  7> C -0.5102499232 0.2257462416 0.0357463345
|  8> C -1.223751425 -0.5794595113 -0.8511008182
|  9> C -2.6093570782 -0.6798721206 -0.7501543518
| 10> C -3.2873099385 0.0246334045 0.242814923
| 11> C -2.5674026931 0.8224079163 1.1308517815
| 12> Cl -3.3992215559 1.6877091114 2.3611437816
| 13> Cl -4.9973766033 -0.0984821394 0.3662295145
| 14> Cl -3.4857261118 -1.6731420376 -1.8458866954
| 15> Cl -0.3930086614 -1.4742501275 -2.0617393117
| 16> C 0.9611578663 0.3368216545 -0.082306827
| 17> C 1.548243353 1.0457801193 -1.1301640933
| 18> C 2.924457476 1.1480003826 -1.251589867
| 19> C 3.736328875 0.5297456125 -0.3137218633
| 20> C 3.1801379251 -0.186040066 0.7459656266
| 21> C 1.7938773535 -0.274123827 0.8530688701
| 22> Cl 1.0947375571 -1.1722630596 2.1423829781
| 23> Cl 4.1892740557 -0.9568750855 1.9066416592
| 24> Cl 5.4442553175 0.6446685313 -0.4574594248
| 25> Cl 0.53583407 1.8208494798 -2.2848615679
| 26> H -0.6430307344 1.5438406273 1.7152059106
| 27> H 3.3625284867 1.7012507075 -2.0655311058
| 28> *
| 29>
| 30>                          ****END OF INPUT****

CARTESIAN COORDINATES (ANGSTROEM)
---------------------------------
  C     -1.189473    0.920406    1.026741
  C     -0.510250    0.225746    0.035746
  C     -1.223751   -0.579460   -0.851101
  C     -2.609357   -0.679872   -0.750154
  C     -3.287310    0.024633    0.242815
  C     -2.567403    0.822408    1.130852
  Cl    -3.399222    1.687709    2.361144
  Cl    -4.997377   -0.098482    0.366230
  Cl    -3.485726   -1.673142   -1.845887
  Cl    -0.393009   -1.474250   -2.061739
  C      0.961158    0.336822   -0.082307
  C      1.548243    1.045780   -1.130164
  C      2.924457    1.148000   -1.251590
  C      3.736329    0.529746   -0.313722
  C      3.180138   -0.186040    0.745966
  C      1.793877   -0.274124    0.853069
  Cl     1.094738   -1.172263    2.142383
  Cl     4.189274   -0.956875    1.906642
  Cl     5.444255    0.644669   -0.457459
  Cl     0.535834    1.820849   -2.284862
  H     -0.643031    1.543841    1.715206
  H      3.362528    1.701251   -2.065531

 Total Charge           Charge          ....    0
 Multiplicity           Mult            ....    1
 Number of Electrons    NEL             ....  210
 Basis Dimension        Dim             ....  316

ORBITAL ENERGIES
----------------

  NO   OCC          E(Eh)            E(eV)
   0   2.0000    -100.666023     -2739.2617
   1   2.0000    -100.663917     -2739.2045
   2   2.0000    -100.662602     -2739.1687
   3   2.0000    -100.662569     -2739.1678
   4   2.0000    -100.661606     -2739.1416
   5   2.0000    -100.661215     -2739.1309
   6   2.0000    -100.661133     -2739.1287
   7   2.0000    -100.659222     -2739.0767
   8   2.0000      -9.986411      -271.7441
   9   2.0000      -9.985315      -271.7142
  10   2.0000      -9.982612      -271.6407
  11   2.0000      -9.982124      -271.6274
  12   2.0000      -9.982045      -271.6253
  13   2.0000      -9.981839      -271.6196
  14   2.0000      -9.979693      -271.5613
  15   2.0000      -9.978450      -271.5274
  16   2.0000      -9.949733      -270.7460
  17   2.0000      -9.947913      -270.6965
  18   2.0000      -9.932936      -270.2889
  19   2.0000      -9.930947      -270.2348
  20   2.0000      -9.201614      -250.3887
  21   2.0000      -9.199823      -250.3399
  22   2.0000      -9.198361      -250.3001
  23   2.0000      -9.198287      -250.2981
  24   2.0000      -9.197314      -250.2716
  25   2.0000      -9.196890      -250.2601
  26   2.0000      -9.196765      -250.2567
  27   2.0000      -9.195103      -250.2115
  28   2.0000      -7.033240      -191.3842
  29   2.0000      -7.031441      -191.3352
  30   2.0000      -7.030080      -191.2982
  31   2.0000      -7.029821      -191.2912
  32   2.0000      -7.029102      -191.2716
  33   2.0000      -7.028668      -191.2598
  34   2.0000      -7.028393      -191.2523
  35   2.0000      -7.026708      -191.2065
  36   2.0000      -7.021728      -191.0709
  37   2.0000      -7.020589      -191.0399
  38   2.0000      -7.019858      -191.0201
  39   2.0000      -7.018856      -190.9928
  40   2.0000      -7.018355      -190.9792
  41   2.0000      -7.018303      -190.9777
  42   2.0000      -7.017576      -190.9579
  43   2.0000      -7.017377      -190.9525
  44   2.0000      -7.017217      -190.9482
  45   2.0000      -7.016932      -190.9404
  46   2.0000      -7.016786      -190.9365
  47   2.0000      -7.016187      -190.9202
  48   2.0000      -7.015865      -190.9114
  49   2.0000      -7.015774      -190.9089
  50   2.0000      -7.015104      -190.8907
  51   2.0000      -7.014191      -190.8658
  52   2.0000      -0.878272       -23.8990
  53   2.0000      -0.869798       -23.6684
  54   2.0000      -0.837913       -22.8008
  55   2.0000      -0.829222       -22.5643
  56   2.0000      -0.827467       -22.5165
  57   2.0000      -0.810314       -22.0498
  58   2.0000      -0.793307       -21.5870
  59   2.0000      -0.784795       -21.3554
  60   2.0000      -0.768539       -20.9130
  61   2.0000      -0.757833       -20.6217
  62   2.0000      -0.711937       -19.3728
  63   2.0000      -0.676071       -18.3968
  64   2.0000      -0.669441       -18.2164
  65   2.0000      -0.655373       -17.8336
  66   2.0000      -0.590743       -16.0749
  67   2.0000      -0.570434       -15.5223
  68   2.0000      -0.568193       -15.4613
  69   2.0000      -0.545699       -14.8492
  70   2.0000      -0.496681       -13.5154
  71   2.0000      -0.496065       -13.4986
  72   2.0000      -0.485509       -13.2114
  73   2.0000      -0.473368       -12.8810
  74   2.0000      -0.444136       -12.0856
  75   2.0000      -0.434423       -11.8213
  76   2.0000      -0.423550       -11.5254
  77   2.0000      -0.421970       -11.4824
  78   2.0000      -0.420809       -11.4508
  79   2.0000      -0.413236       -11.2447
  80   2.0000      -0.411539       -11.1985
  81   2.0000      -0.396167       -10.7803
  82   2.0000      -0.380080       -10.3425
  83   2.0000      -0.376121       -10.2348
  84   2.0000      -0.368282       -10.0215
  85   2.0000      -0.359263        -9.7760
  86   2.0000      -0.350465        -9.5366
  87   2.0000      -0.346160        -9.4195
  88   2.0000      -0.332931        -9.0595
  89   2.0000      -0.311167        -8.4673
  90   2.0000      -0.306871        -8.3504
  91   2.0000      -0.304062        -8.2739
  92   2.0000      -0.302883        -8.2419
  93   2.0000      -0.298423        -8.1205
  94   2.0000      -0.296886        -8.0787
  95   2.0000      -0.288534        -7.8514
  96   2.0000      -0.286211        -7.7882
  97   2.0000      -0.281977        -7.6730
  98   2.0000      -0.280485        -7.6324
  99   2.0000      -0.268450        -7.3049
 100   2.0000      -0.263592        -7.1727
 101   2.0000      -0.243601        -6.6287
 102   2.0000      -0.233495        -6.3537
 103   2.0000      -0.229031        -6.2323
 104   2.0000      -0.225399        -6.1334
 105   0.0000      -0.084710        -2.3051
 106   0.0000      -0.075610        -2.0575
 107   0.0000      -0.068585        -1.8663
 108   0.0000      -0.064485        -1.7547
 109   0.0000      -0.055795        -1.5183

MULLIKEN ATOMIC CHARGES
-----------------------
   0 C :   -0.151630
   1 C :   -0.016200
   2 C :    0.063912
   3 C :    0.006481
   4 C :    0.029721
   5 C :    0.086485
   6 Cl:   -0.039942
   7 Cl:   -0.013065
   8 Cl:   -0.014406
   9 Cl:   -0.020360
  10 C :    0.024818
  11 C :    0.085187
  12 C :   -0.151284
  13 C :    0.072597
  14 C :    0.048170
  15 C :   -0.003665
  16 Cl:   -0.014763
  17 Cl:   -0.016548
  18 Cl:   -0.033719
  19 Cl:   -0.040124
  20 H :    0.049440
  21 H :    0.048895
Sum of atomic charges:    0.0000000

LOEWDIN ATOMIC CHARGES
----------------------
   0 C :   -0.120152
   1 C :   -0.061463
   2 C :   -0.150359
   3 C :   -0.173360
   4 C :   -0.175540
   5 C :   -0.157513
   6 Cl:    0.162585
   7 Cl:    0.174167
   8 Cl:    0.174018
   9 Cl:    0.176413
  10 C :   -0.076379
  11 C :   -0.124904
  12 C :   -0.153503
  13 C :   -0.149354
  14 C :   -0.183926
  15 C :   -0.139519
  16 Cl:    0.183506
  17 Cl:    0.170174
  18 Cl:    0.168848
  19 Cl:    0.171374
  20 H :    0.141246
  21 H :    0.143640

  Mayer bond orders larger than 0.100000
B(  0-C ,  1-C ) :   1.3110 B(  0-C ,  5-C ) :   1.3179 B(  0-C , 20-H ) :   0.9811
B(  1-C ,  2-C ) :   1.3978 B(  1-C , 10-C ) :   0.9582 B(  2-C ,  3-C ) :   1.3952
B(  2-C ,  9-Cl) :   1.1190 B(  3-C ,  4-C ) :   1.4185 B(  3-C ,  8-Cl) :   1.1198
B(  4-C ,  5-C ) :   1.3947 B(  4-C ,  7-Cl) :   1.1197 B(  5-C ,  6-Cl) :   1.0357
B( 10-C , 11-C ) :   1.4043 B( 10-C , 15-C ) :   1.4380 B( 11-C , 12-C ) :   1.2941
B( 11-C , 19-Cl) :   1.0395 B( 12-C , 13-C ) :   1.3186 B( 12-C , 21-H ) :   0.9844
B( 13-C , 14-C ) :   1.3951 B( 13-C , 18-Cl) :   1.0397 B( 14-C , 15-C ) :   1.3851
B( 14-C , 17-Cl) :   1.1184 B( 15-C , 16-Cl) :   1.1199

Dispersion correction           -0.054148892
FINAL SINGLE POINT ENERGY     -4136.516468394731

DIPOLE MOMENT
-------------

Method             : SCF
Type of density    : Electron Density
Multiplicity       :   1
Irrep              :   0
Energy             : -4136.5279869466521632 Eh
Relativity type    :
Basis              : AO
                                X                 Y                 Z
Electronic contribution:     -3.584468402      -4.385219048       0.437649090
Nuclear contribution   :      3.908657293       4.684364215      -0.498390943
                        -----------------------------------------
Total Dipole Moment    :      0.324188891       0.299145167      -0.060741853
                        -----------------------------------------
Magnitude (a.u.)       :      0.445281754
Magnitude (Debye)      :      1.131816271

Rotational constants in cm-1:             0.010428             0.003493             0.003161
Rotational constants in MHz :           312.622310           104.702907            94.760208

                             ****ORCA TERMINATED NORMALLY****
TOTAL RUN TIME: 0 days 0 hours 0 minutes 27 seconds 47 msec
