                         Program Version 6.0.0  -   RELEASE  -
|  1> ! pbe def2-sv(p) def2/J RI DEFGRID1 loosescf d4 GCP(DFT/SV(P)) printgap
|  2> %output
|  3>     printlevel normal
|  4> end
|  5> * xyz 0 1
|  6> C -2.4033066846 -0.8528071389 0.3896521926
|  7> C -0.9448534828 -0.4315063236 0.5978675216
|  8> H -0.6790325795 -0.5819138089 1.6562701683
|  9> C -0.723212529 1.0550533931 0.2400968347
| 10> H -1.491708421 1.3678681382 -0.4752885477
| 11> C 0.6485991684 1.2396746219 -0.4399242492
| 12> H 0.9604735913 2.2814578228 -0.2673294865
| 13> C 1.6787428953 0.3122741103 0.2307115532
| 14> H 2.6434556308 0.4042327194 -0.2844383633
| 15> C 1.2306106717 -1.1602556898 0.0711942147
| 16> H 1.4379060858 -1.6908222564 1.0291442812
| 17> O -0.143144541 -1.282712765 -0.205074421
| 18> O 1.9452532714 -1.7239819625 -0.9678937114
| 19> O 1.7740591157 0.6989201403 1.5788828367
| 20> O 0.5008811195 0.9772571004 -1.8074290781
| 21> O -0.86618637 1.8801540751 1.3639053685
| 22> O -2.8508982358 -0.6228976308 -0.9200859233
| 23> H -3.0401827034 -0.2557608292 1.0445759675
| 24> H -2.5020009164 -1.9149716342 0.6494045183
| 25> H 1.4954645984 -2.5279152228 -1.2708652359
| 26> H 2.58546572 0.3503755966 1.9746857163
| 27> H 1.3412563796 1.1169254112 -2.2669919322
| 28> H -0.116158005 1.7229128316 1.960963459
| 29> H -2.2306598165 -1.0451337971 -1.5322697923
| 30> *
| 31>
| 32>                          ****END OF INPUT****

CARTESIAN COORDINATES (ANGSTROEM)
---------------------------------
  C     -2.403307   -0.852807    0.389652
  C     -0.944853   -0.431506    0.597868
  H     -0.679033   -0.581914    1.656270
  C     -0.723213    1.055053    0.240097
  H     -1.491708    1.367868   -0.475289
  C      0.648599    1.239675   -0.439924
  H      0.960474    2.281458   -0.267329
  C      1.678743    0.312274    0.230712
  H      2.643456    0.404233   -0.284438
  C      1.230611   -1.160256    0.071194
  H      1.437906   -1.690822    1.029144
  O     -0.143145   -1.282713   -0.205074
  O      1.945253   -1.723982   -0.967894
  O      1.774059    0.698920    1.578883
  O      0.500881    0.977257   -1.807429
  O     -0.866186    1.880154    1.363905
  O     -2.850898   -0.622898   -0.920086
  H     -3.040183   -0.255761    1.044576
  H     -2.502001   -1.914972    0.649405
  H      1.495465   -2.527915   -1.270865
  H      2.585466    0.350376    1.974686
  H      1.341256    1.116925   -2.266992
  H     -0.116158    1.722913    1.960963
  H     -2.230660   -1.045134   -1.532270

 Total Charge           Charge          ....    0
 Multiplicity           Mult            ....    1
 Number of Electrons    NEL             ....   96
 Basis Dimension        Dim             ....  192

ORBITAL ENERGIES
----------------

  NO   OCC          E(Eh)            E(eV)
   0   2.0000     -18.781341      -511.0663
   1   2.0000     -18.769986      -510.7573
   2   2.0000     -18.766405      -510.6598
   3   2.0000     -18.753253      -510.3020
   4   2.0000     -18.739223      -509.9202
   5   2.0000     -18.737095      -509.8623
   6   2.0000      -9.992030      -271.8970
   7   2.0000      -9.951229      -270.7867
   8   2.0000      -9.941387      -270.5189
   9   2.0000      -9.936791      -270.3938
  10   2.0000      -9.928505      -270.1684
  11   2.0000      -9.925618      -270.0898
  12   2.0000      -0.988443       -26.8969
  13   2.0000      -0.954387       -25.9702
  14   2.0000      -0.933237       -25.3947
  15   2.0000      -0.925942       -25.1962
  16   2.0000      -0.913424       -24.8555
  17   2.0000      -0.909358       -24.7449
  18   2.0000      -0.695505       -18.9256
  19   2.0000      -0.687119       -18.6974
  20   2.0000      -0.622091       -16.9280
  21   2.0000      -0.583692       -15.8831
  22   2.0000      -0.562586       -15.3087
  23   2.0000      -0.524807       -14.2807
  24   2.0000      -0.507086       -13.7985
  25   2.0000      -0.480937       -13.0870
  26   2.0000      -0.472217       -12.8497
  27   2.0000      -0.469915       -12.7870
  28   2.0000      -0.451959       -12.2984
  29   2.0000      -0.432736       -11.7753
  30   2.0000      -0.417618       -11.3640
  31   2.0000      -0.394171       -10.7259
  32   2.0000      -0.382531       -10.4092
  33   2.0000      -0.365224        -9.9382
  34   2.0000      -0.354222        -9.6389
  35   2.0000      -0.347478        -9.4554
  36   2.0000      -0.332568        -9.0496
  37   2.0000      -0.320707        -8.7269
  38   2.0000      -0.314780        -8.5656
  39   2.0000      -0.294975        -8.0267
  40   2.0000      -0.273090        -7.4312
  41   2.0000      -0.260548        -7.0899
  42   2.0000      -0.250440        -6.8148
  43   2.0000      -0.246768        -6.7149
  44   2.0000      -0.242712        -6.6045
  45   2.0000      -0.216008        -5.8779
  46   2.0000      -0.209320        -5.6959
  47   2.0000      -0.196166        -5.3380
  48   0.0000       0.002700         0.0735
  49   0.0000       0.019340         0.5263
  50   0.0000       0.035737         0.9725
  51   0.0000       0.051850         1.4109
  52   0.0000       0.057822         1.5734

MULLIKEN ATOMIC CHARGES
-----------------------
   0 C :    0.085632
   1 C :   -0.016597
   2 H :    0.043763
   3 C :    0.084239
   4 H :    0.082007
   5 C :    0.047764
   6 H :    0.071265
   7 C :   -0.044139
   8 H :    0.072967
   9 C :    0.253133
  10 H :    0.031023
  11 O :   -0.322949
  12 O :   -0.391667
  13 O :   -0.423875
  14 O :   -0.402052
  15 O :   -0.428469
  16 O :   -0.433420
  17 H :    0.095245
  18 H :    0.071935
  19 H :    0.306119
  20 H :    0.314962
  21 H :    0.299233
  22 H :    0.301638
  23 H :    0.302245
Sum of atomic charges:   -0.0000000

LOEWDIN ATOMIC CHARGES
----------------------
   0 C :   -0.121344
   1 C :   -0.080025
   2 H :    0.100711
   3 C :   -0.066210
   4 H :    0.124158
   5 C :   -0.071840
   6 H :    0.104095
   7 C :   -0.095259
   8 H :    0.107434
   9 C :    0.004425
  10 H :    0.071713
  11 O :   -0.160566
  12 O :   -0.301670
  13 O :   -0.311417
  14 O :   -0.309336
  15 O :   -0.313819
  16 O :   -0.329226
  17 H :    0.122151
  18 H :    0.098236
  19 H :    0.289985
  20 H :    0.295322
  21 H :    0.285405
  22 H :    0.273330
  23 H :    0.283749

  Mayer bond orders larger than 0.100000
B(  0-C ,  1-C ) :   1.0527 B(  0-C , 16-O ) :   1.0704 B(  0-C , 17-H ) :   0.9200
B(  0-C , 18-H ) :   0.9110 B(  1-C ,  2-H ) :   0.8641 B(  1-C ,  3-C ) :   0.9764
B(  1-C , 11-O ) :   1.0048 B(  3-C ,  4-H ) :   0.8710 B(  3-C ,  5-C ) :   0.9931
B(  3-C , 15-O ) :   1.0501 B(  5-C ,  6-H ) :   0.8972 B(  5-C ,  7-C ) :   1.0181
B(  5-C , 14-O ) :   1.0726 B(  7-C ,  8-H ) :   0.8979 B(  7-C ,  9-C ) :   0.9124
B(  7-C , 13-O ) :   1.0394 B(  9-C , 10-H ) :   0.9081 B(  9-C , 11-O ) :   1.0293
B(  9-C , 12-O ) :   1.1634 B( 12-O , 19-H ) :   0.8379 B( 13-O , 20-H ) :   0.8396
B( 14-O , 21-H ) :   0.8438 B( 15-O , 22-H ) :   0.8279 B( 16-O , 23-H ) :   0.8414

Dispersion correction           -0.025100429
FINAL SINGLE POINT ENERGY      -685.690840056031

DIPOLE MOMENT
-------------

Method             : SCF
Type of density    : Electron Density
Multiplicity       :   1
Irrep              :   0
Energy             :  -685.8212062819218318 Eh
Relativity type    :
Basis              : AO
                                X                 Y                 Z
Electronic contribution:      1.323296370      -0.064779445      -1.739109449
Nuclear contribution   :      0.384615695      -0.726051620       2.066542921
                        -----------------------------------------
Total Dipole Moment    :      1.707912066      -0.790831065       0.327433472
                        -----------------------------------------
Magnitude (a.u.)       :      1.910390032
Magnitude (Debye)      :      4.855825564

Rotational constants in cm-1:             0.039247             0.028479             0.023157
Rotational constants in MHz :          1176.592090           853.769205           694.239252

                             ****ORCA TERMINATED NORMALLY****
TOTAL RUN TIME: 0 days 0 hours 0 minutes 11 seconds 894 msec
