                         Program Version 6.0.0  -   RELEASE  -
|  1> ! pbe def2-sv(p) def2/J RI DEFGRID1 loosescf d4 GCP(DFT/SV(P)) printgap
|  2> %output
|  3>     printlevel normal
|  4> end
|  5> * xyz 0 1
|  6> C -2.4194576671 -0.7087720671 -0.0041031763
|  7> C -0.9992440891 -0.2609760835 0.3565984753
|  8> H -0.9877201092 0.0932961669 1.3978057494
|  9> C -0.5079366963 0.8697434271 -0.5517966313
| 10> H -0.3841347296 0.4795805048 -1.5697279037
| 11> C 0.8674699898 1.3404002972 -0.0340133843
| 12> H 0.6904428751 1.9708256204 0.8487480434
| 13> C 1.7181910606 0.1495381407 0.4440680415
| 14> H 2.7269122869 0.2902326004 0.0326593901
| 15> C 1.1797762682 -1.184064044 -0.0990361424
| 16> H 1.7290811288 -2.0158246854 0.3720748662
| 17> O -0.1600126 -1.4111412014 0.2534878077
| 18> O 1.3685737271 -1.1977282186 -1.4794519283
| 19> O 1.7199616621 0.160797828 1.8482685097
| 20> O 1.5983937512 2.0348655797 -1.0157056501
| 21> O -1.4542204456 1.9125625623 -0.5145767635
| 22> O -2.9120382887 -1.6741502385 0.8881443404
| 23> H -2.4202235835 -1.0974957245 -1.0311592061
| 24> H -3.0889489998 0.1498080283 0.0595500461
| 25> H 1.131662907 -2.0673082492 -1.8385944028
| 26> H 2.363056824 -0.4775050136 2.189784179
| 27> H 1.2513610723 2.9332111992 -1.107942546
| 28> H -1.3745415078 2.4564518321 -1.3102957266
| 29> H -2.2662186078 -2.3939174525 0.9406196508
| 30> *
| 31>
| 32>                          ****END OF INPUT****

CARTESIAN COORDINATES (ANGSTROEM)
---------------------------------
  C     -2.419458   -0.708772   -0.004103
  C     -0.999244   -0.260976    0.356598
  H     -0.987720    0.093296    1.397806
  C     -0.507937    0.869743   -0.551797
  H     -0.384135    0.479581   -1.569728
  C      0.867470    1.340400   -0.034013
  H      0.690443    1.970826    0.848748
  C      1.718191    0.149538    0.444068
  H      2.726912    0.290233    0.032659
  C      1.179776   -1.184064   -0.099036
  H      1.729081   -2.015825    0.372075
  O     -0.160013   -1.411141    0.253488
  O      1.368574   -1.197728   -1.479452
  O      1.719962    0.160798    1.848269
  O      1.598394    2.034866   -1.015706
  O     -1.454220    1.912563   -0.514577
  O     -2.912038   -1.674150    0.888144
  H     -2.420224   -1.097496   -1.031159
  H     -3.088949    0.149808    0.059550
  H      1.131663   -2.067308   -1.838594
  H      2.363057   -0.477505    2.189784
  H      1.251361    2.933211   -1.107943
  H     -1.374542    2.456452   -1.310296
  H     -2.266219   -2.393917    0.940620

 Total Charge           Charge          ....    0
 Multiplicity           Mult            ....    1
 Number of Electrons    NEL             ....   96
 Basis Dimension        Dim             ....  192

ORBITAL ENERGIES
----------------

  NO   OCC          E(Eh)            E(eV)
   0   2.0000     -18.768454      -510.7156
   1   2.0000     -18.764138      -510.5982
   2   2.0000     -18.759791      -510.4799
   3   2.0000     -18.758261      -510.4382
   4   2.0000     -18.752507      -510.2817
   5   2.0000     -18.731218      -509.7024
   6   2.0000      -9.987774      -271.7812
   7   2.0000      -9.943979      -270.5894
   8   2.0000      -9.937975      -270.4261
   9   2.0000      -9.935952      -270.3710
  10   2.0000      -9.933648      -270.3083
  11   2.0000      -9.917458      -269.8677
  12   2.0000      -0.980986       -26.6940
  13   2.0000      -0.942557       -25.6483
  14   2.0000      -0.934701       -25.4345
  15   2.0000      -0.923369       -25.1262
  16   2.0000      -0.917341       -24.9621
  17   2.0000      -0.902297       -24.5528
  18   2.0000      -0.704979       -19.1834
  19   2.0000      -0.687433       -18.7060
  20   2.0000      -0.610121       -16.6022
  21   2.0000      -0.589336       -16.0367
  22   2.0000      -0.554023       -15.0757
  23   2.0000      -0.524388       -14.2693
  24   2.0000      -0.496279       -13.5044
  25   2.0000      -0.488536       -13.2937
  26   2.0000      -0.471196       -12.8219
  27   2.0000      -0.457021       -12.4362
  28   2.0000      -0.452879       -12.3235
  29   2.0000      -0.430947       -11.7267
  30   2.0000      -0.412623       -11.2280
  31   2.0000      -0.386823       -10.5260
  32   2.0000      -0.372302       -10.1308
  33   2.0000      -0.368303       -10.0220
  34   2.0000      -0.362740        -9.8707
  35   2.0000      -0.349546        -9.5116
  36   2.0000      -0.331758        -9.0276
  37   2.0000      -0.305370        -8.3095
  38   2.0000      -0.303091        -8.2475
  39   2.0000      -0.287403        -7.8206
  40   2.0000      -0.275889        -7.5073
  41   2.0000      -0.267951        -7.2913
  42   2.0000      -0.248916        -6.7734
  43   2.0000      -0.245337        -6.6760
  44   2.0000      -0.227597        -6.1932
  45   2.0000      -0.221320        -6.0224
  46   2.0000      -0.209424        -5.6987
  47   2.0000      -0.198174        -5.3926
  48   0.0000       0.001581         0.0430
  49   0.0000       0.019824         0.5394
  50   0.0000       0.022691         0.6175
  51   0.0000       0.043167         1.1746
  52   0.0000       0.056935         1.5493

MULLIKEN ATOMIC CHARGES
-----------------------
   0 C :    0.098921
   1 C :    0.000429
   2 H :    0.071662
   3 C :    0.042724
   4 H :    0.059468
   5 C :    0.071486
   6 H :    0.071635
   7 C :    0.050269
   8 H :    0.079891
   9 C :    0.149771
  10 H :    0.043360
  11 O :   -0.328244
  12 O :   -0.378147
  13 O :   -0.415522
  14 O :   -0.408394
  15 O :   -0.408906
  16 O :   -0.436919
  17 H :    0.047863
  18 H :    0.093604
  19 H :    0.303010
  20 H :    0.302509
  21 H :    0.293560
  22 H :    0.299948
  23 H :    0.296023
Sum of atomic charges:    0.0000000

LOEWDIN ATOMIC CHARGES
----------------------
   0 C :   -0.126171
   1 C :   -0.065847
   2 H :    0.114119
   3 C :   -0.087821
   4 H :    0.109276
   5 C :   -0.067173
   6 H :    0.114820
   7 C :   -0.073905
   8 H :    0.116147
   9 C :   -0.013682
  10 H :    0.088269
  11 O :   -0.154913
  12 O :   -0.307013
  13 O :   -0.309588
  14 O :   -0.316626
  15 O :   -0.315796
  16 O :   -0.338513
  17 H :    0.091844
  18 H :    0.119781
  19 H :    0.286341
  20 H :    0.287819
  21 H :    0.282617
  22 H :    0.286926
  23 H :    0.279087

  Mayer bond orders larger than 0.100000
B(  0-C ,  1-C ) :   1.0572 B(  0-C , 16-O ) :   1.0783 B(  0-C , 17-H ) :   0.9043
B(  0-C , 18-H ) :   0.9108 B(  1-C ,  2-H ) :   0.8715 B(  1-C ,  3-C ) :   1.0370
B(  1-C , 11-O ) :   0.9592 B(  3-C ,  4-H ) :   0.8274 B(  3-C ,  5-C ) :   1.0703
B(  3-C , 15-O ) :   1.0635 B(  5-C ,  6-H ) :   0.8746 B(  5-C ,  7-C ) :   0.9819
B(  5-C , 14-O ) :   1.0870 B(  7-C ,  8-H ) :   0.8697 B(  7-C ,  9-C ) :   1.0443
B(  7-C , 13-O ) :   1.0372 B(  9-C , 10-H ) :   0.8945 B(  9-C , 11-O ) :   1.0676
B(  9-C , 12-O ) :   1.1467 B( 12-O , 19-H ) :   0.8400 B( 13-O , 20-H ) :   0.8462
B( 14-O , 21-H ) :   0.8492 B( 15-O , 22-H ) :   0.8478 B( 16-O , 23-H ) :   0.8464

Dispersion correction           -0.024370150
FINAL SINGLE POINT ENERGY      -685.687369195720

DIPOLE MOMENT
-------------

Method             : SCF
Type of density    : Electron Density
Multiplicity       :   1
Irrep              :   0
Energy             :  -685.8166288600529015 Eh
Relativity type    :
Basis              : AO
                                X                 Y                 Z
Electronic contribution:      1.497730187      -0.371995943       0.328709224
Nuclear contribution   :     -0.587982663       0.298896016      -0.953922980
                        -----------------------------------------
Total Dipole Moment    :      0.909747524      -0.073099926      -0.625213756
                        -----------------------------------------
Magnitude (a.u.)       :      1.106289473
Magnitude (Debye)      :      2.811964370

Rotational constants in cm-1:             0.040188             0.025685             0.020844
Rotational constants in MHz :          1204.815117           770.016938           624.885677

                             ****ORCA TERMINATED NORMALLY****
TOTAL RUN TIME: 0 days 0 hours 0 minutes 11 seconds 940 msec
