                         Program Version 6.0.0  -   RELEASE  -
|  1> ! pbe def2-sv(p) def2/J RI DEFGRID1 loosescf d4 GCP(DFT/SV(P)) printgap
|  2> %output
|  3>     printlevel normal
|  4> end
|  5> * xyz 0 1
|  6> C -0.8625376652 5.18019e-05 -3.16533e-05
|  7> F -1.3186498482 -0.5058610427 1.1304019015
|  8> F -1.3196942064 1.2316449465 -0.1271053276
|  9> F -1.3191683392 -0.7261911683 -1.0030071637
| 10> Br 1.0706176616 8.90473e-05 -6.40541e-05
| 11> *
| 12>
| 13>                          ****END OF INPUT****

CARTESIAN COORDINATES (ANGSTROEM)
---------------------------------
  C     -0.862538    0.000052   -0.000032
  F     -1.318650   -0.505861    1.130402
  F     -1.319694    1.231645   -0.127105
  F     -1.319168   -0.726191   -1.003007
  Br     1.070618    0.000089   -0.000064

 Total Charge           Charge          ....    0
 Multiplicity           Mult            ....    1
 Number of Electrons    NEL             ....   68
 Basis Dimension        Dim             ....   88

ORBITAL ENERGIES
----------------

  NO   OCC          E(Eh)            E(eV)
   0   2.0000    -480.958608    -13087.5491
   1   2.0000     -61.802149     -1681.7220
   2   2.0000     -55.732802     -1516.5666
   3   2.0000     -55.729536     -1516.4778
   4   2.0000     -55.729535     -1516.4778
   5   2.0000     -24.320552      -661.7959
   6   2.0000     -24.320455      -661.7932
   7   2.0000     -24.320444      -661.7929
   8   2.0000     -10.180459      -277.0244
   9   2.0000      -8.427969      -229.3367
  10   2.0000      -6.310490      -171.7172
  11   2.0000      -6.295272      -171.3031
  12   2.0000      -6.295271      -171.3030
  13   2.0000      -2.511600       -68.3441
  14   2.0000      -2.507836       -68.2417
  15   2.0000      -2.507835       -68.2417
  16   2.0000      -2.496337       -67.9288
  17   2.0000      -2.496315       -67.9282
  18   2.0000      -1.233390       -33.5623
  19   2.0000      -1.137836       -30.9621
  20   2.0000      -1.137826       -30.9618
  21   2.0000      -0.760560       -20.6959
  22   2.0000      -0.633855       -17.2481
  23   2.0000      -0.561151       -15.2697
  24   2.0000      -0.561142       -15.2694
  25   2.0000      -0.525234       -14.2923
  26   2.0000      -0.429274       -11.6811
  27   2.0000      -0.429266       -11.6809
  28   2.0000      -0.395549       -10.7634
  29   2.0000      -0.395530       -10.7629
  30   2.0000      -0.367769       -10.0075
  31   2.0000      -0.351769        -9.5721
  32   2.0000      -0.276836        -7.5331
  33   2.0000      -0.276825        -7.5328
  34   0.0000      -0.055376        -1.5069
  35   0.0000       0.100611         2.7378
  36   0.0000       0.100623         2.7381
  37   0.0000       0.152747         4.1564
  38   0.0000       0.253964         6.9107

MULLIKEN ATOMIC CHARGES
-----------------------
   0 C :    0.356513
   1 F :   -0.096767
   2 F :   -0.096725
   3 F :   -0.096736
   4 Br:   -0.066285
Sum of atomic charges:   -0.0000000

LOEWDIN ATOMIC CHARGES
----------------------
   0 C :   -0.015428
   1 F :   -0.016440
   2 F :   -0.016407
   3 F :   -0.016416
   4 Br:    0.064692

  Mayer bond orders larger than 0.100000
B(  0-C ,  1-F ) :   1.1756 B(  0-C ,  2-F ) :   1.1757 B(  0-C ,  3-F ) :   1.1757
B(  0-C ,  4-Br) :   1.0265

Dispersion correction           -0.003632972
FINAL SINGLE POINT ENERGY     -2910.478088633129

DIPOLE MOMENT
-------------

Method             : SCF
Type of density    : Electron Density
Multiplicity       :   1
Irrep              :   0
Energy             : -2910.5128685068566483 Eh
Relativity type    :
Basis              : AO
                                X                 Y                 Z
Electronic contribution:      6.335363718       0.000583406      -0.000443660
Nuclear contribution   :     -6.274115984      -0.000449472       0.000326603
                        -----------------------------------------
Total Dipole Moment    :      0.061247734       0.000133934      -0.000117058
                        -----------------------------------------
Magnitude (a.u.)       :      0.061247992
Magnitude (Debye)      :      0.155680025

Rotational constants in cm-1:             0.192892             0.069260             0.069259
Rotational constants in MHz :          5782.748910          2076.369071          2076.334922

                             ****ORCA TERMINATED NORMALLY****
TOTAL RUN TIME: 0 days 0 hours 0 minutes 4 seconds 550 msec
