                         Program Version 6.0.0  -   RELEASE  -
|  1> ! r2scan-3c def2/J RI DEFGRID2 scfconv6 printgap
|  2> %output
|  3>     printlevel normal
|  4> end
|  5> * xyz 0 1
|  6> C -2.4000852764 -1.1430886241 -0.2999439016
|  7> C -1.0585670488 -0.6236106485 0.2440878458
|  8> H -1.0709652378 -0.6192424496 1.3465854353
|  9> C -0.7717201347 0.8073724715 -0.2399217302
| 10> H -0.818471348 0.8227452845 -1.341133264
| 11> C 0.6400171001 1.2528198526 0.1778664458
| 12> H 0.6631021475 1.3823803544 1.2708036385
| 13> C 1.6813756444 0.1979206057 -0.2020214155
| 14> H 1.7923663797 0.2076159838 -1.2969541739
| 15> C 1.2238287507 -1.2047065127 0.2579286869
| 16> H 1.2440663948 -1.2254460914 1.3615263643
| 17> O -0.062887548 -1.513222058 -0.2184498839
| 18> O 2.0938686824 -2.1886341424 -0.1725288812
| 19> O 2.8959330732 0.5257278272 0.4216086129
| 20> O 0.9827149013 2.4566948608 -0.4600107694
| 21> O -1.6729274838 1.7375827266 0.3059278408
| 22> O -3.4949207296 -0.3960371452 0.1672538749
| 23> H -2.4889603061 -2.2037617461 -0.0476616981
| 24> H -2.3980952285 -1.0478568412 -1.3882182693
| 25> H 1.8838117855 -2.4204869329 -1.0913408766
| 26> H 3.5416272436 -0.1745470657 0.2378146597
| 27> H 0.3173418129 3.1220428581 -0.2274068312
| 28> H -2.579906817 1.4235711 0.1382208054
| 29> H -3.696097424 -0.6422097597 1.0813642139
| 30> *
| 31>
| 32>                          ****END OF INPUT****

CARTESIAN COORDINATES (ANGSTROEM)
---------------------------------
  C     -2.400085   -1.143089   -0.299944
  C     -1.058567   -0.623611    0.244088
  H     -1.070965   -0.619242    1.346585
  C     -0.771720    0.807372   -0.239922
  H     -0.818471    0.822745   -1.341133
  C      0.640017    1.252820    0.177866
  H      0.663102    1.382380    1.270804
  C      1.681376    0.197921   -0.202021
  H      1.792366    0.207616   -1.296954
  C      1.223829   -1.204707    0.257929
  H      1.244066   -1.225446    1.361526
  O     -0.062888   -1.513222   -0.218450
  O      2.093869   -2.188634   -0.172529
  O      2.895933    0.525728    0.421609
  O      0.982715    2.456695   -0.460011
  O     -1.672927    1.737583    0.305928
  O     -3.494921   -0.396037    0.167254
  H     -2.488960   -2.203762   -0.047662
  H     -2.398095   -1.047857   -1.388218
  H      1.883812   -2.420487   -1.091341
  H      3.541627   -0.174547    0.237815
  H      0.317342    3.122043   -0.227407
  H     -2.579907    1.423571    0.138221
  H     -3.696097   -0.642210    1.081364

 Total Charge           Charge          ....    0
 Multiplicity           Mult            ....    1
 Number of Electrons    NEL             ....   96
 Basis Dimension        Dim             ....  318

ORBITAL ENERGIES
----------------

  NO   OCC          E(Eh)            E(eV)
   0   2.0000     -18.986201      -516.6408
   1   2.0000     -18.980784      -516.4934
   2   2.0000     -18.975404      -516.3470
   3   2.0000     -18.955805      -515.8137
   4   2.0000     -18.952490      -515.7235
   5   2.0000     -18.946995      -515.5739
   6   2.0000     -10.143012      -276.0054
   7   2.0000     -10.101717      -274.8817
   8   2.0000     -10.100482      -274.8481
   9   2.0000     -10.089796      -274.5573
  10   2.0000     -10.087126      -274.4846
  11   2.0000     -10.086696      -274.4729
  12   2.0000      -1.060563       -28.8594
  13   2.0000      -1.025258       -27.8987
  14   2.0000      -1.004946       -27.3460
  15   2.0000      -0.998746       -27.1773
  16   2.0000      -0.987475       -26.8706
  17   2.0000      -0.976746       -26.5786
  18   2.0000      -0.752168       -20.4675
  19   2.0000      -0.740587       -20.1524
  20   2.0000      -0.663538       -18.0558
  21   2.0000      -0.623070       -16.9546
  22   2.0000      -0.600785       -16.3482
  23   2.0000      -0.561364       -15.2755
  24   2.0000      -0.525542       -14.3007
  25   2.0000      -0.514849       -14.0098
  26   2.0000      -0.500117       -13.6089
  27   2.0000      -0.499114       -13.5816
  28   2.0000      -0.477532       -12.9943
  29   2.0000      -0.463677       -12.6173
  30   2.0000      -0.439097       -11.9484
  31   2.0000      -0.422686       -11.5019
  32   2.0000      -0.410909       -11.1814
  33   2.0000      -0.397793       -10.8245
  34   2.0000      -0.382051       -10.3961
  35   2.0000      -0.373849       -10.1730
  36   2.0000      -0.362673        -9.8688
  37   2.0000      -0.347583        -9.4582
  38   2.0000      -0.333352        -9.0710
  39   2.0000      -0.321268        -8.7422
  40   2.0000      -0.316086        -8.6011
  41   2.0000      -0.304456        -8.2847
  42   2.0000      -0.276851        -7.5335
  43   2.0000      -0.270646        -7.3646
  44   2.0000      -0.263355        -7.1663
  45   2.0000      -0.242556        -6.6003
  46   2.0000      -0.240837        -6.5535
  47   2.0000      -0.221156        -6.0180
  48   0.0000       0.019768         0.5379
  49   0.0000       0.047088         1.2813
  50   0.0000       0.057570         1.5666
  51   0.0000       0.081535         2.2187
  52   0.0000       0.084153         2.2899

MULLIKEN ATOMIC CHARGES
-----------------------
   0 C :   -0.241983
   1 C :   -0.087532
   2 H :    0.170386
   3 C :    0.040448
   4 H :    0.170307
   5 C :   -0.066756
   6 H :    0.169540
   7 C :    0.057404
   8 H :    0.164979
   9 C :   -0.132447
  10 H :    0.155721
  11 O :   -0.189030
  12 O :   -0.382964
  13 O :   -0.417509
  14 O :   -0.420585
  15 O :   -0.443479
  16 O :   -0.428960
  17 H :    0.153466
  18 H :    0.152626
  19 H :    0.322129
  20 H :    0.307173
  21 H :    0.311681
  22 H :    0.319230
  23 H :    0.316156
Sum of atomic charges:    0.0000000

LOEWDIN ATOMIC CHARGES
----------------------
   0 C :    0.050448
   1 C :    0.110829
   2 H :    0.181230
   3 C :    0.104850
   4 H :    0.182190
   5 C :    0.119381
   6 H :    0.188911
   7 C :    0.117997
   8 H :    0.184453
   9 C :    0.293783
  10 H :    0.196447
  11 O :   -0.686750
  12 O :   -0.494118
  13 O :   -0.560102
  14 O :   -0.557879
  15 O :   -0.591834
  16 O :   -0.606549
  17 H :    0.173736
  18 H :    0.187447
  19 H :    0.283838
  20 H :    0.280499
  21 H :    0.281401
  22 H :    0.286451
  23 H :    0.273344

  Mayer bond orders larger than 0.100000
B(  0-C ,  1-C ) :   0.8919 B(  0-C , 16-O ) :   0.9958 B(  0-C , 17-H ) :   0.9838
B(  0-C , 18-H ) :   0.9796 B(  1-C ,  2-H ) :   0.9588 B(  1-C ,  3-C ) :   0.7564
B(  1-C , 11-O ) :   0.7864 B(  3-C ,  4-H ) :   0.9782 B(  3-C ,  5-C ) :   0.8332
B(  3-C , 15-O ) :   0.8861 B(  5-C ,  6-H ) :   1.0046 B(  5-C ,  7-C ) :   0.9365
B(  5-C , 14-O ) :   0.9343 B(  7-C ,  8-H ) :   0.9638 B(  7-C ,  9-C ) :   0.7678
B(  7-C , 13-O ) :   0.9133 B(  9-C , 10-H ) :   1.0099 B(  9-C , 11-O ) :   0.9409
B(  9-C , 12-O ) :   1.1099 B( 12-O , 19-H ) :   0.8713 B( 13-O , 20-H ) :   0.8793
B( 14-O , 21-H ) :   0.8778 B( 15-O , 22-H ) :   0.8462 B( 16-O , 23-H ) :   0.8875

Dispersion correction           -0.007987387
FINAL SINGLE POINT ENERGY      -687.074415284330

DIPOLE MOMENT
-------------

Method             : SCF
Type of density    : Electron Density
Multiplicity       :   1
Irrep              :   0
Energy             :  -687.0862850804942354 Eh
Relativity type    :
Basis              : AO
                                X                 Y                 Z
Electronic contribution:      2.405679453       0.346986407      -0.009386125
Nuclear contribution   :     -3.375974450      -1.280950869       0.041553107
                        -----------------------------------------
Total Dipole Moment    :     -0.970294997      -0.933964462       0.032166982
                        -----------------------------------------
Magnitude (a.u.)       :      1.347143909
Magnitude (Debye)      :      3.424167694

Rotational constants in cm-1:             0.043717             0.024451             0.016503
Rotational constants in MHz :          1310.599920           733.031722           494.758992

                             ****ORCA TERMINATED NORMALLY****
TOTAL RUN TIME: 0 days 0 hours 0 minutes 47 seconds 527 msec
