                         Program Version 6.0.0  -   RELEASE  -
|  1> ! r2scan-3c def2/J RI DEFGRID2 scfconv6 printgap
|  2> %output
|  3>     printlevel normal
|  4> end
|  5> %cpcm
|  6>     smd true
|  7>     smdsolvent "water"
|  8> end
|  9> * xyz 0 1
| 10> C -2.4000852764 -1.1430886241 -0.2999439016
| 11> C -1.0585670488 -0.6236106485 0.2440878458
| 12> H -1.0709652378 -0.6192424496 1.3465854353
| 13> C -0.7717201347 0.8073724715 -0.2399217302
| 14> H -0.818471348 0.8227452845 -1.341133264
| 15> C 0.6400171001 1.2528198526 0.1778664458
| 16> H 0.6631021475 1.3823803544 1.2708036385
| 17> C 1.6813756444 0.1979206057 -0.2020214155
| 18> H 1.7923663797 0.2076159838 -1.2969541739
| 19> C 1.2238287507 -1.2047065127 0.2579286869
| 20> H 1.2440663948 -1.2254460914 1.3615263643
| 21> O -0.062887548 -1.513222058 -0.2184498839
| 22> O 2.0938686824 -2.1886341424 -0.1725288812
| 23> O 2.8959330732 0.5257278272 0.4216086129
| 24> O 0.9827149013 2.4566948608 -0.4600107694
| 25> O -1.6729274838 1.7375827266 0.3059278408
| 26> O -3.4949207296 -0.3960371452 0.1672538749
| 27> H -2.4889603061 -2.2037617461 -0.0476616981
| 28> H -2.3980952285 -1.0478568412 -1.3882182693
| 29> H 1.8838117855 -2.4204869329 -1.0913408766
| 30> H 3.5416272436 -0.1745470657 0.2378146597
| 31> H 0.3173418129 3.1220428581 -0.2274068312
| 32> H -2.579906817 1.4235711 0.1382208054
| 33> H -3.696097424 -0.6422097597 1.0813642139
| 34> *
| 35>
| 36>                          ****END OF INPUT****

CARTESIAN COORDINATES (ANGSTROEM)
---------------------------------
  C     -2.400085   -1.143089   -0.299944
  C     -1.058567   -0.623611    0.244088
  H     -1.070965   -0.619242    1.346585
  C     -0.771720    0.807372   -0.239922
  H     -0.818471    0.822745   -1.341133
  C      0.640017    1.252820    0.177866
  H      0.663102    1.382380    1.270804
  C      1.681376    0.197921   -0.202021
  H      1.792366    0.207616   -1.296954
  C      1.223829   -1.204707    0.257929
  H      1.244066   -1.225446    1.361526
  O     -0.062888   -1.513222   -0.218450
  O      2.093869   -2.188634   -0.172529
  O      2.895933    0.525728    0.421609
  O      0.982715    2.456695   -0.460011
  O     -1.672927    1.737583    0.305928
  O     -3.494921   -0.396037    0.167254
  H     -2.488960   -2.203762   -0.047662
  H     -2.398095   -1.047857   -1.388218
  H      1.883812   -2.420487   -1.091341
  H      3.541627   -0.174547    0.237815
  H      0.317342    3.122043   -0.227407
  H     -2.579907    1.423571    0.138221
  H     -3.696097   -0.642210    1.081364

 Total Charge           Charge          ....    0
 Multiplicity           Mult            ....    1
 Number of Electrons    NEL             ....   96
 Basis Dimension        Dim             ....  318

ORBITAL ENERGIES
----------------

  NO   OCC          E(Eh)            E(eV)
   0   2.0000     -18.976565      -516.3786
   1   2.0000     -18.969980      -516.1994
   2   2.0000     -18.965510      -516.0778
   3   2.0000     -18.961219      -515.9610
   4   2.0000     -18.958728      -515.8932
   5   2.0000     -18.956245      -515.8256
   6   2.0000     -10.137285      -275.8495
   7   2.0000     -10.088006      -274.5086
   8   2.0000     -10.087115      -274.4843
   9   2.0000     -10.086145      -274.4580
  10   2.0000     -10.084198      -274.4050
  11   2.0000     -10.080028      -274.2915
  12   2.0000      -1.055400       -28.7189
  13   2.0000      -1.012461       -27.5505
  14   2.0000      -1.006593       -27.3908
  15   2.0000      -0.996094       -27.1051
  16   2.0000      -0.985046       -26.8045
  17   2.0000      -0.983112       -26.7518
  18   2.0000      -0.746440       -20.3117
  19   2.0000      -0.733659       -19.9639
  20   2.0000      -0.652481       -17.7549
  21   2.0000      -0.620018       -16.8715
  22   2.0000      -0.590327       -16.0636
  23   2.0000      -0.556850       -15.1527
  24   2.0000      -0.515701       -14.0329
  25   2.0000      -0.511643       -13.9225
  26   2.0000      -0.500072       -13.6076
  27   2.0000      -0.489935       -13.3318
  28   2.0000      -0.466353       -12.6901
  29   2.0000      -0.458630       -12.4800
  30   2.0000      -0.436037       -11.8652
  31   2.0000      -0.413230       -11.2446
  32   2.0000      -0.401702       -10.9309
  33   2.0000      -0.396857       -10.7990
  34   2.0000      -0.382861       -10.4182
  35   2.0000      -0.369660       -10.0590
  36   2.0000      -0.364982        -9.9317
  37   2.0000      -0.344298        -9.3688
  38   2.0000      -0.336899        -9.1675
  39   2.0000      -0.316190        -8.6040
  40   2.0000      -0.310017        -8.4360
  41   2.0000      -0.305234        -8.3059
  42   2.0000      -0.275781        -7.5044
  43   2.0000      -0.271290        -7.3822
  44   2.0000      -0.259034        -7.0487
  45   2.0000      -0.245180        -6.6717
  46   2.0000      -0.243277        -6.6199
  47   2.0000      -0.221863        -6.0372
  48   0.0000       0.036446         0.9917
  49   0.0000       0.063450         1.7266
  50   0.0000       0.079930         2.1750
  51   0.0000       0.088717         2.4141
  52   0.0000       0.098487         2.6800

MULLIKEN ATOMIC CHARGES
-----------------------
   0 C :   -0.244087
   1 C :   -0.093279
   2 H :    0.204790
   3 C :    0.017713
   4 H :    0.185886
   5 C :   -0.021250
   6 H :    0.177499
   7 C :    0.045595
   8 H :    0.184621
   9 C :   -0.110930
  10 H :    0.178130
  11 O :   -0.235473
  12 O :   -0.436988
  13 O :   -0.494744
  14 O :   -0.495727
  15 O :   -0.501983
  16 O :   -0.481725
  17 H :    0.163804
  18 H :    0.169406
  19 H :    0.371921
  20 H :    0.350102
  21 H :    0.352271
  22 H :    0.351400
  23 H :    0.363049
Sum of atomic charges:    0.0000000

LOEWDIN ATOMIC CHARGES
----------------------
   0 C :    0.051100
   1 C :    0.117512
   2 H :    0.194028
   3 C :    0.108236
   4 H :    0.189713
   5 C :    0.115454
   6 H :    0.195140
   7 C :    0.117965
   8 H :    0.194060
   9 C :    0.296112
  10 H :    0.205367
  11 O :   -0.699256
  12 O :   -0.511531
  13 O :   -0.594778
  14 O :   -0.595848
  15 O :   -0.613901
  16 O :   -0.618161
  17 H :    0.180179
  18 H :    0.191022
  19 H :    0.301001
  20 H :    0.295801
  21 H :    0.294823
  22 H :    0.294761
  23 H :    0.291202

  Mayer bond orders larger than 0.100000
B(  0-C ,  1-C ) :   0.9027 B(  0-C , 16-O ) :   0.9974 B(  0-C , 17-H ) :   0.9690
B(  0-C , 18-H ) :   0.9782 B(  1-C ,  2-H ) :   0.9529 B(  1-C ,  3-C ) :   0.7803
B(  1-C , 11-O ) :   0.7891 B(  3-C ,  4-H ) :   0.9719 B(  3-C ,  5-C ) :   0.8741
B(  3-C , 15-O ) :   0.8720 B(  5-C ,  6-H ) :   0.9711 B(  5-C ,  7-C ) :   0.9382
B(  5-C , 14-O ) :   0.9076 B(  7-C ,  8-H ) :   0.9527 B(  7-C ,  9-C ) :   0.7937
B(  7-C , 13-O ) :   0.8896 B(  9-C , 10-H ) :   1.0007 B(  9-C , 11-O ) :   0.9351
B(  9-C , 12-O ) :   1.1015 B( 12-O , 19-H ) :   0.8434 B( 13-O , 20-H ) :   0.8597
B( 14-O , 21-H ) :   0.8586 B( 15-O , 22-H ) :   0.8320 B( 16-O , 23-H ) :   0.8610

Dispersion correction           -0.007987387
FINAL SINGLE POINT ENERGY      -687.108982339347

DIPOLE MOMENT
-------------

Method             : SCF
Type of density    : Electron Density
Multiplicity       :   1
Irrep              :   0
Energy             :  -687.1208521355107450 Eh
Relativity type    :
Basis              : AO
                                X                 Y                 Z
Electronic contribution:      2.075761193      -0.022227659       0.024292798
Nuclear contribution   :     -3.375974450      -1.280950869       0.041553107
                        -----------------------------------------
Total Dipole Moment    :     -1.300213258      -1.303178527       0.065845906
                        -----------------------------------------
Magnitude (a.u.)       :      1.842054416
Magnitude (Debye)      :      4.682130231

Rotational constants in cm-1:             0.043717             0.024451             0.016503
Rotational constants in MHz :          1310.599920           733.031722           494.758992

                             ****ORCA TERMINATED NORMALLY****
TOTAL RUN TIME: 0 days 0 hours 0 minutes 56 seconds 796 msec
