                         Program Version 6.0.0  -   RELEASE  -
|  1> ! pbe def2-sv(p) def2/J RI DEFGRID1 loosescf d4 GCP(DFT/SV(P)) printgap
|  2> %output
|  3>     printlevel normal
|  4> end
|  5> * xyz 0 1
|  6> C -2.0726434513 -1.1771089813 -0.270012719
|  7> C -1.2704520197 -0.3482869997 0.7533686695
|  8> H -1.9043379189 -0.2326756315 1.638536581
|  9> C -0.9313300998 1.061758075 0.2080020108
| 10> H -1.2538038782 1.1365952585 -0.8364702873
| 11> C 0.584827652 1.2878515876 0.2462892275
| 12> H 0.9230631465 1.3499813826 1.2951068722
| 13> C 1.2730533508 0.0850246184 -0.4112484689
| 14> H 0.8532129328 -0.0477943902 -1.4166775569
| 15> C 0.9873521018 -1.1723374938 0.4306625809
| 16> H 1.8250919776 -1.3220607483 1.127747547
| 17> O -0.1293707934 -1.0336478833 1.2687021762
| 18> O 0.8656011131 -2.2643267404 -0.436175405
| 19> O 2.6501335292 0.3613242722 -0.474923135
| 20> O 0.887317032 2.4785823358 -0.4284730184
| 21> O -1.6471202004 2.0609312638 0.8829895144
| 22> O -1.4907935279 -1.2535158862 -1.5468271544
| 23> H -3.0374451818 -0.6852796474 -0.409133537
| 24> H -2.238157963 -2.1790859073 0.1441300316
| 25> H 0.8369868559 -3.092559225 0.0679190757
| 26> H 3.0883523287 -0.2694264483 -1.0631788013
| 27> H 1.8470804133 2.5071523851 -0.5701578336
| 28> H -1.2645983259 2.2070132313 1.7606461873
| 29> H -0.6731249811 -1.782083263 -1.4808948632
| 30> *
| 31>
| 32>                          ****END OF INPUT****

CARTESIAN COORDINATES (ANGSTROEM)
---------------------------------
  C     -2.072643   -1.177109   -0.270013
  C     -1.270452   -0.348287    0.753369
  H     -1.904338   -0.232676    1.638537
  C     -0.931330    1.061758    0.208002
  H     -1.253804    1.136595   -0.836470
  C      0.584828    1.287852    0.246289
  H      0.923063    1.349981    1.295107
  C      1.273053    0.085025   -0.411248
  H      0.853213   -0.047794   -1.416678
  C      0.987352   -1.172337    0.430663
  H      1.825092   -1.322061    1.127748
  O     -0.129371   -1.033648    1.268702
  O      0.865601   -2.264327   -0.436175
  O      2.650134    0.361324   -0.474923
  O      0.887317    2.478582   -0.428473
  O     -1.647120    2.060931    0.882990
  O     -1.490794   -1.253516   -1.546827
  H     -3.037445   -0.685280   -0.409134
  H     -2.238158   -2.179086    0.144130
  H      0.836987   -3.092559    0.067919
  H      3.088352   -0.269426   -1.063179
  H      1.847080    2.507152   -0.570158
  H     -1.264598    2.207013    1.760646
  H     -0.673125   -1.782083   -1.480895

 Total Charge           Charge          ....    0
 Multiplicity           Mult            ....    1
 Number of Electrons    NEL             ....   96
 Basis Dimension        Dim             ....  192

ORBITAL ENERGIES
----------------

  NO   OCC          E(Eh)            E(eV)
   0   2.0000     -18.793186      -511.3886
   1   2.0000     -18.773367      -510.8493
   2   2.0000     -18.772499      -510.8257
   3   2.0000     -18.742517      -510.0098
   4   2.0000     -18.742452      -510.0080
   5   2.0000     -18.739003      -509.9142
   6   2.0000      -9.997470      -272.0450
   7   2.0000      -9.950100      -270.7560
   8   2.0000      -9.942625      -270.5526
   9   2.0000      -9.939926      -270.4791
  10   2.0000      -9.935922      -270.3702
  11   2.0000      -9.928392      -270.1653
  12   2.0000      -0.994790       -27.0696
  13   2.0000      -0.951535       -25.8926
  14   2.0000      -0.935699       -25.4617
  15   2.0000      -0.923579       -25.1319
  16   2.0000      -0.913320       -24.8527
  17   2.0000      -0.910478       -24.7754
  18   2.0000      -0.703815       -19.1518
  19   2.0000      -0.696265       -18.9463
  20   2.0000      -0.621492       -16.9117
  21   2.0000      -0.588352       -16.0099
  22   2.0000      -0.570690       -15.5293
  23   2.0000      -0.531896       -14.4736
  24   2.0000      -0.509400       -13.8615
  25   2.0000      -0.490838       -13.3564
  26   2.0000      -0.464882       -12.6501
  27   2.0000      -0.464504       -12.6398
  28   2.0000      -0.451525       -12.2866
  29   2.0000      -0.427948       -11.6451
  30   2.0000      -0.416688       -11.3387
  31   2.0000      -0.407529       -11.0894
  32   2.0000      -0.391609       -10.6562
  33   2.0000      -0.377928       -10.2839
  34   2.0000      -0.360697        -9.8151
  35   2.0000      -0.347040        -9.4434
  36   2.0000      -0.335388        -9.1264
  37   2.0000      -0.311611        -8.4794
  38   2.0000      -0.302546        -8.2327
  39   2.0000      -0.296581        -8.0704
  40   2.0000      -0.287796        -7.8313
  41   2.0000      -0.272932        -7.4269
  42   2.0000      -0.261188        -7.1073
  43   2.0000      -0.248353        -6.7580
  44   2.0000      -0.236479        -6.4349
  45   2.0000      -0.226553        -6.1648
  46   2.0000      -0.215574        -5.8661
  47   2.0000      -0.195604        -5.3227
  48   0.0000       0.006628         0.1804
  49   0.0000       0.015054         0.4096
  50   0.0000       0.034450         0.9374
  51   0.0000       0.054566         1.4848
  52   0.0000       0.059295         1.6135

MULLIKEN ATOMIC CHARGES
-----------------------
   0 C :    0.014474
   1 C :    0.039684
   2 H :    0.063302
   3 C :    0.077075
   4 H :    0.090726
   5 C :    0.059750
   6 H :    0.042296
   7 C :   -0.026612
   8 H :    0.073170
   9 C :    0.190952
  10 H :    0.068109
  11 O :   -0.309106
  12 O :   -0.405483
  13 O :   -0.416963
  14 O :   -0.405791
  15 O :   -0.408403
  16 O :   -0.443253
  17 H :    0.098675
  18 H :    0.069686
  19 H :    0.313189
  20 H :    0.312578
  21 H :    0.302563
  22 H :    0.296734
  23 H :    0.302647
Sum of atomic charges:   -0.0000000

LOEWDIN ATOMIC CHARGES
----------------------
   0 C :   -0.134796
   1 C :   -0.079155
   2 H :    0.119948
   3 C :   -0.065748
   4 H :    0.127378
   5 C :   -0.071245
   6 H :    0.097108
   7 C :   -0.094430
   8 H :    0.113449
   9 C :   -0.014709
  10 H :    0.104601
  11 O :   -0.149227
  12 O :   -0.305062
  13 O :   -0.315959
  14 O :   -0.313442
  15 O :   -0.306796
  16 O :   -0.346212
  17 H :    0.121766
  18 H :    0.096325
  19 H :    0.292006
  20 H :    0.294792
  21 H :    0.282586
  22 H :    0.282488
  23 H :    0.264333

  Mayer bond orders larger than 0.100000
B(  0-C ,  1-C ) :   1.0248 B(  0-C , 16-O ) :   1.1017 B(  0-C , 17-H ) :   0.9195
B(  0-C , 18-H ) :   0.9140 B(  1-C ,  2-H ) :   0.8811 B(  1-C ,  3-C ) :   0.9451
B(  1-C , 11-O ) :   0.9987 B(  3-C ,  4-H ) :   0.8732 B(  3-C ,  5-C ) :   1.0248
B(  3-C , 15-O ) :   1.0517 B(  5-C ,  6-H ) :   0.8632 B(  5-C ,  7-C ) :   1.0119
B(  5-C , 14-O ) :   1.1148 B(  7-C ,  8-H ) :   0.8755 B(  7-C ,  9-C ) :   0.9880
B(  7-C , 13-O ) :   1.0651 B(  9-C , 10-H ) :   0.8864 B(  9-C , 11-O ) :   1.0876
B(  9-C , 12-O ) :   1.0633 B( 12-O , 19-H ) :   0.8334 B( 12-O , 23-H ) :   0.1106
B( 13-O , 20-H ) :   0.8444 B( 14-O , 21-H ) :   0.8325 B( 15-O , 22-H ) :   0.8495
B( 16-O , 23-H ) :   0.7891

Dispersion correction           -0.025260963
FINAL SINGLE POINT ENERGY      -685.698217515825

DIPOLE MOMENT
-------------

Method             : SCF
Type of density    : Electron Density
Multiplicity       :   1
Irrep              :   0
Energy             :  -685.8301659710249396 Eh
Relativity type    :
Basis              : AO
                                X                 Y                 Z
Electronic contribution:      2.079211394       0.954751847       0.378401684
Nuclear contribution   :     -0.919168308      -2.256023796       0.230763371
                        -----------------------------------------
Total Dipole Moment    :      1.160043086      -1.301271949       0.609165055
                        -----------------------------------------
Magnitude (a.u.)       :      1.846643093
Magnitude (Debye)      :      4.693793720

Rotational constants in cm-1:             0.035536             0.032848             0.021653
Rotational constants in MHz :          1065.341771           984.754369           649.144546

                             ****ORCA TERMINATED NORMALLY****
TOTAL RUN TIME: 0 days 0 hours 0 minutes 12 seconds 328 msec
