                         Program Version 6.0.0  -   RELEASE  -
|  1> ! pbe def2-sv(p) def2/J RI DEFGRID1 loosescf d4 GCP(DFT/SV(P)) printgap
|  2> %output
|  3>     printlevel normal
|  4> end
|  5> * xyz 0 1
|  6> C -3.476231123 0.3393338869 -9.143e-07
|  7> C -2.7417076115 1.5123053764 1.85896e-05
|  8> C -1.3573499104 1.4575496088 0.0001250694
|  9> C -0.7268318947 0.2313496258 4.57688e-05
| 10> C -1.4479138343 -0.9599731767 -0.000181307
| 11> C -2.837760558 -0.8875849399 -3.75862e-05
| 12> O -0.7665508252 -2.1221366534 0.0001123654
| 13> I 1.3939550643 0.103165227 -8.9323e-06
| 14> H -4.5540821392 0.3763162195 3.44578e-05
| 15> H -3.237124588 2.469574698 -0.0003541665
| 16> H -0.7733778279 2.3643320297 4.7983e-06
| 17> H -3.4152710286 -1.7997912103 -0.0002739886
| 18> H -1.3603072662 -2.8877276803 0.0002919068
| 19> *
| 20>
| 21>                          ****END OF INPUT****

CARTESIAN COORDINATES (ANGSTROEM)
---------------------------------
  C     -3.476231    0.339334   -0.000001
  C     -2.741708    1.512305    0.000019
  C     -1.357350    1.457550    0.000125
  C     -0.726832    0.231350    0.000046
  C     -1.447914   -0.959973   -0.000181
  C     -2.837761   -0.887585   -0.000038
  O     -0.766551   -2.122137    0.000112
  I      1.393955    0.103165   -0.000009
  H     -4.554082    0.376316    0.000034
  H     -3.237125    2.469575   -0.000354
  H     -0.773378    2.364332    0.000005
  H     -3.415271   -1.799791   -0.000274
  H     -1.360307   -2.887728    0.000292

 Total Charge           Charge          ....    0
 Multiplicity           Mult            ....    1
 Number of Electrons    NEL             ....   74
 Basis Dimension        Dim             ....  134

ORBITAL ENERGIES
----------------

  NO   OCC          E(Eh)            E(eV)
   0   2.0000     -18.799286      -511.5546
   1   2.0000      -9.970822      -271.3199
   2   2.0000      -9.938768      -270.4476
   3   2.0000      -9.906088      -269.5584
   4   2.0000      -9.905783      -269.5501
   5   2.0000      -9.902781      -269.4684
   6   2.0000      -9.896281      -269.2915
   7   2.0000      -6.598142      -179.5446
   8   2.0000      -4.670647      -127.0948
   9   2.0000      -4.653143      -126.6184
  10   2.0000      -4.652206      -126.5930
  11   2.0000      -1.806732       -49.1637
  12   2.0000      -1.802054       -49.0364
  13   2.0000      -1.801419       -49.0191
  14   2.0000      -1.787323       -48.6355
  15   2.0000      -1.787297       -48.6348
  16   2.0000      -0.982837       -26.7444
  17   2.0000      -0.787747       -21.4357
  18   2.0000      -0.697624       -18.9833
  19   2.0000      -0.678451       -18.4616
  20   2.0000      -0.622328       -16.9344
  21   2.0000      -0.582038       -15.8380
  22   2.0000      -0.539512       -14.6809
  23   2.0000      -0.508361       -13.8332
  24   2.0000      -0.446659       -12.1542
  25   2.0000      -0.432851       -11.7785
  26   2.0000      -0.401580       -10.9276
  27   2.0000      -0.383185       -10.4270
  28   2.0000      -0.370752       -10.0887
  29   2.0000      -0.340727        -9.2716
  30   2.0000      -0.331413        -9.0182
  31   2.0000      -0.311475        -8.4757
  32   2.0000      -0.298739        -8.1291
  33   2.0000      -0.261181        -7.1071
  34   2.0000      -0.219614        -5.9760
  35   2.0000      -0.218588        -5.9481
  36   2.0000      -0.198917        -5.4128
  37   0.0000      -0.053613        -1.4589
  38   0.0000      -0.046481        -1.2648
  39   0.0000      -0.030096        -0.8189
  40   0.0000       0.013186         0.3588
  41   0.0000       0.050338         1.3698

MULLIKEN ATOMIC CHARGES
-----------------------
   0 C :   -0.049572
   1 C :   -0.044588
   2 C :   -0.105802
   3 C :   -0.128399
   4 C :    0.209151
   5 C :   -0.154696
   6 O :   -0.309086
   7 I :    0.049598
   8 H :    0.057465
   9 H :    0.057300
  10 H :    0.063383
  11 H :    0.033014
  12 H :    0.322233
Sum of atomic charges:   -0.0000000

LOEWDIN ATOMIC CHARGES
----------------------
   0 C :   -0.115669
   1 C :   -0.140733
   2 C :   -0.124115
   3 C :   -0.192174
   4 C :    0.006277
   5 C :   -0.169267
   6 O :   -0.216518
   7 I :    0.137872
   8 H :    0.127119
   9 H :    0.127349
  10 H :    0.132604
  11 H :    0.123906
  12 H :    0.303348

  Mayer bond orders larger than 0.100000
B(  0-C ,  1-C ) :   1.3725 B(  0-C ,  5-C ) :   1.3677 B(  0-C ,  8-H ) :   0.9629
B(  1-C ,  2-C ) :   1.3690 B(  1-C ,  9-H ) :   0.9663 B(  2-C ,  3-C ) :   1.4317
B(  2-C , 10-H ) :   0.9608 B(  3-C ,  4-C ) :   1.3717 B(  3-C ,  7-I ) :   1.0163
B(  4-C ,  5-C ) :   1.3338 B(  4-C ,  6-O ) :   1.2447 B(  5-C , 11-H ) :   0.9586
B(  6-O , 12-H ) :   0.8347

Dispersion correction           -0.016178841
FINAL SINGLE POINT ENERGY      -603.901207150956

DIPOLE MOMENT
-------------

Method             : SCF
Type of density    : Electron Density
Multiplicity       :   1
Irrep              :   0
Energy             :  -603.9376800488548724 Eh
Relativity type    :
Basis              : AO
                                X                 Y                 Z
Electronic contribution:    112.723417996       6.544446404      -0.000460856
Nuclear contribution   :   -113.661520425      -7.025379797       0.000371060
                        -----------------------------------------
Total Dipole Moment    :     -0.938102429      -0.480933393      -0.000089795
                        -----------------------------------------
Magnitude (a.u.)       :      1.054197849
Magnitude (Debye)      :      2.679557983

Rotational constants in cm-1:             0.097702             0.024521             0.019601
Rotational constants in MHz :          2929.036403           735.115592           587.634011

                             ****ORCA TERMINATED NORMALLY****
TOTAL RUN TIME: 0 days 0 hours 0 minutes 14 seconds 338 msec
