                         Program Version 6.0.0  -   RELEASE  -
|  1> ! pbe def2-sv(p) def2/J RI DEFGRID1 loosescf d4 GCP(DFT/SV(P)) printgap
|  2> %output
|  3>     printlevel normal
|  4> end
|  5> * xyz 0 1
|  6> C -2.0016454882 -0.6000505899 -0.7375889978
|  7> C -1.1842151653 -0.1076690035 0.4711067675
|  8> H -1.8538370935 -0.0749077705 1.3392031359
|  9> C -0.6158662225 1.3106108666 0.2637049471
| 10> H -1.3517798372 1.8814219161 -0.3140390409
| 11> C 0.7233752911 1.2960635996 -0.5031087148
| 12> H 1.1786030308 2.2891311472 -0.3862650526
| 13> C 1.687071756 0.2753711539 0.1252718186
| 14> H 2.5754158193 0.1996030958 -0.5185558141
| 15> C 1.0191680831 -1.1107770394 0.1702480185
| 16> H 1.6178477619 -1.8023637582 0.7789564449
| 17> O -0.206952865 -1.0733426997 0.8612640803
| 18> O 0.936040795 -1.6852434081 -1.0942144827
| 19> O 2.0207014632 0.7403014359 1.4081695729
| 20> O 0.5645615827 0.9611172942 -1.8619156766
| 21> O -0.4839234065 2.0040488604 1.4785127342
| 22> O -2.5522179707 -1.8718934051 -0.4975541059
| 23> H -1.3818445487 -0.6202056586 -1.6413743807
| 24> H -2.8470600733 0.071959611 -0.8972086306
| 25> H 0.7468396403 -0.9962079693 -1.7563272766
| 26> H 2.6853549597 0.164515105 1.8122696873
| 27> H 0.2189672117 1.7189748151 -2.3537933534
| 28> H 0.268118661 1.6328813994 1.9705551107
| 29> H -1.8385210337 -2.4553279116 -0.1976329942
| 30> *
| 31>
| 32>                          ****END OF INPUT****

CARTESIAN COORDINATES (ANGSTROEM)
---------------------------------
  C     -2.001645   -0.600051   -0.737589
  C     -1.184215   -0.107669    0.471107
  H     -1.853837   -0.074908    1.339203
  C     -0.615866    1.310611    0.263705
  H     -1.351780    1.881422   -0.314039
  C      0.723375    1.296064   -0.503109
  H      1.178603    2.289131   -0.386265
  C      1.687072    0.275371    0.125272
  H      2.575416    0.199603   -0.518556
  C      1.019168   -1.110777    0.170248
  H      1.617848   -1.802364    0.778956
  O     -0.206953   -1.073343    0.861264
  O      0.936041   -1.685243   -1.094214
  O      2.020701    0.740301    1.408170
  O      0.564562    0.961117   -1.861916
  O     -0.483923    2.004049    1.478513
  O     -2.552218   -1.871893   -0.497554
  H     -1.381845   -0.620206   -1.641374
  H     -2.847060    0.071960   -0.897209
  H      0.746840   -0.996208   -1.756327
  H      2.685355    0.164515    1.812270
  H      0.218967    1.718975   -2.353793
  H      0.268119    1.632881    1.970555
  H     -1.838521   -2.455328   -0.197633

 Total Charge           Charge          ....    0
 Multiplicity           Mult            ....    1
 Number of Electrons    NEL             ....   96
 Basis Dimension        Dim             ....  192

ORBITAL ENERGIES
----------------

  NO   OCC          E(Eh)            E(eV)
   0   2.0000     -18.794434      -511.4226
   1   2.0000     -18.787159      -511.2246
   2   2.0000     -18.765789      -510.6431
   3   2.0000     -18.757106      -510.4068
   4   2.0000     -18.741030      -509.9694
   5   2.0000     -18.729059      -509.6436
   6   2.0000      -9.989675      -271.8329
   7   2.0000      -9.963904      -271.1316
   8   2.0000      -9.962260      -271.0869
   9   2.0000      -9.947204      -270.6772
  10   2.0000      -9.936979      -270.3989
  11   2.0000      -9.922942      -270.0170
  12   2.0000      -0.985884       -26.8273
  13   2.0000      -0.962647       -26.1950
  14   2.0000      -0.956120       -26.0173
  15   2.0000      -0.924695       -25.1622
  16   2.0000      -0.912877       -24.8407
  17   2.0000      -0.899937       -24.4885
  18   2.0000      -0.712201       -19.3800
  19   2.0000      -0.695130       -18.9155
  20   2.0000      -0.613859       -16.7040
  21   2.0000      -0.604167       -16.4402
  22   2.0000      -0.568936       -15.4815
  23   2.0000      -0.539407       -14.6780
  24   2.0000      -0.517667       -14.0864
  25   2.0000      -0.497620       -13.5409
  26   2.0000      -0.474222       -12.9042
  27   2.0000      -0.457836       -12.4583
  28   2.0000      -0.450688       -12.2638
  29   2.0000      -0.437316       -11.9000
  30   2.0000      -0.418007       -11.3745
  31   2.0000      -0.406915       -11.0727
  32   2.0000      -0.390580       -10.6282
  33   2.0000      -0.382138       -10.3985
  34   2.0000      -0.365957        -9.9582
  35   2.0000      -0.343106        -9.3364
  36   2.0000      -0.342759        -9.3269
  37   2.0000      -0.336646        -9.1606
  38   2.0000      -0.313662        -8.5352
  39   2.0000      -0.295422        -8.0388
  40   2.0000      -0.280017        -7.6197
  41   2.0000      -0.268959        -7.3188
  42   2.0000      -0.263156        -7.1608
  43   2.0000      -0.253354        -6.8941
  44   2.0000      -0.237320        -6.4578
  45   2.0000      -0.232356        -6.3227
  46   2.0000      -0.214947        -5.8490
  47   2.0000      -0.192919        -5.2496
  48   0.0000      -0.011786        -0.3207
  49   0.0000       0.006545         0.1781
  50   0.0000       0.051559         1.4030
  51   0.0000       0.059740         1.6256
  52   0.0000       0.066244         1.8026

MULLIKEN ATOMIC CHARGES
-----------------------
   0 C :    0.049224
   1 C :    0.017686
   2 H :    0.081155
   3 C :    0.085725
   4 H :    0.058045
   5 C :    0.004774
   6 H :    0.087082
   7 C :    0.002471
   8 H :    0.087083
   9 C :    0.209151
  10 H :    0.056811
  11 O :   -0.319217
  12 O :   -0.409101
  13 O :   -0.420317
  14 O :   -0.419913
  15 O :   -0.429468
  16 O :   -0.439896
  17 H :    0.054440
  18 H :    0.078168
  19 H :    0.320448
  20 H :    0.317274
  21 H :    0.323573
  22 H :    0.306150
  23 H :    0.298654
Sum of atomic charges:   -0.0000000

LOEWDIN ATOMIC CHARGES
----------------------
   0 C :   -0.142091
   1 C :   -0.075364
   2 H :    0.123643
   3 C :   -0.071916
   4 H :    0.112606
   5 C :   -0.072597
   6 H :    0.113145
   7 C :   -0.088351
   8 H :    0.111664
   9 C :   -0.010905
  10 H :    0.102046
  11 O :   -0.147859
  12 O :   -0.310670
  13 O :   -0.303668
  14 O :   -0.307074
  15 O :   -0.321045
  16 O :   -0.341144
  17 H :    0.088410
  18 H :    0.112952
  19 H :    0.275588
  20 H :    0.297381
  21 H :    0.301735
  22 H :    0.275481
  23 H :    0.278031

  Mayer bond orders larger than 0.100000
B(  0-C ,  1-C ) :   1.0458 B(  0-C , 16-O ) :   1.0761 B(  0-C , 17-H ) :   0.8950
B(  0-C , 18-H ) :   0.9127 B(  1-C ,  2-H ) :   0.8905 B(  1-C ,  3-C ) :   0.9764
B(  1-C , 11-O ) :   0.9948 B(  3-C ,  4-H ) :   0.8936 B(  3-C ,  5-C ) :   0.9642
B(  3-C , 15-O ) :   1.0614 B(  5-C ,  6-H ) :   0.9007 B(  5-C ,  7-C ) :   1.0087
B(  5-C , 14-O ) :   1.0332 B(  7-C ,  8-H ) :   0.8962 B(  7-C ,  9-C ) :   0.9788
B(  7-C , 13-O ) :   1.0271 B(  9-C , 10-H ) :   0.9087 B(  9-C , 11-O ) :   1.0481
B(  9-C , 12-O ) :   1.1375 B( 12-O , 19-H ) :   0.7969 B( 13-O , 20-H ) :   0.8385
B( 14-O , 21-H ) :   0.8357 B( 15-O , 22-H ) :   0.8164 B( 16-O , 23-H ) :   0.8364

Dispersion correction           -0.026033978
FINAL SINGLE POINT ENERGY      -685.698764937967

DIPOLE MOMENT
-------------

Method             : SCF
Type of density    : Electron Density
Multiplicity       :   1
Irrep              :   0
Energy             :  -685.8316831205432891 Eh
Relativity type    :
Basis              : AO
                                X                 Y                 Z
Electronic contribution:      1.326028527      -1.062484144       1.639607208
Nuclear contribution   :      0.021106633       1.871524899      -2.026039838
                        -----------------------------------------
Total Dipole Moment    :      1.347135160       0.809040755      -0.386432629
                        -----------------------------------------
Magnitude (a.u.)       :      1.618224415
Magnitude (Debye)      :      4.113199582

Rotational constants in cm-1:             0.041227             0.028409             0.024852
Rotational constants in MHz :          1235.953696           851.688418           745.053128

                             ****ORCA TERMINATED NORMALLY****
TOTAL RUN TIME: 0 days 0 hours 0 minutes 12 seconds 527 msec
