                         Program Version 6.0.0  -   RELEASE  -
|  1> ! r2scan-3c def2/J RI DEFGRID2 scfconv6 printgap
|  2> %output
|  3>     printlevel normal
|  4> end
|  5> %cpcm
|  6>     smd true
|  7>     smdsolvent "water"
|  8> end
|  9> * xyz 0 1
| 10> C -2.5054413403 0.0396579246 0.0205105853
| 11> C -1.0861166282 -0.5122996067 -0.039530683
| 12> C -0.0613206148 0.6057334678 0.0549100122
| 13> S 1.6347232672 -0.1047631077 -0.0199601511
| 14> H -2.6684929557 0.5704883328 0.9555141598
| 15> H -2.6813450972 0.7277973816 -0.8029522161
| 16> H -3.2252066659 -0.7714012276 -0.0467997725
| 17> H -0.937542775 -1.0561798309 -0.9755040622
| 18> H -0.9252004894 -1.2157416848 0.780971861
| 19> H -0.1631583617 1.300057135 -0.7783210453
| 20> H -0.1518523423 1.1392694344 1.0003746145
| 21> H 2.2768102932 1.0525160004 0.0740240004
| 22> *
| 23>
| 24>                          ****END OF INPUT****

CARTESIAN COORDINATES (ANGSTROEM)
---------------------------------
  C     -2.505441    0.039658    0.020511
  C     -1.086117   -0.512300   -0.039531
  C     -0.061321    0.605733    0.054910
  S      1.634723   -0.104763   -0.019960
  H     -2.668493    0.570488    0.955514
  H     -2.681345    0.727797   -0.802952
  H     -3.225207   -0.771401   -0.046800
  H     -0.937543   -1.056180   -0.975504
  H     -0.925200   -1.215742    0.780972
  H     -0.163158    1.300057   -0.778321
  H     -0.151852    1.139269    1.000375
  H      2.276810    1.052516    0.074024

 Total Charge           Charge          ....    0
 Multiplicity           Mult            ....    1
 Number of Electrons    NEL             ....   42
 Basis Dimension        Dim             ....  124

ORBITAL ENERGIES
----------------

  NO   OCC          E(Eh)            E(eV)
   0   2.0000     -88.547854     -2409.5096
   1   2.0000     -10.054123      -273.5866
   2   2.0000     -10.027312      -272.8570
   3   2.0000     -10.012628      -272.4575
   4   2.0000      -7.843105      -213.4217
   5   2.0000      -5.789924      -157.5519
   6   2.0000      -5.786546      -157.4599
   7   2.0000      -5.780566      -157.2972
   8   2.0000      -0.769947       -20.9513
   9   2.0000      -0.700205       -19.0535
  10   2.0000      -0.610113       -16.6020
  11   2.0000      -0.545309       -14.8386
  12   2.0000      -0.436150       -11.8682
  13   2.0000      -0.408137       -11.1060
  14   2.0000      -0.389608       -10.6018
  15   2.0000      -0.362292        -9.8585
  16   2.0000      -0.325858        -8.8670
  17   2.0000      -0.307157        -8.3582
  18   2.0000      -0.299760        -8.1569
  19   2.0000      -0.293580        -7.9887
  20   2.0000      -0.209194        -5.6925
  21   0.0000       0.012991         0.3535
  22   0.0000       0.062378         1.6974
  23   0.0000       0.112736         3.0677
  24   0.0000       0.133982         3.6458
  25   0.0000       0.147283         4.0078

MULLIKEN ATOMIC CHARGES
-----------------------
   0 C :   -0.497873
   1 C :   -0.246802
   2 C :   -0.210453
   3 S :   -0.346827
   4 H :    0.155664
   5 H :    0.155787
   6 H :    0.161226
   7 H :    0.153980
   8 H :    0.153823
   9 H :    0.174267
  10 H :    0.174122
  11 H :    0.173086
Sum of atomic charges:    0.0000000

LOEWDIN ATOMIC CHARGES
----------------------
   0 C :   -0.427409
   1 C :   -0.325904
   2 C :   -0.348885
   3 S :   -0.150717
   4 H :    0.155036
   5 H :    0.155066
   6 H :    0.156665
   7 H :    0.157771
   8 H :    0.157721
   9 H :    0.165933
  10 H :    0.165805
  11 H :    0.138917

  Mayer bond orders larger than 0.100000
B(  0-C ,  1-C ) :   0.9014 B(  0-C ,  4-H ) :   0.9767 B(  0-C ,  5-H ) :   0.9767
B(  0-C ,  6-H ) :   0.9675 B(  1-C ,  2-C ) :   0.9358 B(  1-C ,  7-H ) :   0.9627
B(  1-C ,  8-H ) :   0.9628 B(  2-C ,  3-S ) :   0.9700 B(  2-C ,  9-H ) :   0.9551
B(  2-C , 10-H ) :   0.9552 B(  3-S , 11-H ) :   0.9546

Dispersion correction           -0.002520465
FINAL SINGLE POINT ENERGY      -517.258102490220

DIPOLE MOMENT
-------------

Method             : SCF
Type of density    : Electron Density
Multiplicity       :   1
Irrep              :   0
Energy             :  -517.2644905768684112 Eh
Relativity type    :
Basis              : AO
                                X                 Y                 Z
Electronic contribution:      7.310680143      -1.008516149      -0.135988563
Nuclear contribution   :     -7.998384140       1.641781729       0.195057359
                        -----------------------------------------
Total Dipole Moment    :     -0.687703997       0.633265580       0.059068796
                        -----------------------------------------
Magnitude (a.u.)       :      0.936723654
Magnitude (Debye)      :      2.380962311

Rotational constants in cm-1:             0.805258             0.079514             0.075442
Rotational constants in MHz :         24141.022253          2383.755122          2261.699721

                             ****ORCA TERMINATED NORMALLY****
TOTAL RUN TIME: 0 days 0 hours 0 minutes 11 seconds 340 msec
