                         Program Version 6.0.0  -   RELEASE  -
|  1> ! pbe def2-sv(p) def2/J RI DEFGRID1 loosescf d4 GCP(DFT/SV(P)) printgap
|  2> %output
|  3>     printlevel normal
|  4> end
|  5> * xyz 0 1
|  6> C -2.2301197006 -0.9988440765 -0.3858215273
|  7> C -1.162658772 -0.2142896999 0.3871680215
|  8> H -1.6316201467 0.2294752565 1.274066656
|  9> C -0.5747922298 0.9165117321 -0.4595518136
| 10> H -0.3740469144 0.5499768182 -1.475156643
| 11> C 0.7618179026 1.3258625307 0.1864753196
| 12> H 0.6080500082 1.4647388245 1.2661226839
| 13> C 1.748422353 0.1739617966 -0.0248741458
| 14> H 2.1091838854 0.2229041665 -1.0628611667
| 15> C 1.0369068402 -1.1821647514 0.1538451866
| 16> H 1.6849065389 -1.8101520869 0.7797504254
| 17> O -0.1548735765 -1.0939556135 0.8923146854
| 18> O 0.8366471646 -1.7357888668 -1.1099891014
| 19> O 2.8223501527 0.2198811635 0.8768069512
| 20> O 1.3127842946 2.4844036654 -0.3916283006
| 21> O -1.5038449802 1.9720033913 -0.4805633396
| 22> O -2.9243627032 -1.9006735388 0.4396213762
| 23> H -1.7553776781 -1.5263468403 -1.2237310816
| 24> H -2.9716044403 -0.2976765733 -0.7731242585
| 25> H 0.6847058383 -2.6907289835 -1.0429396551
| 26> H 3.2912005956 1.0604278307 0.7603430656
| 27> H 0.7860508469 3.2521598758 -0.1255786983
| 28> H -1.3151442434 2.5507755323 -1.2333165687
| 29> H -2.2764039747 -2.3969988915 0.9612148587
| 30> *
| 31>
| 32>                          ****END OF INPUT****

CARTESIAN COORDINATES (ANGSTROEM)
---------------------------------
  C     -2.230120   -0.998844   -0.385822
  C     -1.162659   -0.214290    0.387168
  H     -1.631620    0.229475    1.274067
  C     -0.574792    0.916512   -0.459552
  H     -0.374047    0.549977   -1.475157
  C      0.761818    1.325863    0.186475
  H      0.608050    1.464739    1.266123
  C      1.748422    0.173962   -0.024874
  H      2.109184    0.222904   -1.062861
  C      1.036907   -1.182165    0.153845
  H      1.684907   -1.810152    0.779750
  O     -0.154874   -1.093956    0.892315
  O      0.836647   -1.735789   -1.109989
  O      2.822350    0.219881    0.876807
  O      1.312784    2.484404   -0.391628
  O     -1.503845    1.972003   -0.480563
  O     -2.924363   -1.900674    0.439621
  H     -1.755378   -1.526347   -1.223731
  H     -2.971604   -0.297677   -0.773124
  H      0.684706   -2.690729   -1.042940
  H      3.291201    1.060428    0.760343
  H      0.786051    3.252160   -0.125579
  H     -1.315144    2.550776   -1.233317
  H     -2.276404   -2.396999    0.961215

 Total Charge           Charge          ....    0
 Multiplicity           Mult            ....    1
 Number of Electrons    NEL             ....   96
 Basis Dimension        Dim             ....  192

ORBITAL ENERGIES
----------------

  NO   OCC          E(Eh)            E(eV)
   0   2.0000     -18.770819      -510.7799
   1   2.0000     -18.770172      -510.7623
   2   2.0000     -18.766253      -510.6557
   3   2.0000     -18.765030      -510.6224
   4   2.0000     -18.751648      -510.2583
   5   2.0000     -18.735099      -509.8080
   6   2.0000      -9.989323      -271.8233
   7   2.0000      -9.944537      -270.6046
   8   2.0000      -9.941691      -270.5272
   9   2.0000      -9.940606      -270.4976
  10   2.0000      -9.940415      -270.4925
  11   2.0000      -9.920437      -269.9488
  12   2.0000      -0.983892       -26.7731
  13   2.0000      -0.953091       -25.9349
  14   2.0000      -0.935751       -25.4631
  15   2.0000      -0.922454       -25.1013
  16   2.0000      -0.921007       -25.0619
  17   2.0000      -0.906708       -24.6728
  18   2.0000      -0.710381       -19.3305
  19   2.0000      -0.693052       -18.8589
  20   2.0000      -0.616709       -16.7815
  21   2.0000      -0.584727       -15.9112
  22   2.0000      -0.563890       -15.3442
  23   2.0000      -0.524723       -14.2785
  24   2.0000      -0.506636       -13.7863
  25   2.0000      -0.493286       -13.4230
  26   2.0000      -0.472634       -12.8610
  27   2.0000      -0.458990       -12.4898
  28   2.0000      -0.451463       -12.2849
  29   2.0000      -0.425175       -11.5696
  30   2.0000      -0.405730       -11.0405
  31   2.0000      -0.393840       -10.7169
  32   2.0000      -0.387504       -10.5445
  33   2.0000      -0.382725       -10.4145
  34   2.0000      -0.366363        -9.9692
  35   2.0000      -0.352023        -9.5790
  36   2.0000      -0.332429        -9.0458
  37   2.0000      -0.314093        -8.5469
  38   2.0000      -0.309329        -8.4173
  39   2.0000      -0.288242        -7.8435
  40   2.0000      -0.280449        -7.6314
  41   2.0000      -0.261698        -7.1212
  42   2.0000      -0.258748        -7.0409
  43   2.0000      -0.251939        -6.8556
  44   2.0000      -0.235708        -6.4139
  45   2.0000      -0.232075        -6.3151
  46   2.0000      -0.211692        -5.7604
  47   2.0000      -0.197829        -5.3832
  48   0.0000      -0.000193        -0.0053
  49   0.0000       0.015926         0.4334
  50   0.0000       0.037622         1.0237
  51   0.0000       0.046670         1.2700
  52   0.0000       0.056562         1.5391

MULLIKEN ATOMIC CHARGES
-----------------------
   0 C :    0.084264
   1 C :    0.039185
   2 H :    0.076974
   3 C :   -0.017224
   4 H :    0.070486
   5 C :    0.046772
   6 H :    0.057978
   7 C :    0.078520
   8 H :    0.074596
   9 C :    0.164450
  10 H :    0.077924
  11 O :   -0.327653
  12 O :   -0.394591
  13 O :   -0.416540
  14 O :   -0.420170
  15 O :   -0.408485
  16 O :   -0.437642
  17 H :    0.059857
  18 H :    0.084873
  19 H :    0.308457
  20 H :    0.306890
  21 H :    0.296801
  22 H :    0.301440
  23 H :    0.292839
Sum of atomic charges:   -0.0000000

LOEWDIN ATOMIC CHARGES
----------------------
   0 C :   -0.134423
   1 C :   -0.066813
   2 H :    0.120161
   3 C :   -0.083667
   4 H :    0.109184
   5 C :   -0.085268
   6 H :    0.108353
   7 C :   -0.072612
   8 H :    0.112519
   9 C :    0.001308
  10 H :    0.108419
  11 O :   -0.150478
  12 O :   -0.307307
  13 O :   -0.317286
  14 O :   -0.323172
  15 O :   -0.313005
  16 O :   -0.341129
  17 H :    0.093418
  18 H :    0.116629
  19 H :    0.289608
  20 H :    0.289568
  21 H :    0.282656
  22 H :    0.286413
  23 H :    0.276925

  Mayer bond orders larger than 0.100000
B(  0-C ,  1-C ) :   1.0797 B(  0-C , 16-O ) :   1.0720 B(  0-C , 17-H ) :   0.8980
B(  0-C , 18-H ) :   0.9121 B(  1-C ,  2-H ) :   0.8758 B(  1-C ,  3-C ) :   0.9736
B(  1-C , 11-O ) :   0.9532 B(  3-C ,  4-H ) :   0.8856 B(  3-C ,  5-C ) :   0.9959
B(  3-C , 15-O ) :   1.0741 B(  5-C ,  6-H ) :   0.8627 B(  5-C ,  7-C ) :   1.0364
B(  5-C , 14-O ) :   1.0894 B(  7-C ,  8-H ) :   0.8833 B(  7-C ,  9-C ) :   0.9865
B(  7-C , 13-O ) :   1.0861 B(  9-C , 10-H ) :   0.8946 B(  9-C , 11-O ) :   1.0747
B(  9-C , 12-O ) :   1.1055 B( 12-O , 19-H ) :   0.8366 B( 13-O , 20-H ) :   0.8436
B( 14-O , 21-H ) :   0.8409 B( 15-O , 22-H ) :   0.8417 B( 16-O , 23-H ) :   0.8449

Dispersion correction           -0.024361527
FINAL SINGLE POINT ENERGY      -685.693183590888

DIPOLE MOMENT
-------------

Method             : SCF
Type of density    : Electron Density
Multiplicity       :   1
Irrep              :   0
Energy             :  -685.8230303884771502 Eh
Relativity type    :
Basis              : AO
                                X                 Y                 Z
Electronic contribution:      1.684639584      -0.039459634       1.337190535
Nuclear contribution   :     -1.082612460       0.570126144      -1.774673343
                        -----------------------------------------
Total Dipole Moment    :      0.602027125       0.530666510      -0.437482808
                        -----------------------------------------
Magnitude (a.u.)       :      0.914021231
Magnitude (Debye)      :      2.323257337

Rotational constants in cm-1:             0.042726             0.025748             0.018530
Rotational constants in MHz :          1280.904481           771.907176           555.522891

                             ****ORCA TERMINATED NORMALLY****
TOTAL RUN TIME: 0 days 0 hours 0 minutes 11 seconds 981 msec
