                         Program Version 6.0.0  -   RELEASE  -
|  1> ! r2scan-3c def2/J RI DEFGRID2 scfconv6 printgap
|  2> %output
|  3>     printlevel normal
|  4> end
|  5> * xyz 0 1
|  6> C -2.6003715092 -0.979808793 0.000257674
|  7> C -1.1555394612 -0.5681060217 0.0003932723
|  8> C -0.1863725612 -1.5629881539 -0.0001760213
|  9> C 1.1638402204 -1.2691272067 -0.0004681781
| 10> C 1.5693673944 0.0580437763 2.14666e-05
| 11> C 0.6090461373 1.0615431591 0.0002871006
| 12> C -0.7466453339 0.7684266697 0.0001556159
| 13> C -1.7353507497 1.8973587464 -0.000501116
| 14> O 2.8843808652 0.426146608 0.0002050984
| 15> H -3.2680569388 -0.1263446888 0.0166847461
| 16> H -2.8173912802 -1.5716538886 -0.8879333626
| 17> H -2.809737307 -1.5998934497 0.8707412013
| 18> H -0.4987824862 -2.5974478551 -0.0005308102
| 19> H 1.8940886723 -2.0655549144 -0.0009867552
| 20> H 0.9481505296 2.0866789618 0.0006163375
| 21> H -2.3724797615 1.8494823517 -0.8820048328
| 22> H -2.3696137366 1.8532298894 0.8833027209
| 23> H -1.2166629511 2.852041598 -0.0032166644
| 24> H 3.4518975289 -0.3587351647 0.0004314107
| 25> *
| 26>
| 27>                          ****END OF INPUT****

CARTESIAN COORDINATES (ANGSTROEM)
---------------------------------
  C     -2.600372   -0.979809    0.000258
  C     -1.155539   -0.568106    0.000393
  C     -0.186373   -1.562988   -0.000176
  C      1.163840   -1.269127   -0.000468
  C      1.569367    0.058044    0.000021
  C      0.609046    1.061543    0.000287
  C     -0.746645    0.768427    0.000156
  C     -1.735351    1.897359   -0.000501
  O      2.884381    0.426147    0.000205
  H     -3.268057   -0.126345    0.016685
  H     -2.817391   -1.571654   -0.887933
  H     -2.809737   -1.599893    0.870741
  H     -0.498782   -2.597448   -0.000531
  H      1.894089   -2.065555   -0.000987
  H      0.948151    2.086679    0.000616
  H     -2.372480    1.849482   -0.882005
  H     -2.369614    1.853230    0.883303
  H     -1.216663    2.852042   -0.003217
  H      3.451898   -0.358735    0.000431

 Total Charge           Charge          ....    0
 Multiplicity           Mult            ....    1
 Number of Electrons    NEL             ....   66
 Basis Dimension        Dim             ....  226

ORBITAL ENERGIES
----------------

  NO   OCC          E(Eh)            E(eV)
   0   2.0000     -18.980103      -516.4749
   1   2.0000     -10.088918      -274.5334
   2   2.0000     -10.039559      -273.1903
   3   2.0000     -10.030440      -272.9421
   4   2.0000     -10.028803      -272.8976
   5   2.0000     -10.027931      -272.8739
   6   2.0000     -10.025847      -272.8172
   7   2.0000     -10.023128      -272.7432
   8   2.0000     -10.021415      -272.6966
   9   2.0000      -1.022395       -27.8208
  10   2.0000      -0.824811       -22.4443
  11   2.0000      -0.740918       -20.1614
  12   2.0000      -0.730089       -19.8667
  13   2.0000      -0.667986       -18.1768
  14   2.0000      -0.636901       -17.3310
  15   2.0000      -0.573427       -15.6037
  16   2.0000      -0.558225       -15.1901
  17   2.0000      -0.495252       -13.4765
  18   2.0000      -0.457055       -12.4371
  19   2.0000      -0.434460       -11.8223
  20   2.0000      -0.403440       -10.9782
  21   2.0000      -0.402589       -10.9550
  22   2.0000      -0.379022       -10.3137
  23   2.0000      -0.375396       -10.2150
  24   2.0000      -0.369996       -10.0681
  25   2.0000      -0.369242       -10.0476
  26   2.0000      -0.351949        -9.5770
  27   2.0000      -0.335858        -9.1392
  28   2.0000      -0.314090        -8.5468
  29   2.0000      -0.299251        -8.1430
  30   2.0000      -0.291642        -7.9360
  31   2.0000      -0.225934        -6.1480
  32   2.0000      -0.192951        -5.2505
  33   0.0000      -0.026021        -0.7081
  34   0.0000      -0.010092        -0.2746
  35   0.0000       0.060677         1.6511
  36   0.0000       0.083336         2.2677
  37   0.0000       0.096570         2.6278

MULLIKEN ATOMIC CHARGES
-----------------------
   0 C :   -0.562704
   1 C :    0.141571
   2 C :   -0.178439
   3 C :   -0.355457
   4 C :    0.431443
   5 C :   -0.394006
   6 C :    0.212213
   7 C :   -0.589918
   8 O :   -0.418237
   9 H :    0.155812
  10 H :    0.162838
  11 H :    0.161673
  12 H :    0.145005
  13 H :    0.136491
  14 H :    0.154320
  15 H :    0.168105
  16 H :    0.168098
  17 H :    0.151958
  18 H :    0.309233
Sum of atomic charges:   -0.0000000

LOEWDIN ATOMIC CHARGES
----------------------
   0 C :   -0.390857
   1 C :   -0.117920
   2 C :   -0.147399
   3 C :   -0.177453
   4 C :    0.180317
   5 C :   -0.143929
   6 C :   -0.083780
   7 C :   -0.391275
   8 O :   -0.501480
   9 H :    0.159999
  10 H :    0.163889
  11 H :    0.163758
  12 H :    0.168950
  13 H :    0.167419
  14 H :    0.179449
  15 H :    0.163732
  16 H :    0.163688
  17 H :    0.160156
  18 H :    0.282736

  Mayer bond orders larger than 0.100000
B(  0-C ,  1-C ) :   0.7796 B(  0-C ,  9-H ) :   0.9821 B(  0-C , 10-H ) :   0.9839
B(  0-C , 11-H ) :   0.9848 B(  1-C ,  2-C ) :   1.4053 B(  1-C ,  6-C ) :   1.4633
B(  2-C ,  3-C ) :   1.4413 B(  2-C , 12-H ) :   0.9318 B(  3-C ,  4-C ) :   1.3398
B(  3-C , 13-H ) :   0.9282 B(  4-C ,  5-C ) :   1.4919 B(  4-C ,  8-O ) :   0.9048
B(  5-C ,  6-C ) :   1.3778 B(  5-C ,  8-O ) :   0.1137 B(  5-C , 14-H ) :   0.9196
B(  6-C ,  7-C ) :   0.7605 B(  7-C , 15-H ) :   0.9816 B(  7-C , 16-H ) :   0.9819
B(  7-C , 17-H ) :   0.9874 B(  8-O , 18-H ) :   0.8845

Dispersion correction           -0.006233773
FINAL SINGLE POINT ENERGY      -386.002634312810

DIPOLE MOMENT
-------------

Method             : SCF
Type of density    : Electron Density
Multiplicity       :   1
Irrep              :   0
Energy             :  -386.0037124229627921 Eh
Relativity type    :
Basis              : AO
                                X                 Y                 Z
Electronic contribution:      8.336932548      -0.734113667       0.002044807
Nuclear contribution   :     -8.455736990       0.308220880      -0.002713905
                        -----------------------------------------
Total Dipole Moment    :     -0.118804442      -0.425892787      -0.000669098
                        -----------------------------------------
Magnitude (a.u.)       :      0.442153378
Magnitude (Debye)      :      1.123864572

Rotational constants in cm-1:             0.099255             0.043966             0.030818
Rotational constants in MHz :          2975.581554          1318.059938           923.895744

                             ****ORCA TERMINATED NORMALLY****
TOTAL RUN TIME: 0 days 0 hours 0 minutes 25 seconds 493 msec
