                         Program Version 6.0.0  -   RELEASE  -
|  1> ! r2scan-3c def2/J RI DEFGRID2 scfconv6 printgap
|  2> %output
|  3>     printlevel normal
|  4> end
|  5> %cpcm
|  6>     smd true
|  7>     smdsolvent "water"
|  8> end
|  9> * xyz 0 1
| 10> C -2.6003715092 -0.979808793 0.000257674
| 11> C -1.1555394612 -0.5681060217 0.0003932723
| 12> C -0.1863725612 -1.5629881539 -0.0001760213
| 13> C 1.1638402204 -1.2691272067 -0.0004681781
| 14> C 1.5693673944 0.0580437763 2.14666e-05
| 15> C 0.6090461373 1.0615431591 0.0002871006
| 16> C -0.7466453339 0.7684266697 0.0001556159
| 17> C -1.7353507497 1.8973587464 -0.000501116
| 18> O 2.8843808652 0.426146608 0.0002050984
| 19> H -3.2680569388 -0.1263446888 0.0166847461
| 20> H -2.8173912802 -1.5716538886 -0.8879333626
| 21> H -2.809737307 -1.5998934497 0.8707412013
| 22> H -0.4987824862 -2.5974478551 -0.0005308102
| 23> H 1.8940886723 -2.0655549144 -0.0009867552
| 24> H 0.9481505296 2.0866789618 0.0006163375
| 25> H -2.3724797615 1.8494823517 -0.8820048328
| 26> H -2.3696137366 1.8532298894 0.8833027209
| 27> H -1.2166629511 2.852041598 -0.0032166644
| 28> H 3.4518975289 -0.3587351647 0.0004314107
| 29> *
| 30>
| 31>                          ****END OF INPUT****

CARTESIAN COORDINATES (ANGSTROEM)
---------------------------------
  C     -2.600372   -0.979809    0.000258
  C     -1.155539   -0.568106    0.000393
  C     -0.186373   -1.562988   -0.000176
  C      1.163840   -1.269127   -0.000468
  C      1.569367    0.058044    0.000021
  C      0.609046    1.061543    0.000287
  C     -0.746645    0.768427    0.000156
  C     -1.735351    1.897359   -0.000501
  O      2.884381    0.426147    0.000205
  H     -3.268057   -0.126345    0.016685
  H     -2.817391   -1.571654   -0.887933
  H     -2.809737   -1.599893    0.870741
  H     -0.498782   -2.597448   -0.000531
  H      1.894089   -2.065555   -0.000987
  H      0.948151    2.086679    0.000616
  H     -2.372480    1.849482   -0.882005
  H     -2.369614    1.853230    0.883303
  H     -1.216663    2.852042   -0.003217
  H      3.451898   -0.358735    0.000431

 Total Charge           Charge          ....    0
 Multiplicity           Mult            ....    1
 Number of Electrons    NEL             ....   66
 Basis Dimension        Dim             ....  226

ORBITAL ENERGIES
----------------

  NO   OCC          E(Eh)            E(eV)
   0   2.0000     -18.979767      -516.4657
   1   2.0000     -10.090559      -274.5781
   2   2.0000     -10.040242      -273.2089
   3   2.0000     -10.030603      -272.9466
   4   2.0000     -10.027555      -272.8637
   5   2.0000     -10.025639      -272.8115
   6   2.0000     -10.022907      -272.7372
   7   2.0000     -10.017286      -272.5842
   8   2.0000     -10.014909      -272.5195
   9   2.0000      -1.022055       -27.8115
  10   2.0000      -0.826004       -22.4767
  11   2.0000      -0.738838       -20.1048
  12   2.0000      -0.728983       -19.8366
  13   2.0000      -0.664043       -18.0695
  14   2.0000      -0.633037       -17.2258
  15   2.0000      -0.571307       -15.5460
  16   2.0000      -0.556020       -15.1301
  17   2.0000      -0.491977       -13.3874
  18   2.0000      -0.455333       -12.3902
  19   2.0000      -0.431093       -11.7306
  20   2.0000      -0.400585       -10.9005
  21   2.0000      -0.399018       -10.8578
  22   2.0000      -0.375084       -10.2066
  23   2.0000      -0.371552       -10.1104
  24   2.0000      -0.367679       -10.0051
  25   2.0000      -0.367316        -9.9952
  26   2.0000      -0.343969        -9.3599
  27   2.0000      -0.334002        -9.0887
  28   2.0000      -0.310846        -8.4586
  29   2.0000      -0.296584        -8.0705
  30   2.0000      -0.293966        -7.9992
  31   2.0000      -0.229221        -6.2374
  32   2.0000      -0.196057        -5.3350
  33   0.0000      -0.028466        -0.7746
  34   0.0000      -0.012256        -0.3335
  35   0.0000       0.081464         2.2167
  36   0.0000       0.092651         2.5212
  37   0.0000       0.105323         2.8660

MULLIKEN ATOMIC CHARGES
-----------------------
   0 C :   -0.574461
   1 C :    0.117850
   2 C :   -0.201297
   3 C :   -0.362564
   4 C :    0.382274
   5 C :   -0.424497
   6 C :    0.158314
   7 C :   -0.598757
   8 O :   -0.465859
   9 H :    0.173172
  10 H :    0.175928
  11 H :    0.174947
  12 H :    0.175623
  13 H :    0.181438
  14 H :    0.181209
  15 H :    0.183950
  16 H :    0.184119
  17 H :    0.169849
  18 H :    0.368762
Sum of atomic charges:   -0.0000000

LOEWDIN ATOMIC CHARGES
----------------------
   0 C :   -0.394705
   1 C :   -0.125618
   2 C :   -0.158572
   3 C :   -0.178837
   4 C :    0.164378
   5 C :   -0.163388
   6 C :   -0.092542
   7 C :   -0.395592
   8 O :   -0.521645
   9 H :    0.165656
  10 H :    0.169186
  11 H :    0.169060
  12 H :    0.179955
  13 H :    0.184697
  14 H :    0.187355
  15 H :    0.170452
  16 H :    0.170476
  17 H :    0.165274
  18 H :    0.304410

  Mayer bond orders larger than 0.100000
B(  0-C ,  1-C ) :   0.7985 B(  0-C ,  9-H ) :   0.9802 B(  0-C , 10-H ) :   0.9756
B(  0-C , 11-H ) :   0.9766 B(  1-C ,  2-C ) :   1.3703 B(  1-C ,  6-C ) :   1.4048
B(  2-C ,  3-C ) :   1.3842 B(  2-C , 12-H ) :   0.9533 B(  3-C ,  4-C ) :   1.3351
B(  3-C , 13-H ) :   0.9540 B(  4-C ,  5-C ) :   1.4195 B(  4-C ,  8-O ) :   0.9138
B(  5-C ,  6-C ) :   1.3777 B(  5-C ,  8-O ) :   0.1044 B(  5-C , 14-H ) :   0.9356
B(  6-C ,  7-C ) :   0.7884 B(  7-C , 15-H ) :   0.9718 B(  7-C , 16-H ) :   0.9720
B(  7-C , 17-H ) :   0.9839 B(  8-O , 18-H ) :   0.8527

Dispersion correction           -0.006233773
FINAL SINGLE POINT ENERGY      -386.011141737371

DIPOLE MOMENT
-------------

Method             : SCF
Type of density    : Electron Density
Multiplicity       :   1
Irrep              :   0
Energy             :  -386.0122198475239088 Eh
Relativity type    :
Basis              : AO
                                X                 Y                 Z
Electronic contribution:      8.271563042      -0.960278903       0.001859265
Nuclear contribution   :     -8.455736990       0.308220880      -0.002713905
                        -----------------------------------------
Total Dipole Moment    :     -0.184173949      -0.652058023      -0.000854640
                        -----------------------------------------
Magnitude (a.u.)       :      0.677569509
Magnitude (Debye)      :      1.722244823

Rotational constants in cm-1:             0.099255             0.043966             0.030818
Rotational constants in MHz :          2975.581554          1318.059938           923.895744

                             ****ORCA TERMINATED NORMALLY****
TOTAL RUN TIME: 0 days 0 hours 0 minutes 31 seconds 583 msec
