                         Program Version 6.0.0  -   RELEASE  -
|  1> ! r2scan-3c def2/J RI DEFGRID2 scfconv6 printgap
|  2> %output
|  3>     printlevel normal
|  4> end
|  5> * xyz 0 1
|  6> C -3.9800467821 -0.4753103676 -0.001460451
|  7> C -2.529375084 -0.1017656305 -7.98138e-05
|  8> C -2.1687627664 1.2617785331 0.0002588379
|  9> C -0.859046068 1.6461316938 0.0007157992
| 10> C 0.1757041473 0.6868880215 0.000667115
| 11> C 1.538301713 1.04790555 0.0002657421
| 12> C 2.5293695209 0.1017612411 -0.0002089067
| 13> C 2.1687573287 -1.2617824939 0.0002387148
| 14> C 0.8590389898 -1.6461271738 0.0007164449
| 15> C -0.1757002723 -0.6868695024 0.000669965
| 16> C -1.5382974451 -1.0478963199 0.0003411493
| 17> C 3.9800514662 0.4752860431 -0.0013926807
| 18> H -4.471764288 -0.070759213 -0.8849731784
| 19> H -4.1036998774 -1.5548503044 0.0042294793
| 20> H -4.4764368531 -0.0606773459 0.8746736766
| 21> H -2.9529466176 2.0053828064 0.0002581136
| 22> H -0.5950748882 2.6942648509 0.0009915284
| 23> H 1.7908005499 2.09950953 8.23226e-05
| 24> H 2.9529462042 -2.0053821798 0.0001402163
| 25> H 0.5950402391 -2.6942524939 0.0009686399
| 26> H -1.7907688044 -2.0995083783 0.0001651207
| 27> H 4.4749410007 0.065707812 0.8779595605
| 28> H 4.4733094415 0.065743064 -0.8816922363
| 29> H 4.1037164803 1.5548266863 -0.0015253815
| 30> *
| 31>
| 32>                          ****END OF INPUT****

CARTESIAN COORDINATES (ANGSTROEM)
---------------------------------
  C     -3.980047   -0.475310   -0.001460
  C     -2.529375   -0.101766   -0.000080
  C     -2.168763    1.261779    0.000259
  C     -0.859046    1.646132    0.000716
  C      0.175704    0.686888    0.000667
  C      1.538302    1.047906    0.000266
  C      2.529370    0.101761   -0.000209
  C      2.168757   -1.261782    0.000239
  C      0.859039   -1.646127    0.000716
  C     -0.175700   -0.686870    0.000670
  C     -1.538297   -1.047896    0.000341
  C      3.980051    0.475286   -0.001393
  H     -4.471764   -0.070759   -0.884973
  H     -4.103700   -1.554850    0.004229
  H     -4.476437   -0.060677    0.874674
  H     -2.952947    2.005383    0.000258
  H     -0.595075    2.694265    0.000992
  H      1.790801    2.099510    0.000082
  H      2.952946   -2.005382    0.000140
  H      0.595040   -2.694252    0.000969
  H     -1.790769   -2.099508    0.000165
  H      4.474941    0.065708    0.877960
  H      4.473309    0.065743   -0.881692
  H      4.103716    1.554827   -0.001525

 Total Charge           Charge          ....    0
 Multiplicity           Mult            ....    1
 Number of Electrons    NEL             ....   84
 Basis Dimension        Dim             ....  288

ORBITAL ENERGIES
----------------

  NO   OCC          E(Eh)            E(eV)
   0   2.0000     -10.041223      -273.2356
   1   2.0000     -10.041222      -273.2355
   2   2.0000     -10.039935      -273.2005
   3   2.0000     -10.039593      -273.1912
   4   2.0000     -10.032829      -273.0071
   5   2.0000     -10.032828      -273.0071
   6   2.0000     -10.030422      -272.9416
   7   2.0000     -10.030421      -272.9416
   8   2.0000     -10.028786      -272.8971
   9   2.0000     -10.028785      -272.8971
  10   2.0000     -10.026972      -272.8478
  11   2.0000     -10.026966      -272.8476
  12   2.0000      -0.844692       -22.9852
  13   2.0000      -0.800726       -21.7889
  14   2.0000      -0.743764       -20.2388
  15   2.0000      -0.742840       -20.2137
  16   2.0000      -0.692353       -18.8399
  17   2.0000      -0.681375       -18.5411
  18   2.0000      -0.630689       -17.1619
  19   2.0000      -0.590698       -16.0737
  20   2.0000      -0.565772       -15.3954
  21   2.0000      -0.549730       -14.9589
  22   2.0000      -0.475455       -12.9378
  23   2.0000      -0.474987       -12.9251
  24   2.0000      -0.449530       -12.2323
  25   2.0000      -0.414091       -11.2680
  26   2.0000      -0.402840       -10.9618
  27   2.0000      -0.399810       -10.8794
  28   2.0000      -0.396487       -10.7890
  29   2.0000      -0.391503       -10.6533
  30   2.0000      -0.382957       -10.4208
  31   2.0000      -0.361056        -9.8248
  32   2.0000      -0.353375        -9.6158
  33   2.0000      -0.353149        -9.6097
  34   2.0000      -0.346989        -9.4420
  35   2.0000      -0.325005        -8.8438
  36   2.0000      -0.302147        -8.2218
  37   2.0000      -0.294635        -8.0174
  38   2.0000      -0.290596        -7.9075
  39   2.0000      -0.262261        -7.1365
  40   2.0000      -0.219659        -5.9772
  41   2.0000      -0.196300        -5.3416
  42   0.0000      -0.059502        -1.6191
  43   0.0000      -0.031817        -0.8658
  44   0.0000       0.000541         0.0147
  45   0.0000       0.063704         1.7335
  46   0.0000       0.081291         2.2120

MULLIKEN ATOMIC CHARGES
-----------------------
   0 C :   -0.552796
   1 C :    0.235126
   2 C :   -0.201035
   3 C :   -0.277947
   4 C :    0.216814
   5 C :   -0.319398
   6 C :    0.235128
   7 C :   -0.201034
   8 C :   -0.277930
   9 C :    0.216791
  10 C :   -0.319382
  11 C :   -0.552798
  12 H :    0.160455
  13 H :    0.151391
  14 H :    0.160049
  15 H :    0.145042
  16 H :    0.141122
  17 H :    0.141172
  18 H :    0.145043
  19 H :    0.141122
  20 H :    0.141171
  21 H :    0.160239
  22 H :    0.160265
  23 H :    0.151389
Sum of atomic charges:    0.0000000

LOEWDIN ATOMIC CHARGES
----------------------
   0 C :   -0.389019
   1 C :   -0.100723
   2 C :   -0.159499
   3 C :   -0.140893
   4 C :   -0.057422
   5 C :   -0.149047
   6 C :   -0.100718
   7 C :   -0.159498
   8 C :   -0.140893
   9 C :   -0.057421
  10 C :   -0.149049
  11 C :   -0.389018
  12 H :    0.164072
  13 H :    0.158949
  14 H :    0.163982
  15 H :    0.169369
  16 H :    0.169835
  17 H :    0.170398
  18 H :    0.169370
  19 H :    0.169835
  20 H :    0.170397
  21 H :    0.164018
  22 H :    0.164029
  23 H :    0.158945

  Mayer bond orders larger than 0.100000
B(  0-C ,  1-C ) :   0.7646 B(  0-C , 12-H ) :   0.9762 B(  0-C , 13-H ) :   0.9961
B(  0-C , 14-H ) :   0.9764 B(  1-C ,  2-C ) :   1.2365 B(  1-C , 10-C ) :   1.5159
B(  2-C ,  3-C ) :   1.5237 B(  2-C , 15-H ) :   0.9447 B(  3-C ,  4-C ) :   1.2034
B(  3-C , 16-H ) :   0.9517 B(  4-C ,  5-C ) :   1.2340 B(  4-C ,  9-C ) :   1.5028
B(  5-C ,  6-C ) :   1.5159 B(  5-C , 17-H ) :   0.9371 B(  6-C ,  7-C ) :   1.2365
B(  6-C , 11-C ) :   0.7646 B(  7-C ,  8-C ) :   1.5237 B(  7-C , 18-H ) :   0.9447
B(  8-C ,  9-C ) :   1.2034 B(  8-C , 19-H ) :   0.9517 B(  9-C , 10-C ) :   1.2340
B( 10-C , 20-H ) :   0.9371 B( 11-C , 21-H ) :   0.9763 B( 11-C , 22-H ) :   0.9763
B( 11-C , 23-H ) :   0.9961

Dispersion correction           -0.009316703
FINAL SINGLE POINT ENERGY      -464.390179566800

DIPOLE MOMENT
-------------

Method             : SCF
Type of density    : Electron Density
Multiplicity       :   1
Irrep              :   0
Energy             :  -464.3878428836273997 Eh
Relativity type    :
Basis              : AO
                                X                 Y                 Z
Electronic contribution:     -0.000054798      -0.000003753       0.007191898
Nuclear contribution   :      0.000058717       0.000004535      -0.008182842
                        -----------------------------------------
Total Dipole Moment    :      0.000003920       0.000000783      -0.000990944
                        -----------------------------------------
Magnitude (a.u.)       :      0.000990952
Magnitude (Debye)      :      0.002518799

Rotational constants in cm-1:             0.090454             0.019487             0.016129
Rotational constants in MHz :          2711.746034           584.215692           483.533184

                             ****ORCA TERMINATED NORMALLY****
TOTAL RUN TIME: 0 days 0 hours 0 minutes 44 seconds 966 msec
