                         Program Version 6.0.0  -   RELEASE  -
|  1> ! r2scan-3c def2/J RI DEFGRID2 scfconv6 printgap
|  2> %output
|  3>     printlevel normal
|  4> end
|  5> %cpcm
|  6>     smd true
|  7>     smdsolvent "water"
|  8> end
|  9> * xyz 0 1
| 10> C -3.9800467821 -0.4753103676 -0.001460451
| 11> C -2.529375084 -0.1017656305 -7.98138e-05
| 12> C -2.1687627664 1.2617785331 0.0002588379
| 13> C -0.859046068 1.6461316938 0.0007157992
| 14> C 0.1757041473 0.6868880215 0.000667115
| 15> C 1.538301713 1.04790555 0.0002657421
| 16> C 2.5293695209 0.1017612411 -0.0002089067
| 17> C 2.1687573287 -1.2617824939 0.0002387148
| 18> C 0.8590389898 -1.6461271738 0.0007164449
| 19> C -0.1757002723 -0.6868695024 0.000669965
| 20> C -1.5382974451 -1.0478963199 0.0003411493
| 21> C 3.9800514662 0.4752860431 -0.0013926807
| 22> H -4.471764288 -0.070759213 -0.8849731784
| 23> H -4.1036998774 -1.5548503044 0.0042294793
| 24> H -4.4764368531 -0.0606773459 0.8746736766
| 25> H -2.9529466176 2.0053828064 0.0002581136
| 26> H -0.5950748882 2.6942648509 0.0009915284
| 27> H 1.7908005499 2.09950953 8.23226e-05
| 28> H 2.9529462042 -2.0053821798 0.0001402163
| 29> H 0.5950402391 -2.6942524939 0.0009686399
| 30> H -1.7907688044 -2.0995083783 0.0001651207
| 31> H 4.4749410007 0.065707812 0.8779595605
| 32> H 4.4733094415 0.065743064 -0.8816922363
| 33> H 4.1037164803 1.5548266863 -0.0015253815
| 34> *
| 35>
| 36>                          ****END OF INPUT****

CARTESIAN COORDINATES (ANGSTROEM)
---------------------------------
  C     -3.980047   -0.475310   -0.001460
  C     -2.529375   -0.101766   -0.000080
  C     -2.168763    1.261779    0.000259
  C     -0.859046    1.646132    0.000716
  C      0.175704    0.686888    0.000667
  C      1.538302    1.047906    0.000266
  C      2.529370    0.101761   -0.000209
  C      2.168757   -1.261782    0.000239
  C      0.859039   -1.646127    0.000716
  C     -0.175700   -0.686870    0.000670
  C     -1.538297   -1.047896    0.000341
  C      3.980051    0.475286   -0.001393
  H     -4.471764   -0.070759   -0.884973
  H     -4.103700   -1.554850    0.004229
  H     -4.476437   -0.060677    0.874674
  H     -2.952947    2.005383    0.000258
  H     -0.595075    2.694265    0.000992
  H      1.790801    2.099510    0.000082
  H      2.952946   -2.005382    0.000140
  H      0.595040   -2.694252    0.000969
  H     -1.790769   -2.099508    0.000165
  H      4.474941    0.065708    0.877960
  H      4.473309    0.065743   -0.881692
  H      4.103716    1.554827   -0.001525

 Total Charge           Charge          ....    0
 Multiplicity           Mult            ....    1
 Number of Electrons    NEL             ....   84
 Basis Dimension        Dim             ....  288

ORBITAL ENERGIES
----------------

  NO   OCC          E(Eh)            E(eV)
   0   2.0000     -10.041670      -273.2477
   1   2.0000     -10.041328      -273.2384
   2   2.0000     -10.041089      -273.2319
   3   2.0000     -10.041088      -273.2319
   4   2.0000     -10.032755      -273.0051
   5   2.0000     -10.032755      -273.0051
   6   2.0000     -10.029841      -272.9258
   7   2.0000     -10.029841      -272.9258
   8   2.0000     -10.028177      -272.8806
   9   2.0000     -10.028176      -272.8805
  10   2.0000     -10.017986      -272.6032
  11   2.0000     -10.017980      -272.6031
  12   2.0000      -0.847007       -23.0482
  13   2.0000      -0.801103       -21.7991
  14   2.0000      -0.744602       -20.2617
  15   2.0000      -0.740891       -20.1607
  16   2.0000      -0.692619       -18.8471
  17   2.0000      -0.676824       -18.4173
  18   2.0000      -0.626770       -17.0553
  19   2.0000      -0.589970       -16.0539
  20   2.0000      -0.564816       -15.3694
  21   2.0000      -0.548030       -14.9126
  22   2.0000      -0.473466       -12.8837
  23   2.0000      -0.472900       -12.8683
  24   2.0000      -0.447438       -12.1754
  25   2.0000      -0.410428       -11.1683
  26   2.0000      -0.399991       -10.8843
  27   2.0000      -0.396314       -10.7842
  28   2.0000      -0.393530       -10.7085
  29   2.0000      -0.385190       -10.4815
  30   2.0000      -0.380296       -10.3484
  31   2.0000      -0.356935        -9.7127
  32   2.0000      -0.354023        -9.6335
  33   2.0000      -0.345721        -9.4075
  34   2.0000      -0.341806        -9.3010
  35   2.0000      -0.320846        -8.7307
  36   2.0000      -0.300186        -8.1685
  37   2.0000      -0.292848        -7.9688
  38   2.0000      -0.291987        -7.9454
  39   2.0000      -0.266150        -7.2423
  40   2.0000      -0.223126        -6.0716
  41   2.0000      -0.199306        -5.4234
  42   0.0000      -0.062326        -1.6960
  43   0.0000      -0.034471        -0.9380
  44   0.0000      -0.002755        -0.0750
  45   0.0000       0.063493         1.7277
  46   0.0000       0.089786         2.4432

MULLIKEN ATOMIC CHARGES
-----------------------
   0 C :   -0.572768
   1 C :    0.200521
   2 C :   -0.215270
   3 C :   -0.310240
   4 C :    0.177680
   5 C :   -0.328695
   6 C :    0.200514
   7 C :   -0.215264
   8 C :   -0.310235
   9 C :    0.177669
  10 C :   -0.328688
  11 C :   -0.572766
  12 H :    0.176265
  13 H :    0.170918
  14 H :    0.175914
  15 H :    0.175844
  16 H :    0.174524
  17 H :    0.175308
  18 H :    0.175844
  19 H :    0.174524
  20 H :    0.175307
  21 H :    0.176079
  22 H :    0.176099
  23 H :    0.170915
Sum of atomic charges:    0.0000000

LOEWDIN ATOMIC CHARGES
----------------------
   0 C :   -0.393339
   1 C :   -0.106120
   2 C :   -0.165666
   3 C :   -0.151585
   4 C :   -0.075110
   5 C :   -0.159086
   6 C :   -0.106115
   7 C :   -0.165665
   8 C :   -0.151584
   9 C :   -0.075109
  10 C :   -0.159087
  11 C :   -0.393337
  12 H :    0.170422
  13 H :    0.164879
  14 H :    0.170338
  15 H :    0.180681
  16 H :    0.181796
  17 H :    0.182792
  18 H :    0.180682
  19 H :    0.181796
  20 H :    0.182792
  21 H :    0.170372
  22 H :    0.170380
  23 H :    0.164875

  Mayer bond orders larger than 0.100000
B(  0-C ,  1-C ) :   0.7877 B(  0-C , 12-H ) :   0.9682 B(  0-C , 13-H ) :   0.9910
B(  0-C , 14-H ) :   0.9685 B(  1-C ,  2-C ) :   1.2049 B(  1-C , 10-C ) :   1.4861
B(  2-C ,  3-C ) :   1.4896 B(  2-C , 15-H ) :   0.9591 B(  3-C ,  4-C ) :   1.1951
B(  3-C , 16-H ) :   0.9676 B(  4-C ,  5-C ) :   1.2283 B(  4-C ,  9-C ) :   1.3967
B(  5-C ,  6-C ) :   1.4861 B(  5-C , 17-H ) :   0.9527 B(  6-C ,  7-C ) :   1.2049
B(  6-C , 11-C ) :   0.7877 B(  7-C ,  8-C ) :   1.4896 B(  7-C , 18-H ) :   0.9591
B(  8-C ,  9-C ) :   1.1951 B(  8-C , 19-H ) :   0.9676 B(  9-C , 10-C ) :   1.2283
B( 10-C , 20-H ) :   0.9527 B( 11-C , 21-H ) :   0.9684 B( 11-C , 22-H ) :   0.9684
B( 11-C , 23-H ) :   0.9910

Dispersion correction           -0.009316703
FINAL SINGLE POINT ENERGY      -464.393213052455

DIPOLE MOMENT
-------------

Method             : SCF
Type of density    : Electron Density
Multiplicity       :   1
Irrep              :   0
Energy             :  -464.3908763692829211 Eh
Relativity type    :
Basis              : AO
                                X                 Y                 Z
Electronic contribution:     -0.000064391      -0.000005394       0.006764788
Nuclear contribution   :      0.000058717       0.000004535      -0.008182842
                        -----------------------------------------
Total Dipole Moment    :     -0.000005673      -0.000000859      -0.001418054
                        -----------------------------------------
Magnitude (a.u.)       :      0.001418065
Magnitude (Debye)      :      0.003604436

Rotational constants in cm-1:             0.090454             0.019487             0.016129
Rotational constants in MHz :          2711.746034           584.215692           483.533184

                             ****ORCA TERMINATED NORMALLY****
TOTAL RUN TIME: 0 days 0 hours 0 minutes 48 seconds 482 msec
