                         Program Version 6.0.0  -   RELEASE  -
|  1> ! r2scan-3c def2/J RI DEFGRID2 scfconv6 printgap
|  2> %output
|  3>     printlevel normal
|  4> end
|  5> * xyz 0 1
|  6> C 2.0224749913 0.0384398552 -0.000423977
|  7> C 0.7413663117 -0.7863158142 0.0005415807
|  8> C -0.4919634766 0.0829363451 8.4495e-05
|  9> O -0.4759373959 1.2916337412 0.0001732818
| 10> O -1.6608850123 -0.563025953 -0.0003224154
| 11> H 2.0588188586 0.6794300527 0.8766503503
| 12> H 2.8904947464 -0.6138708179 0.0005620507
| 13> H 2.0589737321 0.6770595662 -0.8792439406
| 14> H 0.7077055756 -1.4261157171 -0.8842315353
| 15> H 0.7080378654 -1.4243439175 0.8866096927
| 16> H -1.5774354991 -1.5341162354 -0.0003875972
| 17> *
| 18>
| 19>                          ****END OF INPUT****

CARTESIAN COORDINATES (ANGSTROEM)
---------------------------------
  C      2.022475    0.038440   -0.000424
  C      0.741366   -0.786316    0.000542
  C     -0.491963    0.082936    0.000084
  O     -0.475937    1.291634    0.000173
  O     -1.660885   -0.563026   -0.000322
  H      2.058819    0.679430    0.876650
  H      2.890495   -0.613871    0.000562
  H      2.058974    0.677060   -0.879244
  H      0.707706   -1.426116   -0.884232
  H      0.708038   -1.424344    0.886610
  H     -1.577435   -1.534116   -0.000388

 Total Charge           Charge          ....    0
 Multiplicity           Mult            ....    1
 Number of Electrons    NEL             ....   40
 Basis Dimension        Dim             ....  135

ORBITAL ENERGIES
----------------

  NO   OCC          E(Eh)            E(eV)
   0   2.0000     -19.006496      -517.1930
   1   2.0000     -18.933565      -515.2085
   2   2.0000     -10.163255      -276.5562
   3   2.0000     -10.060275      -273.7540
   4   2.0000     -10.030133      -272.9338
   5   2.0000      -1.074428       -29.2367
   6   2.0000      -0.984047       -26.7773
   7   2.0000      -0.760947       -20.7064
   8   2.0000      -0.635452       -17.2915
   9   2.0000      -0.589682       -16.0461
  10   2.0000      -0.487871       -13.2757
  11   2.0000      -0.459983       -12.5168
  12   2.0000      -0.421836       -11.4788
  13   2.0000      -0.392385       -10.6773
  14   2.0000      -0.391454       -10.6520
  15   2.0000      -0.348386        -9.4801
  16   2.0000      -0.332269        -9.0415
  17   2.0000      -0.331129        -9.0105
  18   2.0000      -0.293331        -7.9820
  19   2.0000      -0.242174        -6.5899
  20   0.0000      -0.020941        -0.5698
  21   0.0000       0.038041         1.0351
  22   0.0000       0.085184         2.3180
  23   0.0000       0.136182         3.7057
  24   0.0000       0.140222         3.8156

MULLIKEN ATOMIC CHARGES
-----------------------
   0 C :   -0.464509
   1 C :   -0.274837
   2 C :    0.353268
   3 O :   -0.377550
   4 O :   -0.339237
   5 H :    0.160939
   6 H :    0.143393
   7 H :    0.160858
   8 H :    0.155012
   9 H :    0.155138
  10 H :    0.327524
Sum of atomic charges:   -0.0000000

LOEWDIN ATOMIC CHARGES
----------------------
   0 C :   -0.398306
   1 C :   -0.268946
   2 C :    0.343922
   3 O :   -0.391745
   4 O :   -0.405585
   5 H :    0.164174
   6 H :    0.150572
   7 H :    0.164131
   8 H :    0.173945
   9 H :    0.174001
  10 H :    0.293837

  Mayer bond orders larger than 0.100000
B(  0-C ,  1-C ) :   0.9477 B(  0-C ,  5-H ) :   0.9748 B(  0-C ,  6-H ) :   0.9673
B(  0-C ,  7-H ) :   0.9748 B(  1-C ,  2-C ) :   0.9695 B(  1-C ,  8-H ) :   0.9356
B(  1-C ,  9-H ) :   0.9354 B(  2-C ,  3-O ) :   1.9831 B(  2-C ,  4-O ) :   1.0717
B(  4-O , 10-H ) :   0.8698

Dispersion correction           -0.002113712
FINAL SINGLE POINT ENERGY      -268.343323845427

DIPOLE MOMENT
-------------

Method             : SCF
Type of density    : Electron Density
Multiplicity       :   1
Irrep              :   0
Energy             :  -268.3474959700509999 Eh
Relativity type    :
Basis              : AO
                                X                 Y                 Z
Electronic contribution:     -5.884354359       1.805525250       0.000161400
Nuclear contribution   :      6.391569208      -3.405970200      -0.000040660
                        -----------------------------------------
Total Dipole Moment    :      0.507214849      -1.600444950       0.000120740
                        -----------------------------------------
Magnitude (a.u.)       :      1.678895755
Magnitude (Debye)      :      4.267413871

Rotational constants in cm-1:             0.335818             0.129657             0.096913
Rotational constants in MHz :         10067.559179          3887.031344          2905.367903

                             ****ORCA TERMINATED NORMALLY****
TOTAL RUN TIME: 0 days 0 hours 0 minutes 12 seconds 650 msec
