                         Program Version 6.0.0  -   RELEASE  -
|  1> ! r2scan-3c def2/J RI DEFGRID2 scfconv6 printgap
|  2> %output
|  3>     printlevel normal
|  4> end
|  5> %cpcm
|  6>     smd true
|  7>     smdsolvent "water"
|  8> end
|  9> * xyz 0 1
| 10> C 2.0224749913 0.0384398552 -0.000423977
| 11> C 0.7413663117 -0.7863158142 0.0005415807
| 12> C -0.4919634766 0.0829363451 8.4495e-05
| 13> O -0.4759373959 1.2916337412 0.0001732818
| 14> O -1.6608850123 -0.563025953 -0.0003224154
| 15> H 2.0588188586 0.6794300527 0.8766503503
| 16> H 2.8904947464 -0.6138708179 0.0005620507
| 17> H 2.0589737321 0.6770595662 -0.8792439406
| 18> H 0.7077055756 -1.4261157171 -0.8842315353
| 19> H 0.7080378654 -1.4243439175 0.8866096927
| 20> H -1.5774354991 -1.5341162354 -0.0003875972
| 21> *
| 22>
| 23>                          ****END OF INPUT****

CARTESIAN COORDINATES (ANGSTROEM)
---------------------------------
  C      2.022475    0.038440   -0.000424
  C      0.741366   -0.786316    0.000542
  C     -0.491963    0.082936    0.000084
  O     -0.475937    1.291634    0.000173
  O     -1.660885   -0.563026   -0.000322
  H      2.058819    0.679430    0.876650
  H      2.890495   -0.613871    0.000562
  H      2.058974    0.677060   -0.879244
  H      0.707706   -1.426116   -0.884232
  H      0.708038   -1.424344    0.886610
  H     -1.577435   -1.534116   -0.000388

 Total Charge           Charge          ....    0
 Multiplicity           Mult            ....    1
 Number of Electrons    NEL             ....   40
 Basis Dimension        Dim             ....  135

ORBITAL ENERGIES
----------------

  NO   OCC          E(Eh)            E(eV)
   0   2.0000     -18.999812      -517.0112
   1   2.0000     -18.945446      -515.5318
   2   2.0000     -10.169280      -276.7202
   3   2.0000     -10.041136      -273.2332
   4   2.0000     -10.016458      -272.5617
   5   2.0000      -1.074124       -29.2284
   6   2.0000      -0.991580       -26.9823
   7   2.0000      -0.746040       -20.3008
   8   2.0000      -0.624256       -16.9869
   9   2.0000      -0.580345       -15.7920
  10   2.0000      -0.479711       -13.0536
  11   2.0000      -0.449044       -12.2191
  12   2.0000      -0.432194       -11.7606
  13   2.0000      -0.388791       -10.5795
  14   2.0000      -0.386826       -10.5261
  15   2.0000      -0.334314        -9.0972
  16   2.0000      -0.325279        -8.8513
  17   2.0000      -0.316840        -8.6217
  18   2.0000      -0.300345        -8.1728
  19   2.0000      -0.256370        -6.9762
  20   0.0000      -0.023120        -0.6291
  21   0.0000       0.074418         2.0250
  22   0.0000       0.102589         2.7916
  23   0.0000       0.149427         4.0661
  24   0.0000       0.158035         4.3004

MULLIKEN ATOMIC CHARGES
-----------------------
   0 C :   -0.522306
   1 C :   -0.247960
   2 C :    0.363717
   3 O :   -0.482461
   4 O :   -0.374949
   5 H :    0.164457
   6 H :    0.164061
   7 H :    0.164481
   8 H :    0.189744
   9 H :    0.189825
  10 H :    0.391390
Sum of atomic charges:   -0.0000000

LOEWDIN ATOMIC CHARGES
----------------------
   0 C :   -0.408632
   1 C :   -0.254866
   2 C :    0.356876
   3 O :   -0.476171
   4 O :   -0.401986
   5 H :    0.160765
   6 H :    0.158862
   7 H :    0.160755
   8 H :    0.191250
   9 H :    0.191289
  10 H :    0.321857

  Mayer bond orders larger than 0.100000
B(  0-C ,  1-C ) :   0.8969 B(  0-C ,  5-H ) :   0.9781 B(  0-C ,  6-H ) :   0.9617
B(  0-C ,  7-H ) :   0.9782 B(  1-C ,  2-C ) :   1.0006 B(  1-C ,  8-H ) :   0.9209
B(  1-C ,  9-H ) :   0.9207 B(  2-C ,  3-O ) :   1.9067 B(  2-C ,  4-O ) :   1.1192
B(  4-O , 10-H ) :   0.8372

Dispersion correction           -0.002113712
FINAL SINGLE POINT ENERGY      -268.359203225157

DIPOLE MOMENT
-------------

Method             : SCF
Type of density    : Electron Density
Multiplicity       :   1
Irrep              :   0
Energy             :  -268.3633753497809380 Eh
Relativity type    :
Basis              : AO
                                X                 Y                 Z
Electronic contribution:     -5.778594150       1.056671509       0.000209292
Nuclear contribution   :      6.391569208      -3.405970200      -0.000040660
                        -----------------------------------------
Total Dipole Moment    :      0.612975058      -2.349298692       0.000168632
                        -----------------------------------------
Magnitude (a.u.)       :      2.427950327
Magnitude (Debye)      :      6.171359286

Rotational constants in cm-1:             0.335818             0.129657             0.096913
Rotational constants in MHz :         10067.559179          3887.031344          2905.367903

                             ****ORCA TERMINATED NORMALLY****
TOTAL RUN TIME: 0 days 0 hours 0 minutes 15 seconds 611 msec
