                         Program Version 6.0.0  -   RELEASE  -
|  1> ! pbe def2-sv(p) def2/J RI DEFGRID1 loosescf d4 GCP(DFT/SV(P)) printgap
|  2> %output
|  3>     printlevel normal
|  4> end
|  5> * xyz 0 1
|  6> C -2.7781976009 0.7990565138 0.2568278023
|  7> C -1.6518436982 -0.1513872736 -0.0280694079
|  8> O -1.7774127715 -1.0985265324 -0.7793946892
|  9> C -0.3476644761 0.1681508936 0.674289289
| 10> C 0.3475384142 1.2866543909 -0.1348385519
| 11> C 1.8478484936 1.2689595649 0.1347681508
| 12> C 2.4842518736 -0.0063525759 -0.430530132
| 13> C 1.4973612503 -1.1790420047 -0.4038904088
| 14> C 0.5584026576 -1.0677989826 0.792088583
| 15> H -3.6041378816 0.6213704597 -0.4264357549
| 16> H -3.1184514483 0.6333995896 1.2770867959
| 17> H -2.4373339437 1.8269877931 0.1783970093
| 18> H -0.5770837735 0.5490426378 1.6725583657
| 19> H 0.1729223087 1.1361110252 -1.2024665183
| 20> H -0.0715247463 2.2545062352 0.1408476713
| 21> H 2.3131000843 2.1466966467 -0.3154023609
| 22> H 2.01072786 1.3242585754 1.2121389307
| 23> H 2.8087408978 0.1628777919 -1.4585814119
| 24> H 3.3702133105 -0.2556330804 0.1554978924
| 25> H 0.8953486932 -1.1943029586 -1.3142029427
| 26> H 2.0427559202 -2.1228892275 -0.3603494525
| 27> H -0.0670342598 -1.9613893602 0.848262704
| 28> H 1.1468053568 -1.008943222 1.7085696977
| 29> *
| 30>
| 31>                          ****END OF INPUT****

CARTESIAN COORDINATES (ANGSTROEM)
---------------------------------
  C     -2.778198    0.799057    0.256828
  C     -1.651844   -0.151387   -0.028069
  O     -1.777413   -1.098527   -0.779395
  C     -0.347664    0.168151    0.674289
  C      0.347538    1.286654   -0.134839
  C      1.847848    1.268960    0.134768
  C      2.484252   -0.006353   -0.430530
  C      1.497361   -1.179042   -0.403890
  C      0.558403   -1.067799    0.792089
  H     -3.604138    0.621370   -0.426436
  H     -3.118451    0.633400    1.277087
  H     -2.437334    1.826988    0.178397
  H     -0.577084    0.549043    1.672558
  H      0.172922    1.136111   -1.202467
  H     -0.071525    2.254506    0.140848
  H      2.313100    2.146697   -0.315402
  H      2.010728    1.324259    1.212139
  H      2.808741    0.162878   -1.458581
  H      3.370213   -0.255633    0.155498
  H      0.895349   -1.194303   -1.314203
  H      2.042756   -2.122889   -0.360349
  H     -0.067034   -1.961389    0.848263
  H      1.146805   -1.008943    1.708570

 Total Charge           Charge          ....    0
 Multiplicity           Mult            ....    1
 Number of Electrons    NEL             ....   70
 Basis Dimension        Dim             ....  154

ORBITAL ENERGIES
----------------

  NO   OCC          E(Eh)            E(eV)
   0   2.0000     -18.736136      -509.8362
   1   2.0000      -9.970730      -271.3174
   2   2.0000      -9.899634      -269.3827
   3   2.0000      -9.896381      -269.2942
   4   2.0000      -9.887082      -269.0412
   5   2.0000      -9.885960      -269.0106
   6   2.0000      -9.880756      -268.8690
   7   2.0000      -9.880599      -268.8648
   8   2.0000      -9.875900      -268.7369
   9   2.0000      -0.934080       -25.4176
  10   2.0000      -0.760878       -20.7045
  11   2.0000      -0.693167       -18.8620
  12   2.0000      -0.665642       -18.1130
  13   2.0000      -0.653524       -17.7833
  14   2.0000      -0.559570       -15.2267
  15   2.0000      -0.555742       -15.1225
  16   2.0000      -0.481838       -13.1115
  17   2.0000      -0.458730       -12.4827
  18   2.0000      -0.444527       -12.0962
  19   2.0000      -0.432246       -11.7620
  20   2.0000      -0.413363       -11.2482
  21   2.0000      -0.392047       -10.6681
  22   2.0000      -0.382234       -10.4011
  23   2.0000      -0.362230        -9.8568
  24   2.0000      -0.355087        -9.6624
  25   2.0000      -0.338571        -9.2130
  26   2.0000      -0.332443        -9.0462
  27   2.0000      -0.324992        -8.8435
  28   2.0000      -0.322946        -8.7878
  29   2.0000      -0.320313        -8.7162
  30   2.0000      -0.300712        -8.1828
  31   2.0000      -0.271347        -7.3837
  32   2.0000      -0.265187        -7.2161
  33   2.0000      -0.261194        -7.1075
  34   2.0000      -0.192952        -5.2505
  35   0.0000      -0.046279        -1.2593
  36   0.0000       0.022497         0.6122
  37   0.0000       0.048742         1.3263
  38   0.0000       0.051504         1.4015
  39   0.0000       0.078447         2.1347

MULLIKEN ATOMIC CHARGES
-----------------------
   0 C :   -0.243007
   1 C :    0.008048
   2 O :   -0.167804
   3 C :   -0.183754
   4 C :   -0.155019
   5 C :   -0.128311
   6 C :   -0.163079
   7 C :   -0.160774
   8 C :   -0.091398
   9 H :    0.116693
  10 H :    0.124788
  11 H :    0.121175
  12 H :    0.071622
  13 H :    0.092484
  14 H :    0.091826
  15 H :    0.087743
  16 H :    0.076061
  17 H :    0.082877
  18 H :    0.081104
  19 H :    0.089905
  20 H :    0.085840
  21 H :    0.091118
  22 H :    0.071862
Sum of atomic charges:   -0.0000000

LOEWDIN ATOMIC CHARGES
----------------------
   0 C :   -0.360931
   1 C :    0.051326
   2 O :   -0.132229
   3 C :   -0.170362
   4 C :   -0.209995
   5 C :   -0.226340
   6 C :   -0.229887
   7 C :   -0.230064
   8 C :   -0.216901
   9 H :    0.133715
  10 H :    0.145395
  11 H :    0.136605
  12 H :    0.123432
  13 H :    0.122106
  14 H :    0.118153
  15 H :    0.119745
  16 H :    0.115809
  17 H :    0.116891
  18 H :    0.115848
  19 H :    0.119428
  20 H :    0.119186
  21 H :    0.124291
  22 H :    0.114780

  Mayer bond orders larger than 0.100000
B(  0-C ,  1-C ) :   1.0796 B(  0-C ,  9-H ) :   0.9333 B(  0-C , 10-H ) :   0.9196
B(  0-C , 11-H ) :   0.9288 B(  1-C ,  2-O ) :   2.1835 B(  1-C ,  3-C ) :   0.9212
B(  3-C ,  4-C ) :   1.0747 B(  3-C ,  8-C ) :   1.0907 B(  3-C , 12-H ) :   0.8816
B(  4-C ,  5-C ) :   1.1832 B(  4-C , 13-H ) :   0.9023 B(  4-C , 14-H ) :   0.9116
B(  5-C ,  6-C ) :   1.1426 B(  5-C , 15-H ) :   0.9199 B(  5-C , 16-H ) :   0.9048
B(  6-C ,  7-C ) :   1.1425 B(  6-C , 17-H ) :   0.9220 B(  6-C , 18-H ) :   0.9223
B(  7-C ,  8-C ) :   1.1797 B(  7-C , 19-H ) :   0.9040 B(  7-C , 20-H ) :   0.9207
B(  8-C , 21-H ) :   0.9075 B(  8-C , 22-H ) :   0.9049

Dispersion correction           -0.022254894
FINAL SINGLE POINT ENERGY      -387.601194881245

DIPOLE MOMENT
-------------

Method             : SCF
Type of density    : Electron Density
Multiplicity       :   1
Irrep              :   0
Energy             :  -387.6789543554773445 Eh
Relativity type    :
Basis              : AO
                                X                 Y                 Z
Electronic contribution:     -4.371497441      -3.053185415      -1.397430373
Nuclear contribution   :      4.556625516       3.841533520       1.973525599
                        -----------------------------------------
Total Dipole Moment    :      0.185128075       0.788348105       0.576095227
                        -----------------------------------------
Magnitude (a.u.)       :      0.993806243
Magnitude (Debye)      :      2.526054721

Rotational constants in cm-1:             0.099817             0.039144             0.032606
Rotational constants in MHz :          2992.450578          1173.512192           977.493153

                             ****ORCA TERMINATED NORMALLY****
TOTAL RUN TIME: 0 days 0 hours 0 minutes 10 seconds 299 msec
