                         Program Version 6.0.0  -   RELEASE  -
|  1> ! pbe def2-sv(p) def2/J RI DEFGRID1 loosescf d4 GCP(DFT/SV(P)) printgap
|  2> %output
|  3>     printlevel normal
|  4> end
|  5> * xyz 0 1
|  6> C -2.7621544881 0.0961920995 -0.6544814111
|  7> O -1.3337843185 -0.0847247789 -0.7360396606
|  8> C -0.6302414271 0.169013817 0.3236724136
|  9> O -1.0053630855 0.5450652954 1.4002122309
| 10> C 0.8766538818 -0.0902557614 0.0164293278
| 11> F 1.3173660364 0.6931804445 -0.9773742707
| 12> F 1.6452625747 0.1446208246 1.0804987612
| 13> F 1.0908662834 -1.3577943198 -0.3612657341
| 14> H -3.1672388366 -0.5328262326 0.1370726177
| 15> H -3.1408415239 -0.1978978064 -1.6279451067
| 16> H -2.9871590411 1.1400568155 -0.4399585501
| 17> *
| 18>
| 19>                          ****END OF INPUT****

CARTESIAN COORDINATES (ANGSTROEM)
---------------------------------
  C     -2.762154    0.096192   -0.654481
  O     -1.333784   -0.084725   -0.736040
  C     -0.630241    0.169014    0.323672
  O     -1.005363    0.545065    1.400212
  C      0.876654   -0.090256    0.016429
  F      1.317366    0.693180   -0.977374
  F      1.645263    0.144621    1.080499
  F      1.090866   -1.357794   -0.361266
  H     -3.167239   -0.532826    0.137073
  H     -3.140842   -0.197898   -1.627945
  H     -2.987159    1.140057   -0.439959

 Total Charge           Charge          ....    0
 Multiplicity           Mult            ....    1
 Number of Electrons    NEL             ....   64
 Basis Dimension        Dim             ....  118

ORBITAL ENERGIES
----------------

  NO   OCC          E(Eh)            E(eV)
   0   2.0000     -24.295133      -661.1042
   1   2.0000     -24.295055      -661.1021
   2   2.0000     -24.294970      -661.0997
   3   2.0000     -18.837404      -512.5918
   4   2.0000     -18.771681      -510.8034
   5   2.0000     -10.132199      -275.7112
   6   2.0000     -10.039013      -273.1754
   7   2.0000      -9.967849      -271.2390
   8   2.0000      -1.200144       -32.6576
   9   2.0000      -1.107059       -30.1246
  10   2.0000      -1.106147       -30.0998
  11   2.0000      -1.046212       -28.4689
  12   2.0000      -0.952546       -25.9201
  13   2.0000      -0.715791       -19.4777
  14   2.0000      -0.640288       -17.4231
  15   2.0000      -0.567433       -15.4407
  16   2.0000      -0.534828       -14.5534
  17   2.0000      -0.534166       -14.5354
  18   2.0000      -0.521373       -14.1873
  19   2.0000      -0.463870       -12.6225
  20   2.0000      -0.443137       -12.0584
  21   2.0000      -0.418085       -11.3767
  22   2.0000      -0.404816       -11.0156
  23   2.0000      -0.403913       -10.9910
  24   2.0000      -0.386531       -10.5181
  25   2.0000      -0.370718       -10.0877
  26   2.0000      -0.363262        -9.8849
  27   2.0000      -0.359277        -9.7764
  28   2.0000      -0.343748        -9.3538
  29   2.0000      -0.328258        -8.9323
  30   2.0000      -0.293098        -7.9756
  31   2.0000      -0.252945        -6.8830
  32   0.0000      -0.060281        -1.6403
  33   0.0000       0.038159         1.0384
  34   0.0000       0.048082         1.3084
  35   0.0000       0.083772         2.2796
  36   0.0000       0.093717         2.5502

MULLIKEN ATOMIC CHARGES
-----------------------
   0 C :   -0.115078
   1 O :   -0.221687
   2 C :    0.050422
   3 O :   -0.167696
   4 C :    0.431325
   5 F :   -0.133903
   6 F :   -0.118226
   7 F :   -0.133588
   8 H :    0.134803
   9 H :    0.138997
  10 H :    0.134630
Sum of atomic charges:   -0.0000000

LOEWDIN ATOMIC CHARGES
----------------------
   0 C :   -0.192703
   1 O :   -0.036612
   2 C :   -0.027053
   3 O :   -0.120039
   4 C :    0.089793
   5 F :   -0.038657
   6 F :   -0.023818
   7 F :   -0.038516
   8 H :    0.128619
   9 H :    0.130380
  10 H :    0.128606

  Mayer bond orders larger than 0.100000
B(  0-C ,  1-O ) :   0.9102 B(  0-C ,  8-H ) :   0.9504 B(  0-C ,  9-H ) :   0.9584
B(  0-C , 10-H ) :   0.9516 B(  1-O ,  2-C ) :   1.2572 B(  1-O ,  3-O ) :   0.1145
B(  2-C ,  3-O ) :   2.0859 B(  2-C ,  4-C ) :   0.8283 B(  4-C ,  5-F ) :   1.1703
B(  4-C ,  6-F ) :   1.1975 B(  4-C ,  7-F ) :   1.1708

Dispersion correction           -0.007853662
FINAL SINGLE POINT ENERGY      -565.037128575168

DIPOLE MOMENT
-------------

Method             : SCF
Type of density    : Electron Density
Multiplicity       :   1
Irrep              :   0
Energy             :  -565.0973156195238971 Eh
Relativity type    :
Basis              : AO
                                X                 Y                 Z
Electronic contribution:     11.420347140      -0.942319110       0.959037323
Nuclear contribution   :    -12.510867717       0.872625549      -1.562460735
                        -----------------------------------------
Total Dipole Moment    :     -1.090520578      -0.069693561      -0.603423412
                        -----------------------------------------
Magnitude (a.u.)       :      1.248283676
Magnitude (Debye)      :      3.172884952

Rotational constants in cm-1:             0.120257             0.050242             0.043852
Rotational constants in MHz :          3605.225767          1506.204754          1314.650771

                             ****ORCA TERMINATED NORMALLY****
TOTAL RUN TIME: 0 days 0 hours 0 minutes 5 seconds 921 msec
