                         Program Version 6.0.0  -   RELEASE  -
|  1> ! pbe def2-sv(p) def2/J RI DEFGRID1 loosescf d4 GCP(DFT/SV(P)) printgap
|  2> %output
|  3>     printlevel normal
|  4> end
|  5> * xyz 0 1
|  6> C 1.4436778152 0.96852478 0.0208946055
|  7> C 0.7624231832 -0.3695619588 -0.0038906839
|  8> O 1.4053276933 -1.4110065965 -0.0177345135
|  9> C -0.7112605056 -0.4128064624 -0.0144022496
| 10> C -1.555265052 0.5876021711 0.7479171475
| 11> C -1.5465436217 0.6255788955 -0.7338095945
| 12> H 1.1737020474 1.5412673098 -0.8621639986
| 13> H 1.1391049521 1.5298070325 0.8997505001
| 14> H 2.5200939556 0.8220172585 0.039938061
| 15> H -1.07694673 -1.4332237279 -0.0414475533
| 16> H -2.4239391204 0.1973627697 1.2543230943
| 17> H -1.0479799456 1.369142714 1.289279721
| 18> H -2.4094739596 0.2625134847 -1.269420918
| 19> H -1.0330170815 1.4338638571 -1.2278616295
| 20> *
| 21>
| 22>                          ****END OF INPUT****

CARTESIAN COORDINATES (ANGSTROEM)
---------------------------------
  C      1.443678    0.968525    0.020895
  C      0.762423   -0.369562   -0.003891
  O      1.405328   -1.411007   -0.017735
  C     -0.711261   -0.412806   -0.014402
  C     -1.555265    0.587602    0.747917
  C     -1.546544    0.625579   -0.733810
  H      1.173702    1.541267   -0.862164
  H      1.139105    1.529807    0.899751
  H      2.520094    0.822017    0.039938
  H     -1.076947   -1.433224   -0.041448
  H     -2.423939    0.197363    1.254323
  H     -1.047980    1.369143    1.289280
  H     -2.409474    0.262513   -1.269421
  H     -1.033017    1.433864   -1.227862

 Total Charge           Charge          ....    0
 Multiplicity           Mult            ....    1
 Number of Electrons    NEL             ....   46
 Basis Dimension        Dim             ....  100

ORBITAL ENERGIES
----------------

  NO   OCC          E(Eh)            E(eV)
   0   2.0000     -18.726949      -509.5862
   1   2.0000      -9.969377      -271.2805
   2   2.0000      -9.911916      -269.7169
   3   2.0000      -9.911818      -269.7143
   4   2.0000      -9.909852      -269.6608
   5   2.0000      -9.886668      -269.0299
   6   2.0000      -0.923901       -25.1406
   7   2.0000      -0.801497       -21.8098
   8   2.0000      -0.670983       -18.2584
   9   2.0000      -0.582222       -15.8431
  10   2.0000      -0.554088       -15.0775
  11   2.0000      -0.487065       -13.2537
  12   2.0000      -0.452257       -12.3065
  13   2.0000      -0.432473       -11.7682
  14   2.0000      -0.400826       -10.9070
  15   2.0000      -0.374455       -10.1894
  16   2.0000      -0.354411        -9.6440
  17   2.0000      -0.338681        -9.2160
  18   2.0000      -0.331683        -9.0256
  19   2.0000      -0.322873        -8.7858
  20   2.0000      -0.288232        -7.8432
  21   2.0000      -0.265113        -7.2141
  22   2.0000      -0.189826        -5.1654
  23   0.0000      -0.046063        -1.2534
  24   0.0000       0.030788         0.8378
  25   0.0000       0.037514         1.0208
  26   0.0000       0.066742         1.8161
  27   0.0000       0.096409         2.6234

MULLIKEN ATOMIC CHARGES
-----------------------
   0 C :   -0.294051
   1 C :    0.062513
   2 O :   -0.178648
   3 C :   -0.174113
   4 C :   -0.194072
   5 C :   -0.191988
   6 H :    0.128894
   7 H :    0.127932
   8 H :    0.119897
   9 H :    0.098883
  10 H :    0.124412
  11 H :    0.123280
  12 H :    0.124455
  13 H :    0.122605
Sum of atomic charges:   -0.0000000

LOEWDIN ATOMIC CHARGES
----------------------
   0 C :   -0.364388
   1 C :    0.043016
   2 O :   -0.145034
   3 C :   -0.165805
   4 C :   -0.222908
   5 C :   -0.223217
   6 H :    0.139865
   7 H :    0.138945
   8 H :    0.137999
   9 H :    0.136264
  10 H :    0.134760
  11 H :    0.127826
  12 H :    0.134778
  13 H :    0.127898

  Mayer bond orders larger than 0.100000
B(  0-C ,  1-C ) :   1.0814 B(  0-C ,  6-H ) :   0.9193 B(  0-C ,  7-H ) :   0.9203
B(  0-C ,  8-H ) :   0.9315 B(  1-C ,  2-O ) :   2.1533 B(  1-C ,  3-C ) :   1.0356
B(  3-C ,  4-C ) :   0.9447 B(  3-C ,  5-C ) :   0.9456 B(  3-C ,  9-H ) :   0.9102
B(  4-C ,  5-C ) :   1.0802 B(  4-C , 10-H ) :   0.9253 B(  4-C , 11-H ) :   0.9257
B(  5-C , 12-H ) :   0.9253 B(  5-C , 13-H ) :   0.9252

Dispersion correction           -0.010266361
FINAL SINGLE POINT ENERGY      -269.931118074317

DIPOLE MOMENT
-------------

Method             : SCF
Type of density    : Electron Density
Multiplicity       :   1
Irrep              :   0
Energy             :  -269.9775022752181712 Eh
Relativity type    :
Basis              : AO
                                X                 Y                 Z
Electronic contribution:      2.201065113      -4.395662531      -0.066454512
Nuclear contribution   :     -2.942299466       5.347967514       0.077039428
                        -----------------------------------------
Total Dipole Moment    :     -0.741234352       0.952304983       0.010584916
                        -----------------------------------------
Magnitude (a.u.)       :      1.206824422
Magnitude (Debye)      :      3.067503902

Rotational constants in cm-1:             0.221000             0.091130             0.077000
Rotational constants in MHz :          6625.419062          2731.998931          2308.389818

                             ****ORCA TERMINATED NORMALLY****
TOTAL RUN TIME: 0 days 0 hours 0 minutes 6 seconds 524 msec
