                         Program Version 6.0.0  -   RELEASE  -
|  1> ! r2scan-3c def2/J RI DEFGRID2 scfconv6 printgap
|  2> %output
|  3>     printlevel normal
|  4> end
|  5> * xyz 0 1
|  6> C -1.0393413597 0.7707783377 -0.0899285707
|  7> C -1.0369778235 -0.7698785592 -0.1090474241
|  8> C 0.4132793185 -1.1515262105 0.2101441574
|  9> N 1.1687003617 -0.0034936837 -0.2614049042
| 10> C 0.4186624412 1.1534408473 0.1980682645
| 11> H -1.7069185546 1.169796594 0.6711601324
| 12> H -1.3478220198 1.1629930173 -1.0566209894
| 13> H -1.7266462252 -1.1920150869 0.6189472694
| 14> H -1.3103684261 -1.1372988319 -1.0959801058
| 15> H 0.5289376913 -1.3136949373 1.2961473532
| 16> H 0.7388414055 -2.0525240831 -0.3109348204
| 17> H 2.1217111399 -0.0032077645 0.0837970323
| 18> H 0.5518731418 1.3375169249 1.2783525661
| 19> H 0.7378579122 2.0434467471 -0.3455778153
| 20> *
| 21>
| 22>                          ****END OF INPUT****

CARTESIAN COORDINATES (ANGSTROEM)
---------------------------------
  C     -1.039341    0.770778   -0.089929
  C     -1.036978   -0.769879   -0.109047
  C      0.413279   -1.151526    0.210144
  N      1.168700   -0.003494   -0.261405
  C      0.418662    1.153441    0.198068
  H     -1.706919    1.169797    0.671160
  H     -1.347822    1.162993   -1.056621
  H     -1.726646   -1.192015    0.618947
  H     -1.310368   -1.137299   -1.095980
  H      0.528938   -1.313695    1.296147
  H      0.738841   -2.052524   -0.310935
  H      2.121711   -0.003208    0.083797
  H      0.551873    1.337517    1.278353
  H      0.737858    2.043447   -0.345578

 Total Charge           Charge          ....    0
 Multiplicity           Mult            ....    1
 Number of Electrons    NEL             ....   40
 Basis Dimension        Dim             ....  145

ORBITAL ENERGIES
----------------

  NO   OCC          E(Eh)            E(eV)
   0   2.0000     -14.136528      -384.6745
   1   2.0000     -10.045287      -273.3462
   2   2.0000     -10.045275      -273.3458
   3   2.0000     -10.022489      -272.7258
   4   2.0000     -10.022324      -272.7213
   5   2.0000      -0.881224       -23.9793
   6   2.0000      -0.723508       -19.6877
   7   2.0000      -0.683684       -18.6040
   8   2.0000      -0.553225       -15.0540
   9   2.0000      -0.537493       -14.6259
  10   2.0000      -0.478609       -13.0236
  11   2.0000      -0.450117       -12.2483
  12   2.0000      -0.395900       -10.7730
  13   2.0000      -0.363822        -9.9001
  14   2.0000      -0.337668        -9.1884
  15   2.0000      -0.337397        -9.1810
  16   2.0000      -0.309811        -8.4304
  17   2.0000      -0.307847        -8.3769
  18   2.0000      -0.283952        -7.7267
  19   2.0000      -0.188676        -5.1341
  20   0.0000       0.071271         1.9394
  21   0.0000       0.106854         2.9077
  22   0.0000       0.121568         3.3080
  23   0.0000       0.124102         3.3770
  24   0.0000       0.134929         3.6716

MULLIKEN ATOMIC CHARGES
-----------------------
   0 C :   -0.273989
   1 C :   -0.292405
   2 C :   -0.224209
   3 N :   -0.331031
   4 C :   -0.244550
   5 H :    0.148036
   6 H :    0.152533
   7 H :    0.148370
   8 H :    0.153196
   9 H :    0.124509
  10 H :    0.143900
  11 H :    0.226231
  12 H :    0.124905
  13 H :    0.144503
Sum of atomic charges:   -0.0000000

LOEWDIN ATOMIC CHARGES
----------------------
   0 C :   -0.267536
   1 C :   -0.266774
   2 C :   -0.061092
   3 N :   -0.862664
   4 C :   -0.061400
   5 H :    0.155759
   6 H :    0.159086
   7 H :    0.155646
   8 H :    0.159139
   9 H :    0.150463
  10 H :    0.171029
  11 H :    0.247119
  12 H :    0.150443
  13 H :    0.170780

  Mayer bond orders larger than 0.100000
B(  0-C ,  1-C ) :   0.9393 B(  0-C ,  4-C ) :   0.9428 B(  0-C ,  5-H ) :   0.9931
B(  0-C ,  6-H ) :   0.9620 B(  1-C ,  2-C ) :   0.9489 B(  1-C ,  7-H ) :   0.9957
B(  1-C ,  8-H ) :   0.9610 B(  2-C ,  3-N ) :   0.9396 B(  2-C ,  9-H ) :   0.9773
B(  2-C , 10-H ) :   0.9551 B(  3-N ,  4-C ) :   0.9663 B(  3-N , 11-H ) :   0.9056
B(  4-C , 12-H ) :   0.9798 B(  4-C , 13-H ) :   0.9560

Dispersion correction           -0.003169290
FINAL SINGLE POINT ENERGY      -212.510551602834

DIPOLE MOMENT
-------------

Method             : SCF
Type of density    : Electron Density
Multiplicity       :   1
Irrep              :   0
Energy             :  -212.5173555249737376 Eh
Relativity type    :
Basis              : AO
                                X                 Y                 Z
Electronic contribution:      1.311200029      -0.012681526      -0.695253773
Nuclear contribution   :     -1.318762619       0.014065139       1.067410760
                        -----------------------------------------
Total Dipole Moment    :     -0.007562590       0.001383613       0.372156987
                        -----------------------------------------
Magnitude (a.u.)       :      0.372236390
Magnitude (Debye)      :      0.946149712

Rotational constants in cm-1:             0.232490             0.228271             0.131068
Rotational constants in MHz :          6969.872012          6843.402758          3929.320890

                             ****ORCA TERMINATED NORMALLY****
TOTAL RUN TIME: 0 days 0 hours 0 minutes 11 seconds 84 msec
