                         Program Version 6.0.0  -   RELEASE  -
|  1> ! r2scan-3c def2/J RI DEFGRID2 scfconv6 printgap
|  2> %output
|  3>     printlevel normal
|  4> end
|  5> %cpcm
|  6>     smd true
|  7>     smdsolvent "water"
|  8> end
|  9> * xyz 0 1
| 10> C -1.0393413597 0.7707783377 -0.0899285707
| 11> C -1.0369778235 -0.7698785592 -0.1090474241
| 12> C 0.4132793185 -1.1515262105 0.2101441574
| 13> N 1.1687003617 -0.0034936837 -0.2614049042
| 14> C 0.4186624412 1.1534408473 0.1980682645
| 15> H -1.7069185546 1.169796594 0.6711601324
| 16> H -1.3478220198 1.1629930173 -1.0566209894
| 17> H -1.7266462252 -1.1920150869 0.6189472694
| 18> H -1.3103684261 -1.1372988319 -1.0959801058
| 19> H 0.5289376913 -1.3136949373 1.2961473532
| 20> H 0.7388414055 -2.0525240831 -0.3109348204
| 21> H 2.1217111399 -0.0032077645 0.0837970323
| 22> H 0.5518731418 1.3375169249 1.2783525661
| 23> H 0.7378579122 2.0434467471 -0.3455778153
| 24> *
| 25>
| 26>                          ****END OF INPUT****

CARTESIAN COORDINATES (ANGSTROEM)
---------------------------------
  C     -1.039341    0.770778   -0.089929
  C     -1.036978   -0.769879   -0.109047
  C      0.413279   -1.151526    0.210144
  N      1.168700   -0.003494   -0.261405
  C      0.418662    1.153441    0.198068
  H     -1.706919    1.169797    0.671160
  H     -1.347822    1.162993   -1.056621
  H     -1.726646   -1.192015    0.618947
  H     -1.310368   -1.137299   -1.095980
  H      0.528938   -1.313695    1.296147
  H      0.738841   -2.052524   -0.310935
  H      2.121711   -0.003208    0.083797
  H      0.551873    1.337517    1.278353
  H      0.737858    2.043447   -0.345578

 Total Charge           Charge          ....    0
 Multiplicity           Mult            ....    1
 Number of Electrons    NEL             ....   40
 Basis Dimension        Dim             ....  145

ORBITAL ENERGIES
----------------

  NO   OCC          E(Eh)            E(eV)
   0   2.0000     -14.132879      -384.5752
   1   2.0000     -10.039433      -273.1869
   2   2.0000     -10.039413      -273.1863
   3   2.0000     -10.015665      -272.5401
   4   2.0000     -10.015550      -272.5370
   5   2.0000      -0.877096       -23.8670
   6   2.0000      -0.717830       -19.5332
   7   2.0000      -0.678383       -18.4597
   8   2.0000      -0.547421       -14.8961
   9   2.0000      -0.531730       -14.4691
  10   2.0000      -0.472918       -12.8688
  11   2.0000      -0.445023       -12.1097
  12   2.0000      -0.390649       -10.6301
  13   2.0000      -0.358293        -9.7496
  14   2.0000      -0.332066        -9.0360
  15   2.0000      -0.331667        -9.0251
  16   2.0000      -0.303829        -8.2676
  17   2.0000      -0.301752        -8.2111
  18   2.0000      -0.277358        -7.5473
  19   2.0000      -0.189463        -5.1555
  20   0.0000       0.079589         2.1657
  21   0.0000       0.112971         3.0741
  22   0.0000       0.127210         3.4616
  23   0.0000       0.129951         3.5362
  24   0.0000       0.141983         3.8636

MULLIKEN ATOMIC CHARGES
-----------------------
   0 C :   -0.295791
   1 C :   -0.317354
   2 C :   -0.241589
   3 N :   -0.392247
   4 C :   -0.263055
   5 H :    0.162210
   6 H :    0.164264
   7 H :    0.162562
   8 H :    0.164778
   9 H :    0.135890
  10 H :    0.155770
  11 H :    0.272325
  12 H :    0.136282
  13 H :    0.155955
Sum of atomic charges:    0.0000000

LOEWDIN ATOMIC CHARGES
----------------------
   0 C :   -0.272863
   1 C :   -0.272149
   2 C :   -0.063663
   3 N :   -0.883579
   4 C :   -0.063985
   5 H :    0.160511
   6 H :    0.160120
   7 H :    0.160433
   8 H :    0.159871
   9 H :    0.155839
  10 H :    0.173342
  11 H :    0.257306
  12 H :    0.155839
  13 H :    0.172978

  Mayer bond orders larger than 0.100000
B(  0-C ,  1-C ) :   0.9133 B(  0-C ,  4-C ) :   0.9247 B(  0-C ,  5-H ) :   0.9862
B(  0-C ,  6-H ) :   0.9683 B(  1-C ,  2-C ) :   0.9298 B(  1-C ,  7-H ) :   0.9883
B(  1-C ,  8-H ) :   0.9685 B(  2-C ,  3-N ) :   0.9453 B(  2-C ,  9-H ) :   0.9748
B(  2-C , 10-H ) :   0.9593 B(  3-N ,  4-C ) :   0.9742 B(  3-N , 11-H ) :   0.8905
B(  4-C , 12-H ) :   0.9777 B(  4-C , 13-H ) :   0.9595

Dispersion correction           -0.003169290
FINAL SINGLE POINT ENERGY      -212.517258512189

DIPOLE MOMENT
-------------

Method             : SCF
Type of density    : Electron Density
Multiplicity       :   1
Irrep              :   0
Energy             :  -212.5240624343287266 Eh
Relativity type    :
Basis              : AO
                                X                 Y                 Z
Electronic contribution:      1.312759162      -0.011906280      -0.502595239
Nuclear contribution   :     -1.318762619       0.014065139       1.067410760
                        -----------------------------------------
Total Dipole Moment    :     -0.006003458       0.002158859       0.564815521
                        -----------------------------------------
Magnitude (a.u.)       :      0.564851552
Magnitude (Debye)      :      1.435738544

Rotational constants in cm-1:             0.232490             0.228271             0.131068
Rotational constants in MHz :          6969.872012          6843.402758          3929.320890

                             ****ORCA TERMINATED NORMALLY****
TOTAL RUN TIME: 0 days 0 hours 0 minutes 14 seconds 660 msec
