                         Program Version 6.0.0  -   RELEASE  -
|  1> ! pbe def2-sv(p) def2/J RI DEFGRID1 loosescf d4 GCP(DFT/SV(P)) printgap
|  2> %output
|  3>     printlevel normal
|  4> end
|  5> * xyz 0 1
|  6> C -3.3334405658 0.4722731882 -0.2238225994
|  7> C -1.8728037469 0.4715878889 0.0781544418
|  8> C -1.1115585938 1.5550714466 0.1744377152
|  9> C 0.3452168042 1.4038403055 0.4702602947
| 10> C 0.9824138563 0.3499018075 -0.4653979922
| 11> H 1.0782692067 0.8162824255 -1.4497382574
| 12> C 0.0814470251 -0.8925499087 -0.6138431586
| 13> C -1.1752591191 -0.8513504836 0.2781716876
| 14> H -0.8622910136 -0.9181736128 1.3360537962
| 15> O -2.0503510382 -1.920340737 -0.0181777972
| 16> C 2.3706589718 0.0133321431 0.0340093943
| 17> C 2.5764646536 -0.7291847235 1.1107645838
| 18> C 3.4980112717 0.6055336079 -0.7537816997
| 19> H -3.8794327092 -0.0140427727 0.5828239171
| 20> H -3.5235264877 -0.0993298742 -1.1305532527
| 21> H -3.6975916072 1.4878947087 -0.3494141316
| 22> H -1.5180488992 2.5454104188 0.0412081801
| 23> H 0.8694341511 2.3527924459 0.3587219677
| 24> H 0.4755194435 1.0703762371 1.5046090766
| 25> H -0.2699668712 -0.9719268761 -1.6445334561
| 26> H 0.6523105716 -1.7947114213 -0.3868206033
| 27> H -1.5789749476 -2.7552205875 0.0975403437
| 28> H 3.5680700634 -0.9486479003 1.4678389262
| 29> H 1.7658034513 -1.1484702563 1.6825109825
| 30> H 3.4802553723 0.2250486632 -1.7742260334
| 31> H 3.3915466271 1.6883166928 -0.8013801812
| 32> H 4.4583935263 0.3658337124 -0.306123208
| 33> *
| 34>
| 35>                          ****END OF INPUT****

CARTESIAN COORDINATES (ANGSTROEM)
---------------------------------
  C     -3.333441    0.472273   -0.223823
  C     -1.872804    0.471588    0.078154
  C     -1.111559    1.555071    0.174438
  C      0.345217    1.403840    0.470260
  C      0.982414    0.349902   -0.465398
  H      1.078269    0.816282   -1.449738
  C      0.081447   -0.892550   -0.613843
  C     -1.175259   -0.851350    0.278172
  H     -0.862291   -0.918174    1.336054
  O     -2.050351   -1.920341   -0.018178
  C      2.370659    0.013332    0.034009
  C      2.576465   -0.729185    1.110765
  C      3.498011    0.605534   -0.753782
  H     -3.879433   -0.014043    0.582824
  H     -3.523526   -0.099330   -1.130553
  H     -3.697592    1.487895   -0.349414
  H     -1.518049    2.545410    0.041208
  H      0.869434    2.352792    0.358722
  H      0.475519    1.070376    1.504609
  H     -0.269967   -0.971927   -1.644533
  H      0.652311   -1.794711   -0.386821
  H     -1.578975   -2.755221    0.097540
  H      3.568070   -0.948648    1.467839
  H      1.765803   -1.148470    1.682511
  H      3.480255    0.225049   -1.774226
  H      3.391547    1.688317   -0.801380
  H      4.458394    0.365834   -0.306123

 Total Charge           Charge          ....    0
 Multiplicity           Mult            ....    1
 Number of Electrons    NEL             ....   84
 Basis Dimension        Dim             ....  186

ORBITAL ENERGIES
----------------

  NO   OCC          E(Eh)            E(eV)
   0   2.0000     -18.745499      -510.0910
   1   2.0000      -9.939392      -270.4646
   2   2.0000      -9.899899      -269.3899
   3   2.0000      -9.898354      -269.3479
   4   2.0000      -9.887587      -269.0549
   5   2.0000      -9.886766      -269.0326
   6   2.0000      -9.884433      -268.9691
   7   2.0000      -9.881510      -268.8895
   8   2.0000      -9.872686      -268.6494
   9   2.0000      -9.870308      -268.5847
  10   2.0000      -9.867969      -268.5211
  11   2.0000      -0.924071       -25.1452
  12   2.0000      -0.765583       -20.8326
  13   2.0000      -0.722615       -19.6633
  14   2.0000      -0.672164       -18.2905
  15   2.0000      -0.654250       -17.8031
  16   2.0000      -0.613710       -16.6999
  17   2.0000      -0.606494       -16.5035
  18   2.0000      -0.556937       -15.1550
  19   2.0000      -0.532281       -14.4841
  20   2.0000      -0.471884       -12.8406
  21   2.0000      -0.469003       -12.7622
  22   2.0000      -0.444003       -12.0819
  23   2.0000      -0.425258       -11.5719
  24   2.0000      -0.409425       -11.1410
  25   2.0000      -0.397278       -10.8105
  26   2.0000      -0.386299       -10.5117
  27   2.0000      -0.375062       -10.2060
  28   2.0000      -0.369171       -10.0456
  29   2.0000      -0.354067        -9.6347
  30   2.0000      -0.346234        -9.4215
  31   2.0000      -0.345222        -9.3940
  32   2.0000      -0.327465        -8.9108
  33   2.0000      -0.323596        -8.8055
  34   2.0000      -0.314797        -8.5661
  35   2.0000      -0.304861        -8.2957
  36   2.0000      -0.290795        -7.9129
  37   2.0000      -0.285354        -7.7649
  38   2.0000      -0.254242        -6.9183
  39   2.0000      -0.222722        -6.0606
  40   2.0000      -0.215018        -5.8509
  41   2.0000      -0.196006        -5.3336
  42   0.0000      -0.019474        -0.5299
  43   0.0000      -0.000600        -0.0163
  44   0.0000       0.027144         0.7386
  45   0.0000       0.034263         0.9323
  46   0.0000       0.059138         1.6092

MULLIKEN ATOMIC CHARGES
-----------------------
   0 C :   -0.181716
   1 C :   -0.097038
   2 C :   -0.202535
   3 C :   -0.015479
   4 C :   -0.147748
   5 H :    0.053689
   6 C :   -0.098881
   7 C :    0.083123
   8 H :    0.067924
   9 O :   -0.410659
  10 C :   -0.045597
  11 C :   -0.247526
  12 C :   -0.211652
  13 H :    0.107922
  14 H :    0.111976
  15 H :    0.091120
  16 H :    0.039400
  17 H :    0.076542
  18 H :    0.088718
  19 H :    0.077979
  20 H :    0.076012
  21 H :    0.300594
  22 H :    0.083385
  23 H :    0.084957
  24 H :    0.110625
  25 H :    0.109147
  26 H :    0.095717
Sum of atomic charges:    0.0000000

LOEWDIN ATOMIC CHARGES
----------------------
   0 C :   -0.319905
   1 C :   -0.064843
   2 C :   -0.164119
   3 C :   -0.206339
   4 C :   -0.125604
   5 H :    0.120522
   6 C :   -0.223961
   7 C :   -0.040917
   8 H :    0.104585
   9 O :   -0.320236
  10 C :   -0.046196
  11 C :   -0.275289
  12 C :   -0.321452
  13 H :    0.131619
  14 H :    0.132313
  15 H :    0.120667
  16 H :    0.116092
  17 H :    0.121571
  18 H :    0.126628
  19 H :    0.122886
  20 H :    0.114585
  21 H :    0.286672
  22 H :    0.118490
  23 H :    0.112911
  24 H :    0.129018
  25 H :    0.127915
  26 H :    0.122390

  Mayer bond orders larger than 0.100000
B(  0-C ,  1-C ) :   1.1535 B(  0-C , 13-H ) :   0.9263 B(  0-C , 14-H ) :   0.9241
B(  0-C , 15-H ) :   0.9396 B(  1-C ,  2-C ) :   1.8789 B(  1-C ,  7-C ) :   1.0219
B(  2-C ,  3-C ) :   1.0821 B(  2-C , 16-H ) :   0.9480 B(  3-C ,  4-C ) :   1.1153
B(  3-C , 17-H ) :   0.9089 B(  3-C , 18-H ) :   0.8691 B(  4-C ,  5-H ) :   0.8833
B(  4-C ,  6-C ) :   1.0565 B(  4-C , 10-C ) :   0.9776 B(  6-C ,  7-C ) :   1.1113
B(  6-C , 19-H ) :   0.8927 B(  6-C , 20-H ) :   0.9030 B(  7-C ,  8-H ) :   0.8690
B(  7-C ,  9-O ) :   1.0975 B(  9-O , 21-H ) :   0.8485 B( 10-C , 11-C ) :   2.0398
B( 10-C , 12-C ) :   1.1345 B( 11-C , 22-H ) :   0.9039 B( 11-C , 23-H ) :   0.9026
B( 12-C , 24-H ) :   0.9273 B( 12-C , 25-H ) :   0.9292 B( 12-C , 26-H ) :   0.9411

Dispersion correction           -0.028414024
FINAL SINGLE POINT ENERGY      -464.784232945566

DIPOLE MOMENT
-------------

Method             : SCF
Type of density    : Electron Density
Multiplicity       :   1
Irrep              :   0
Energy             :  -464.8741175433957551 Eh
Relativity type    :
Basis              : AO
                                X                 Y                 Z
Electronic contribution:     -3.672868181      -1.891477483       0.679219175
Nuclear contribution   :      4.106694378       1.755383591      -0.724048096
                        -----------------------------------------
Total Dipole Moment    :      0.433826197      -0.136093892      -0.044828921
                        -----------------------------------------
Magnitude (a.u.)       :      0.456876733
Magnitude (Debye)      :      1.161288365

Rotational constants in cm-1:             0.072596             0.022565             0.019306
Rotational constants in MHz :          2176.374631           676.493881           578.780773

                             ****ORCA TERMINATED NORMALLY****
TOTAL RUN TIME: 0 days 0 hours 0 minutes 12 seconds 259 msec
