                         Program Version 6.0.0  -   RELEASE  -
|  1> ! wb97x-v def2-tzvp def2/J RIJCOSX DEFGRID2 scfconv7 GCP(DFT/TZ) printgap
|  2> %output
|  3>     printlevel normal
|  4> end
|  5> * xyz 0 1
|  6> C -1.9669169620412588 -0.18275801314485093 0.5131146556087812
|  7> C -1.1771328643026329 -0.16953285527891673 -0.7903732602275342
|  8> C 0.09406514178480987 0.6448592257159673 -0.7355798693519362
|  9> Cl 1.3208127799101497 -0.07934354817748751 0.4468670297620941
| 10> H -1.4010323604758217 -0.6669567461507993 1.3147655164615473
| 11> H -2.2063415875785997 0.8369656121913611 0.8339570618011967
| 12> H -2.9067275257903726 -0.7285136389811174 0.3889291232156868
| 13> H -0.9481870460238906 -1.189934251398326 -1.1170832765449215
| 14> H -1.7826439281117021 0.2873610895348277 -1.5854245666210958
| 15> H -0.08320515281214962 1.6618998013955146 -0.3792811664690852
| 16> H 0.6080572578712189 0.6724733002139307 -1.697157837936962
| 17> *
| 18>
| 19>                          ****END OF INPUT****

CARTESIAN COORDINATES (ANGSTROEM)
---------------------------------
  C     -1.966917   -0.182758    0.513115
  C     -1.177133   -0.169533   -0.790373
  C      0.094065    0.644859   -0.735580
  Cl     1.320813   -0.079344    0.446867
  H     -1.401032   -0.666957    1.314766
  H     -2.206342    0.836966    0.833957
  H     -2.906728   -0.728514    0.388929
  H     -0.948187   -1.189934   -1.117083
  H     -1.782644    0.287361   -1.585425
  H     -0.083205    1.661900   -0.379281
  H      0.608057    0.672473   -1.697158

 Total Charge           Charge          ....    0
 Multiplicity           Mult            ....    1
 Number of Electrons    NEL             ....   42
 Basis Dimension        Dim             ....  172

ORBITAL ENERGIES
----------------

  NO   OCC          E(Eh)            E(eV)
   0   2.0000    -107.122037     -2914.9388
   1   2.0000     -12.111083      -329.5593
   2   2.0000     -12.060311      -328.1777
   3   2.0000     -12.041288      -327.6601
   4   2.0000     -11.275129      -306.8118
   5   2.0000      -9.066486      -246.7116
   6   2.0000      -9.063915      -246.6417
   7   2.0000      -9.063890      -246.6410
   8   2.0000      -1.385128       -37.6912
   9   2.0000      -1.293615       -35.2011
  10   2.0000      -1.182356       -32.1736
  11   2.0000      -1.071482       -29.1565
  12   2.0000      -0.909522       -24.7494
  13   2.0000      -0.901152       -24.5216
  14   2.0000      -0.876451       -23.8494
  15   2.0000      -0.841013       -22.8851
  16   2.0000      -0.817162       -22.2361
  17   2.0000      -0.796950       -21.6861
  18   2.0000      -0.774264       -21.0688
  19   2.0000      -0.760930       -20.7059
  20   2.0000      -0.756000       -20.5718
  21   0.0000      -0.260128        -7.0785
  22   0.0000      -0.026046        -0.7087
  23   0.0000      -0.023739        -0.6460
  24   0.0000      -0.004714        -0.1283
  25   0.0000       0.013682         0.3723

MULLIKEN ATOMIC CHARGES
-----------------------
   0 C :   -0.344861
   1 C :   -0.157696
   2 C :   -0.114486
   3 Cl:   -0.187999
   4 H :    0.127451
   5 H :    0.102107
   6 H :    0.115775
   7 H :    0.107089
   8 H :    0.095568
   9 H :    0.122665
  10 H :    0.134387
Sum of atomic charges:    0.0000000

LOEWDIN ATOMIC CHARGES
----------------------
   0 C :   -0.309238
   1 C :   -0.324567
   2 C :   -0.438718
   3 Cl:    0.197628
   4 H :    0.119253
   5 H :    0.117274
   6 H :    0.118218
   7 H :    0.136213
   8 H :    0.140358
   9 H :    0.122096
  10 H :    0.121482

  Mayer bond orders larger than 0.100000
B(  0-C ,  1-C ) :   0.9878 B(  0-C ,  4-H ) :   0.9740 B(  0-C ,  5-H ) :   0.9760
B(  0-C ,  6-H ) :   0.9790 B(  1-C ,  2-C ) :   0.9999 B(  1-C ,  7-H ) :   0.9697
B(  1-C ,  8-H ) :   0.9572 B(  2-C ,  3-Cl) :   1.0331 B(  2-C ,  9-H ) :   0.9696
B(  2-C , 10-H ) :   0.9717

FINAL SINGLE POINT ENERGY      -578.685887245438

DIPOLE MOMENT
-------------

Method             : SCF
Type of density    : Electron Density
Multiplicity       :   1
Irrep              :   0
Energy             :  -578.6932834240384409 Eh
Relativity type    :
Basis              : AO
                                X                 Y                 Z
Electronic contribution:      9.376528601      -0.557041193       2.255426126
Nuclear contribution   :    -10.047151241       0.820600485      -2.796874508
                        -----------------------------------------
Total Dipole Moment    :     -0.670622640       0.263559292      -0.541448382
                        -----------------------------------------
Magnitude (a.u.)       :      0.901312696
Magnitude (Debye)      :      2.290954808

Rotational constants in cm-1:             0.389503             0.107694             0.092571
Rotational constants in MHz :         11676.996946          3228.592281          2775.197252

                             ****ORCA TERMINATED NORMALLY****
TOTAL RUN TIME: 0 days 0 hours 0 minutes 47 seconds 127 msec
