                         Program Version 6.0.0  -   RELEASE  -
|  1> ! wb97x-v def2-tzvp def2/J RIJCOSX DEFGRID2 scfconv7 GCP(DFT/TZ) printgap
|  2> %output
|  3>     printlevel normal
|  4> end
|  5> %cpcm
|  6>     smd true
|  7>     smdsolvent "water"
|  8> end
|  9> * xyz 0 1
| 10> C -1.9669169620412588 -0.18275801314485093 0.5131146556087812
| 11> C -1.1771328643026329 -0.16953285527891673 -0.7903732602275342
| 12> C 0.09406514178480987 0.6448592257159673 -0.7355798693519362
| 13> Cl 1.3208127799101497 -0.07934354817748751 0.4468670297620941
| 14> H -1.4010323604758217 -0.6669567461507993 1.3147655164615473
| 15> H -2.2063415875785997 0.8369656121913611 0.8339570618011967
| 16> H -2.9067275257903726 -0.7285136389811174 0.3889291232156868
| 17> H -0.9481870460238906 -1.189934251398326 -1.1170832765449215
| 18> H -1.7826439281117021 0.2873610895348277 -1.5854245666210958
| 19> H -0.08320515281214962 1.6618998013955146 -0.3792811664690852
| 20> H 0.6080572578712189 0.6724733002139307 -1.697157837936962
| 21> *
| 22>
| 23>                          ****END OF INPUT****

CARTESIAN COORDINATES (ANGSTROEM)
---------------------------------
  C     -1.966917   -0.182758    0.513115
  C     -1.177133   -0.169533   -0.790373
  C      0.094065    0.644859   -0.735580
  Cl     1.320813   -0.079344    0.446867
  H     -1.401032   -0.666957    1.314766
  H     -2.206342    0.836966    0.833957
  H     -2.906728   -0.728514    0.388929
  H     -0.948187   -1.189934   -1.117083
  H     -1.782644    0.287361   -1.585425
  H     -0.083205    1.661900   -0.379281
  H      0.608057    0.672473   -1.697158

 Total Charge           Charge          ....    0
 Multiplicity           Mult            ....    1
 Number of Electrons    NEL             ....   42
 Basis Dimension        Dim             ....  172

ORBITAL ENERGIES
----------------

  NO   OCC          E(Eh)            E(eV)
   0   2.0000    -107.122237     -2914.9443
   1   2.0000     -12.098093      -329.2058
   2   2.0000     -12.044507      -327.7477
   3   2.0000     -12.028043      -327.2997
   4   2.0000     -11.275560      -306.8236
   5   2.0000      -9.066852      -246.7216
   6   2.0000      -9.064463      -246.6566
   7   2.0000      -9.064439      -246.6559
   8   2.0000      -1.383178       -37.6382
   9   2.0000      -1.281212       -34.8635
  10   2.0000      -1.169979       -31.8367
  11   2.0000      -1.057919       -28.7874
  12   2.0000      -0.896222       -24.3875
  13   2.0000      -0.889169       -24.1955
  14   2.0000      -0.865473       -23.5507
  15   2.0000      -0.831174       -22.6174
  16   2.0000      -0.805341       -21.9145
  17   2.0000      -0.786345       -21.3975
  18   2.0000      -0.761791       -20.7294
  19   2.0000      -0.758994       -20.6533
  20   2.0000      -0.752318       -20.4716
  21   0.0000      -0.252174        -6.8620
  22   0.0000      -0.012636        -0.3438
  23   0.0000      -0.006781        -0.1845
  24   0.0000       0.010214         0.2779
  25   0.0000       0.030481         0.8294

MULLIKEN ATOMIC CHARGES
-----------------------
   0 C :   -0.389550
   1 C :   -0.164774
   2 C :   -0.131773
   3 Cl:   -0.241169
   4 H :    0.119856
   5 H :    0.123344
   6 H :    0.132898
   7 H :    0.115370
   8 H :    0.119328
   9 H :    0.153232
  10 H :    0.163238
Sum of atomic charges:    0.0000000

LOEWDIN ATOMIC CHARGES
----------------------
   0 C :   -0.316226
   1 C :   -0.321449
   2 C :   -0.427807
   3 Cl:    0.161953
   4 H :    0.114875
   5 H :    0.121076
   6 H :    0.121236
   7 H :    0.137577
   8 H :    0.148850
   9 H :    0.130367
  10 H :    0.129549

  Mayer bond orders larger than 0.100000
B(  0-C ,  1-C ) :   0.9800 B(  0-C ,  4-H ) :   0.9740 B(  0-C ,  5-H ) :   0.9747
B(  0-C ,  6-H ) :   0.9772 B(  1-C ,  2-C ) :   1.0015 B(  1-C ,  7-H ) :   0.9693
B(  1-C ,  8-H ) :   0.9534 B(  2-C ,  3-Cl) :   0.9854 B(  2-C ,  9-H ) :   0.9654
B(  2-C , 10-H ) :   0.9656

FINAL SINGLE POINT ENERGY      -578.687928370885

DIPOLE MOMENT
-------------

Method             : SCF
Type of density    : Electron Density
Multiplicity       :   1
Irrep              :   0
Energy             :  -578.6953245494853491 Eh
Relativity type    :
Basis              : AO
                                X                 Y                 Z
Electronic contribution:      9.177427956      -0.419451486       2.026658403
Nuclear contribution   :    -10.047151241       0.820600485      -2.796874508
                        -----------------------------------------
Total Dipole Moment    :     -0.869723285       0.401148999      -0.770216105
                        -----------------------------------------
Magnitude (a.u.)       :      1.229053278
Magnitude (Debye)      :      3.124005164

Rotational constants in cm-1:             0.389503             0.107694             0.092571
Rotational constants in MHz :         11676.996946          3228.592281          2775.197252

                             ****ORCA TERMINATED NORMALLY****
TOTAL RUN TIME: 0 days 0 hours 0 minutes 49 seconds 785 msec
