                         Program Version 6.0.0  -   RELEASE  -
|  1> ! pbe def2-sv(p) def2/J RI DEFGRID1 loosescf d4 GCP(DFT/SV(P)) printgap
|  2> %output
|  3>     printlevel normal
|  4> end
|  5> * xyz 0 1
|  6> C -3.4196462333 -0.011198496 0.1722674957
|  7> O -2.2125048123 0.2115125649 -0.5627020575
|  8> C -1.0484406316 -0.0718447946 0.0194001599
|  9> O -0.9662234886 -0.5104582884 1.1466502282
| 10> C 0.0955649309 0.2520988993 -0.9139646211
| 11> C 1.0111933293 -0.9605729036 -1.1351708565
| 12> C 1.8304788943 -1.2994524229 0.10613049
| 13> C 2.6472061671 -0.0911713054 0.5521391858
| 14> C 1.715013995 1.0764489387 0.8586598124
| 15> C 0.9037181432 1.4457221952 -0.378718722
| 16> H -3.8054093229 -1.0017429377 -0.0676668757
| 17> H -4.1182369184 0.7574727159 -0.1460820794
| 18> H -3.220813823 0.0552059749 1.2425019378
| 19> H -0.3637968086 0.5346204468 -1.8663122833
| 20> H 0.4096606134 -1.8222478836 -1.4322405864
| 21> H 1.6876869661 -0.7202620212 -1.9577490947
| 22> H 1.1590643347 -1.5970763439 0.9133699332
| 23> H 2.4898497726 -2.140746822 -0.1143442289
| 24> H 3.229494029 -0.3442056029 1.4393394849
| 25> H 3.3426770007 0.1941902616 -0.2405485564
| 26> H 1.0387236874 0.792022756 1.6671884927
| 27> H 2.2904211067 1.9436755656 1.1871703332
| 28> H 0.2268641825 2.2725602806 -0.1530118471
| 29> H 1.5824176843 1.7699065153 -1.1699218684
| 30> *
| 31>
| 32>                          ****END OF INPUT****

CARTESIAN COORDINATES (ANGSTROEM)
---------------------------------
  C     -3.419646   -0.011198    0.172267
  O     -2.212505    0.211513   -0.562702
  C     -1.048441   -0.071845    0.019400
  O     -0.966223   -0.510458    1.146650
  C      0.095565    0.252099   -0.913965
  C      1.011193   -0.960573   -1.135171
  C      1.830479   -1.299452    0.106130
  C      2.647206   -0.091171    0.552139
  C      1.715014    1.076449    0.858660
  C      0.903718    1.445722   -0.378719
  H     -3.805409   -1.001743   -0.067667
  H     -4.118237    0.757473   -0.146082
  H     -3.220814    0.055206    1.242502
  H     -0.363797    0.534620   -1.866312
  H      0.409661   -1.822248   -1.432241
  H      1.687687   -0.720262   -1.957749
  H      1.159064   -1.597076    0.913370
  H      2.489850   -2.140747   -0.114344
  H      3.229494   -0.344206    1.439339
  H      3.342677    0.194190   -0.240549
  H      1.038724    0.792023    1.667188
  H      2.290421    1.943676    1.187170
  H      0.226864    2.272560   -0.153012
  H      1.582418    1.769907   -1.169922

 Total Charge           Charge          ....    0
 Multiplicity           Mult            ....    1
 Number of Electrons    NEL             ....   78
 Basis Dimension        Dim             ....  168

ORBITAL ENERGIES
----------------

  NO   OCC          E(Eh)            E(eV)
   0   2.0000     -18.797982      -511.5191
   1   2.0000     -18.737287      -509.8675
   2   2.0000     -10.005084      -272.2522
   3   2.0000      -9.939891      -270.4782
   4   2.0000      -9.902302      -269.4553
   5   2.0000      -9.889158      -269.0977
   6   2.0000      -9.887607      -269.0555
   7   2.0000      -9.875776      -268.7335
   8   2.0000      -9.874657      -268.7031
   9   2.0000      -9.872898      -268.6552
  10   2.0000      -1.005240       -27.3540
  11   2.0000      -0.912404       -24.8278
  12   2.0000      -0.758124       -20.6296
  13   2.0000      -0.691252       -18.8099
  14   2.0000      -0.665083       -18.0978
  15   2.0000      -0.650878       -17.7113
  16   2.0000      -0.557393       -15.1674
  17   2.0000      -0.539927       -14.6922
  18   2.0000      -0.510362       -13.8877
  19   2.0000      -0.494010       -13.4427
  20   2.0000      -0.437395       -11.9021
  21   2.0000      -0.435447       -11.8491
  22   2.0000      -0.428785       -11.6678
  23   2.0000      -0.412334       -11.2202
  24   2.0000      -0.396715       -10.7952
  25   2.0000      -0.388135       -10.5617
  26   2.0000      -0.376036       -10.2325
  27   2.0000      -0.353386        -9.6161
  28   2.0000      -0.333460        -9.0739
  29   2.0000      -0.333148        -9.0654
  30   2.0000      -0.328368        -8.9353
  31   2.0000      -0.324663        -8.8345
  32   2.0000      -0.298032        -8.1099
  33   2.0000      -0.295961        -8.0535
  34   2.0000      -0.283448        -7.7130
  35   2.0000      -0.258951        -7.0464
  36   2.0000      -0.258180        -7.0254
  37   2.0000      -0.257013        -6.9937
  38   2.0000      -0.215314        -5.8590
  39   0.0000      -0.020324        -0.5531
  40   0.0000       0.033320         0.9067
  41   0.0000       0.054759         1.4901
  42   0.0000       0.064825         1.7640
  43   0.0000       0.076931         2.0934

MULLIKEN ATOMIC CHARGES
-----------------------
   0 C :   -0.125058
   1 O :   -0.239804
   2 C :    0.136651
   3 O :   -0.201820
   4 C :   -0.147631
   5 C :   -0.128249
   6 C :   -0.152521
   7 C :   -0.160575
   8 C :   -0.152605
   9 C :   -0.132971
  10 H :    0.120397
  11 H :    0.122365
  12 H :    0.129218
  13 H :    0.076744
  14 H :    0.088063
  15 H :    0.079600
  16 H :    0.104661
  17 H :    0.079871
  18 H :    0.083827
  19 H :    0.067008
  20 H :    0.101681
  21 H :    0.081033
  22 H :    0.089107
  23 H :    0.081007
Sum of atomic charges:   -0.0000000

LOEWDIN ATOMIC CHARGES
----------------------
   0 C :   -0.208759
   1 O :   -0.072013
   2 C :    0.051785
   3 O :   -0.164815
   4 C :   -0.164959
   5 C :   -0.207011
   6 C :   -0.234612
   7 C :   -0.224375
   8 C :   -0.233799
   9 C :   -0.205892
  10 H :    0.119791
  11 H :    0.120967
  12 H :    0.122519
  13 H :    0.126917
  14 H :    0.118113
  15 H :    0.117353
  16 H :    0.125074
  17 H :    0.114226
  18 H :    0.116495
  19 H :    0.108670
  20 H :    0.123976
  21 H :    0.114790
  22 H :    0.117809
  23 H :    0.117754

  Mayer bond orders larger than 0.100000
B(  0-C ,  1-O ) :   0.9376 B(  0-C , 10-H ) :   0.9594 B(  0-C , 11-H ) :   0.9608
B(  0-C , 12-H ) :   0.9350 B(  1-O ,  2-C ) :   1.2259 B(  2-C ,  3-O ) :   2.0197
B(  2-C ,  4-C ) :   0.9426 B(  4-C ,  5-C ) :   1.0770 B(  4-C ,  9-C ) :   1.0767
B(  4-C , 13-H ) :   0.8769 B(  5-C ,  6-C ) :   1.1281 B(  5-C , 14-H ) :   0.9203
B(  5-C , 15-H ) :   0.9131 B(  6-C ,  7-C ) :   1.1342 B(  6-C , 16-H ) :   0.9017
B(  6-C , 17-H ) :   0.9165 B(  7-C ,  8-C ) :   1.1331 B(  7-C , 18-H ) :   0.9188
B(  7-C , 19-H ) :   0.9181 B(  8-C ,  9-C ) :   1.1308 B(  8-C , 20-H ) :   0.9023
B(  8-C , 21-H ) :   0.9167 B(  9-C , 22-H ) :   0.9183 B(  9-C , 23-H ) :   0.9125

Dispersion correction           -0.023523357
FINAL SINGLE POINT ENERGY      -462.705348632960

DIPOLE MOMENT
-------------

Method             : SCF
Type of density    : Electron Density
Multiplicity       :   1
Irrep              :   0
Energy             :  -462.7935920921125899 Eh
Relativity type    :
Basis              : AO
                                X                 Y                 Z
Electronic contribution:     -5.926781111      -0.433833648       0.190306932
Nuclear contribution   :      5.533654642       0.646067421      -0.646471111
                        -----------------------------------------
Total Dipole Moment    :     -0.393126469       0.212233773      -0.456164179
                        -----------------------------------------
Magnitude (a.u.)       :      0.638496165
Magnitude (Debye)      :      1.622928276

Rotational constants in cm-1:             0.089868             0.028206             0.027367
Rotational constants in MHz :          2694.160859           845.604018           820.448512

                             ****ORCA TERMINATED NORMALLY****
TOTAL RUN TIME: 0 days 0 hours 0 minutes 12 seconds 141 msec
