                         Program Version 6.0.0  -   RELEASE  -
|  1> ! wb97x-v def2-tzvp def2/J RIJCOSX DEFGRID2 scfconv7 GCP(DFT/TZ) printgap
|  2> %output
|  3>     printlevel normal
|  4> end
|  5> * xyz 0 1
|  6> C -2.6853304462273337 -0.5515331641619299 -0.7347922151330851
|  7> C -1.8678480287802375 -0.5306166176577407 0.5624670261993953
|  8> C -0.39334855732810703 -0.3390987383527817 0.3041547930671697
|  9> C 0.4402339722230164 -1.4646578361737252 0.2757433251440163
| 10> C 1.8013218031282834 -1.3608741557755908 0.010411421227493141
| 11> C 2.3559860122715524 -0.1064221405668808 -0.23315741824976038
| 12> C 1.5392335617139152 1.0183531318195589 -0.21193535312467038
| 13> C 0.16609252321418172 0.9272628989274162 0.049410665964624054
| 14> C -0.6435178610409746 2.1978385662805917 0.060628474334344394
| 15> H -2.5584528435928613 0.3780611161861579 -1.2992111066550687
| 16> H -3.75179271892238 -0.6773552928390233 -0.5214541765468971
| 17> H -2.3659043110569167 -1.3792132045635488 -1.3767943976291723
| 18> H -2.0109800449746422 -1.479465545463467 1.0900971452381667
| 19> H -2.246046304484639 0.25660585396616065 1.2230740366732413
| 20> H 0.004167114672107408 -2.441523683320487 0.4702775575376637
| 21> H 2.423919247487771 -2.250374659690401 -0.0018358038385586258
| 22> H 3.4173510796062847 -0.0043786212119628415 -0.4385555136783733
| 23> H 1.9708922867569607 1.9983761920736092 -0.4019243769905958
| 24> H -0.4775701821631931 2.76545619531275 -0.8610297084183329
| 25> H -1.7149295290041604 2.021855958208662 0.15642459630976124
| 26> H -0.3351889221323069 2.842631694859552 0.8919555215493767
| 27> *
| 28>
| 29>                          ****END OF INPUT****

CARTESIAN COORDINATES (ANGSTROEM)
---------------------------------
  C     -2.685330   -0.551533   -0.734792
  C     -1.867848   -0.530617    0.562467
  C     -0.393349   -0.339099    0.304155
  C      0.440234   -1.464658    0.275743
  C      1.801322   -1.360874    0.010411
  C      2.355986   -0.106422   -0.233157
  C      1.539234    1.018353   -0.211935
  C      0.166093    0.927263    0.049411
  C     -0.643518    2.197839    0.060628
  H     -2.558453    0.378061   -1.299211
  H     -3.751793   -0.677355   -0.521454
  H     -2.365904   -1.379213   -1.376794
  H     -2.010980   -1.479466    1.090097
  H     -2.246046    0.256606    1.223074
  H      0.004167   -2.441524    0.470278
  H      2.423919   -2.250375   -0.001836
  H      3.417351   -0.004379   -0.438556
  H      1.970892    1.998376   -0.401924
  H     -0.477570    2.765456   -0.861030
  H     -1.714930    2.021856    0.156425
  H     -0.335189    2.842632    0.891956

 Total Charge           Charge          ....    0
 Multiplicity           Mult            ....    1
 Number of Electrons    NEL             ....   66
 Basis Dimension        Dim             ....  351

ORBITAL ENERGIES
----------------

  NO   OCC          E(Eh)            E(eV)
   0   2.0000     -12.055903      -328.0578
   1   2.0000     -12.052298      -327.9597
   2   2.0000     -12.046995      -327.8154
   3   2.0000     -12.045559      -327.7763
   4   2.0000     -12.044487      -327.7472
   5   2.0000     -12.042966      -327.7058
   6   2.0000     -12.042227      -327.6857
   7   2.0000     -12.041656      -327.6701
   8   2.0000     -12.037232      -327.5497
   9   2.0000      -1.382031       -37.6070
  10   2.0000      -1.301698       -35.4210
  11   2.0000      -1.285155       -34.9708
  12   2.0000      -1.238370       -33.6978
  13   2.0000      -1.189517       -32.3684
  14   2.0000      -1.124427       -30.5972
  15   2.0000      -1.087484       -29.5919
  16   2.0000      -1.060483       -28.8572
  17   2.0000      -0.955988       -26.0138
  18   2.0000      -0.946700       -25.7610
  19   2.0000      -0.907002       -24.6808
  20   2.0000      -0.874794       -23.8044
  21   2.0000      -0.865630       -23.5550
  22   2.0000      -0.861526       -23.4433
  23   2.0000      -0.844695       -22.9853
  24   2.0000      -0.832649       -22.6575
  25   2.0000      -0.824780       -22.4434
  26   2.0000      -0.812675       -22.1140
  27   2.0000      -0.801577       -21.8120
  28   2.0000      -0.780907       -21.2496
  29   2.0000      -0.768296       -20.9064
  30   2.0000      -0.751962       -20.4619
  31   2.0000      -0.630367       -17.1532
  32   2.0000      -0.626308       -17.0427
  33   0.0000      -0.236529        -6.4363
  34   0.0000      -0.232504        -6.3268
  35   0.0000      -0.073275        -1.9939
  36   0.0000      -0.054085        -1.4717
  37   0.0000      -0.023605        -0.6423

MULLIKEN ATOMIC CHARGES
-----------------------
   0 C :   -0.330142
   1 C :   -0.252747
   2 C :    0.159805
   3 C :   -0.199523
   4 C :   -0.125173
   5 C :   -0.126649
   6 C :   -0.183086
   7 C :    0.068282
   8 C :   -0.393942
   9 H :    0.111623
  10 H :    0.110318
  11 H :    0.114174
  12 H :    0.105225
  13 H :    0.114372
  14 H :    0.107756
  15 H :    0.113284
  16 H :    0.113086
  17 H :    0.112285
  18 H :    0.130120
  19 H :    0.121438
  20 H :    0.129494
Sum of atomic charges:    0.0000000

LOEWDIN ATOMIC CHARGES
----------------------
   0 C :   -0.295397
   1 C :   -0.243839
   2 C :   -0.119244
   3 C :   -0.115199
   4 C :   -0.146841
   5 C :   -0.146382
   6 C :   -0.115952
   7 C :   -0.137780
   8 C :   -0.252660
   9 H :    0.117371
  10 H :    0.115192
  11 H :    0.119292
  12 H :    0.138532
  13 H :    0.136135
  14 H :    0.143325
  15 H :    0.139956
  16 H :    0.140060
  17 H :    0.143655
  18 H :    0.128466
  19 H :    0.122497
  20 H :    0.128816

  Mayer bond orders larger than 0.100000
B(  0-C ,  1-C ) :   0.9779 B(  0-C ,  9-H ) :   0.9816 B(  0-C , 10-H ) :   0.9792
B(  0-C , 11-H ) :   0.9779 B(  1-C ,  2-C ) :   0.8757 B(  1-C , 12-H ) :   0.9878
B(  1-C , 13-H ) :   1.0010 B(  2-C ,  3-C ) :   1.3988 B(  2-C ,  7-C ) :   1.3741
B(  3-C ,  4-C ) :   1.4416 B(  3-C , 14-H ) :   0.9767 B(  4-C ,  5-C ) :   1.4043
B(  4-C , 15-H ) :   0.9767 B(  5-C ,  6-C ) :   1.4392 B(  5-C , 16-H ) :   0.9776
B(  6-C ,  7-C ) :   1.3920 B(  6-C , 17-H ) :   0.9796 B(  7-C ,  8-C ) :   0.8973
B(  8-C , 18-H ) :   0.9871 B(  8-C , 19-H ) :   1.0017 B(  8-C , 20-H ) :   0.9735

FINAL SINGLE POINT ENERGY      -350.202946321411

DIPOLE MOMENT
-------------

Method             : SCF
Type of density    : Electron Density
Multiplicity       :   1
Irrep              :   0
Energy             :  -350.2156207741111302 Eh
Relativity type    :
Basis              : AO
                                X                 Y                 Z
Electronic contribution:      7.046011177      -1.837311223       1.010277373
Nuclear contribution   :     -7.252102562       1.949376373      -0.995259501
                        -----------------------------------------
Total Dipole Moment    :     -0.206091385       0.112065151       0.015017872
                        -----------------------------------------
Magnitude (a.u.)       :      0.235069763
Magnitude (Debye)      :      0.597499853

Rotational constants in cm-1:             0.084539             0.047504             0.033046
Rotational constants in MHz :          2534.408733          1424.130380           990.686232

                             ****ORCA TERMINATED NORMALLY****
TOTAL RUN TIME: 0 days 0 hours 3 minutes 55 seconds 300 msec
