                         Program Version 6.0.0  -   RELEASE  -
|  1> ! wb97x-v def2-tzvp def2/J RIJCOSX DEFGRID2 scfconv7 GCP(DFT/TZ) printgap
|  2> %output
|  3>     printlevel normal
|  4> end
|  5> %cpcm
|  6>     smd true
|  7>     smdsolvent "water"
|  8> end
|  9> * xyz 0 1
| 10> C -2.6853304462273337 -0.5515331641619299 -0.7347922151330851
| 11> C -1.8678480287802375 -0.5306166176577407 0.5624670261993953
| 12> C -0.39334855732810703 -0.3390987383527817 0.3041547930671697
| 13> C 0.4402339722230164 -1.4646578361737252 0.2757433251440163
| 14> C 1.8013218031282834 -1.3608741557755908 0.010411421227493141
| 15> C 2.3559860122715524 -0.1064221405668808 -0.23315741824976038
| 16> C 1.5392335617139152 1.0183531318195589 -0.21193535312467038
| 17> C 0.16609252321418172 0.9272628989274162 0.049410665964624054
| 18> C -0.6435178610409746 2.1978385662805917 0.060628474334344394
| 19> H -2.5584528435928613 0.3780611161861579 -1.2992111066550687
| 20> H -3.75179271892238 -0.6773552928390233 -0.5214541765468971
| 21> H -2.3659043110569167 -1.3792132045635488 -1.3767943976291723
| 22> H -2.0109800449746422 -1.479465545463467 1.0900971452381667
| 23> H -2.246046304484639 0.25660585396616065 1.2230740366732413
| 24> H 0.004167114672107408 -2.441523683320487 0.4702775575376637
| 25> H 2.423919247487771 -2.250374659690401 -0.0018358038385586258
| 26> H 3.4173510796062847 -0.0043786212119628415 -0.4385555136783733
| 27> H 1.9708922867569607 1.9983761920736092 -0.4019243769905958
| 28> H -0.4775701821631931 2.76545619531275 -0.8610297084183329
| 29> H -1.7149295290041604 2.021855958208662 0.15642459630976124
| 30> H -0.3351889221323069 2.842631694859552 0.8919555215493767
| 31> *
| 32>
| 33>                          ****END OF INPUT****

CARTESIAN COORDINATES (ANGSTROEM)
---------------------------------
  C     -2.685330   -0.551533   -0.734792
  C     -1.867848   -0.530617    0.562467
  C     -0.393349   -0.339099    0.304155
  C      0.440234   -1.464658    0.275743
  C      1.801322   -1.360874    0.010411
  C      2.355986   -0.106422   -0.233157
  C      1.539234    1.018353   -0.211935
  C      0.166093    0.927263    0.049411
  C     -0.643518    2.197839    0.060628
  H     -2.558453    0.378061   -1.299211
  H     -3.751793   -0.677355   -0.521454
  H     -2.365904   -1.379213   -1.376794
  H     -2.010980   -1.479466    1.090097
  H     -2.246046    0.256606    1.223074
  H      0.004167   -2.441524    0.470278
  H      2.423919   -2.250375   -0.001836
  H      3.417351   -0.004379   -0.438556
  H      1.970892    1.998376   -0.401924
  H     -0.477570    2.765456   -0.861030
  H     -1.714930    2.021856    0.156425
  H     -0.335189    2.842632    0.891956

 Total Charge           Charge          ....    0
 Multiplicity           Mult            ....    1
 Number of Electrons    NEL             ....   66
 Basis Dimension        Dim             ....  351

ORBITAL ENERGIES
----------------

  NO   OCC          E(Eh)            E(eV)
   0   2.0000     -12.055131      -328.0368
   1   2.0000     -12.051413      -327.9356
   2   2.0000     -12.044709      -327.7532
   3   2.0000     -12.043456      -327.7191
   4   2.0000     -12.041754      -327.6728
   5   2.0000     -12.041157      -327.6565
   6   2.0000     -12.038205      -327.5762
   7   2.0000     -12.031719      -327.3997
   8   2.0000     -12.028558      -327.3137
   9   2.0000      -1.382282       -37.6138
  10   2.0000      -1.299024       -35.3482
  11   2.0000      -1.283093       -34.9147
  12   2.0000      -1.233994       -33.5787
  13   2.0000      -1.184166       -32.2228
  14   2.0000      -1.119785       -30.4709
  15   2.0000      -1.085181       -29.5293
  16   2.0000      -1.056748       -28.7556
  17   2.0000      -0.954600       -25.9760
  18   2.0000      -0.943915       -25.6852
  19   2.0000      -0.902313       -24.5532
  20   2.0000      -0.870580       -23.6897
  21   2.0000      -0.862388       -23.4668
  22   2.0000      -0.853557       -23.2265
  23   2.0000      -0.838382       -22.8135
  24   2.0000      -0.825251       -22.4562
  25   2.0000      -0.816647       -22.2221
  26   2.0000      -0.806600       -21.9487
  27   2.0000      -0.796392       -21.6709
  28   2.0000      -0.774321       -21.0703
  29   2.0000      -0.759624       -20.6704
  30   2.0000      -0.752759       -20.4836
  31   2.0000      -0.632032       -17.1985
  32   2.0000      -0.627220       -17.0675
  33   0.0000      -0.237398        -6.4599
  34   0.0000      -0.233692        -6.3591
  35   0.0000      -0.072821        -1.9815
  36   0.0000      -0.048007        -1.3063
  37   0.0000      -0.011957        -0.3254

MULLIKEN ATOMIC CHARGES
-----------------------
   0 C :   -0.388312
   1 C :   -0.232989
   2 C :    0.110155
   3 C :   -0.239392
   4 C :   -0.174883
   5 C :   -0.177207
   6 C :   -0.225126
   7 C :    0.051110
   8 C :   -0.419344
   9 H :    0.128872
  10 H :    0.128313
  11 H :    0.125989
  12 H :    0.123992
  13 H :    0.131081
  14 H :    0.151943
  15 H :    0.157087
  16 H :    0.156710
  17 H :    0.154520
  18 H :    0.146345
  19 H :    0.146396
  20 H :    0.144739
Sum of atomic charges:    0.0000000

LOEWDIN ATOMIC CHARGES
----------------------
   0 C :   -0.300711
   1 C :   -0.242238
   2 C :   -0.127252
   3 C :   -0.125304
   4 C :   -0.161935
   5 C :   -0.161056
   6 C :   -0.125882
   7 C :   -0.144185
   8 C :   -0.252715
   9 H :    0.120077
  10 H :    0.119128
  11 H :    0.119847
  12 H :    0.143109
  13 H :    0.141464
  14 H :    0.153037
  15 H :    0.148639
  16 H :    0.148774
  17 H :    0.152957
  18 H :    0.132922
  19 H :    0.128354
  20 H :    0.132968

  Mayer bond orders larger than 0.100000
B(  0-C ,  1-C ) :   0.9681 B(  0-C ,  9-H ) :   0.9796 B(  0-C , 10-H ) :   0.9767
B(  0-C , 11-H ) :   0.9772 B(  1-C ,  2-C ) :   0.9004 B(  1-C , 12-H ) :   0.9809
B(  1-C , 13-H ) :   0.9905 B(  2-C ,  3-C ) :   1.3829 B(  2-C ,  7-C ) :   1.3483
B(  3-C ,  4-C ) :   1.4188 B(  3-C , 14-H ) :   0.9834 B(  4-C ,  5-C ) :   1.3812
B(  4-C , 15-H ) :   0.9808 B(  5-C ,  6-C ) :   1.4182 B(  5-C , 16-H ) :   0.9818
B(  6-C ,  7-C ) :   1.3714 B(  6-C , 17-H ) :   0.9858 B(  7-C ,  8-C ) :   0.9182
B(  8-C , 18-H ) :   0.9789 B(  8-C , 19-H ) :   0.9961 B(  8-C , 20-H ) :   0.9674

FINAL SINGLE POINT ENERGY      -350.204045876465

DIPOLE MOMENT
-------------

Method             : SCF
Type of density    : Electron Density
Multiplicity       :   1
Irrep              :   0
Energy             :  -350.2167203291647866 Eh
Relativity type    :
Basis              : AO
                                X                 Y                 Z
Electronic contribution:      6.908537887      -1.766073457       1.034108138
Nuclear contribution   :     -7.252102562       1.949376373      -0.995259501
                        -----------------------------------------
Total Dipole Moment    :     -0.343564675       0.183302917       0.038848636
                        -----------------------------------------
Magnitude (a.u.)       :      0.391338551
Magnitude (Debye)      :      0.994703547

Rotational constants in cm-1:             0.084539             0.047504             0.033046
Rotational constants in MHz :          2534.408733          1424.130380           990.686232

                             ****ORCA TERMINATED NORMALLY****
TOTAL RUN TIME: 0 days 0 hours 3 minutes 43 seconds 221 msec
