                         Program Version 6.0.0  -   RELEASE  -
|  1> ! pbe def2-sv(p) def2/J RI DEFGRID1 loosescf d4 GCP(DFT/SV(P)) printgap
|  2> %output
|  3>     printlevel normal
|  4> end
|  5> * xyz 0 1
|  6> C -2.9185804807 0.6193391285 -0.8120597313
|  7> C -1.9605550001 0.4811984069 0.3747694664
|  8> H -2.5613691588 0.5597358188 1.2898037839
|  9> C -0.8764007384 1.5601688515 0.3949302722
| 10> C 0.2228647336 1.2726288242 -0.6256534261
| 11> C 0.8353668437 -0.138433152 -0.4666262226
| 12> H 0.6916292348 -0.689061113 -1.4016879081
| 13> C 0.1221669831 -0.9390089551 0.640319182
| 14> C -1.3574864047 -0.9065509078 0.4027435064
| 15> O -2.0237454009 -1.9119941986 0.2404541197
| 16> C 2.3211045908 -0.0626086681 -0.2031115484
| 17> C 3.1959867063 -0.4456363216 -1.1200816379
| 18> C 2.7545317079 0.4765176843 1.1266831408
| 19> H -3.4670063708 1.5549180765 -0.7487285166
| 20> H -2.3715072138 0.5949669376 -1.7509487662
| 21> H -3.6257932027 -0.2067823504 -0.8095154794
| 22> H -1.3301639335 2.5268479543 0.1722976233
| 23> H -0.4441681677 1.6252444204 1.3943452002
| 24> H -0.1900603478 1.3699230813 -1.6298805952
| 25> H 1.005394788 2.0267648639 -0.5313862786
| 26> H 0.4752470737 -1.9711757166 0.6434499333
| 27> H 0.3230288799 -0.4899779682 1.6124330574
| 28> H 4.2581197802 -0.3753839043 -0.9570957394
| 29> H 2.8888349983 -0.8465132285 -2.0713382376
| 30> H 2.6416543171 -0.2872855958 1.8951515003
| 31> H 3.8004618244 0.7685266314 1.0955156157
| 32> H 2.1571072448 1.3382971634 1.4137087229
| 33> *
| 34>
| 35>                          ****END OF INPUT****

CARTESIAN COORDINATES (ANGSTROEM)
---------------------------------
  C     -2.918580    0.619339   -0.812060
  C     -1.960555    0.481198    0.374769
  H     -2.561369    0.559736    1.289804
  C     -0.876401    1.560169    0.394930
  C      0.222865    1.272629   -0.625653
  C      0.835367   -0.138433   -0.466626
  H      0.691629   -0.689061   -1.401688
  C      0.122167   -0.939009    0.640319
  C     -1.357486   -0.906551    0.402744
  O     -2.023745   -1.911994    0.240454
  C      2.321105   -0.062609   -0.203112
  C      3.195987   -0.445636   -1.120082
  C      2.754532    0.476518    1.126683
  H     -3.467006    1.554918   -0.748729
  H     -2.371507    0.594967   -1.750949
  H     -3.625793   -0.206782   -0.809515
  H     -1.330164    2.526848    0.172298
  H     -0.444168    1.625244    1.394345
  H     -0.190060    1.369923   -1.629881
  H      1.005395    2.026765   -0.531386
  H      0.475247   -1.971176    0.643450
  H      0.323029   -0.489978    1.612433
  H      4.258120   -0.375384   -0.957096
  H      2.888835   -0.846513   -2.071338
  H      2.641654   -0.287286    1.895152
  H      3.800462    0.768527    1.095516
  H      2.157107    1.338297    1.413709

 Total Charge           Charge          ....    0
 Multiplicity           Mult            ....    1
 Number of Electrons    NEL             ....   84
 Basis Dimension        Dim             ....  186

ORBITAL ENERGIES
----------------

  NO   OCC          E(Eh)            E(eV)
   0   2.0000     -18.737861      -509.8831
   1   2.0000      -9.969062      -271.2720
   2   2.0000      -9.909388      -269.6482
   3   2.0000      -9.904731      -269.5214
   4   2.0000      -9.903195      -269.4796
   5   2.0000      -9.895270      -269.2640
   6   2.0000      -9.894216      -269.2353
   7   2.0000      -9.893798      -269.2239
   8   2.0000      -9.889032      -269.0942
   9   2.0000      -9.881242      -268.8823
  10   2.0000      -9.876747      -268.7599
  11   2.0000      -0.932906       -25.3857
  12   2.0000      -0.774421       -21.0731
  13   2.0000      -0.731127       -19.8950
  14   2.0000      -0.683828       -18.6079
  15   2.0000      -0.660276       -17.9670
  16   2.0000      -0.624782       -17.0012
  17   2.0000      -0.609016       -16.5722
  18   2.0000      -0.552092       -15.0232
  19   2.0000      -0.536251       -14.5921
  20   2.0000      -0.475919       -12.9504
  21   2.0000      -0.456715       -12.4278
  22   2.0000      -0.447292       -12.1714
  23   2.0000      -0.428025       -11.6471
  24   2.0000      -0.415164       -11.2972
  25   2.0000      -0.403791       -10.9877
  26   2.0000      -0.394420       -10.7327
  27   2.0000      -0.378951       -10.3118
  28   2.0000      -0.366081        -9.9616
  29   2.0000      -0.358234        -9.7480
  30   2.0000      -0.354809        -9.6548
  31   2.0000      -0.345953        -9.4139
  32   2.0000      -0.340224        -9.2580
  33   2.0000      -0.332029        -9.0350
  34   2.0000      -0.323062        -8.7910
  35   2.0000      -0.314980        -8.5710
  36   2.0000      -0.304954        -8.2982
  37   2.0000      -0.293187        -7.9780
  38   2.0000      -0.278006        -7.5649
  39   2.0000      -0.276722        -7.5300
  40   2.0000      -0.223052        -6.0696
  41   2.0000      -0.191290        -5.2053
  42   0.0000      -0.053081        -1.4444
  43   0.0000      -0.014697        -0.3999
  44   0.0000       0.023638         0.6432
  45   0.0000       0.036599         0.9959
  46   0.0000       0.055150         1.5007

MULLIKEN ATOMIC CHARGES
-----------------------
   0 C :   -0.249208
   1 C :   -0.180904
   2 H :    0.100503
   3 C :   -0.099191
   4 C :   -0.121625
   5 C :   -0.178894
   6 H :    0.067758
   7 C :   -0.046450
   8 C :    0.007214
   9 O :   -0.164511
  10 C :   -0.040128
  11 C :   -0.225229
  12 C :   -0.232660
  13 H :    0.100473
  14 H :    0.101863
  15 H :    0.122207
  16 H :    0.086898
  17 H :    0.075591
  18 H :    0.090428
  19 H :    0.097120
  20 H :    0.090575
  21 H :    0.092635
  22 H :    0.080853
  23 H :    0.086594
  24 H :    0.124979
  25 H :    0.104246
  26 H :    0.108861
Sum of atomic charges:   -0.0000000

LOEWDIN ATOMIC CHARGES
----------------------
   0 C :   -0.323143
   1 C :   -0.175591
   2 H :    0.143191
   3 C :   -0.220475
   4 C :   -0.216375
   5 C :   -0.122084
   6 H :    0.124948
   7 C :   -0.233479
   8 C :    0.053307
   9 O :   -0.131416
  10 C :   -0.050383
  11 C :   -0.263983
  12 C :   -0.326052
  13 H :    0.119797
  14 H :    0.118139
  15 H :    0.128939
  16 H :    0.122178
  17 H :    0.114752
  18 H :    0.122973
  19 H :    0.124630
  20 H :    0.133087
  21 H :    0.135726
  22 H :    0.116877
  23 H :    0.118188
  24 H :    0.133559
  25 H :    0.129031
  26 H :    0.123659

  Mayer bond orders larger than 0.100000
B(  0-C ,  1-C ) :   1.1117 B(  0-C , 13-H ) :   0.9476 B(  0-C , 14-H ) :   0.9506
B(  0-C , 15-H ) :   0.9375 B(  1-C ,  2-H ) :   0.8602 B(  1-C ,  3-C ) :   1.0884
B(  1-C ,  8-C ) :   0.9183 B(  3-C ,  4-C ) :   1.1667 B(  3-C , 16-H ) :   0.9101
B(  3-C , 17-H ) :   0.8861 B(  4-C ,  5-C ) :   1.0377 B(  4-C , 18-H ) :   0.9062
B(  4-C , 19-H ) :   0.9106 B(  5-C ,  6-H ) :   0.8818 B(  5-C ,  7-C ) :   1.1037
B(  5-C , 10-C ) :   1.0129 B(  7-C ,  8-C ) :   1.0959 B(  7-C , 20-H ) :   0.8943
B(  7-C , 21-H ) :   0.8429 B(  8-C ,  9-O ) :   2.1846 B( 10-C , 11-C ) :   2.0394
B( 10-C , 12-C ) :   1.1091 B( 11-C , 22-H ) :   0.9063 B( 11-C , 23-H ) :   0.9094
B( 12-C , 24-H ) :   0.9234 B( 12-C , 25-H ) :   0.9341 B( 12-C , 26-H ) :   0.9269

Dispersion correction           -0.028830793
FINAL SINGLE POINT ENERGY      -464.823789406305

DIPOLE MOMENT
-------------

Method             : SCF
Type of density    : Electron Density
Multiplicity       :   1
Irrep              :   0
Energy             :  -464.9094813184277655 Eh
Relativity type    :
Basis              : AO
                                X                 Y                 Z
Electronic contribution:     -3.482080411      -6.040792398       0.587330720
Nuclear contribution   :      3.958520729       7.007000679      -0.356574059
                        -----------------------------------------
Total Dipole Moment    :      0.476440318       0.966208281       0.230756661
                        -----------------------------------------
Magnitude (a.u.)       :      1.101727033
Magnitude (Debye)      :      2.800367570

Rotational constants in cm-1:             0.067010             0.023670             0.021189
Rotational constants in MHz :          2008.922745           709.607491           635.235499

                             ****ORCA TERMINATED NORMALLY****
TOTAL RUN TIME: 0 days 0 hours 0 minutes 17 seconds 184 msec
