                         Program Version 6.0.0  -   RELEASE  -
|  1> ! wb97x-v def2-tzvp def2/J RIJCOSX DEFGRID2 scfconv7 GCP(DFT/TZ) printgap
|  2> %output
|  3>     printlevel normal
|  4> end
|  5> * xyz 0 1
|  6> C -2.7784302500083533 -0.41969525394959106 9.258634855757808e-05
|  7> O -1.7961772410735495 0.6283421136220506 -1.7628670806426565e-05
|  8> C -0.47644041794486075 0.2519706709836224 -1.1759358306281677e-05
|  9> C -0.0384223144431573 -1.0742660797039099 -2.816149244224841e-05
| 10> C 1.3324791372943492 -1.3368626530006387 -1.2987091123616732e-05
| 11> C 2.2619939039476717 -0.3028457778335465 1.579991403398011e-05
| 12> C 1.810279028926302 1.0182725669105073 2.3363263943500617e-05
| 13> C 0.4513275539278103 1.2998264013461174 8.636116498651963e-06
| 14> H -2.688776713843347 -1.0424132794599026 0.897273855858363
| 15> H -2.6889304461103705 -1.0424692044520356 -0.8970661543500691
| 16> H -3.7460353631898533 0.08313412788803926 0.00015902432647862887
| 17> H -0.7401348760661524 -1.899049681397092 -5.3514507942519734e-05
| 18> H 1.6680633970419092 -2.3695757811851763 -2.3588760317953692e-05
| 19> H 3.3249163455544224 -0.5196113981841401 3.329794843406489e-05
| 20> H 2.522599094872244 1.8376865871925623 4.6280846161668705e-05
| 21> H 0.09136551478983776 2.3237442633786336 1.7364026314686346e-05
| 22> *
| 23>
| 24>                          ****END OF INPUT****

CARTESIAN COORDINATES (ANGSTROEM)
---------------------------------
  C     -2.778430   -0.419695    0.000093
  O     -1.796177    0.628342   -0.000018
  C     -0.476440    0.251971   -0.000012
  C     -0.038422   -1.074266   -0.000028
  C      1.332479   -1.336863   -0.000013
  C      2.261994   -0.302846    0.000016
  C      1.810279    1.018273    0.000023
  C      0.451328    1.299826    0.000009
  H     -2.688777   -1.042413    0.897274
  H     -2.688930   -1.042469   -0.897066
  H     -3.746035    0.083134    0.000159
  H     -0.740135   -1.899050   -0.000054
  H      1.668063   -2.369576   -0.000024
  H      3.324916   -0.519611    0.000033
  H      2.522599    1.837687    0.000046
  H      0.091366    2.323744    0.000017

 Total Charge           Charge          ....    0
 Multiplicity           Mult            ....    1
 Number of Electrons    NEL             ....   58
 Basis Dimension        Dim             ....  296

ORBITAL ENERGIES
----------------

  NO   OCC          E(Eh)            E(eV)
   0   2.0000     -21.702215      -590.5473
   1   2.0000     -12.111293      -329.5650
   2   2.0000     -12.102200      -329.3176
   3   2.0000     -12.053964      -328.0050
   4   2.0000     -12.052565      -327.9670
   5   2.0000     -12.048801      -327.8645
   6   2.0000     -12.044910      -327.7587
   7   2.0000     -12.043004      -327.7068
   8   2.0000      -1.714834       -46.6630
   9   2.0000      -1.382925       -37.6313
  10   2.0000      -1.294095       -35.2141
  11   2.0000      -1.275048       -34.6958
  12   2.0000      -1.223458       -33.2920
  13   2.0000      -1.115974       -30.3672
  14   2.0000      -1.104337       -30.0506
  15   2.0000      -1.040079       -28.3020
  16   2.0000      -0.991980       -26.9932
  17   2.0000      -0.976208       -26.5640
  18   2.0000      -0.949400       -25.8345
  19   2.0000      -0.929579       -25.2951
  20   2.0000      -0.901218       -24.5234
  21   2.0000      -0.875562       -23.8253
  22   2.0000      -0.836777       -22.7699
  23   2.0000      -0.829674       -22.5766
  24   2.0000      -0.825159       -22.4537
  25   2.0000      -0.806844       -21.9553
  26   2.0000      -0.763707       -20.7815
  27   2.0000      -0.640124       -17.4187
  28   2.0000      -0.631999       -17.1976
  29   0.0000      -0.243064        -6.6141
  30   0.0000      -0.236887        -6.4460
  31   0.0000      -0.179564        -4.8862
  32   0.0000      -0.109551        -2.9810
  33   0.0000      -0.066648        -1.8136

MULLIKEN ATOMIC CHARGES
-----------------------
   0 C :   -0.210483
   1 O :   -0.250778
   2 C :    0.311335
   3 C :   -0.254830
   4 C :   -0.123625
   5 C :   -0.152344
   6 C :   -0.075562
   7 C :   -0.217051
   8 H :    0.122076
   9 H :    0.122084
  10 H :    0.136468
  11 H :    0.126017
  12 H :    0.117495
  13 H :    0.114766
  14 H :    0.116764
  15 H :    0.117668
Sum of atomic charges:    0.0000000

LOEWDIN ATOMIC CHARGES
----------------------
   0 C :   -0.311813
   1 O :    0.212727
   2 C :   -0.239032
   3 C :   -0.146703
   4 C :   -0.138275
   5 C :   -0.161003
   6 C :   -0.136262
   7 C :   -0.118821
   8 H :    0.105801
   9 H :    0.105800
  10 H :    0.112366
  11 H :    0.144323
  12 H :    0.142086
  13 H :    0.139487
  14 H :    0.142448
  15 H :    0.146870

  Mayer bond orders larger than 0.100000
B(  0-C ,  1-O ) :   0.9494 B(  0-C ,  8-H ) :   0.9720 B(  0-C ,  9-H ) :   0.9720
B(  0-C , 10-H ) :   0.9785 B(  1-O ,  2-C ) :   1.1422 B(  2-C ,  3-C ) :   1.3404
B(  2-C ,  7-C ) :   1.3803 B(  3-C ,  4-C ) :   1.4061 B(  3-C , 11-H ) :   0.9603
B(  4-C ,  5-C ) :   1.4653 B(  4-C , 12-H ) :   0.9635 B(  5-C ,  6-C ) :   1.4003
B(  5-C , 13-H ) :   0.9738 B(  6-C ,  7-C ) :   1.4689 B(  6-C , 14-H ) :   0.9752
B(  7-C , 15-H ) :   0.9744

FINAL SINGLE POINT ENERGY      -346.785649464037

DIPOLE MOMENT
-------------

Method             : SCF
Type of density    : Electron Density
Multiplicity       :   1
Irrep              :   0
Energy             :  -346.7946630087368476 Eh
Relativity type    :
Basis              : AO
                                X                 Y                 Z
Electronic contribution:      1.841798460       2.057919551      -0.000230203
Nuclear contribution   :     -2.127943383      -2.500834560       0.000281855
                        -----------------------------------------
Total Dipole Moment    :     -0.286144923      -0.442915009       0.000051652
                        -----------------------------------------
Magnitude (a.u.)       :      0.527306955
Magnitude (Debye)      :      1.340307764

Rotational constants in cm-1:             0.167570             0.052201             0.040109
Rotational constants in MHz :          5023.608322          1564.941495          1202.443520

                             ****ORCA TERMINATED NORMALLY****
TOTAL RUN TIME: 0 days 0 hours 2 minutes 24 seconds 539 msec
