                         Program Version 6.0.0  -   RELEASE  -
|  1> ! wb97x-v def2-tzvp def2/J RIJCOSX DEFGRID2 scfconv7 GCP(DFT/TZ) printgap
|  2> %output
|  3>     printlevel normal
|  4> end
|  5> %cpcm
|  6>     smd true
|  7>     smdsolvent "water"
|  8> end
|  9> * xyz 0 1
| 10> C -2.7784302500083533 -0.41969525394959106 9.258634855757808e-05
| 11> O -1.7961772410735495 0.6283421136220506 -1.7628670806426565e-05
| 12> C -0.47644041794486075 0.2519706709836224 -1.1759358306281677e-05
| 13> C -0.0384223144431573 -1.0742660797039099 -2.816149244224841e-05
| 14> C 1.3324791372943492 -1.3368626530006387 -1.2987091123616732e-05
| 15> C 2.2619939039476717 -0.3028457778335465 1.579991403398011e-05
| 16> C 1.810279028926302 1.0182725669105073 2.3363263943500617e-05
| 17> C 0.4513275539278103 1.2998264013461174 8.636116498651963e-06
| 18> H -2.688776713843347 -1.0424132794599026 0.897273855858363
| 19> H -2.6889304461103705 -1.0424692044520356 -0.8970661543500691
| 20> H -3.7460353631898533 0.08313412788803926 0.00015902432647862887
| 21> H -0.7401348760661524 -1.899049681397092 -5.3514507942519734e-05
| 22> H 1.6680633970419092 -2.3695757811851763 -2.3588760317953692e-05
| 23> H 3.3249163455544224 -0.5196113981841401 3.329794843406489e-05
| 24> H 2.522599094872244 1.8376865871925623 4.6280846161668705e-05
| 25> H 0.09136551478983776 2.3237442633786336 1.7364026314686346e-05
| 26> *
| 27>
| 28>                          ****END OF INPUT****

CARTESIAN COORDINATES (ANGSTROEM)
---------------------------------
  C     -2.778430   -0.419695    0.000093
  O     -1.796177    0.628342   -0.000018
  C     -0.476440    0.251971   -0.000012
  C     -0.038422   -1.074266   -0.000028
  C      1.332479   -1.336863   -0.000013
  C      2.261994   -0.302846    0.000016
  C      1.810279    1.018273    0.000023
  C      0.451328    1.299826    0.000009
  H     -2.688777   -1.042413    0.897274
  H     -2.688930   -1.042469   -0.897066
  H     -3.746035    0.083134    0.000159
  H     -0.740135   -1.899050   -0.000054
  H      1.668063   -2.369576   -0.000024
  H      3.324916   -0.519611    0.000033
  H      2.522599    1.837687    0.000046
  H      0.091366    2.323744    0.000017

 Total Charge           Charge          ....    0
 Multiplicity           Mult            ....    1
 Number of Electrons    NEL             ....   58
 Basis Dimension        Dim             ....  296

ORBITAL ENERGIES
----------------

  NO   OCC          E(Eh)            E(eV)
   0   2.0000     -21.704587      -590.6118
   1   2.0000     -12.113181      -329.6164
   2   2.0000     -12.087773      -328.9250
   3   2.0000     -12.053020      -327.9794
   4   2.0000     -12.052680      -327.9701
   5   2.0000     -12.047559      -327.8307
   6   2.0000     -12.046299      -327.7965
   7   2.0000     -12.042892      -327.7037
   8   2.0000      -1.717370       -46.7320
   9   2.0000      -1.384956       -37.6866
  10   2.0000      -1.294181       -35.2165
  11   2.0000      -1.275937       -34.7200
  12   2.0000      -1.219957       -33.1967
  13   2.0000      -1.116667       -30.3860
  14   2.0000      -1.101407       -29.9708
  15   2.0000      -1.038643       -28.2629
  16   2.0000      -0.991376       -26.9767
  17   2.0000      -0.977690       -26.6043
  18   2.0000      -0.948059       -25.7980
  19   2.0000      -0.930282       -25.3142
  20   2.0000      -0.898476       -24.4488
  21   2.0000      -0.874204       -23.7883
  22   2.0000      -0.828754       -22.5515
  23   2.0000      -0.824088       -22.4246
  24   2.0000      -0.814015       -22.1505
  25   2.0000      -0.804804       -21.8998
  26   2.0000      -0.766613       -20.8606
  27   2.0000      -0.642529       -17.4841
  28   2.0000      -0.635478       -17.2922
  29   0.0000      -0.245926        -6.6920
  30   0.0000      -0.239089        -6.5059
  31   0.0000      -0.173947        -4.7333
  32   0.0000      -0.106831        -2.9070
  33   0.0000      -0.068423        -1.8619

MULLIKEN ATOMIC CHARGES
-----------------------
   0 C :   -0.224942
   1 O :   -0.307094
   2 C :    0.330566
   3 C :   -0.295414
   4 C :   -0.160905
   5 C :   -0.205950
   6 C :   -0.123449
   7 C :   -0.272387
   8 H :    0.144567
   9 H :    0.144576
  10 H :    0.157422
  11 H :    0.175150
  12 H :    0.164123
  13 H :    0.160012
  14 H :    0.161451
  15 H :    0.152273
Sum of atomic charges:    0.0000000

LOEWDIN ATOMIC CHARGES
----------------------
   0 C :   -0.306316
   1 O :    0.188370
   2 C :   -0.250825
   3 C :   -0.145523
   4 C :   -0.145620
   5 C :   -0.172127
   6 C :   -0.145995
   7 C :   -0.133120
   8 H :    0.114089
   9 H :    0.114089
  10 H :    0.117680
  11 H :    0.157667
  12 H :    0.152603
  13 H :    0.148744
  14 H :    0.152466
  15 H :    0.153819

  Mayer bond orders larger than 0.100000
B(  0-C ,  1-O ) :   0.9109 B(  0-C ,  8-H ) :   0.9693 B(  0-C ,  9-H ) :   0.9693
B(  0-C , 10-H ) :   0.9703 B(  1-O ,  2-C ) :   1.1142 B(  2-C ,  3-C ) :   1.3306
B(  2-C ,  7-C ) :   1.3416 B(  3-C ,  4-C ) :   1.3787 B(  3-C , 11-H ) :   0.9625
B(  4-C ,  5-C ) :   1.4353 B(  4-C , 12-H ) :   0.9651 B(  5-C ,  6-C ) :   1.3821
B(  5-C , 13-H ) :   0.9759 B(  6-C ,  7-C ) :   1.4573 B(  6-C , 14-H ) :   0.9756
B(  7-C , 15-H ) :   0.9829

FINAL SINGLE POINT ENERGY      -346.789635782822

DIPOLE MOMENT
-------------

Method             : SCF
Type of density    : Electron Density
Multiplicity       :   1
Irrep              :   0
Energy             :  -346.7986493275218436 Eh
Relativity type    :
Basis              : AO
                                X                 Y                 Z
Electronic contribution:      1.797335669       1.799821318      -0.000212986
Nuclear contribution   :     -2.127943383      -2.500834560       0.000281855
                        -----------------------------------------
Total Dipole Moment    :     -0.330607714      -0.701013242       0.000068869
                        -----------------------------------------
Magnitude (a.u.)       :      0.775061953
Magnitude (Debye)      :      1.970050922

Rotational constants in cm-1:             0.167570             0.052201             0.040109
Rotational constants in MHz :          5023.608322          1564.941495          1202.443520

                             ****ORCA TERMINATED NORMALLY****
TOTAL RUN TIME: 0 days 0 hours 2 minutes 40 seconds 551 msec
