                         Program Version 6.0.0  -   RELEASE  -
|  1> ! wb97x-v def2-tzvp def2/J RIJCOSX DEFGRID2 scfconv7 GCP(DFT/TZ) printgap
|  2> %output
|  3>     printlevel normal
|  4> end
|  5> * xyz 0 1
|  6> C 5.161439134422528 0.6958671412363008 0.001329781282820117
|  7> C 5.161438890241436 -0.695869099915974 0.0010788332190285403
|  8> C 3.9575729371623902 -1.3975650488071203 0.00028086161217748615
|  9> C 2.7658855849870942 -0.6940174774983382 -0.00029748504307406076
| 10> C 2.7658857921685027 0.694017177702721 -9.737222402289658e-05
| 11> C 3.9575735279849513 1.397563875757407 0.000751590844739949
| 12> O 1.5803421311229082 1.4234024657034712 -0.0008593732215384145
| 13> C 0.4198188617063359 0.6971384288351204 -0.0005817130917125229
| 14> C 0.4198187071940518 -0.6971376112190176 -0.0007016666279505223
| 15> C -0.7863455913881483 -1.3914431025571592 -0.00033405710670219966
| 16> C -2.002123428647107 -0.6980570673451105 1.6363359940588425e-05
| 17> C -2.0021235152356756 0.6980590631897883 5.961943056309525e-05
| 18> C -0.7863451881791278 1.3914444981062732 -0.00022736136051244334
| 19> Cl -0.7424782207119259 3.1231602967326175 -0.00016195876543530915
| 20> Cl -3.4941528026015933 1.575421961596021 0.00048781258839117
| 21> Cl -3.494153041558061 -1.575420381463551 0.00045153271990314235
| 22> Cl -0.7424793155385001 -3.1231588619170942 -0.00038239389517617496
| 23> O 1.580341516040143 -1.4234021351554456 -0.001184415200381347
| 24> H 6.096869577792306 1.2440788740076107 0.00196700378785283
| 25> H 6.096869133405282 -1.244081347314905 0.001501211758139134
| 26> H 3.929835155631127 -2.4818728625918682 7.174511351858093e-05
| 27> H 3.9298362209120383 2.4818717521640172 0.0009094276945626914
| 28> *
| 29>
| 30>                          ****END OF INPUT****

CARTESIAN COORDINATES (ANGSTROEM)
---------------------------------
  C      5.161439    0.695867    0.001330
  C      5.161439   -0.695869    0.001079
  C      3.957573   -1.397565    0.000281
  C      2.765886   -0.694017   -0.000297
  C      2.765886    0.694017   -0.000097
  C      3.957574    1.397564    0.000752
  O      1.580342    1.423402   -0.000859
  C      0.419819    0.697138   -0.000582
  C      0.419819   -0.697138   -0.000702
  C     -0.786346   -1.391443   -0.000334
  C     -2.002123   -0.698057    0.000016
  C     -2.002124    0.698059    0.000060
  C     -0.786345    1.391444   -0.000227
  Cl    -0.742478    3.123160   -0.000162
  Cl    -3.494153    1.575422    0.000488
  Cl    -3.494153   -1.575420    0.000452
  Cl    -0.742479   -3.123159   -0.000382
  O      1.580342   -1.423402   -0.001184
  H      6.096870    1.244079    0.001967
  H      6.096869   -1.244081    0.001501
  H      3.929835   -2.481873    0.000072
  H      3.929836    2.481872    0.000909

 Total Charge           Charge          ....    0
 Multiplicity           Mult            ....    1
 Number of Electrons    NEL             ....  160
 Basis Dimension        Dim             ....  606

ORBITAL ENERGIES
----------------

  NO   OCC          E(Eh)            E(eV)
   0   2.0000    -107.164444     -2916.0928
   1   2.0000    -107.164433     -2916.0925
   2   2.0000    -107.163410     -2916.0646
   3   2.0000    -107.163376     -2916.0637
   4   2.0000     -21.753287      -591.9370
   5   2.0000     -21.753237      -591.9357
   6   2.0000     -12.160925      -330.9156
   7   2.0000     -12.158856      -330.8593
   8   2.0000     -12.150902      -330.6429
   9   2.0000     -12.149472      -330.6039
  10   2.0000     -12.147485      -330.5499
  11   2.0000     -12.146740      -330.5296
  12   2.0000     -12.142593      -330.4167
  13   2.0000     -12.140410      -330.3574
  14   2.0000     -12.076631      -328.6218
  15   2.0000     -12.076462      -328.6172
  16   2.0000     -12.073376      -328.5333
  17   2.0000     -12.071343      -328.4780
  18   2.0000     -11.317316      -307.9598
  19   2.0000     -11.317270      -307.9586
  20   2.0000     -11.316381      -307.9344
  21   2.0000     -11.316330      -307.9330
  22   2.0000      -9.109269      -247.8758
  23   2.0000      -9.109048      -247.8698
  24   2.0000      -9.108388      -247.8518
  25   2.0000      -9.107488      -247.8273
  26   2.0000      -9.106396      -247.7976
  27   2.0000      -9.106331      -247.7959
  28   2.0000      -9.106094      -247.7894
  29   2.0000      -9.105954      -247.7856
  30   2.0000      -9.105199      -247.7651
  31   2.0000      -9.105192      -247.7649
  32   2.0000      -9.105088      -247.7620
  33   2.0000      -9.104523      -247.7467
  34   2.0000      -1.787126       -48.6302
  35   2.0000      -1.770066       -48.1660
  36   2.0000      -1.494054       -40.6553
  37   2.0000      -1.458476       -39.6872
  38   2.0000      -1.445736       -39.3405
  39   2.0000      -1.424743       -38.7692
  40   2.0000      -1.423870       -38.7455
  41   2.0000      -1.390392       -37.8345
  42   2.0000      -1.340433       -36.4750
  43   2.0000      -1.329669       -36.1821
  44   2.0000      -1.294846       -35.2346
  45   2.0000      -1.291392       -35.1406
  46   2.0000      -1.235053       -33.6075
  47   2.0000      -1.182973       -32.1903
  48   2.0000      -1.175458       -31.9858
  49   2.0000      -1.134224       -30.8638
  50   2.0000      -1.120724       -30.4965
  51   2.0000      -1.069507       -29.1028
  52   2.0000      -1.065914       -29.0050
  53   2.0000      -1.048428       -28.5292
  54   2.0000      -1.031329       -28.0639
  55   2.0000      -1.012392       -27.5486
  56   2.0000      -1.003110       -27.2960
  57   2.0000      -0.990634       -26.9565
  58   2.0000      -0.966953       -26.3121
  59   2.0000      -0.965795       -26.2806
  60   2.0000      -0.948581       -25.8122
  61   2.0000      -0.941331       -25.6149
  62   2.0000      -0.920827       -25.0570
  63   2.0000      -0.917291       -24.9607
  64   2.0000      -0.883168       -24.0322
  65   2.0000      -0.864385       -23.5211
  66   2.0000      -0.847737       -23.0681
  67   2.0000      -0.843695       -22.9581
  68   2.0000      -0.829417       -22.5696
  69   2.0000      -0.819215       -22.2920
  70   2.0000      -0.818965       -22.2852
  71   2.0000      -0.818128       -22.2624
  72   2.0000      -0.811723       -22.0881
  73   2.0000      -0.805121       -21.9085
  74   2.0000      -0.802640       -21.8409
  75   2.0000      -0.775148       -21.0928
  76   2.0000      -0.694414       -18.8960
  77   2.0000      -0.689579       -18.7644
  78   2.0000      -0.667115       -18.1531
  79   2.0000      -0.663895       -18.0655
  80   0.0000      -0.355564        -9.6754
  81   0.0000      -0.318681        -8.6717
  82   0.0000      -0.313874        -8.5409
  83   0.0000      -0.282908        -7.6983
  84   0.0000      -0.270224        -7.3532

MULLIKEN ATOMIC CHARGES
-----------------------
   0 C :   -0.095382
   1 C :   -0.095988
   2 C :   -0.248344
   3 C :    0.214470
   4 C :    0.214311
   5 C :   -0.248549
   6 O :   -0.222211
   7 C :    0.216946
   8 C :    0.217694
   9 C :   -0.113913
  10 C :    0.040841
  11 C :    0.039395
  12 C :   -0.112425
  13 Cl:   -0.028233
  14 Cl:   -0.027056
  15 Cl:   -0.027165
  16 Cl:   -0.028168
  17 O :   -0.222208
  18 H :    0.127253
  19 H :    0.127181
  20 H :    0.135802
  21 H :    0.135750
Sum of atomic charges:   -0.0000000

LOEWDIN ATOMIC CHARGES
----------------------
   0 C :   -0.135278
   1 C :   -0.135280
   2 C :   -0.100512
   3 C :   -0.188867
   4 C :   -0.188866
   5 C :   -0.100514
   6 O :    0.325240
   7 C :   -0.212622
   8 C :   -0.212621
   9 C :   -0.412010
  10 C :   -0.450099
  11 C :   -0.450100
  12 C :   -0.412008
  13 Cl:    0.439895
  14 Cl:    0.434256
  15 Cl:    0.434255
  16 Cl:    0.439894
  17 O :    0.325240
  18 H :    0.145889
  19 H :    0.145890
  20 H :    0.154109
  21 H :    0.154109

  Mayer bond orders larger than 0.100000
B(  0-C ,  1-C ) :   1.4276 B(  0-C ,  5-C ) :   1.4092 B(  0-C , 18-H ) :   0.9749
B(  1-C ,  2-C ) :   1.4087 B(  1-C , 19-H ) :   0.9753 B(  2-C ,  3-C ) :   1.4110
B(  2-C , 20-H ) :   0.9703 B(  3-C ,  4-C ) :   1.3751 B(  3-C , 17-O ) :   1.0039
B(  4-C ,  5-C ) :   1.4113 B(  4-C ,  6-O ) :   1.0040 B(  5-C , 21-H ) :   0.9703
B(  6-O ,  7-C ) :   1.1109 B(  7-C ,  8-C ) :   1.3951 B(  7-C , 12-C ) :   1.2962
B(  8-C ,  9-C ) :   1.2953 B(  8-C , 17-O ) :   1.1108 B(  9-C , 10-C ) :   1.3090
B(  9-C , 16-Cl) :   1.2343 B( 10-C , 11-C ) :   1.3397 B( 10-C , 15-Cl) :   1.1864
B( 11-C , 12-C ) :   1.3083 B( 11-C , 14-Cl) :   1.1879 B( 12-C , 13-Cl) :   1.2331

FINAL SINGLE POINT ENERGY     -2450.733653188088

DIPOLE MOMENT
-------------

Method             : SCF
Type of density    : Electron Density
Multiplicity       :   1
Irrep              :   0
Energy             : -2450.7456485696880009 Eh
Relativity type    :
Basis              : AO
                                X                 Y                 Z
Electronic contribution:    -28.918343789       0.000006588      -0.003181293
Nuclear contribution   :     30.228223500      -0.000006823       0.003619505
                        -----------------------------------------
Total Dipole Moment    :      1.309879710      -0.000000235       0.000438212
                        -----------------------------------------
Magnitude (a.u.)       :      1.309879784
Magnitude (Debye)      :      3.329449814

Rotational constants in cm-1:             0.015494             0.007006             0.004825
Rotational constants in MHz :           464.506740           210.039081           144.637432

                             ****ORCA TERMINATED NORMALLY****
TOTAL RUN TIME: 0 days 0 hours 10 minutes 20 seconds 665 msec
