                         Program Version 6.0.0  -   RELEASE  -
|  1> ! wb97x-v def2-tzvp def2/J RIJCOSX DEFGRID2 scfconv7 GCP(DFT/TZ) printgap
|  2> %output
|  3>     printlevel normal
|  4> end
|  5> %cpcm
|  6>     smd true
|  7>     smdsolvent "water"
|  8> end
|  9> * xyz 0 1
| 10> C 5.161439134422528 0.6958671412363008 0.001329781282820117
| 11> C 5.161438890241436 -0.695869099915974 0.0010788332190285403
| 12> C 3.9575729371623902 -1.3975650488071203 0.00028086161217748615
| 13> C 2.7658855849870942 -0.6940174774983382 -0.00029748504307406076
| 14> C 2.7658857921685027 0.694017177702721 -9.737222402289658e-05
| 15> C 3.9575735279849513 1.397563875757407 0.000751590844739949
| 16> O 1.5803421311229082 1.4234024657034712 -0.0008593732215384145
| 17> C 0.4198188617063359 0.6971384288351204 -0.0005817130917125229
| 18> C 0.4198187071940518 -0.6971376112190176 -0.0007016666279505223
| 19> C -0.7863455913881483 -1.3914431025571592 -0.00033405710670219966
| 20> C -2.002123428647107 -0.6980570673451105 1.6363359940588425e-05
| 21> C -2.0021235152356756 0.6980590631897883 5.961943056309525e-05
| 22> C -0.7863451881791278 1.3914444981062732 -0.00022736136051244334
| 23> Cl -0.7424782207119259 3.1231602967326175 -0.00016195876543530915
| 24> Cl -3.4941528026015933 1.575421961596021 0.00048781258839117
| 25> Cl -3.494153041558061 -1.575420381463551 0.00045153271990314235
| 26> Cl -0.7424793155385001 -3.1231588619170942 -0.00038239389517617496
| 27> O 1.580341516040143 -1.4234021351554456 -0.001184415200381347
| 28> H 6.096869577792306 1.2440788740076107 0.00196700378785283
| 29> H 6.096869133405282 -1.244081347314905 0.001501211758139134
| 30> H 3.929835155631127 -2.4818728625918682 7.174511351858093e-05
| 31> H 3.9298362209120383 2.4818717521640172 0.0009094276945626914
| 32> *
| 33>
| 34>                          ****END OF INPUT****

CARTESIAN COORDINATES (ANGSTROEM)
---------------------------------
  C      5.161439    0.695867    0.001330
  C      5.161439   -0.695869    0.001079
  C      3.957573   -1.397565    0.000281
  C      2.765886   -0.694017   -0.000297
  C      2.765886    0.694017   -0.000097
  C      3.957574    1.397564    0.000752
  O      1.580342    1.423402   -0.000859
  C      0.419819    0.697138   -0.000582
  C      0.419819   -0.697138   -0.000702
  C     -0.786346   -1.391443   -0.000334
  C     -2.002123   -0.698057    0.000016
  C     -2.002124    0.698059    0.000060
  C     -0.786345    1.391444   -0.000227
  Cl    -0.742478    3.123160   -0.000162
  Cl    -3.494153    1.575422    0.000488
  Cl    -3.494153   -1.575420    0.000452
  Cl    -0.742479   -3.123159   -0.000382
  O      1.580342   -1.423402   -0.001184
  H      6.096870    1.244079    0.001967
  H      6.096869   -1.244081    0.001501
  H      3.929835   -2.481873    0.000072
  H      3.929836    2.481872    0.000909

 Total Charge           Charge          ....    0
 Multiplicity           Mult            ....    1
 Number of Electrons    NEL             ....  160
 Basis Dimension        Dim             ....  606

ORBITAL ENERGIES
----------------

  NO   OCC          E(Eh)            E(eV)
   0   2.0000    -107.166810     -2916.1572
   1   2.0000    -107.166798     -2916.1568
   2   2.0000    -107.166535     -2916.1497
   3   2.0000    -107.166501     -2916.1487
   4   2.0000     -21.748363      -591.8030
   5   2.0000     -21.748315      -591.8017
   6   2.0000     -12.157508      -330.8226
   7   2.0000     -12.155447      -330.7665
   8   2.0000     -12.149756      -330.6117
   9   2.0000     -12.148116      -330.5670
  10   2.0000     -12.145577      -330.4980
  11   2.0000     -12.145020      -330.4828
  12   2.0000     -12.132749      -330.1489
  13   2.0000     -12.130563      -330.0894
  14   2.0000     -12.063276      -328.2584
  15   2.0000     -12.063085      -328.2532
  16   2.0000     -12.058974      -328.1414
  17   2.0000     -12.056934      -328.0859
  18   2.0000     -11.319724      -308.0254
  19   2.0000     -11.319672      -308.0239
  20   2.0000     -11.319548      -308.0206
  21   2.0000     -11.319489      -308.0189
  22   2.0000      -9.111799      -247.9447
  23   2.0000      -9.111625      -247.9399
  24   2.0000      -9.111349      -247.9324
  25   2.0000      -9.110502      -247.9094
  26   2.0000      -9.109193      -247.8738
  27   2.0000      -9.108746      -247.8616
  28   2.0000      -9.108616      -247.8581
  29   2.0000      -9.108450      -247.8535
  30   2.0000      -9.108319      -247.8500
  31   2.0000      -9.108284      -247.8490
  32   2.0000      -9.108038      -247.8423
  33   2.0000      -9.107644      -247.8316
  34   2.0000      -1.781661       -48.4815
  35   2.0000      -1.764827       -48.0234
  36   2.0000      -1.493675       -40.6450
  37   2.0000      -1.459772       -39.7224
  38   2.0000      -1.445808       -39.3424
  39   2.0000      -1.426597       -38.8197
  40   2.0000      -1.418250       -38.5925
  41   2.0000      -1.386643       -37.7325
  42   2.0000      -1.333764       -36.2936
  43   2.0000      -1.323867       -36.0243
  44   2.0000      -1.287921       -35.0461
  45   2.0000      -1.285455       -34.9790
  46   2.0000      -1.228891       -33.4398
  47   2.0000      -1.178925       -32.0802
  48   2.0000      -1.167310       -31.7641
  49   2.0000      -1.127102       -30.6700
  50   2.0000      -1.115501       -30.3543
  51   2.0000      -1.065469       -28.9929
  52   2.0000      -1.057846       -28.7855
  53   2.0000      -1.043610       -28.3981
  54   2.0000      -1.025873       -27.9154
  55   2.0000      -1.006920       -27.3997
  56   2.0000      -0.998224       -27.1631
  57   2.0000      -0.989201       -26.9175
  58   2.0000      -0.967830       -26.3360
  59   2.0000      -0.957420       -26.0527
  60   2.0000      -0.942528       -25.6475
  61   2.0000      -0.936029       -25.4706
  62   2.0000      -0.919374       -25.0174
  63   2.0000      -0.902005       -24.5448
  64   2.0000      -0.882728       -24.0202
  65   2.0000      -0.848553       -23.0903
  66   2.0000      -0.845504       -23.0073
  67   2.0000      -0.832646       -22.6575
  68   2.0000      -0.831481       -22.6258
  69   2.0000      -0.822210       -22.3735
  70   2.0000      -0.822165       -22.3722
  71   2.0000      -0.821512       -22.3545
  72   2.0000      -0.814627       -22.1671
  73   2.0000      -0.806057       -21.9339
  74   2.0000      -0.797162       -21.6919
  75   2.0000      -0.772745       -21.0275
  76   2.0000      -0.690222       -18.7819
  77   2.0000      -0.687382       -18.7046
  78   2.0000      -0.656505       -17.8644
  79   2.0000      -0.654312       -17.8047
  80   0.0000      -0.355198        -9.6654
  81   0.0000      -0.315993        -8.5986
  82   0.0000      -0.310415        -8.4468
  83   0.0000      -0.283063        -7.7025
  84   0.0000      -0.266189        -7.2434

MULLIKEN ATOMIC CHARGES
-----------------------
   0 C :   -0.136363
   1 C :   -0.137026
   2 C :   -0.286961
   3 C :    0.239638
   4 C :    0.239582
   5 C :   -0.287241
   6 O :   -0.247469
   7 C :    0.245456
   8 C :    0.246141
   9 C :   -0.110119
  10 C :    0.048788
  11 C :    0.047362
  12 C :   -0.108658
  13 Cl:   -0.043963
  14 Cl:   -0.043420
  15 Cl:   -0.043527
  16 Cl:   -0.043896
  17 O :   -0.247466
  18 H :    0.167655
  19 H :    0.167580
  20 H :    0.166986
  21 H :    0.166920
Sum of atomic charges:   -0.0000000

LOEWDIN ATOMIC CHARGES
----------------------
   0 C :   -0.139158
   1 C :   -0.139161
   2 C :   -0.103393
   3 C :   -0.189747
   4 C :   -0.189746
   5 C :   -0.103395
   6 O :    0.317607
   7 C :   -0.200208
   8 C :   -0.200208
   9 C :   -0.408466
  10 C :   -0.448135
  11 C :   -0.448135
  12 C :   -0.408464
  13 Cl:    0.429423
  14 Cl:    0.423339
  15 Cl:    0.423338
  16 Cl:    0.429423
  17 O :    0.317607
  18 H :    0.155654
  19 H :    0.155655
  20 H :    0.163084
  21 H :    0.163084

  Mayer bond orders larger than 0.100000
B(  0-C ,  1-C ) :   1.4050 B(  0-C ,  5-C ) :   1.3921 B(  0-C , 18-H ) :   0.9776
B(  1-C ,  2-C ) :   1.3916 B(  1-C , 19-H ) :   0.9781 B(  2-C ,  3-C ) :   1.3589
B(  2-C , 20-H ) :   0.9856 B(  3-C ,  4-C ) :   1.3731 B(  3-C , 17-O ) :   0.9879
B(  4-C ,  5-C ) :   1.3592 B(  4-C ,  6-O ) :   0.9879 B(  5-C , 21-H ) :   0.9856
B(  6-O ,  7-C ) :   1.0999 B(  7-C ,  8-C ) :   1.4061 B(  7-C , 12-C ) :   1.2932
B(  8-C ,  9-C ) :   1.2924 B(  8-C , 17-O ) :   1.0999 B(  9-C , 10-C ) :   1.3094
B(  9-C , 16-Cl) :   1.2063 B( 10-C , 11-C ) :   1.3453 B( 10-C , 15-Cl) :   1.1630
B( 11-C , 12-C ) :   1.3087 B( 11-C , 14-Cl) :   1.1645 B( 12-C , 13-Cl) :   1.2051

FINAL SINGLE POINT ENERGY     -2450.734993445217

DIPOLE MOMENT
-------------

Method             : SCF
Type of density    : Electron Density
Multiplicity       :   1
Irrep              :   0
Energy             : -2450.7469888268174145 Eh
Relativity type    :
Basis              : AO
                                X                 Y                 Z
Electronic contribution:    -28.481925894       0.000007259      -0.003021304
Nuclear contribution   :     30.228223500      -0.000006823       0.003619505
                        -----------------------------------------
Total Dipole Moment    :      1.746297606       0.000000436       0.000598201
                        -----------------------------------------
Magnitude (a.u.)       :      1.746297708
Magnitude (Debye)      :      4.438736022

Rotational constants in cm-1:             0.015494             0.007006             0.004825
Rotational constants in MHz :           464.506740           210.039081           144.637432

                             ****ORCA TERMINATED NORMALLY****
TOTAL RUN TIME: 0 days 0 hours 10 minutes 5 seconds 381 msec
