                         Program Version 6.0.0  -   RELEASE  -
|  1> ! pbe def2-sv(p) def2/J RI DEFGRID1 loosescf d4 GCP(DFT/SV(P)) printgap
|  2> %output
|  3>     printlevel normal
|  4> end
|  5> * xyz 0 1
|  6> C -1.8009574613 -0.6187305544 -1.1258751114
|  7> C -1.2399902727 -0.5586213957 0.30374175
|  8> H -2.0531773349 -0.8749624139 0.9713918338
|  9> C -0.8239254834 0.8713402 0.6700312088
| 10> H -1.6352501519 1.5423077681 0.3566020485
| 11> C 0.4453173057 1.3139300964 -0.0798949758
| 12> H 1.0024083581 1.9708506136 0.6033505443
| 13> C 1.360548515 0.1235162878 -0.4070780217
| 14> H 1.1174127917 -0.2647412793 -1.4089262545
| 15> C 1.114895057 -1.0124218619 0.5913503819
| 16> H 1.3059706097 -0.6377731867 1.61606488
| 17> O -0.2009758515 -1.5087335665 0.5032299588
| 18> O 1.9820559609 -2.0474155935 0.275656817
| 19> O 2.6927502131 0.5637619726 -0.3630878768
| 20> O 0.0595849865 2.0069509495 -1.2400009649
| 21> O -0.5626448255 1.0041241988 2.0482462213
| 22> O -3.119488176 -0.1233668631 -1.0726378266
| 23> H -1.7851120705 -1.6661115777 -1.4528833912
| 24> H -1.1865833464 -0.0135238776 -1.7996943223
| 25> H 1.7190201739 -2.8461020247 0.7576209825
| 26> H 3.2768054975 -0.207793841 -0.4243198865
| 27> H 0.8395509351 2.4256118445 -1.6325656504
| 28> H -1.3843726551 0.8916448898 2.5482332775
| 29> H -3.4790726872 -0.0759926676 -1.969568205
| 30> *
| 31>
| 32>                          ****END OF INPUT****

CARTESIAN COORDINATES (ANGSTROEM)
---------------------------------
  C     -1.800957   -0.618731   -1.125875
  C     -1.239990   -0.558621    0.303742
  H     -2.053177   -0.874962    0.971392
  C     -0.823925    0.871340    0.670031
  H     -1.635250    1.542308    0.356602
  C      0.445317    1.313930   -0.079895
  H      1.002408    1.970851    0.603351
  C      1.360549    0.123516   -0.407078
  H      1.117413   -0.264741   -1.408926
  C      1.114895   -1.012422    0.591350
  H      1.305971   -0.637773    1.616065
  O     -0.200976   -1.508734    0.503230
  O      1.982056   -2.047416    0.275657
  O      2.692750    0.563762   -0.363088
  O      0.059585    2.006951   -1.240001
  O     -0.562645    1.004124    2.048246
  O     -3.119488   -0.123367   -1.072638
  H     -1.785112   -1.666112   -1.452883
  H     -1.186583   -0.013524   -1.799694
  H      1.719020   -2.846102    0.757621
  H      3.276805   -0.207794   -0.424320
  H      0.839551    2.425612   -1.632566
  H     -1.384373    0.891645    2.548233
  H     -3.479073   -0.075993   -1.969568

 Total Charge           Charge          ....    0
 Multiplicity           Mult            ....    1
 Number of Electrons    NEL             ....   96
 Basis Dimension        Dim             ....  192

ORBITAL ENERGIES
----------------

  NO   OCC          E(Eh)            E(eV)
   0   2.0000     -18.760453      -510.4979
   1   2.0000     -18.759934      -510.4838
   2   2.0000     -18.753846      -510.3181
   3   2.0000     -18.753132      -510.2987
   4   2.0000     -18.749087      -510.1886
   5   2.0000     -18.747033      -510.1327
   6   2.0000      -9.975877      -271.4574
   7   2.0000      -9.940911      -270.5059
   8   2.0000      -9.940314      -270.4897
   9   2.0000      -9.939145      -270.4579
  10   2.0000      -9.932263      -270.2706
  11   2.0000      -9.925366      -270.0829
  12   2.0000      -0.976689       -26.5771
  13   2.0000      -0.938608       -25.5408
  14   2.0000      -0.931456       -25.3462
  15   2.0000      -0.923101       -25.1189
  16   2.0000      -0.917469       -24.9656
  17   2.0000      -0.904906       -24.6237
  18   2.0000      -0.702605       -19.1189
  19   2.0000      -0.684365       -18.6225
  20   2.0000      -0.615116       -16.7382
  21   2.0000      -0.579071       -15.7573
  22   2.0000      -0.558516       -15.1980
  23   2.0000      -0.510048       -13.8791
  24   2.0000      -0.501731       -13.6528
  25   2.0000      -0.492624       -13.4050
  26   2.0000      -0.476658       -12.9705
  27   2.0000      -0.457336       -12.4447
  28   2.0000      -0.435256       -11.8439
  29   2.0000      -0.423004       -11.5105
  30   2.0000      -0.409766       -11.1503
  31   2.0000      -0.391179       -10.6445
  32   2.0000      -0.381241       -10.3741
  33   2.0000      -0.375957       -10.2303
  34   2.0000      -0.357481        -9.7275
  35   2.0000      -0.352222        -9.5844
  36   2.0000      -0.320744        -8.7279
  37   2.0000      -0.318466        -8.6659
  38   2.0000      -0.303558        -8.2602
  39   2.0000      -0.283390        -7.7114
  40   2.0000      -0.279628        -7.6091
  41   2.0000      -0.270578        -7.3628
  42   2.0000      -0.242816        -6.6074
  43   2.0000      -0.231770        -6.3068
  44   2.0000      -0.226103        -6.1526
  45   2.0000      -0.218082        -5.9343
  46   2.0000      -0.210210        -5.7201
  47   2.0000      -0.197859        -5.3840
  48   0.0000       0.020568         0.5597
  49   0.0000       0.027369         0.7448
  50   0.0000       0.031461         0.8561
  51   0.0000       0.043146         1.1741
  52   0.0000       0.060448         1.6449

MULLIKEN ATOMIC CHARGES
-----------------------
   0 C :    0.015691
   1 C :    0.050370
   2 H :    0.058184
   3 C :    0.013601
   4 H :    0.086459
   5 C :    0.097019
   6 H :    0.078259
   7 C :    0.010886
   8 H :    0.049128
   9 C :    0.200954
  10 H :    0.051405
  11 O :   -0.324387
  12 O :   -0.397993
  13 O :   -0.426369
  14 O :   -0.411818
  15 O :   -0.414788
  16 O :   -0.440438
  17 H :    0.075376
  18 H :    0.093627
  19 H :    0.309354
  20 H :    0.307743
  21 H :    0.309127
  22 H :    0.304653
  23 H :    0.303959
Sum of atomic charges:    0.0000000

LOEWDIN ATOMIC CHARGES
----------------------
   0 C :   -0.139849
   1 C :   -0.059585
   2 H :    0.108991
   3 C :   -0.068556
   4 H :    0.117651
   5 C :   -0.057462
   6 H :    0.119036
   7 C :   -0.093107
   8 H :    0.103366
   9 C :   -0.007332
  10 H :    0.087873
  11 O :   -0.157333
  12 O :   -0.309604
  13 O :   -0.322389
  14 O :   -0.314652
  15 O :   -0.315370
  16 O :   -0.343380
  17 H :    0.098877
  18 H :    0.103429
  19 H :    0.291795
  20 H :    0.286779
  21 H :    0.292441
  22 H :    0.288928
  23 H :    0.289453

  Mayer bond orders larger than 0.100000
B(  0-C ,  1-C ) :   1.0427 B(  0-C , 16-O ) :   1.0643 B(  0-C , 17-H ) :   0.9100
B(  0-C , 18-H ) :   0.8982 B(  1-C ,  2-H ) :   0.8810 B(  1-C ,  3-C ) :   1.0441
B(  1-C , 11-O ) :   1.0073 B(  3-C ,  4-H ) :   0.8822 B(  3-C ,  5-C ) :   1.0185
B(  3-C , 15-O ) :   1.0251 B(  5-C ,  6-H ) :   0.8611 B(  5-C ,  7-C ) :   1.0244
B(  5-C , 14-O ) :   1.0639 B(  7-C ,  8-H ) :   0.8423 B(  7-C ,  9-C ) :   1.0629
B(  7-C , 13-O ) :   1.0706 B(  9-C , 10-H ) :   0.8808 B(  9-C , 11-O ) :   1.0235
B(  9-C , 12-O ) :   1.1453 B( 12-O , 19-H ) :   0.8391 B( 13-O , 20-H ) :   0.8351
B( 14-O , 21-H ) :   0.8456 B( 15-O , 22-H ) :   0.8471 B( 16-O , 23-H ) :   0.8495

Dispersion correction           -0.024661015
FINAL SINGLE POINT ENERGY      -685.687209815366

DIPOLE MOMENT
-------------

Method             : SCF
Type of density    : Electron Density
Multiplicity       :   1
Irrep              :   0
Energy             :  -685.8167493309964584 Eh
Relativity type    :
Basis              : AO
                                X                 Y                 Z
Electronic contribution:      1.855984932      -0.554333832       1.430815499
Nuclear contribution   :     -2.109904648       0.226813209      -1.719012213
                        -----------------------------------------
Total Dipole Moment    :     -0.253919716      -0.327520624      -0.288196714
                        -----------------------------------------
Magnitude (a.u.)       :      0.504779483
Magnitude (Debye)      :      1.283047481

Rotational constants in cm-1:             0.039617             0.025520             0.022014
Rotational constants in MHz :          1187.685363           765.081047           659.970244

                             ****ORCA TERMINATED NORMALLY****
TOTAL RUN TIME: 0 days 0 hours 0 minutes 11 seconds 841 msec
