                         Program Version 6.0.0  -   RELEASE  -
|  1> ! pbe def2-sv(p) def2/J RI DEFGRID1 loosescf d4 GCP(DFT/SV(P)) printgap
|  2> %output
|  3>     printlevel normal
|  4> end
|  5> * xyz 0 1
|  6> C -1.8941730666 8.6584e-06 -0.7901184945
|  7> N -1.1010511344 -4.15239e-05 0.4215465303
|  8> C -0.2919402939 1.1942807584 0.5941578873
|  9> C 0.9428749499 1.2489393407 -0.314634209
| 10> C 1.7948857015 5.41909e-05 -0.099313696
| 11> C 0.9428958804 -1.2488587558 -0.3145107335
| 12> C -0.2921005318 -1.1943793978 0.5940863032
| 13> H -2.5307337435 0.8839119605 -0.7870695361
| 14> H -2.5301787801 -0.8843388885 -0.7874807865
| 15> H -1.3069875348 0.00030812 -1.71892509
| 16> H -0.9278918292 2.065866043 0.4239341703
| 17> H 0.0354617094 1.2102628315 1.6390393478
| 18> H 0.629373937 1.3051542881 -1.3593115531
| 19> H 1.5190576306 2.147216361 -0.0887725697
| 20> H 2.6477312276 0.0001536634 -0.7816388346
| 21> H 2.1804838101 4.01202e-05 0.9233680566
| 22> H 0.6294137901 -1.3051654689 -1.3591646227
| 23> H 1.5189680096 -2.1471717649 -0.0884713315
| 24> H -0.928140246 -2.065917256 0.4238967452
| 25> H 0.0353185759 -1.2102767668 1.6389303496
| 26> *
| 27>
| 28>                          ****END OF INPUT****

CARTESIAN COORDINATES (ANGSTROEM)
---------------------------------
  C     -1.894173    0.000009   -0.790118
  N     -1.101051   -0.000042    0.421547
  C     -0.291940    1.194281    0.594158
  C      0.942875    1.248939   -0.314634
  C      1.794886    0.000054   -0.099314
  C      0.942896   -1.248859   -0.314511
  C     -0.292101   -1.194379    0.594086
  H     -2.530734    0.883912   -0.787070
  H     -2.530179   -0.884339   -0.787481
  H     -1.306988    0.000308   -1.718925
  H     -0.927892    2.065866    0.423934
  H      0.035462    1.210263    1.639039
  H      0.629374    1.305154   -1.359312
  H      1.519058    2.147216   -0.088773
  H      2.647731    0.000154   -0.781639
  H      2.180484    0.000040    0.923368
  H      0.629414   -1.305165   -1.359165
  H      1.518968   -2.147172   -0.088471
  H     -0.928140   -2.065917    0.423897
  H      0.035319   -1.210277    1.638930

 Total Charge           Charge          ....    0
 Multiplicity           Mult            ....    1
 Number of Electrons    NEL             ....   56
 Basis Dimension        Dim             ....  124

ORBITAL ENERGIES
----------------

  NO   OCC          E(Eh)            E(eV)
   0   2.0000     -13.971055      -380.1717
   1   2.0000      -9.901789      -269.4414
   2   2.0000      -9.901778      -269.4411
   3   2.0000      -9.896571      -269.2994
   4   2.0000      -9.881388      -268.8862
   5   2.0000      -9.878805      -268.8160
   6   2.0000      -9.878783      -268.8154
   7   2.0000      -0.836056       -22.7502
   8   2.0000      -0.711269       -19.3546
   9   2.0000      -0.671028       -18.2596
  10   2.0000      -0.622732       -16.9454
  11   2.0000      -0.554341       -15.0844
  12   2.0000      -0.542128       -14.7521
  13   2.0000      -0.488142       -13.2830
  14   2.0000      -0.436731       -11.8841
  15   2.0000      -0.418154       -11.3785
  16   2.0000      -0.400139       -10.8883
  17   2.0000      -0.389458       -10.5977
  18   2.0000      -0.367210        -9.9923
  19   2.0000      -0.365003        -9.9322
  20   2.0000      -0.336462        -9.1556
  21   2.0000      -0.325141        -8.8475
  22   2.0000      -0.318406        -8.6643
  23   2.0000      -0.297992        -8.1088
  24   2.0000      -0.297258        -8.0888
  25   2.0000      -0.278641        -7.5822
  26   2.0000      -0.271010        -7.3746
  27   2.0000      -0.156116        -4.2481
  28   0.0000       0.030897         0.8408
  29   0.0000       0.053375         1.4524
  30   0.0000       0.071806         1.9539
  31   0.0000       0.075377         2.0511
  32   0.0000       0.088384         2.4050

MULLIKEN ATOMIC CHARGES
-----------------------
   0 C :   -0.177457
   1 N :   -0.278026
   2 C :   -0.062081
   3 C :   -0.175564
   4 C :   -0.154121
   5 C :   -0.175576
   6 C :   -0.062054
   7 H :    0.100311
   8 H :    0.100299
   9 H :    0.081590
  10 H :    0.081211
  11 H :    0.072569
  12 H :    0.083562
  13 H :    0.083349
  14 H :    0.088452
  15 H :    0.072895
  16 H :    0.083536
  17 H :    0.083347
  18 H :    0.081232
  19 H :    0.072527
Sum of atomic charges:   -0.0000000

LOEWDIN ATOMIC CHARGES
----------------------
   0 C :   -0.259618
   1 N :   -0.146693
   2 C :   -0.158214
   3 C :   -0.246283
   4 C :   -0.226849
   5 C :   -0.246286
   6 C :   -0.158234
   7 H :    0.113657
   8 H :    0.113656
   9 H :    0.085590
  10 H :    0.110216
  11 H :    0.108409
  12 H :    0.114887
  13 H :    0.117669
  14 H :    0.114859
  15 H :    0.112069
  16 H :    0.114882
  17 H :    0.117664
  18 H :    0.110219
  19 H :    0.108399

  Mayer bond orders larger than 0.100000
B(  0-C ,  1-N ) :   1.0488 B(  0-C ,  7-H ) :   0.9549 B(  0-C ,  8-H ) :   0.9549
B(  0-C ,  9-H ) :   0.9202 B(  1-N ,  2-C ) :   1.0731 B(  1-N ,  6-C ) :   1.0731
B(  2-C ,  3-C ) :   1.1065 B(  2-C , 10-H ) :   0.9262 B(  2-C , 11-H ) :   0.9188
B(  3-C ,  4-C ) :   1.1181 B(  3-C , 12-H ) :   0.9125 B(  3-C , 13-H ) :   0.9155
B(  4-C ,  5-C ) :   1.1181 B(  4-C , 14-H ) :   0.9262 B(  4-C , 15-H ) :   0.9205
B(  5-C ,  6-C ) :   1.1065 B(  5-C , 16-H ) :   0.9125 B(  5-C , 17-H ) :   0.9155
B(  6-C , 18-H ) :   0.9263 B(  6-C , 19-H ) :   0.9188

Dispersion correction           -0.018140633
FINAL SINGLE POINT ENERGY      -290.492109314394

DIPOLE MOMENT
-------------

Method             : SCF
Type of density    : Electron Density
Multiplicity       :   1
Irrep              :   0
Energy             :  -290.5645225250030990 Eh
Relativity type    :
Basis              : AO
                                X                 Y                 Z
Electronic contribution:     -0.742192651       0.000019477       1.585839842
Nuclear contribution   :      0.905757240       0.000040341      -1.800532003
                        -----------------------------------------
Total Dipole Moment    :      0.163564589       0.000059818      -0.214692161
                        -----------------------------------------
Magnitude (a.u.)       :      0.269900171
Magnitude (Debye)      :      0.686031715

Rotational constants in cm-1:             0.126031             0.087783             0.066507
Rotational constants in MHz :          3778.311462          2631.673570          1993.840436

                             ****ORCA TERMINATED NORMALLY****
TOTAL RUN TIME: 0 days 0 hours 0 minutes 7 seconds 401 msec
