                         Program Version 6.0.0  -   RELEASE  -
|  1> ! wb97x-v def2-tzvp def2/J RIJCOSX DEFGRID2 scfconv7 GCP(DFT/TZ) printgap
|  2> %output
|  3>     printlevel normal
|  4> end
|  5> * xyz 0 1
|  6> C -2.0146203485123433 -0.1849700456992018 0.47620093010772757
|  7> C -0.9038034828389184 0.04797842203078191 -0.5474735504928109
|  8> C 0.4575721729535123 0.1048355485017668 0.10758376157094994
|  9> O 0.834834967184866 -0.7745638215323359 0.9021527394392556
| 10> N 1.2396944250636386 1.148176636217686 -0.22239062387480793
| 11> H -2.981720594975028 -0.25774764676392237 -0.027996470504366038
| 12> H -1.84908563177111 -1.1119905407008381 1.0310910462505765
| 13> H -2.0639365665348897 0.6409831447599582 1.192627625729491
| 14> H -1.0912494074697652 0.9591837865672989 -1.1227823283842036
| 15> H -0.8727940039640614 -0.7871861851799313 -1.2587385218241103
| 16> H 0.9176798189778534 1.8601081132154693 -0.8585109193957138
| 17> H 2.166209389217926 1.2237607077277337 0.17183138764482117
| 18> *
| 19>
| 20>                          ****END OF INPUT****

CARTESIAN COORDINATES (ANGSTROEM)
---------------------------------
  C     -2.014620   -0.184970    0.476201
  C     -0.903803    0.047978   -0.547474
  C      0.457572    0.104836    0.107584
  O      0.834835   -0.774564    0.902153
  N      1.239694    1.148177   -0.222391
  H     -2.981721   -0.257748   -0.027996
  H     -1.849086   -1.111991    1.031091
  H     -2.063937    0.640983    1.192628
  H     -1.091249    0.959184   -1.122782
  H     -0.872794   -0.787186   -1.258739
  H      0.917680    1.860108   -0.858511
  H      2.166209    1.223761    0.171831

 Total Charge           Charge          ....    0
 Multiplicity           Mult            ....    1
 Number of Electrons    NEL             ....   40
 Basis Dimension        Dim             ....  197

ORBITAL ENERGIES
----------------

  NO   OCC          E(Eh)            E(eV)
   0   2.0000     -21.626823      -588.4958
   1   2.0000     -16.554309      -450.4657
   2   2.0000     -12.149451      -330.6034
   3   2.0000     -12.060017      -328.1697
   4   2.0000     -12.040693      -327.6439
   5   2.0000      -1.675405       -45.5901
   6   2.0000      -1.507652       -41.0253
   7   2.0000      -1.290751       -35.1231
   8   2.0000      -1.168901       -31.8074
   9   2.0000      -1.104260       -30.0484
  10   2.0000      -1.043484       -28.3947
  11   2.0000      -1.018743       -27.7214
  12   2.0000      -0.934149       -25.4195
  13   2.0000      -0.907999       -24.7079
  14   2.0000      -0.868027       -23.6202
  15   2.0000      -0.836940       -22.7743
  16   2.0000      -0.826725       -22.4963
  17   2.0000      -0.791202       -21.5297
  18   2.0000      -0.788081       -21.4448
  19   2.0000      -0.779577       -21.2134
  20   0.0000      -0.273972        -7.4552
  21   0.0000      -0.073419        -1.9978
  22   0.0000      -0.046123        -1.2551
  23   0.0000      -0.030590        -0.8324
  24   0.0000       0.001685         0.0458

MULLIKEN ATOMIC CHARGES
-----------------------
   0 C :   -0.344010
   1 C :   -0.148801
   2 C :    0.272528
   3 O :   -0.398513
   4 N :   -0.418759
   5 H :    0.112406
   6 H :    0.138434
   7 H :    0.106370
   8 H :    0.078772
   9 H :    0.114424
  10 H :    0.239513
  11 H :    0.247636
Sum of atomic charges:   -0.0000000

LOEWDIN ATOMIC CHARGES
----------------------
   0 C :   -0.292773
   1 C :   -0.251359
   2 C :   -0.466545
   3 O :    0.021184
   4 N :    0.009837
   5 H :    0.116326
   6 H :    0.127381
   7 H :    0.119039
   8 H :    0.129187
   9 H :    0.150390
  10 H :    0.166101
  11 H :    0.171232

  Mayer bond orders larger than 0.100000
B(  0-C ,  1-C ) :   0.9906 B(  0-C ,  5-H ) :   0.9790 B(  0-C ,  6-H ) :   0.9734
B(  0-C ,  7-H ) :   0.9774 B(  1-C ,  2-C ) :   0.9452 B(  1-C ,  8-H ) :   0.9709
B(  1-C ,  9-H ) :   0.9522 B(  2-C ,  3-O ) :   2.0749 B(  2-C ,  4-N ) :   1.2376
B(  4-N , 10-H ) :   0.9182 B(  4-N , 11-H ) :   0.9018

FINAL SINGLE POINT ENERGY      -248.544820529226

DIPOLE MOMENT
-------------

Method             : SCF
Type of density    : Electron Density
Multiplicity       :   1
Irrep              :   0
Energy             :  -248.5525531613260171 Eh
Relativity type    :
Basis              : AO
                                X                 Y                 Z
Electronic contribution:      4.770897801      -0.591966756       0.831066558
Nuclear contribution   :     -4.978955247       1.838401852      -1.786524282
                        -----------------------------------------
Total Dipole Moment    :     -0.208057446       1.246435097      -0.955457724
                        -----------------------------------------
Magnitude (a.u.)       :      1.584230985
Magnitude (Debye)      :      4.026795149

Rotational constants in cm-1:             0.298936             0.127955             0.099416
Rotational constants in MHz :          8961.882510          3835.985942          2980.406851

                             ****ORCA TERMINATED NORMALLY****
TOTAL RUN TIME: 0 days 0 hours 0 minutes 55 seconds 73 msec
