                         Program Version 6.0.0  -   RELEASE  -
|  1> ! wb97x-v def2-tzvp def2/J RIJCOSX DEFGRID2 scfconv7 GCP(DFT/TZ) printgap
|  2> %output
|  3>     printlevel normal
|  4> end
|  5> %cpcm
|  6>     smd true
|  7>     smdsolvent "water"
|  8> end
|  9> * xyz 0 1
| 10> C -2.0146203485123433 -0.1849700456992018 0.47620093010772757
| 11> C -0.9038034828389184 0.04797842203078191 -0.5474735504928109
| 12> C 0.4575721729535123 0.1048355485017668 0.10758376157094994
| 13> O 0.834834967184866 -0.7745638215323359 0.9021527394392556
| 14> N 1.2396944250636386 1.148176636217686 -0.22239062387480793
| 15> H -2.981720594975028 -0.25774764676392237 -0.027996470504366038
| 16> H -1.84908563177111 -1.1119905407008381 1.0310910462505765
| 17> H -2.0639365665348897 0.6409831447599582 1.192627625729491
| 18> H -1.0912494074697652 0.9591837865672989 -1.1227823283842036
| 19> H -0.8727940039640614 -0.7871861851799313 -1.2587385218241103
| 20> H 0.9176798189778534 1.8601081132154693 -0.8585109193957138
| 21> H 2.166209389217926 1.2237607077277337 0.17183138764482117
| 22> *
| 23>
| 24>                          ****END OF INPUT****

CARTESIAN COORDINATES (ANGSTROEM)
---------------------------------
  C     -2.014620   -0.184970    0.476201
  C     -0.903803    0.047978   -0.547474
  C      0.457572    0.104836    0.107584
  O      0.834835   -0.774564    0.902153
  N      1.239694    1.148177   -0.222391
  H     -2.981721   -0.257748   -0.027996
  H     -1.849086   -1.111991    1.031091
  H     -2.063937    0.640983    1.192628
  H     -1.091249    0.959184   -1.122782
  H     -0.872794   -0.787186   -1.258739
  H      0.917680    1.860108   -0.858511
  H      2.166209    1.223761    0.171831

 Total Charge           Charge          ....    0
 Multiplicity           Mult            ....    1
 Number of Electrons    NEL             ....   40
 Basis Dimension        Dim             ....  197

ORBITAL ENERGIES
----------------

  NO   OCC          E(Eh)            E(eV)
   0   2.0000     -21.643469      -588.9487
   1   2.0000     -16.545348      -450.2218
   2   2.0000     -12.157377      -330.8191
   3   2.0000     -12.048860      -327.8661
   4   2.0000     -12.033399      -327.4454
   5   2.0000      -1.694832       -46.1187
   6   2.0000      -1.500565       -40.8325
   7   2.0000      -1.283460       -34.9247
   8   2.0000      -1.164407       -31.6851
   9   2.0000      -1.099977       -29.9319
  10   2.0000      -1.049719       -28.5643
  11   2.0000      -1.016598       -27.6631
  12   2.0000      -0.937711       -25.5164
  13   2.0000      -0.920683       -25.0531
  14   2.0000      -0.862099       -23.4589
  15   2.0000      -0.843698       -22.9582
  16   2.0000      -0.824668       -22.4404
  17   2.0000      -0.789560       -21.4850
  18   2.0000      -0.784785       -21.3551
  19   2.0000      -0.769858       -20.9489
  20   0.0000      -0.275261        -7.4902
  21   0.0000      -0.058605        -1.5947
  22   0.0000      -0.026152        -0.7116
  23   0.0000      -0.019748        -0.5374
  24   0.0000       0.015552         0.4232

MULLIKEN ATOMIC CHARGES
-----------------------
   0 C :   -0.390323
   1 C :   -0.164286
   2 C :    0.307306
   3 O :   -0.563565
   4 N :   -0.427806
   5 H :    0.136687
   6 H :    0.123388
   7 H :    0.128941
   8 H :    0.128261
   9 H :    0.135025
  10 H :    0.300615
  11 H :    0.285757
Sum of atomic charges:   -0.0000000

LOEWDIN ATOMIC CHARGES
----------------------
   0 C :   -0.300128
   1 C :   -0.244223
   2 C :   -0.458820
   3 O :   -0.078642
   4 N :    0.038824
   5 H :    0.123164
   6 H :    0.119910
   7 H :    0.122847
   8 H :    0.145788
   9 H :    0.156324
  10 H :    0.190060
  11 H :    0.184895

  Mayer bond orders larger than 0.100000
B(  0-C ,  1-C ) :   0.9782 B(  0-C ,  5-H ) :   0.9763 B(  0-C ,  6-H ) :   0.9735
B(  0-C ,  7-H ) :   0.9751 B(  1-C ,  2-C ) :   0.9603 B(  1-C ,  8-H ) :   0.9637
B(  1-C ,  9-H ) :   0.9442 B(  2-C ,  3-O ) :   1.8944 B(  2-C ,  4-N ) :   1.3397
B(  4-N , 10-H ) :   0.8890 B(  4-N , 11-H ) :   0.8835

FINAL SINGLE POINT ENERGY      -248.561839782369

DIPOLE MOMENT
-------------

Method             : SCF
Type of density    : Electron Density
Multiplicity       :   1
Irrep              :   0
Energy             :  -248.5695724144687802 Eh
Relativity type    :
Basis              : AO
                                X                 Y                 Z
Electronic contribution:      4.675569575      -0.022137994       0.372621179
Nuclear contribution   :     -4.978955247       1.838401852      -1.786524282
                        -----------------------------------------
Total Dipole Moment    :     -0.303385673       1.816263858      -1.413903103
                        -----------------------------------------
Magnitude (a.u.)       :      2.321632885
Magnitude (Debye)      :      5.901121825

Rotational constants in cm-1:             0.298936             0.127955             0.099416
Rotational constants in MHz :          8961.882510          3835.985942          2980.406851

                             ****ORCA TERMINATED NORMALLY****
TOTAL RUN TIME: 0 days 0 hours 0 minutes 52 seconds 525 msec
