                         Program Version 6.0.0  -   RELEASE  -
|  1> ! pbe def2-sv(p) def2/J RI DEFGRID1 loosescf d4 GCP(DFT/SV(P)) printgap
|  2> %output
|  3>     printlevel normal
|  4> end
|  5> * xyz 0 1
|  6> C -1.9077192195 -0.5921596247 -0.8267588257
|  7> C -1.1772991529 -0.112926443 0.4361667905
|  8> H -1.8984586845 -0.0832748062 1.262400987
|  9> C -0.5950496131 1.2995887471 0.29104534
| 10> H -1.3315627777 1.9049394049 -0.2504757523
| 11> C 0.7113112407 1.2972533679 -0.5240741371
| 12> H 1.1853423895 2.2887370059 -0.4182579132
| 13> C 1.687826104 0.2716312981 0.0809906458
| 14> H 2.5496425573 0.1394250178 -0.5827826587
| 15> C 1.0307522384 -1.1122850692 0.2367712514
| 16> H 1.6536904702 -1.6971077294 0.9320811936
| 17> O -0.2190778907 -1.073490288 0.8800289964
| 18> O 0.9873304815 -1.7124497154 -1.0213501455
| 19> O 2.2008349769 0.7288763082 1.3040753714
| 20> O 0.3809123755 1.053627423 -1.8639819909
| 21> O -0.3769699538 1.8063416089 1.5909079527
| 22> O -2.7409390471 -1.6934852477 -0.5469713356
| 23> H -1.178312692 -0.8369229236 -1.6061651066
| 24> H -2.5643758434 0.1967411584 -1.1956718313
| 25> H 0.7903314663 -2.6569634828 -0.9397174011
| 26> H 1.4524705852 0.9346453985 1.8937431139
| 27> H 1.1861544154 1.0002826194 -2.3981526246
| 28> H -0.3217199032 2.7722894095 1.5661199622
| 29> H -2.2260723386 -2.3515649719 -0.0584035248
| 30> *
| 31>
| 32>                          ****END OF INPUT****

CARTESIAN COORDINATES (ANGSTROEM)
---------------------------------
  C     -1.907719   -0.592160   -0.826759
  C     -1.177299   -0.112926    0.436167
  H     -1.898459   -0.083275    1.262401
  C     -0.595050    1.299589    0.291045
  H     -1.331563    1.904939   -0.250476
  C      0.711311    1.297253   -0.524074
  H      1.185342    2.288737   -0.418258
  C      1.687826    0.271631    0.080991
  H      2.549643    0.139425   -0.582783
  C      1.030752   -1.112285    0.236771
  H      1.653690   -1.697108    0.932081
  O     -0.219078   -1.073490    0.880029
  O      0.987330   -1.712450   -1.021350
  O      2.200835    0.728876    1.304075
  O      0.380912    1.053627   -1.863982
  O     -0.376970    1.806342    1.590908
  O     -2.740939   -1.693485   -0.546971
  H     -1.178313   -0.836923   -1.606165
  H     -2.564376    0.196741   -1.195672
  H      0.790331   -2.656963   -0.939717
  H      1.452471    0.934645    1.893743
  H      1.186154    1.000283   -2.398153
  H     -0.321720    2.772289    1.566120
  H     -2.226072   -2.351565   -0.058404

 Total Charge           Charge          ....    0
 Multiplicity           Mult            ....    1
 Number of Electrons    NEL             ....   96
 Basis Dimension        Dim             ....  192

ORBITAL ENERGIES
----------------

  NO   OCC          E(Eh)            E(eV)
   0   2.0000     -18.776843      -510.9439
   1   2.0000     -18.768093      -510.7058
   2   2.0000     -18.764546      -510.6093
   3   2.0000     -18.762225      -510.5461
   4   2.0000     -18.742517      -510.0098
   5   2.0000     -18.732684      -509.7423
   6   2.0000      -9.983777      -271.6724
   7   2.0000      -9.954596      -270.8783
   8   2.0000      -9.948476      -270.7118
   9   2.0000      -9.941519      -270.5225
  10   2.0000      -9.940704      -270.5003
  11   2.0000      -9.915693      -269.8197
  12   2.0000      -0.980849       -26.6902
  13   2.0000      -0.953338       -25.9416
  14   2.0000      -0.938097       -25.5269
  15   2.0000      -0.919715       -25.0267
  16   2.0000      -0.918109       -24.9830
  17   2.0000      -0.903859       -24.5952
  18   2.0000      -0.708774       -19.2867
  19   2.0000      -0.684606       -18.6291
  20   2.0000      -0.617401       -16.8003
  21   2.0000      -0.587519       -15.9872
  22   2.0000      -0.576411       -15.6849
  23   2.0000      -0.524966       -14.2851
  24   2.0000      -0.505096       -13.7444
  25   2.0000      -0.477066       -12.9816
  26   2.0000      -0.473133       -12.8746
  27   2.0000      -0.465422       -12.6648
  28   2.0000      -0.445245       -12.1157
  29   2.0000      -0.434795       -11.8314
  30   2.0000      -0.414609       -11.2821
  31   2.0000      -0.389161       -10.5896
  32   2.0000      -0.382587       -10.4107
  33   2.0000      -0.375262       -10.2114
  34   2.0000      -0.362116        -9.8537
  35   2.0000      -0.347153        -9.4465
  36   2.0000      -0.331953        -9.0329
  37   2.0000      -0.327092        -8.9006
  38   2.0000      -0.305753        -8.3200
  39   2.0000      -0.291430        -7.9302
  40   2.0000      -0.283538        -7.7155
  41   2.0000      -0.266894        -7.2625
  42   2.0000      -0.249697        -6.7946
  43   2.0000      -0.240395        -6.5415
  44   2.0000      -0.236038        -6.4229
  45   2.0000      -0.230450        -6.2709
  46   2.0000      -0.206791        -5.6271
  47   2.0000      -0.198011        -5.3882
  48   0.0000       0.005460         0.1486
  49   0.0000       0.010448         0.2843
  50   0.0000       0.025246         0.6870
  51   0.0000       0.058212         1.5840
  52   0.0000       0.066298         1.8041

MULLIKEN ATOMIC CHARGES
-----------------------
   0 C :    0.050942
   1 C :    0.016914
   2 H :    0.079389
   3 C :    0.004145
   4 H :    0.081966
   5 C :    0.055194
   6 H :    0.054080
   7 C :    0.040723
   8 H :    0.067819
   9 C :    0.195337
  10 H :    0.069155
  11 O :   -0.329441
  12 O :   -0.394327
  13 O :   -0.432836
  14 O :   -0.398443
  15 O :   -0.414015
  16 O :   -0.441107
  17 H :    0.107495
  18 H :    0.074377
  19 H :    0.302401
  20 H :    0.301124
  21 H :    0.308943
  22 H :    0.311921
  23 H :    0.288245
Sum of atomic charges:    0.0000000

LOEWDIN ATOMIC CHARGES
----------------------
   0 C :   -0.144243
   1 C :   -0.063833
   2 H :    0.121822
   3 C :   -0.068349
   4 H :    0.114453
   5 C :   -0.080657
   6 H :    0.094370
   7 C :   -0.082296
   8 H :    0.115097
   9 C :   -0.010174
  10 H :    0.100703
  11 O :   -0.151792
  12 O :   -0.309683
  13 O :   -0.319539
  14 O :   -0.304341
  15 O :   -0.305297
  16 O :   -0.343594
  17 H :    0.107815
  18 H :    0.112055
  19 H :    0.285921
  20 H :    0.272044
  21 H :    0.291227
  22 H :    0.293800
  23 H :    0.274492

  Mayer bond orders larger than 0.100000
B(  0-C ,  1-C ) :   1.0652 B(  0-C , 16-O ) :   1.0500 B(  0-C , 17-H ) :   0.8871
B(  0-C , 18-H ) :   0.9131 B(  1-C ,  2-H ) :   0.8903 B(  1-C ,  3-C ) :   1.0097
B(  1-C , 11-O ) :   0.9814 B(  3-C ,  4-H ) :   0.8959 B(  3-C ,  5-C ) :   0.9760
B(  3-C , 15-O ) :   1.0375 B(  5-C ,  6-H ) :   0.8998 B(  5-C ,  7-C ) :   0.9720
B(  5-C , 14-O ) :   1.0847 B(  7-C ,  8-H ) :   0.8900 B(  7-C ,  9-C ) :   0.9842
B(  7-C , 13-O ) :   1.0604 B(  9-C , 10-H ) :   0.9038 B(  9-C , 11-O ) :   1.0526
B(  9-C , 12-O ) :   1.1165 B( 12-O , 19-H ) :   0.8383 B( 13-O , 20-H ) :   0.8097
B( 14-O , 21-H ) :   0.8399 B( 15-O , 22-H ) :   0.8404 B( 16-O , 23-H ) :   0.8475

Dispersion correction           -0.025839391
FINAL SINGLE POINT ENERGY      -685.693980061996

DIPOLE MOMENT
-------------

Method             : SCF
Type of density    : Electron Density
Multiplicity       :   1
Irrep              :   0
Energy             :  -685.8249811091815218 Eh
Relativity type    :
Basis              : AO
                                X                 Y                 Z
Electronic contribution:      1.152338166      -1.034952874       1.493727985
Nuclear contribution   :     -0.655973655       1.498410693      -1.679202452
                        -----------------------------------------
Total Dipole Moment    :      0.496364511       0.463457819      -0.185474467
                        -----------------------------------------
Magnitude (a.u.)       :      0.703968505
Magnitude (Debye)      :      1.789345737

Rotational constants in cm-1:             0.041376             0.027960             0.024614
Rotational constants in MHz :          1240.429903           838.224622           737.895782

                             ****ORCA TERMINATED NORMALLY****
TOTAL RUN TIME: 0 days 0 hours 0 minutes 12 seconds 135 msec
