                         Program Version 6.0.0  -   RELEASE  -
|  1> ! pbe def2-sv(p) def2/J RI DEFGRID1 loosescf d4 GCP(DFT/SV(P)) printgap
|  2> %output
|  3>     printlevel normal
|  4> end
|  5> * xyz 0 1
|  6> C 4.45894e-05 -0.0001195311 -1.61156e-05
|  7> Cl -0.557001815 -0.0023737862 -1.6787186679
|  8> Cl -0.694603305 1.3871236272 0.8496390358
|  9> Cl 1.7650205589 0.1102619143 0.0354584517
| 10> Cl -0.5134305451 -1.4949712598 0.7936266401
| 11> *
| 12>
| 13>                          ****END OF INPUT****

CARTESIAN COORDINATES (ANGSTROEM)
---------------------------------
  C      0.000045   -0.000120   -0.000016
  Cl    -0.557002   -0.002374   -1.678719
  Cl    -0.694603    1.387124    0.849639
  Cl     1.765021    0.110262    0.035458
  Cl    -0.513431   -1.494971    0.793627

 Total Charge           Charge          ....    0
 Multiplicity           Mult            ....    1
 Number of Electrons    NEL             ....   74
 Basis Dimension        Dim             ....   86

ORBITAL ENERGIES
----------------

  NO   OCC          E(Eh)            E(eV)
   0   2.0000    -100.666628     -2739.2782
   1   2.0000    -100.666621     -2739.2780
   2   2.0000    -100.666603     -2739.2775
   3   2.0000    -100.666535     -2739.2757
   4   2.0000     -10.111725      -275.1540
   5   2.0000      -9.203550      -250.4413
   6   2.0000      -9.203540      -250.4411
   7   2.0000      -9.203523      -250.4406
   8   2.0000      -9.203463      -250.4390
   9   2.0000      -7.035785      -191.4534
  10   2.0000      -7.035778      -191.4533
  11   2.0000      -7.035765      -191.4529
  12   2.0000      -7.035736      -191.4521
  13   2.0000      -7.022693      -191.0972
  14   2.0000      -7.022685      -191.0970
  15   2.0000      -7.022677      -191.0968
  16   2.0000      -7.022664      -191.0964
  17   2.0000      -7.022663      -191.0964
  18   2.0000      -7.022658      -191.0962
  19   2.0000      -7.022636      -191.0956
  20   2.0000      -7.022633      -191.0955
  21   2.0000      -0.902309       -24.5531
  22   2.0000      -0.778120       -21.1737
  23   2.0000      -0.778103       -21.1732
  24   2.0000      -0.778070       -21.1724
  25   2.0000      -0.565917       -15.3994
  26   2.0000      -0.459155       -12.4943
  27   2.0000      -0.459148       -12.4941
  28   2.0000      -0.459136       -12.4937
  29   2.0000      -0.328743        -8.9456
  30   2.0000      -0.328741        -8.9455
  31   2.0000      -0.306469        -8.3395
  32   2.0000      -0.306465        -8.3393
  33   2.0000      -0.306455        -8.3391
  34   2.0000      -0.270916        -7.3720
  35   2.0000      -0.270903        -7.3717
  36   2.0000      -0.270898        -7.3715
  37   0.0000      -0.068392        -1.8611
  38   0.0000      -0.027916        -0.7596
  39   0.0000      -0.027870        -0.7584
  40   0.0000      -0.027844        -0.7577
  41   0.0000       0.315139         8.5754

MULLIKEN ATOMIC CHARGES
-----------------------
   0 C :   -0.054456
   1 Cl:    0.013622
   2 Cl:    0.013542
   3 Cl:    0.013610
   4 Cl:    0.013683
Sum of atomic charges:   -0.0000000

LOEWDIN ATOMIC CHARGES
----------------------
   0 C :   -0.428948
   1 Cl:    0.107259
   2 Cl:    0.107126
   3 Cl:    0.107230
   4 Cl:    0.107333

  Mayer bond orders larger than 0.100000
B(  0-C ,  1-Cl) :   1.0537 B(  0-C ,  2-Cl) :   1.0536 B(  0-C ,  3-Cl) :   1.0537
B(  0-C ,  4-Cl) :   1.0537

Dispersion correction           -0.008408975
FINAL SINGLE POINT ENERGY     -1877.471301295821

DIPOLE MOMENT
-------------

Method             : SCF
Type of density    : Electron Density
Multiplicity       :   1
Irrep              :   0
Energy             : -1877.4739221635848025 Eh
Relativity type    :
Basis              : AO
                                X                 Y                 Z
Electronic contribution:      0.000013811      -0.000339327      -0.000095980
Nuclear contribution   :      0.000020276      -0.000054353      -0.000007328
                        -----------------------------------------
Total Dipole Moment    :      0.000034087      -0.000393680      -0.000103308
                        -----------------------------------------
Magnitude (a.u.)       :      0.000408435
Magnitude (Debye)      :      0.001038158

Rotational constants in cm-1:             0.056998             0.056995             0.056994
Rotational constants in MHz :          1708.751569          1708.665767          1708.638947

                             ****ORCA TERMINATED NORMALLY****
TOTAL RUN TIME: 0 days 0 hours 0 minutes 4 seconds 411 msec
