                         Program Version 6.0.0  -   RELEASE  -
|  1> ! wb97x-v def2-tzvp def2/J RIJCOSX DEFGRID2 scfconv7 GCP(DFT/TZ) printgap
|  2> %output
|  3>     printlevel normal
|  4> end
|  5> * xyz 0 1
|  6> C 2.471806599529573 -0.502492635415137 0.18577500165463764
|  7> C 1.2455761095639244 0.25267126857244987 -0.3317697440594448
|  8> C -0.02483448726906396 -0.18739013070214475 0.37599491324978057
|  9> H 0.031065517617780373 0.03993079158640968 1.4439157748613254
| 10> C -0.4152300778964761 -1.6293603907479783 0.14877449314687693
| 11> Cl -1.4249374323727222 0.898455532865061 -0.2272732005004312
| 12> H 2.435140781845451 -1.5645289577030717 -0.07250737247841355
| 13> H 2.558184219470941 -0.4180054895098756 1.2746199003157206
| 14> H 3.3803141887982613 -0.08304632390315239 -0.2564082412366814
| 15> H 1.1314686095616537 0.09105233579774089 -1.409994879820934
| 16> H 1.386973674677702 1.3264174889303384 -0.17222506949862934
| 17> H 0.34939270095470487 -2.27873582999092 0.588611064247999
| 18> H -1.3682928227376794 -1.8647715966679008 0.6282292146142442
| 19> H -0.48596080526412977 -1.8538316531510162 -0.9201140978208342
| 20> *
| 21>
| 22>                          ****END OF INPUT****

CARTESIAN COORDINATES (ANGSTROEM)
---------------------------------
  C      2.471807   -0.502493    0.185775
  C      1.245576    0.252671   -0.331770
  C     -0.024834   -0.187390    0.375995
  H      0.031066    0.039931    1.443916
  C     -0.415230   -1.629360    0.148774
  Cl    -1.424937    0.898456   -0.227273
  H      2.435141   -1.564529   -0.072507
  H      2.558184   -0.418005    1.274620
  H      3.380314   -0.083046   -0.256408
  H      1.131469    0.091052   -1.409995
  H      1.386974    1.326417   -0.172225
  H      0.349393   -2.278736    0.588611
  H     -1.368293   -1.864772    0.628229
  H     -0.485961   -1.853832   -0.920114

 Total Charge           Charge          ....    0
 Multiplicity           Mult            ....    1
 Number of Electrons    NEL             ....   50
 Basis Dimension        Dim             ....  215

ORBITAL ENERGIES
----------------

  NO   OCC          E(Eh)            E(eV)
   0   2.0000    -107.115738     -2914.7674
   1   2.0000     -12.116909      -329.7179
   2   2.0000     -12.056654      -328.0782
   3   2.0000     -12.050604      -327.9136
   4   2.0000     -12.048187      -327.8478
   5   2.0000     -11.268977      -306.6445
   6   2.0000      -9.060285      -246.5429
   7   2.0000      -9.057823      -246.4759
   8   2.0000      -9.057741      -246.4737
   9   2.0000      -1.385231       -37.6941
  10   2.0000      -1.301855       -35.4253
  11   2.0000      -1.237762       -33.6812
  12   2.0000      -1.143576       -31.1183
  13   2.0000      -1.051818       -28.6214
  14   2.0000      -0.916684       -24.9443
  15   2.0000      -0.903795       -24.5935
  16   2.0000      -0.882488       -24.0137
  17   2.0000      -0.852107       -23.1870
  18   2.0000      -0.832617       -22.6566
  19   2.0000      -0.819257       -22.2931
  20   2.0000      -0.800265       -21.7763
  21   2.0000      -0.790330       -21.5060
  22   2.0000      -0.777241       -21.1498
  23   2.0000      -0.758405       -20.6372
  24   2.0000      -0.751108       -20.4387
  25   0.0000      -0.267024        -7.2661
  26   0.0000      -0.030819        -0.8386
  27   0.0000      -0.028792        -0.7835
  28   0.0000      -0.022991        -0.6256
  29   0.0000      -0.001944        -0.0529

MULLIKEN ATOMIC CHARGES
-----------------------
   0 C :   -0.375524
   1 C :   -0.155636
   2 C :    0.031369
   3 H :    0.113748
   4 C :   -0.355080
   5 Cl:   -0.201667
   6 H :    0.118776
   7 H :    0.110662
   8 H :    0.124125
   9 H :    0.104894
  10 H :    0.113375
  11 H :    0.118951
  12 H :    0.132832
  13 H :    0.119173
Sum of atomic charges:    0.0000000

LOEWDIN ATOMIC CHARGES
----------------------
   0 C :   -0.301414
   1 C :   -0.300386
   2 C :   -0.442910
   3 H :    0.137832
   4 C :   -0.306401
   5 Cl:    0.209734
   6 H :    0.116016
   7 H :    0.118455
   8 H :    0.120890
   9 H :    0.137143
  10 H :    0.137463
  11 H :    0.125039
  12 H :    0.123804
  13 H :    0.124735

  Mayer bond orders larger than 0.100000
B(  0-C ,  1-C ) :   0.9531 B(  0-C ,  6-H ) :   0.9817 B(  0-C ,  7-H ) :   0.9755
B(  0-C ,  8-H ) :   0.9795 B(  1-C ,  2-C ) :   0.9917 B(  1-C ,  9-H ) :   0.9702
B(  1-C , 10-H ) :   0.9743 B(  2-C ,  3-H ) :   0.9768 B(  2-C ,  4-C ) :   0.9792
B(  2-C ,  5-Cl) :   1.0183 B(  4-C , 11-H ) :   0.9669 B(  4-C , 12-H ) :   0.9759
B(  4-C , 13-H ) :   0.9687

FINAL SINGLE POINT ENERGY      -618.003817583251

DIPOLE MOMENT
-------------

Method             : SCF
Type of density    : Electron Density
Multiplicity       :   1
Irrep              :   0
Energy             :  -618.0135189061511483 Eh
Relativity type    :
Basis              : AO
                                X                 Y                 Z
Electronic contribution:    -10.106131407       6.870696055      -1.282243210
Nuclear contribution   :     10.875983344      -7.431669463       1.524651435
                        -----------------------------------------
Total Dipole Moment    :      0.769851936      -0.560973407       0.242408226
                        -----------------------------------------
Magnitude (a.u.)       :      0.982916535
Magnitude (Debye)      :      2.498375284

Rotational constants in cm-1:             0.224834             0.074979             0.060207
Rotational constants in MHz :          6740.362304          2247.822167          1804.957996

                             ****ORCA TERMINATED NORMALLY****
TOTAL RUN TIME: 0 days 0 hours 1 minutes 5 seconds 640 msec
