                         Program Version 6.0.0  -   RELEASE  -
|  1> ! wb97x-v def2-tzvp def2/J RIJCOSX DEFGRID2 scfconv7 GCP(DFT/TZ) printgap
|  2> %output
|  3>     printlevel normal
|  4> end
|  5> %cpcm
|  6>     smd true
|  7>     smdsolvent "water"
|  8> end
|  9> * xyz 0 1
| 10> C 2.471806599529573 -0.502492635415137 0.18577500165463764
| 11> C 1.2455761095639244 0.25267126857244987 -0.3317697440594448
| 12> C -0.02483448726906396 -0.18739013070214475 0.37599491324978057
| 13> H 0.031065517617780373 0.03993079158640968 1.4439157748613254
| 14> C -0.4152300778964761 -1.6293603907479783 0.14877449314687693
| 15> Cl -1.4249374323727222 0.898455532865061 -0.2272732005004312
| 16> H 2.435140781845451 -1.5645289577030717 -0.07250737247841355
| 17> H 2.558184219470941 -0.4180054895098756 1.2746199003157206
| 18> H 3.3803141887982613 -0.08304632390315239 -0.2564082412366814
| 19> H 1.1314686095616537 0.09105233579774089 -1.409994879820934
| 20> H 1.386973674677702 1.3264174889303384 -0.17222506949862934
| 21> H 0.34939270095470487 -2.27873582999092 0.588611064247999
| 22> H -1.3682928227376794 -1.8647715966679008 0.6282292146142442
| 23> H -0.48596080526412977 -1.8538316531510162 -0.9201140978208342
| 24> *
| 25>
| 26>                          ****END OF INPUT****

CARTESIAN COORDINATES (ANGSTROEM)
---------------------------------
  C      2.471807   -0.502493    0.185775
  C      1.245576    0.252671   -0.331770
  C     -0.024834   -0.187390    0.375995
  H      0.031066    0.039931    1.443916
  C     -0.415230   -1.629360    0.148774
  Cl    -1.424937    0.898456   -0.227273
  H      2.435141   -1.564529   -0.072507
  H      2.558184   -0.418005    1.274620
  H      3.380314   -0.083046   -0.256408
  H      1.131469    0.091052   -1.409995
  H      1.386974    1.326417   -0.172225
  H      0.349393   -2.278736    0.588611
  H     -1.368293   -1.864772    0.628229
  H     -0.485961   -1.853832   -0.920114

 Total Charge           Charge          ....    0
 Multiplicity           Mult            ....    1
 Number of Electrons    NEL             ....   50
 Basis Dimension        Dim             ....  215

ORBITAL ENERGIES
----------------

  NO   OCC          E(Eh)            E(eV)
   0   2.0000    -107.117728     -2914.8216
   1   2.0000     -12.106778      -329.4422
   2   2.0000     -12.042664      -327.6975
   3   2.0000     -12.035332      -327.4980
   4   2.0000     -12.030135      -327.3566
   5   2.0000     -11.271215      -306.7053
   6   2.0000      -9.062458      -246.6020
   7   2.0000      -9.060169      -246.5397
   8   2.0000      -9.060090      -246.5376
   9   2.0000      -1.383590       -37.6494
  10   2.0000      -1.291608       -35.1464
  11   2.0000      -1.223390       -33.2901
  12   2.0000      -1.128976       -30.7210
  13   2.0000      -1.038657       -28.2633
  14   2.0000      -0.903310       -24.5803
  15   2.0000      -0.894219       -24.3329
  16   2.0000      -0.869791       -23.6682
  17   2.0000      -0.837404       -22.7869
  18   2.0000      -0.817307       -22.2401
  19   2.0000      -0.804702       -21.8971
  20   2.0000      -0.789732       -21.4897
  21   2.0000      -0.779217       -21.2036
  22   2.0000      -0.765801       -20.8385
  23   2.0000      -0.757511       -20.6129
  24   2.0000      -0.746837       -20.3225
  25   0.0000      -0.261021        -7.1027
  26   0.0000      -0.017166        -0.4671
  27   0.0000      -0.013973        -0.3802
  28   0.0000      -0.007421        -0.2019
  29   0.0000       0.012688         0.3453

MULLIKEN ATOMIC CHARGES
-----------------------
   0 C :   -0.421749
   1 C :   -0.160597
   2 C :    0.045578
   3 H :    0.141414
   4 C :   -0.396447
   5 Cl:   -0.258432
   6 H :    0.136013
   7 H :    0.127911
   8 H :    0.137077
   9 H :    0.112947
  10 H :    0.117444
  11 H :    0.146672
  12 H :    0.140829
  13 H :    0.131339
Sum of atomic charges:    0.0000000

LOEWDIN ATOMIC CHARGES
----------------------
   0 C :   -0.302934
   1 C :   -0.300722
   2 C :   -0.433115
   3 H :    0.146260
   4 C :   -0.307890
   5 Cl:    0.172224
   6 H :    0.120097
   7 H :    0.122487
   8 H :    0.122721
   9 H :    0.138527
  10 H :    0.137714
  11 H :    0.133808
  12 H :    0.124246
  13 H :    0.126576

  Mayer bond orders larger than 0.100000
B(  0-C ,  1-C ) :   0.9618 B(  0-C ,  6-H ) :   0.9783 B(  0-C ,  7-H ) :   0.9742
B(  0-C ,  8-H ) :   0.9754 B(  1-C ,  2-C ) :   0.9955 B(  1-C ,  9-H ) :   0.9653
B(  1-C , 10-H ) :   0.9697 B(  2-C ,  3-H ) :   0.9710 B(  2-C ,  4-C ) :   0.9854
B(  2-C ,  5-Cl) :   0.9557 B(  4-C , 11-H ) :   0.9621 B(  4-C , 12-H ) :   0.9723
B(  4-C , 13-H ) :   0.9655

FINAL SINGLE POINT ENERGY      -618.005916232434

DIPOLE MOMENT
-------------

Method             : SCF
Type of density    : Electron Density
Multiplicity       :   1
Irrep              :   0
Energy             :  -618.0156175553341882 Eh
Relativity type    :
Basis              : AO
                                X                 Y                 Z
Electronic contribution:     -9.859654270       6.670405442      -1.154830433
Nuclear contribution   :     10.875983344      -7.431669463       1.524651435
                        -----------------------------------------
Total Dipole Moment    :      1.016329073      -0.761264021       0.369821002
                        -----------------------------------------
Magnitude (a.u.)       :      1.322579022
Magnitude (Debye)      :      3.361728712

Rotational constants in cm-1:             0.224834             0.074979             0.060207
Rotational constants in MHz :          6740.362304          2247.822167          1804.957996

                             ****ORCA TERMINATED NORMALLY****
TOTAL RUN TIME: 0 days 0 hours 1 minutes 9 seconds 278 msec
