                         Program Version 6.0.0  -   RELEASE  -
|  1> ! r2scan-3c def2/J RI DEFGRID2 scfconv6 printgap
|  2> %output
|  3>     printlevel normal
|  4> end
|  5> * xyz 0 1
|  6> C -2.8523328586 -0.6600191873 0.3486014563
|  7> C -1.9755788568 0.4115631572 -0.2907890664
|  8> C -0.4917415732 0.2019190759 -0.1336374516
|  9> C 0.0720456228 -1.0444979832 0.104723026
| 10> C 1.4442948032 -1.190562548 0.2237762004
| 11> C 2.2782424838 -0.0936030167 0.1028240138
| 12> C 1.7288704061 1.1547599753 -0.1385655449
| 13> C 0.3587444543 1.2974750392 -0.2534687556
| 14> H -3.8958723107 -0.3589572649 0.2963802478
| 15> H -2.585555602 -0.7986503152 1.3938417169
| 16> H -2.7519460721 -1.6112094837 -0.1677034121
| 17> H -2.2303084017 1.3837911922 0.1384781784
| 18> H -2.2015772701 0.4657411658 -1.3606433807
| 19> H -0.5564070321 -1.9157017313 0.2010382126
| 20> H 1.8628702798 -2.1685638667 0.4119239106
| 21> H 3.347805339 -0.2088921822 0.1962124612
| 22> H 2.3698811365 2.0189021018 -0.2345819332
| 23> H -0.0626521155 2.2755311289 -0.4395502666
| 24> *
| 25>
| 26>                          ****END OF INPUT****

CARTESIAN COORDINATES (ANGSTROEM)
---------------------------------
  C     -2.852333   -0.660019    0.348601
  C     -1.975579    0.411563   -0.290789
  C     -0.491742    0.201919   -0.133637
  C      0.072046   -1.044498    0.104723
  C      1.444295   -1.190563    0.223776
  C      2.278242   -0.093603    0.102824
  C      1.728870    1.154760   -0.138566
  C      0.358744    1.297475   -0.253469
  H     -3.895872   -0.358957    0.296380
  H     -2.585556   -0.798650    1.393842
  H     -2.751946   -1.611209   -0.167703
  H     -2.230308    1.383791    0.138478
  H     -2.201577    0.465741   -1.360643
  H     -0.556407   -1.915702    0.201038
  H      1.862870   -2.168564    0.411924
  H      3.347805   -0.208892    0.196212
  H      2.369881    2.018902   -0.234582
  H     -0.062652    2.275531   -0.439550

 Total Charge           Charge          ....    0
 Multiplicity           Mult            ....    1
 Number of Electrons    NEL             ....   58
 Basis Dimension        Dim             ....  202

ORBITAL ENERGIES
----------------

  NO   OCC          E(Eh)            E(eV)
   0   2.0000     -10.039307      -273.1834
   1   2.0000     -10.034559      -273.0542
   2   2.0000     -10.030991      -272.9572
   3   2.0000     -10.030872      -272.9539
   4   2.0000     -10.028725      -272.8955
   5   2.0000     -10.028076      -272.8778
   6   2.0000     -10.028036      -272.8767
   7   2.0000     -10.021944      -272.7110
   8   2.0000      -0.826250       -22.4834
   9   2.0000      -0.755708       -20.5639
  10   2.0000      -0.712513       -19.3885
  11   2.0000      -0.691030       -18.8039
  12   2.0000      -0.605495       -16.4764
  13   2.0000      -0.570022       -15.5111
  14   2.0000      -0.541732       -14.7413
  15   2.0000      -0.481281       -13.0963
  16   2.0000      -0.430407       -11.7120
  17   2.0000      -0.423260       -11.5175
  18   2.0000      -0.413300       -11.2465
  19   2.0000      -0.397218       -10.8088
  20   2.0000      -0.383591       -10.4380
  21   2.0000      -0.350885        -9.5481
  22   2.0000      -0.343407        -9.3446
  23   2.0000      -0.333125        -9.0648
  24   2.0000      -0.318693        -8.6721
  25   2.0000      -0.300670        -8.1816
  26   2.0000      -0.299424        -8.1477
  27   2.0000      -0.233644        -6.3578
  28   2.0000      -0.223354        -6.0778
  29   0.0000      -0.029045        -0.7904
  30   0.0000      -0.024900        -0.6776
  31   0.0000       0.086149         2.3442
  32   0.0000       0.102238         2.7820
  33   0.0000       0.108533         2.9533

MULLIKEN ATOMIC CHARGES
-----------------------
   0 C :   -0.481247
   1 C :   -0.298925
   2 C :    0.158958
   3 C :   -0.187404
   4 C :   -0.165994
   5 C :   -0.155159
   6 C :   -0.151649
   7 C :   -0.209513
   8 H :    0.149358
   9 H :    0.164619
  10 H :    0.141475
  11 H :    0.148896
  12 H :    0.164519
  13 H :    0.142577
  14 H :    0.144200
  15 H :    0.145604
  16 H :    0.144574
  17 H :    0.145109
Sum of atomic charges:    0.0000000

LOEWDIN ATOMIC CHARGES
----------------------
   0 C :   -0.418575
   1 C :   -0.286933
   2 C :   -0.089924
   3 C :   -0.165459
   4 C :   -0.162111
   5 C :   -0.175019
   6 C :   -0.162573
   7 C :   -0.163471
   8 H :    0.152842
   9 H :    0.156000
  10 H :    0.149829
  11 H :    0.162174
  12 H :    0.167299
  13 H :    0.169726
  14 H :    0.165929
  15 H :    0.165923
  16 H :    0.166252
  17 H :    0.168091

  Mayer bond orders larger than 0.100000
B(  0-C ,  1-C ) :   0.8747 B(  0-C ,  8-H ) :   0.9725 B(  0-C ,  9-H ) :   0.9915
B(  0-C , 10-H ) :   0.9632 B(  1-C ,  2-C ) :   0.8317 B(  1-C , 11-H ) :   1.0135
B(  1-C , 12-H ) :   0.9604 B(  2-C ,  3-C ) :   1.4383 B(  2-C ,  7-C ) :   1.3874
B(  3-C ,  4-C ) :   1.4377 B(  3-C , 13-H ) :   0.9461 B(  4-C ,  5-C ) :   1.4302
B(  4-C , 14-H ) :   0.9501 B(  5-C ,  6-C ) :   1.4182 B(  5-C , 15-H ) :   0.9484
B(  6-C ,  7-C ) :   1.4510 B(  6-C , 16-H ) :   0.9478 B(  7-C , 17-H ) :   0.9532

Dispersion correction           -0.005596134
FINAL SINGLE POINT ENERGY      -310.778657204964

DIPOLE MOMENT
-------------

Method             : SCF
Type of density    : Electron Density
Multiplicity       :   1
Irrep              :   0
Energy             :  -310.7785948950377701 Eh
Relativity type    :
Basis              : AO
                                X                 Y                 Z
Electronic contribution:      6.086088826       0.889795247      -0.438326286
Nuclear contribution   :     -6.289252216      -0.861246521       0.408474163
                        -----------------------------------------
Total Dipole Moment    :     -0.203163390       0.028548726      -0.029852123
                        -----------------------------------------
Magnitude (a.u.)       :      0.207319902
Magnitude (Debye)      :      0.526965313

Rotational constants in cm-1:             0.161288             0.049608             0.038812
Rotational constants in MHz :          4835.306898          1487.198299          1163.546526

                             ****ORCA TERMINATED NORMALLY****
TOTAL RUN TIME: 0 days 0 hours 0 minutes 18 seconds 388 msec
