                         Program Version 6.0.0  -   RELEASE  -
|  1> ! r2scan-3c def2/J RI DEFGRID2 scfconv6 printgap
|  2> %output
|  3>     printlevel normal
|  4> end
|  5> %cpcm
|  6>     smd true
|  7>     smdsolvent "water"
|  8> end
|  9> * xyz 0 1
| 10> C -2.8523328586 -0.6600191873 0.3486014563
| 11> C -1.9755788568 0.4115631572 -0.2907890664
| 12> C -0.4917415732 0.2019190759 -0.1336374516
| 13> C 0.0720456228 -1.0444979832 0.104723026
| 14> C 1.4442948032 -1.190562548 0.2237762004
| 15> C 2.2782424838 -0.0936030167 0.1028240138
| 16> C 1.7288704061 1.1547599753 -0.1385655449
| 17> C 0.3587444543 1.2974750392 -0.2534687556
| 18> H -3.8958723107 -0.3589572649 0.2963802478
| 19> H -2.585555602 -0.7986503152 1.3938417169
| 20> H -2.7519460721 -1.6112094837 -0.1677034121
| 21> H -2.2303084017 1.3837911922 0.1384781784
| 22> H -2.2015772701 0.4657411658 -1.3606433807
| 23> H -0.5564070321 -1.9157017313 0.2010382126
| 24> H 1.8628702798 -2.1685638667 0.4119239106
| 25> H 3.347805339 -0.2088921822 0.1962124612
| 26> H 2.3698811365 2.0189021018 -0.2345819332
| 27> H -0.0626521155 2.2755311289 -0.4395502666
| 28> *
| 29>
| 30>                          ****END OF INPUT****

CARTESIAN COORDINATES (ANGSTROEM)
---------------------------------
  C     -2.852333   -0.660019    0.348601
  C     -1.975579    0.411563   -0.290789
  C     -0.491742    0.201919   -0.133637
  C      0.072046   -1.044498    0.104723
  C      1.444295   -1.190563    0.223776
  C      2.278242   -0.093603    0.102824
  C      1.728870    1.154760   -0.138566
  C      0.358744    1.297475   -0.253469
  H     -3.895872   -0.358957    0.296380
  H     -2.585556   -0.798650    1.393842
  H     -2.751946   -1.611209   -0.167703
  H     -2.230308    1.383791    0.138478
  H     -2.201577    0.465741   -1.360643
  H     -0.556407   -1.915702    0.201038
  H      1.862870   -2.168564    0.411924
  H      3.347805   -0.208892    0.196212
  H      2.369881    2.018902   -0.234582
  H     -0.062652    2.275531   -0.439550

 Total Charge           Charge          ....    0
 Multiplicity           Mult            ....    1
 Number of Electrons    NEL             ....   58
 Basis Dimension        Dim             ....  202

ORBITAL ENERGIES
----------------

  NO   OCC          E(Eh)            E(eV)
   0   2.0000     -10.040189      -273.2074
   1   2.0000     -10.030367      -272.9402
   2   2.0000     -10.030323      -272.9390
   3   2.0000     -10.027832      -272.8712
   4   2.0000     -10.027369      -272.8586
   5   2.0000     -10.027268      -272.8558
   6   2.0000     -10.026592      -272.8374
   7   2.0000     -10.011744      -272.4334
   8   2.0000      -0.827404       -22.5148
   9   2.0000      -0.751653       -20.4535
  10   2.0000      -0.712748       -19.3948
  11   2.0000      -0.687273       -18.7017
  12   2.0000      -0.600071       -16.3288
  13   2.0000      -0.568508       -15.4699
  14   2.0000      -0.538413       -14.6509
  15   2.0000      -0.477990       -13.0068
  16   2.0000      -0.426911       -11.6168
  17   2.0000      -0.417246       -11.3538
  18   2.0000      -0.408786       -11.1236
  19   2.0000      -0.392481       -10.6799
  20   2.0000      -0.380584       -10.3562
  21   2.0000      -0.348464        -9.4822
  22   2.0000      -0.340003        -9.2520
  23   2.0000      -0.326393        -8.8816
  24   2.0000      -0.313185        -8.5222
  25   2.0000      -0.295931        -8.0527
  26   2.0000      -0.295244        -8.0340
  27   2.0000      -0.237492        -6.4625
  28   2.0000      -0.225754        -6.1431
  29   0.0000      -0.031610        -0.8602
  30   0.0000      -0.027194        -0.7400
  31   0.0000       0.094276         2.5654
  32   0.0000       0.109484         2.9792
  33   0.0000       0.117317         3.1924

MULLIKEN ATOMIC CHARGES
-----------------------
   0 C :   -0.511692
   1 C :   -0.292134
   2 C :    0.114525
   3 C :   -0.208882
   4 C :   -0.207291
   5 C :   -0.188751
   6 C :   -0.191620
   7 C :   -0.229538
   8 H :    0.162497
   9 H :    0.169195
  10 H :    0.156669
  11 H :    0.167701
  12 H :    0.179117
  13 H :    0.173803
  14 H :    0.175848
  15 H :    0.177630
  16 H :    0.176441
  17 H :    0.176484
Sum of atomic charges:    0.0000000

LOEWDIN ATOMIC CHARGES
----------------------
   0 C :   -0.424057
   1 C :   -0.287662
   2 C :   -0.097660
   3 C :   -0.176161
   4 C :   -0.174550
   5 C :   -0.189094
   6 C :   -0.174897
   7 C :   -0.173181
   8 H :    0.156648
   9 H :    0.156689
  10 H :    0.154553
  11 H :    0.168417
  12 H :    0.173101
  13 H :    0.180073
  14 H :    0.176269
  15 H :    0.175922
  16 H :    0.176645
  17 H :    0.178946

  Mayer bond orders larger than 0.100000
B(  0-C ,  1-C ) :   0.8612 B(  0-C ,  8-H ) :   0.9694 B(  0-C ,  9-H ) :   0.9903
B(  0-C , 10-H ) :   0.9597 B(  1-C ,  2-C ) :   0.8417 B(  1-C , 11-H ) :   1.0116
B(  1-C , 12-H ) :   0.9546 B(  2-C ,  3-C ) :   1.4027 B(  2-C ,  7-C ) :   1.3605
B(  3-C ,  4-C ) :   1.4023 B(  3-C , 13-H ) :   0.9526 B(  4-C ,  5-C ) :   1.3903
B(  4-C , 14-H ) :   0.9608 B(  5-C ,  6-C ) :   1.3768 B(  5-C , 15-H ) :   0.9559
B(  6-C ,  7-C ) :   1.4146 B(  6-C , 16-H ) :   0.9582 B(  7-C , 17-H ) :   0.9609

Dispersion correction           -0.005596134
FINAL SINGLE POINT ENERGY      -310.780137303727

DIPOLE MOMENT
-------------

Method             : SCF
Type of density    : Electron Density
Multiplicity       :   1
Irrep              :   0
Energy             :  -310.7800749938010085 Eh
Relativity type    :
Basis              : AO
                                X                 Y                 Z
Electronic contribution:      5.997070776       0.908082763      -0.465845373
Nuclear contribution   :     -6.289252216      -0.861246521       0.408474163
                        -----------------------------------------
Total Dipole Moment    :     -0.292181440       0.046836241      -0.057371210
                        -----------------------------------------
Magnitude (a.u.)       :      0.301421770
Magnitude (Debye)      :      0.766153251

Rotational constants in cm-1:             0.161288             0.049608             0.038812
Rotational constants in MHz :          4835.306898          1487.198299          1163.546526

                             ****ORCA TERMINATED NORMALLY****
TOTAL RUN TIME: 0 days 0 hours 0 minutes 24 seconds 442 msec
