                         Program Version 6.0.0  -   RELEASE  -
|  1> ! pbe def2-sv(p) def2/J RI DEFGRID1 loosescf d4 GCP(DFT/SV(P)) printgap
|  2> %output
|  3>     printlevel normal
|  4> end
|  5> * xyz 0 1
|  6> C -2.2663188968 -0.9453028706 0.7725326594
|  7> C -0.8093349439 -0.4431835124 0.7600107632
|  8> H -0.5319781106 -0.1483282963 1.7826658408
|  9> C -0.6166152702 0.7522832908 -0.1885117179
| 10> H -0.7709738233 0.3984408278 -1.214667373
| 11> C 0.8243909702 1.2851557258 -0.0687726589
| 12> H 0.8672573273 2.040385809 0.7249289679
| 13> C 1.794675703 0.152619064 0.3363140743
| 14> H 2.7608367896 0.3554837094 -0.1458048746
| 15> C 1.263788243 -1.1878468694 -0.198221179
| 16> H 1.9388324648 -2.0114337814 0.086225362
| 17> O 0.0263938401 -1.5318330386 0.3655890846
| 18> O 1.1992730471 -1.071807581 -1.5893654084
| 19> O 1.9132330289 0.1503107254 1.7348787234
| 20> O 1.2463230731 1.9389909487 -1.2345441442
| 21> O -1.5911157869 1.7433111454 0.0144494383
| 22> O -2.9029411329 -0.9057146809 -0.4781262612
| 23> H -2.8310946284 -0.3648515778 1.5096703859
| 24> H -2.2521067065 -1.9940488017 1.0752309781
| 25> H 0.8684955466 -1.8985096456 -1.9732985343
| 26> H 2.6128199704 -0.4585458571 2.0126490737
| 27> H 1.2498995236 1.3042097418 -1.9676920024
| 28> H -1.407326924 2.2274728979 0.8317688018
| 29> H -3.0482158677 0.0215225114 -0.720074637
| 30> *
| 31>
| 32>                          ****END OF INPUT****

CARTESIAN COORDINATES (ANGSTROEM)
---------------------------------
  C     -2.266319   -0.945303    0.772533
  C     -0.809335   -0.443184    0.760011
  H     -0.531978   -0.148328    1.782666
  C     -0.616615    0.752283   -0.188512
  H     -0.770974    0.398441   -1.214667
  C      0.824391    1.285156   -0.068773
  H      0.867257    2.040386    0.724929
  C      1.794676    0.152619    0.336314
  H      2.760837    0.355484   -0.145805
  C      1.263788   -1.187847   -0.198221
  H      1.938832   -2.011434    0.086225
  O      0.026394   -1.531833    0.365589
  O      1.199273   -1.071808   -1.589365
  O      1.913233    0.150311    1.734879
  O      1.246323    1.938991   -1.234544
  O     -1.591116    1.743311    0.014449
  O     -2.902941   -0.905715   -0.478126
  H     -2.831095   -0.364852    1.509670
  H     -2.252107   -1.994049    1.075231
  H      0.868496   -1.898510   -1.973299
  H      2.612820   -0.458546    2.012649
  H      1.249900    1.304210   -1.967692
  H     -1.407327    2.227473    0.831769
  H     -3.048216    0.021523   -0.720075

 Total Charge           Charge          ....    0
 Multiplicity           Mult            ....    1
 Number of Electrons    NEL             ....   96
 Basis Dimension        Dim             ....  192

ORBITAL ENERGIES
----------------

  NO   OCC          E(Eh)            E(eV)
   0   2.0000     -18.776053      -510.9224
   1   2.0000     -18.767848      -510.6991
   2   2.0000     -18.766245      -510.6555
   3   2.0000     -18.760784      -510.5069
   4   2.0000     -18.742433      -510.0075
   5   2.0000     -18.737626      -509.8767
   6   2.0000      -9.991629      -271.8861
   7   2.0000      -9.948440      -270.7108
   8   2.0000      -9.943617      -270.5796
   9   2.0000      -9.939484      -270.4671
  10   2.0000      -9.935164      -270.3496
  11   2.0000      -9.924620      -270.0626
  12   2.0000      -0.985622       -26.8201
  13   2.0000      -0.944765       -25.7084
  14   2.0000      -0.940373       -25.5888
  15   2.0000      -0.923690       -25.1349
  16   2.0000      -0.915596       -24.9146
  17   2.0000      -0.909239       -24.7417
  18   2.0000      -0.700675       -19.0663
  19   2.0000      -0.690152       -18.7800
  20   2.0000      -0.619393       -16.8545
  21   2.0000      -0.593884       -16.1604
  22   2.0000      -0.562565       -15.3082
  23   2.0000      -0.527270       -14.3477
  24   2.0000      -0.509094       -13.8531
  25   2.0000      -0.495693       -13.4885
  26   2.0000      -0.470655       -12.8072
  27   2.0000      -0.454451       -12.3662
  28   2.0000      -0.442162       -12.0318
  29   2.0000      -0.428416       -11.6578
  30   2.0000      -0.424614       -11.5543
  31   2.0000      -0.394403       -10.7323
  32   2.0000      -0.381972       -10.3940
  33   2.0000      -0.370404       -10.0792
  34   2.0000      -0.363060        -9.8794
  35   2.0000      -0.350128        -9.5275
  36   2.0000      -0.344023        -9.3613
  37   2.0000      -0.314818        -8.5666
  38   2.0000      -0.300381        -8.1738
  39   2.0000      -0.289601        -7.8804
  40   2.0000      -0.277949        -7.5634
  41   2.0000      -0.272327        -7.4104
  42   2.0000      -0.259307        -7.0561
  43   2.0000      -0.253757        -6.9051
  44   2.0000      -0.226933        -6.1752
  45   2.0000      -0.220110        -5.9895
  46   2.0000      -0.209891        -5.7114
  47   2.0000      -0.203844        -5.5469
  48   0.0000       0.009634         0.2622
  49   0.0000       0.019191         0.5222
  50   0.0000       0.019870         0.5407
  51   0.0000       0.050630         1.3777
  52   0.0000       0.071147         1.9360

MULLIKEN ATOMIC CHARGES
-----------------------
   0 C :    0.084823
   1 C :    0.025538
   2 H :    0.056578
   3 C :    0.037119
   4 H :    0.051789
   5 C :    0.098311
   6 H :    0.057713
   7 C :    0.011538
   8 H :    0.075775
   9 C :    0.161963
  10 H :    0.051062
  11 O :   -0.308184
  12 O :   -0.400673
  13 O :   -0.409404
  14 O :   -0.422912
  15 O :   -0.417323
  16 O :   -0.441238
  17 H :    0.064134
  18 H :    0.089507
  19 H :    0.312254
  20 H :    0.305785
  21 H :    0.304030
  22 H :    0.302790
  23 H :    0.309026
Sum of atomic charges:    0.0000000

LOEWDIN ATOMIC CHARGES
----------------------
   0 C :   -0.124691
   1 C :   -0.079369
   2 H :    0.104767
   3 C :   -0.091206
   4 H :    0.114048
   5 C :   -0.062185
   6 H :    0.117268
   7 C :   -0.088439
   8 H :    0.110768
   9 C :   -0.011752
  10 H :    0.090294
  11 O :   -0.145469
  12 O :   -0.315557
  13 O :   -0.308351
  14 O :   -0.311745
  15 O :   -0.310391
  16 O :   -0.336283
  17 H :    0.096647
  18 H :    0.119511
  19 H :    0.292233
  20 H :    0.290523
  21 H :    0.280248
  22 H :    0.286524
  23 H :    0.282608

  Mayer bond orders larger than 0.100000
B(  0-C ,  1-C ) :   0.9937 B(  0-C , 16-O ) :   1.1047 B(  0-C , 17-H ) :   0.9170
B(  0-C , 18-H ) :   0.9212 B(  1-C ,  2-H ) :   0.8693 B(  1-C ,  3-C ) :   1.0440
B(  1-C , 11-O ) :   0.9626 B(  3-C ,  4-H ) :   0.8161 B(  3-C ,  5-C ) :   1.0411
B(  3-C , 15-O ) :   1.0175 B(  5-C ,  6-H ) :   0.8588 B(  5-C ,  7-C ) :   0.9851
B(  5-C , 14-O ) :   1.0606 B(  7-C ,  8-H ) :   0.8821 B(  7-C ,  9-C ) :   1.0242
B(  7-C , 13-O ) :   1.0339 B(  9-C , 10-H ) :   0.8946 B(  9-C , 11-O ) :   1.0944
B(  9-C , 12-O ) :   1.1092 B( 12-O , 19-H ) :   0.8348 B( 13-O , 20-H ) :   0.8444
B( 14-O , 21-H ) :   0.8376 B( 15-O , 22-H ) :   0.8454 B( 16-O , 23-H ) :   0.8329

Dispersion correction           -0.025111543
FINAL SINGLE POINT ENERGY      -685.691566835382

DIPOLE MOMENT
-------------

Method             : SCF
Type of density    : Electron Density
Multiplicity       :   1
Irrep              :   0
Energy             :  -685.8225691506029307 Eh
Relativity type    :
Basis              : AO
                                X                 Y                 Z
Electronic contribution:      1.315824136       0.024218762      -1.414147980
Nuclear contribution   :     -0.511558851      -0.490754871       1.860256616
                        -----------------------------------------
Total Dipole Moment    :      0.804265285      -0.466536109       0.446108637
                        -----------------------------------------
Magnitude (a.u.)       :      1.031266942
Magnitude (Debye)      :      2.621272250

Rotational constants in cm-1:             0.041421             0.026749             0.023051
Rotational constants in MHz :          1241.781165           801.927391           691.062522

                             ****ORCA TERMINATED NORMALLY****
TOTAL RUN TIME: 0 days 0 hours 0 minutes 12 seconds 93 msec
