                         Program Version 6.0.0  -   RELEASE  -
|  1> ! pbe def2-sv(p) def2/J RI DEFGRID1 loosescf d4 GCP(DFT/SV(P)) printgap
|  2> %output
|  3>     printlevel normal
|  4> end
|  5> * xyz 0 1
|  6> C -2.1480127605 -0.9730638119 -0.1586557653
|  7> C -1.1055540111 -0.3760124613 0.8021873218
|  8> H -1.5776155604 -0.3632986288 1.7925945316
|  9> C -0.7336376924 1.0892114815 0.4799552182
| 10> H -1.5854823153 1.5519993126 -0.0286586918
| 11> C 0.4980414665 1.2537963963 -0.4327557695
| 12> H 0.863801972 2.2790152906 -0.2603303914
| 13> C 1.6167766452 0.2888676775 -0.0009481691
| 14> H 2.4159286581 0.2991042634 -0.7577271755
| 15> C 1.0788475343 -1.1553618136 0.0880589649
| 16> H 1.8459538477 -1.8058439536 0.5321270456
| 17> O 0.0137493418 -1.2369446381 1.0008708306
| 18> O 0.8077485369 -1.6900539151 -1.161827611
| 19> O 2.0896284466 0.7432785142 1.2446430977
| 20> O 0.1204063003 1.0787695554 -1.7701416045
| 21> O -0.5498987313 1.8198694374 1.6689942536
| 22> O -1.7660677407 -0.8177354436 -1.5070077194
| 23> H -3.0983832959 -0.4610541341 0.0292429688
| 24> H -2.2509711033 -2.0364616222 0.0935547059
| 25> H 0.0120116543 -1.2505908128 -1.5383005408
| 26> H 2.7986090086 0.1671057294 1.5641422025
| 27> H 0.8388020229 1.3549123572 -2.3564928614
| 28> H 0.2936259871 1.5490884388 2.0685186855
| 29> H -2.4586862469 -1.1705218182 -2.0826852668
| 30> *
| 31>
| 32>                          ****END OF INPUT****

CARTESIAN COORDINATES (ANGSTROEM)
---------------------------------
  C     -2.148013   -0.973064   -0.158656
  C     -1.105554   -0.376012    0.802187
  H     -1.577616   -0.363299    1.792595
  C     -0.733638    1.089211    0.479955
  H     -1.585482    1.551999   -0.028659
  C      0.498041    1.253796   -0.432756
  H      0.863802    2.279015   -0.260330
  C      1.616777    0.288868   -0.000948
  H      2.415929    0.299104   -0.757727
  C      1.078848   -1.155362    0.088059
  H      1.845954   -1.805844    0.532127
  O      0.013749   -1.236945    1.000871
  O      0.807749   -1.690054   -1.161828
  O      2.089628    0.743279    1.244643
  O      0.120406    1.078770   -1.770142
  O     -0.549899    1.819869    1.668994
  O     -1.766068   -0.817735   -1.507008
  H     -3.098383   -0.461054    0.029243
  H     -2.250971   -2.036462    0.093555
  H      0.012012   -1.250591   -1.538301
  H      2.798609    0.167106    1.564142
  H      0.838802    1.354912   -2.356493
  H      0.293626    1.549088    2.068519
  H     -2.458686   -1.170522   -2.082685

 Total Charge           Charge          ....    0
 Multiplicity           Mult            ....    1
 Number of Electrons    NEL             ....   96
 Basis Dimension        Dim             ....  192

ORBITAL ENERGIES
----------------

  NO   OCC          E(Eh)            E(eV)
   0   2.0000     -18.769263      -510.7376
   1   2.0000     -18.769086      -510.7328
   2   2.0000     -18.754936      -510.3478
   3   2.0000     -18.753936      -510.3205
   4   2.0000     -18.733045      -509.7521
   5   2.0000     -18.728400      -509.6257
   6   2.0000      -9.972832      -271.3746
   7   2.0000      -9.942058      -270.5371
   8   2.0000      -9.939956      -270.4800
   9   2.0000      -9.939812      -270.4760
  10   2.0000      -9.939018      -270.4544
  11   2.0000      -9.936732      -270.3922
  12   2.0000      -0.969081       -26.3700
  13   2.0000      -0.943464       -25.6730
  14   2.0000      -0.935970       -25.4690
  15   2.0000      -0.931545       -25.3486
  16   2.0000      -0.913082       -24.8462
  17   2.0000      -0.887242       -24.1431
  18   2.0000      -0.697667       -18.9845
  19   2.0000      -0.685586       -18.6557
  20   2.0000      -0.617743       -16.8097
  21   2.0000      -0.587030       -15.9739
  22   2.0000      -0.564269       -15.3545
  23   2.0000      -0.514771       -14.0076
  24   2.0000      -0.501024       -13.6335
  25   2.0000      -0.478526       -13.0213
  26   2.0000      -0.469714       -12.7816
  27   2.0000      -0.455818       -12.4034
  28   2.0000      -0.440391       -11.9836
  29   2.0000      -0.424146       -11.5416
  30   2.0000      -0.416579       -11.3357
  31   2.0000      -0.410183       -11.1617
  32   2.0000      -0.387928       -10.5561
  33   2.0000      -0.370436       -10.0801
  34   2.0000      -0.358004        -9.7418
  35   2.0000      -0.342960        -9.3324
  36   2.0000      -0.324013        -8.8168
  37   2.0000      -0.305741        -8.3196
  38   2.0000      -0.299740        -8.1563
  39   2.0000      -0.291278        -7.9261
  40   2.0000      -0.272981        -7.4282
  41   2.0000      -0.263394        -7.1673
  42   2.0000      -0.250522        -6.8170
  43   2.0000      -0.239439        -6.5155
  44   2.0000      -0.232903        -6.3376
  45   2.0000      -0.220304        -5.9948
  46   2.0000      -0.197949        -5.3865
  47   2.0000      -0.195395        -5.3170
  48   0.0000       0.008891         0.2419
  49   0.0000       0.015034         0.4091
  50   0.0000       0.025735         0.7003
  51   0.0000       0.062955         1.7131
  52   0.0000       0.073234         1.9928

MULLIKEN ATOMIC CHARGES
-----------------------
   0 C :    0.021595
   1 C :    0.027973
   2 H :    0.080281
   3 C :    0.090954
   4 H :    0.077361
   5 C :    0.002213
   6 H :    0.075699
   7 C :    0.033898
   8 H :    0.056334
   9 C :    0.190731
  10 H :    0.047654
  11 O :   -0.306688
  12 O :   -0.425915
  13 O :   -0.423790
  14 O :   -0.392991
  15 O :   -0.435730
  16 O :   -0.426708
  17 H :    0.080303
  18 H :    0.087608
  19 H :    0.311041
  20 H :    0.309370
  21 H :    0.301624
  22 H :    0.302637
  23 H :    0.314545
Sum of atomic charges:    0.0000000

LOEWDIN ATOMIC CHARGES
----------------------
   0 C :   -0.137394
   1 C :   -0.069549
   2 H :    0.127431
   3 C :   -0.055958
   4 H :    0.122071
   5 C :   -0.074907
   6 H :    0.106517
   7 C :   -0.099877
   8 H :    0.098948
   9 C :   -0.011147
  10 H :    0.097042
  11 O :   -0.147999
  12 O :   -0.326936
  13 O :   -0.312604
  14 O :   -0.301984
  15 O :   -0.321939
  16 O :   -0.317283
  17 H :    0.107005
  18 H :    0.106158
  19 H :    0.264947
  20 H :    0.291563
  21 H :    0.286791
  22 H :    0.274646
  23 H :    0.294458

  Mayer bond orders larger than 0.100000
B(  0-C ,  1-C ) :   1.0675 B(  0-C , 16-O ) :   1.0387 B(  0-C , 17-H ) :   0.9095
B(  0-C , 18-H ) :   0.9091 B(  1-C ,  2-H ) :   0.8882 B(  1-C ,  3-C ) :   0.9783
B(  1-C , 11-O ) :   1.0145 B(  3-C ,  4-H ) :   0.8885 B(  3-C ,  5-C ) :   1.0029
B(  3-C , 15-O ) :   1.0514 B(  5-C ,  6-H ) :   0.8983 B(  5-C ,  7-C ) :   0.9745
B(  5-C , 14-O ) :   1.0826 B(  7-C ,  8-H ) :   0.8942 B(  7-C ,  9-C ) :   0.9552
B(  7-C , 13-O ) :   1.0145 B(  9-C , 10-H ) :   0.9066 B(  9-C , 11-O ) :   1.0478
B(  9-C , 12-O ) :   1.1622 B( 12-O , 19-H ) :   0.7657 B( 13-O , 20-H ) :   0.8406
B( 14-O , 21-H ) :   0.8420 B( 15-O , 22-H ) :   0.8214 B( 16-O , 19-H ) :   0.1230
B( 16-O , 23-H ) :   0.8399

Dispersion correction           -0.026476660
FINAL SINGLE POINT ENERGY      -685.692859761644

DIPOLE MOMENT
-------------

Method             : SCF
Type of density    : Electron Density
Multiplicity       :   1
Irrep              :   0
Energy             :  -685.8258116025881463 Eh
Relativity type    :
Basis              : AO
                                X                 Y                 Z
Electronic contribution:      1.839780896      -0.199541905       0.369145890
Nuclear contribution   :     -1.774179123       0.104916375      -0.893416203
                        -----------------------------------------
Total Dipole Moment    :      0.065601773      -0.094625530      -0.524270312
                        -----------------------------------------
Magnitude (a.u.)       :      0.536765260
Magnitude (Debye)      :      1.364348864

Rotational constants in cm-1:             0.040060             0.031450             0.027751
Rotational constants in MHz :          1200.973960           942.832769           831.939985

                             ****ORCA TERMINATED NORMALLY****
TOTAL RUN TIME: 0 days 0 hours 0 minutes 12 seconds 325 msec
