                         Program Version 6.0.0  -   RELEASE  -
|  1> ! r2scan-3c def2/J RI DEFGRID2 scfconv6 printgap
|  2> %output
|  3>     printlevel normal
|  4> end
|  5> * xyz 0 1
|  6> C -3.4367956071 0.634288119 0.0722714207
|  7> C -1.941710023 0.5070107677 0.0620600209
|  8> C -1.143214604 1.4900252882 -0.3316006139
|  9> C 0.3501150683 1.4222694012 -0.3539104857
| 10> C 0.8572176393 -0.01632963 -0.2099899269
| 11> H 0.612095617 -0.5623124725 -1.1264651876
| 12> C 0.0859628965 -0.6916741116 0.9258593347
| 13> C -1.385362493 -0.8200517847 0.5339398849
| 14> H -1.962316405 -1.1563528703 1.4130606545
| 15> O -1.4728606075 -1.8241393949 -0.4734024819
| 16> C 2.3538123787 -0.0503048787 -0.00756298
| 17> C 2.9320323158 0.3570993995 1.1115650357
| 18> C 3.1453519869 -0.5610848006 -1.1719095421
| 19> H -3.8229223364 0.4426820151 1.072878488
| 20> H -3.8955847792 -0.0850113077 -0.605199967
| 21> H -3.7376450487 1.6319147709 -0.2348858389
| 22> H -1.571487141 2.4320376779 -0.6495892901
| 23> H 0.7213168513 1.8590696815 -1.2841827564
| 24> H 0.7438751917 2.0320451507 0.4658741796
| 25> H 0.4874867545 -1.688875512 1.1110604598
| 26> H 0.1590836027 -0.1057132227 1.8415607149
| 27> H -2.3877159048 -1.8904542964 -0.7752681408
| 28> H 4.0014564992 0.3351949767 1.236294864
| 29> H 2.3680658973 0.7258764291 1.9509743843
| 30> H 2.861795282 -1.5901073715 -1.3893306902
| 31> H 2.9325050308 0.0349716884 -2.058308511
| 32> H 4.2123639386 -0.5247194124 -0.9699100665
| 33> *
| 34>
| 35>                          ****END OF INPUT****

CARTESIAN COORDINATES (ANGSTROEM)
---------------------------------
  C     -3.436796    0.634288    0.072271
  C     -1.941710    0.507011    0.062060
  C     -1.143215    1.490025   -0.331601
  C      0.350115    1.422269   -0.353910
  C      0.857218   -0.016330   -0.209990
  H      0.612096   -0.562312   -1.126465
  C      0.085963   -0.691674    0.925859
  C     -1.385362   -0.820052    0.533940
  H     -1.962316   -1.156353    1.413061
  O     -1.472861   -1.824139   -0.473402
  C      2.353812   -0.050305   -0.007563
  C      2.932032    0.357099    1.111565
  C      3.145352   -0.561085   -1.171910
  H     -3.822922    0.442682    1.072878
  H     -3.895585   -0.085011   -0.605200
  H     -3.737645    1.631915   -0.234886
  H     -1.571487    2.432038   -0.649589
  H      0.721317    1.859070   -1.284183
  H      0.743875    2.032045    0.465874
  H      0.487487   -1.688876    1.111060
  H      0.159084   -0.105713    1.841561
  H     -2.387716   -1.890454   -0.775268
  H      4.001456    0.335195    1.236295
  H      2.368066    0.725876    1.950974
  H      2.861795   -1.590107   -1.389331
  H      2.932505    0.034972   -2.058309
  H      4.212364   -0.524719   -0.969910

 Total Charge           Charge          ....    0
 Multiplicity           Mult            ....    1
 Number of Electrons    NEL             ....   84
 Basis Dimension        Dim             ....  294

ORBITAL ENERGIES
----------------

  NO   OCC          E(Eh)            E(eV)
   0   2.0000     -18.948238      -515.6078
   1   2.0000     -10.082012      -274.3455
   2   2.0000     -10.033783      -273.0331
   3   2.0000     -10.032176      -272.9894
   4   2.0000     -10.030986      -272.9570
   5   2.0000     -10.030089      -272.9326
   6   2.0000     -10.029800      -272.9247
   7   2.0000     -10.025502      -272.8078
   8   2.0000     -10.023111      -272.7427
   9   2.0000     -10.020370      -272.6681
  10   2.0000     -10.006247      -272.2838
  11   2.0000      -0.985141       -26.8071
  12   2.0000      -0.811010       -22.0687
  13   2.0000      -0.769710       -20.9449
  14   2.0000      -0.721778       -19.6406
  15   2.0000      -0.703803       -19.1515
  16   2.0000      -0.652538       -17.7565
  17   2.0000      -0.644715       -17.5436
  18   2.0000      -0.584690       -15.9102
  19   2.0000      -0.567656       -15.4467
  20   2.0000      -0.510514       -13.8918
  21   2.0000      -0.494404       -13.4534
  22   2.0000      -0.450270       -12.2525
  23   2.0000      -0.441726       -12.0200
  24   2.0000      -0.422827       -11.5057
  25   2.0000      -0.417068       -11.3490
  26   2.0000      -0.396946       -10.8014
  27   2.0000      -0.393995       -10.7212
  28   2.0000      -0.381420       -10.3790
  29   2.0000      -0.377533       -10.2732
  30   2.0000      -0.369932       -10.0664
  31   2.0000      -0.359876        -9.7927
  32   2.0000      -0.354236        -9.6393
  33   2.0000      -0.338091        -9.1999
  34   2.0000      -0.329562        -8.9678
  35   2.0000      -0.309782        -8.4296
  36   2.0000      -0.299339        -8.1454
  37   2.0000      -0.297025        -8.0825
  38   2.0000      -0.266267        -7.2455
  39   2.0000      -0.238876        -6.5001
  40   2.0000      -0.220612        -6.0032
  41   2.0000      -0.215130        -5.8540
  42   0.0000      -0.016048        -0.4367
  43   0.0000       0.000342         0.0093
  44   0.0000       0.055292         1.5046
  45   0.0000       0.084919         2.3108
  46   0.0000       0.093586         2.5466

MULLIKEN ATOMIC CHARGES
-----------------------
   0 C :   -0.511335
   1 C :    0.056753
   2 C :   -0.200936
   3 C :   -0.342514
   4 C :   -0.065812
   5 H :    0.197815
   6 C :   -0.383850
   7 C :    0.070227
   8 H :    0.144185
   9 O :   -0.423543
  10 C :    0.088694
  11 C :   -0.398588
  12 C :   -0.525336
  13 H :    0.156913
  14 H :    0.141434
  15 H :    0.155110
  16 H :    0.148791
  17 H :    0.148568
  18 H :    0.178037
  19 H :    0.174608
  20 H :    0.157526
  21 H :    0.284389
  22 H :    0.144405
  23 H :    0.138429
  24 H :    0.163982
  25 H :    0.155014
  26 H :    0.147032
Sum of atomic charges:    0.0000000

LOEWDIN ATOMIC CHARGES
----------------------
   0 C :   -0.390258
   1 C :   -0.117183
   2 C :   -0.174763
   3 C :   -0.260948
   4 C :   -0.197216
   5 H :    0.182853
   6 C :   -0.234658
   7 C :    0.079349
   8 H :    0.170933
   9 O :   -0.606104
  10 C :   -0.116026
  11 C :   -0.330018
  12 C :   -0.391451
  13 H :    0.160583
  14 H :    0.153037
  15 H :    0.161211
  16 H :    0.162919
  17 H :    0.166409
  18 H :    0.172946
  19 H :    0.176315
  20 H :    0.168561
  21 H :    0.268452
  22 H :    0.157108
  23 H :    0.156827
  24 H :    0.163321
  25 H :    0.161056
  26 H :    0.156745

  Mayer bond orders larger than 0.100000
B(  0-C ,  1-C ) :   0.8355 B(  0-C , 13-H ) :   0.9762 B(  0-C , 14-H ) :   0.9673
B(  0-C , 15-H ) :   0.9936 B(  1-C ,  2-C ) :   1.8777 B(  1-C ,  7-C ) :   0.8996
B(  2-C ,  3-C ) :   0.9494 B(  2-C , 16-H ) :   0.9242 B(  3-C ,  4-C ) :   0.9520
B(  3-C , 17-H ) :   0.9607 B(  3-C , 18-H ) :   0.9828 B(  4-C ,  5-H ) :   0.9975
B(  4-C ,  6-C ) :   0.8743 B(  4-C , 10-C ) :   0.8270 B(  6-C ,  7-C ) :   0.9694
B(  6-C , 19-H ) :   0.9742 B(  6-C , 20-H ) :   0.9838 B(  7-C ,  8-H ) :   0.9822
B(  7-C ,  9-O ) :   0.8807 B(  9-O , 21-H ) :   0.9030 B( 10-C , 11-C ) :   1.8463
B( 10-C , 12-C ) :   0.9046 B( 11-C , 22-H ) :   0.9686 B( 11-C , 23-H ) :   0.9905
B( 12-C , 24-H ) :   0.9747 B( 12-C , 25-H ) :   0.9676 B( 12-C , 26-H ) :   0.9886

Dispersion correction           -0.009550922
FINAL SINGLE POINT ENERGY      -465.756186860909

DIPOLE MOMENT
-------------

Method             : SCF
Type of density    : Electron Density
Multiplicity       :   1
Irrep              :   0
Energy             :  -465.7581905419934856 Eh
Relativity type    :
Basis              : AO
                                X                 Y                 Z
Electronic contribution:     -2.128587171      -1.477330192      -0.038606087
Nuclear contribution   :      1.594032054       1.746315734      -0.008367847
                        -----------------------------------------
Total Dipole Moment    :     -0.534555117       0.268985542      -0.046973934
                        -----------------------------------------
Magnitude (a.u.)       :      0.600257399
Magnitude (Debye)      :      1.525733057

Rotational constants in cm-1:             0.071445             0.022430             0.020216
Rotational constants in MHz :          2141.875649           672.437693           606.060668

                             ****ORCA TERMINATED NORMALLY****
TOTAL RUN TIME: 0 days 0 hours 0 minutes 43 seconds 543 msec
