                         Program Version 6.0.0  -   RELEASE  -
|  1> ! r2scan-3c def2/J RI DEFGRID2 scfconv6 printgap
|  2> %output
|  3>     printlevel normal
|  4> end
|  5> %cpcm
|  6>     smd true
|  7>     smdsolvent "water"
|  8> end
|  9> * xyz 0 1
| 10> C -3.4367956071 0.634288119 0.0722714207
| 11> C -1.941710023 0.5070107677 0.0620600209
| 12> C -1.143214604 1.4900252882 -0.3316006139
| 13> C 0.3501150683 1.4222694012 -0.3539104857
| 14> C 0.8572176393 -0.01632963 -0.2099899269
| 15> H 0.612095617 -0.5623124725 -1.1264651876
| 16> C 0.0859628965 -0.6916741116 0.9258593347
| 17> C -1.385362493 -0.8200517847 0.5339398849
| 18> H -1.962316405 -1.1563528703 1.4130606545
| 19> O -1.4728606075 -1.8241393949 -0.4734024819
| 20> C 2.3538123787 -0.0503048787 -0.00756298
| 21> C 2.9320323158 0.3570993995 1.1115650357
| 22> C 3.1453519869 -0.5610848006 -1.1719095421
| 23> H -3.8229223364 0.4426820151 1.072878488
| 24> H -3.8955847792 -0.0850113077 -0.605199967
| 25> H -3.7376450487 1.6319147709 -0.2348858389
| 26> H -1.571487141 2.4320376779 -0.6495892901
| 27> H 0.7213168513 1.8590696815 -1.2841827564
| 28> H 0.7438751917 2.0320451507 0.4658741796
| 29> H 0.4874867545 -1.688875512 1.1110604598
| 30> H 0.1590836027 -0.1057132227 1.8415607149
| 31> H -2.3877159048 -1.8904542964 -0.7752681408
| 32> H 4.0014564992 0.3351949767 1.236294864
| 33> H 2.3680658973 0.7258764291 1.9509743843
| 34> H 2.861795282 -1.5901073715 -1.3893306902
| 35> H 2.9325050308 0.0349716884 -2.058308511
| 36> H 4.2123639386 -0.5247194124 -0.9699100665
| 37> *
| 38>
| 39>                          ****END OF INPUT****

CARTESIAN COORDINATES (ANGSTROEM)
---------------------------------
  C     -3.436796    0.634288    0.072271
  C     -1.941710    0.507011    0.062060
  C     -1.143215    1.490025   -0.331601
  C      0.350115    1.422269   -0.353910
  C      0.857218   -0.016330   -0.209990
  H      0.612096   -0.562312   -1.126465
  C      0.085963   -0.691674    0.925859
  C     -1.385362   -0.820052    0.533940
  H     -1.962316   -1.156353    1.413061
  O     -1.472861   -1.824139   -0.473402
  C      2.353812   -0.050305   -0.007563
  C      2.932032    0.357099    1.111565
  C      3.145352   -0.561085   -1.171910
  H     -3.822922    0.442682    1.072878
  H     -3.895585   -0.085011   -0.605200
  H     -3.737645    1.631915   -0.234886
  H     -1.571487    2.432038   -0.649589
  H      0.721317    1.859070   -1.284183
  H      0.743875    2.032045    0.465874
  H      0.487487   -1.688876    1.111060
  H      0.159084   -0.105713    1.841561
  H     -2.387716   -1.890454   -0.775268
  H      4.001456    0.335195    1.236295
  H      2.368066    0.725876    1.950974
  H      2.861795   -1.590107   -1.389331
  H      2.932505    0.034972   -2.058309
  H      4.212364   -0.524719   -0.969910

 Total Charge           Charge          ....    0
 Multiplicity           Mult            ....    1
 Number of Electrons    NEL             ....   84
 Basis Dimension        Dim             ....  294

ORBITAL ENERGIES
----------------

  NO   OCC          E(Eh)            E(eV)
   0   2.0000     -18.950726      -515.6755
   1   2.0000     -10.078298      -274.2444
   2   2.0000     -10.036026      -273.0941
   3   2.0000     -10.029200      -272.9084
   4   2.0000     -10.028391      -272.8864
   5   2.0000     -10.024419      -272.7783
   6   2.0000     -10.020320      -272.6668
   7   2.0000     -10.019511      -272.6448
   8   2.0000     -10.015859      -272.5454
   9   2.0000     -10.015065      -272.5238
  10   2.0000     -10.004270      -272.2300
  11   2.0000      -0.987088       -26.8600
  12   2.0000      -0.808385       -21.9973
  13   2.0000      -0.766866       -20.8675
  14   2.0000      -0.716794       -19.5050
  15   2.0000      -0.699870       -19.0444
  16   2.0000      -0.648107       -17.6359
  17   2.0000      -0.639630       -17.4052
  18   2.0000      -0.580581       -15.7984
  19   2.0000      -0.563643       -15.3375
  20   2.0000      -0.507596       -13.8124
  21   2.0000      -0.492287       -13.3958
  22   2.0000      -0.446966       -12.1626
  23   2.0000      -0.437800       -11.9132
  24   2.0000      -0.417841       -11.3700
  25   2.0000      -0.412390       -11.2217
  26   2.0000      -0.391960       -10.6658
  27   2.0000      -0.386844       -10.5266
  28   2.0000      -0.375063       -10.2060
  29   2.0000      -0.374208       -10.1827
  30   2.0000      -0.364719        -9.9245
  31   2.0000      -0.355267        -9.6673
  32   2.0000      -0.349844        -9.5197
  33   2.0000      -0.332401        -9.0451
  34   2.0000      -0.324737        -8.8365
  35   2.0000      -0.308520        -8.3952
  36   2.0000      -0.297395        -8.0925
  37   2.0000      -0.294143        -8.0040
  38   2.0000      -0.263448        -7.1688
  39   2.0000      -0.241514        -6.5719
  40   2.0000      -0.221441        -6.0257
  41   2.0000      -0.214807        -5.8452
  42   0.0000      -0.014768        -0.4019
  43   0.0000       0.000540         0.0147
  44   0.0000       0.071419         1.9434
  45   0.0000       0.093960         2.5568
  46   0.0000       0.100966         2.7474

MULLIKEN ATOMIC CHARGES
-----------------------
   0 C :   -0.546743
   1 C :    0.013324
   2 C :   -0.241087
   3 C :   -0.355439
   4 C :   -0.006358
   5 H :    0.193245
   6 C :   -0.412480
   7 C :    0.085797
   8 H :    0.162043
   9 O :   -0.508201
  10 C :    0.047107
  11 C :   -0.470579
  12 C :   -0.557964
  13 H :    0.171147
  14 H :    0.172228
  15 H :    0.168597
  16 H :    0.174077
  17 H :    0.169686
  18 H :    0.189959
  19 H :    0.178064
  20 H :    0.180951
  21 H :    0.341929
  22 H :    0.168241
  23 H :    0.166271
  24 H :    0.177874
  25 H :    0.174812
  26 H :    0.163501
Sum of atomic charges:    0.0000000

LOEWDIN ATOMIC CHARGES
----------------------
   0 C :   -0.395882
   1 C :   -0.121054
   2 C :   -0.186142
   3 C :   -0.264049
   4 C :   -0.198114
   5 H :    0.179864
   6 C :   -0.241038
   7 C :    0.080358
   8 H :    0.180567
   9 O :   -0.639751
  10 C :   -0.118049
  11 C :   -0.355657
  12 C :   -0.398583
  13 H :    0.166268
  14 H :    0.165246
  15 H :    0.163926
  16 H :    0.171449
  17 H :    0.172069
  18 H :    0.176307
  19 H :    0.174434
  20 H :    0.175972
  21 H :    0.287089
  22 H :    0.162870
  23 H :    0.164480
  24 H :    0.168099
  25 H :    0.168240
  26 H :    0.161084

  Mayer bond orders larger than 0.100000
B(  0-C ,  1-C ) :   0.8443 B(  0-C , 13-H ) :   0.9692 B(  0-C , 14-H ) :   0.9590
B(  0-C , 15-H ) :   0.9905 B(  1-C ,  2-C ) :   1.8624 B(  1-C ,  7-C ) :   0.9026
B(  2-C ,  3-C ) :   0.9257 B(  2-C , 16-H ) :   0.9310 B(  3-C ,  4-C ) :   0.9275
B(  3-C , 17-H ) :   0.9588 B(  3-C , 18-H ) :   0.9803 B(  4-C ,  5-H ) :   0.9981
B(  4-C ,  6-C ) :   0.8491 B(  4-C , 10-C ) :   0.8041 B(  6-C ,  7-C ) :   0.9555
B(  6-C , 19-H ) :   0.9780 B(  6-C , 20-H ) :   0.9780 B(  7-C ,  8-H ) :   0.9762
B(  7-C ,  9-O ) :   0.8710 B(  9-O , 21-H ) :   0.8764 B( 10-C , 11-C ) :   1.8370
B( 10-C , 12-C ) :   0.9075 B( 11-C , 22-H ) :   0.9694 B( 11-C , 23-H ) :   0.9865
B( 12-C , 24-H ) :   0.9692 B( 12-C , 25-H ) :   0.9610 B( 12-C , 26-H ) :   0.9836

Dispersion correction           -0.009550922
FINAL SINGLE POINT ENERGY      -465.763737935770

DIPOLE MOMENT
-------------

Method             : SCF
Type of density    : Electron Density
Multiplicity       :   1
Irrep              :   0
Energy             :  -465.7657416168549958 Eh
Relativity type    :
Basis              : AO
                                X                 Y                 Z
Electronic contribution:     -2.415488195      -1.349072545      -0.010294478
Nuclear contribution   :      1.594032054       1.746315734      -0.008367847
                        -----------------------------------------
Total Dipole Moment    :     -0.821456141       0.397243189      -0.018662326
                        -----------------------------------------
Magnitude (a.u.)       :      0.912655809
Magnitude (Debye)      :      2.319786710

Rotational constants in cm-1:             0.071445             0.022430             0.020216
Rotational constants in MHz :          2141.875649           672.437693           606.060668

                             ****ORCA TERMINATED NORMALLY****
TOTAL RUN TIME: 0 days 0 hours 0 minutes 57 seconds 569 msec
