                         Program Version 6.0.0  -   RELEASE  -
|  1> ! wb97x-v def2-tzvp def2/J RIJCOSX DEFGRID2 scfconv7 GCP(DFT/TZ) printgap
|  2> %output
|  3>     printlevel normal
|  4> end
|  5> * xyz 0 1
|  6> C -1.2056409436355988 -0.22997353284114208 0.08586933382225247
|  7> N -0.00515998620670369 0.6169861940750416 0.09939878511098132
|  8> C 1.1905128661248041 -0.20783537240598668 -0.11844766946803009
|  9> H -1.3553133926140855 -0.6406782870368474 -0.9186476862941169
| 10> H -2.0889553179838414 0.3646855595461732 0.3383981204663622
| 11> H -1.1492090364990057 -1.078745780277335 0.7886802980081994
| 12> H 0.07137004635899014 1.0003187456402054 1.0376780306396367
| 13> H 2.0918460096552582 0.4056935575128391 -0.03257660926225249
| 14> H 1.1676658804166289 -0.6295968400875619 -1.1289561656014107
| 15> H 1.2766310207367444 -1.0482699917684435 0.5910424092685039
| 16> *
| 17>
| 18>                          ****END OF INPUT****

CARTESIAN COORDINATES (ANGSTROEM)
---------------------------------
  C     -1.205641   -0.229974    0.085869
  N     -0.005160    0.616986    0.099399
  C      1.190513   -0.207835   -0.118448
  H     -1.355313   -0.640678   -0.918648
  H     -2.088955    0.364686    0.338398
  H     -1.149209   -1.078746    0.788680
  H      0.071370    1.000319    1.037678
  H      2.091846    0.405694   -0.032577
  H      1.167666   -0.629597   -1.128956
  H      1.276631   -1.048270    0.591042

 Total Charge           Charge          ....    0
 Multiplicity           Mult            ....    1
 Number of Electrons    NEL             ....   26
 Basis Dimension        Dim             ....  135

ORBITAL ENERGIES
----------------

  NO   OCC          E(Eh)            E(eV)
   0   2.0000     -16.511976      -449.3137
   1   2.0000     -12.059819      -328.1644
   2   2.0000     -12.059515      -328.1561
   3   2.0000      -1.460614       -39.7453
   4   2.0000      -1.200701       -32.6727
   5   2.0000      -1.120910       -30.5015
   6   2.0000      -0.951257       -25.8850
   7   2.0000      -0.907487       -24.6940
   8   2.0000      -0.878330       -23.9006
   9   2.0000      -0.813515       -22.1369
  10   2.0000      -0.802211       -21.8293
  11   2.0000      -0.798257       -21.7217
  12   2.0000      -0.703336       -19.1388
  13   0.0000      -0.077623        -2.1122
  14   0.0000      -0.035561        -0.9677
  15   0.0000      -0.017619        -0.4794
  16   0.0000       0.021344         0.5808
  17   0.0000       0.038269         1.0414

MULLIKEN ATOMIC CHARGES
-----------------------
   0 C :   -0.258845
   1 N :   -0.305739
   2 C :   -0.259578
   3 H :    0.111198
   4 H :    0.117240
   5 H :    0.090896
   6 H :    0.185045
   7 H :    0.117367
   8 H :    0.111030
   9 H :    0.091386
Sum of atomic charges:    0.0000000

LOEWDIN ATOMIC CHARGES
----------------------
   0 C :   -0.348657
   1 N :   -0.084466
   2 C :   -0.348790
   3 H :    0.109740
   4 H :    0.108407
   5 H :    0.093216
   6 H :    0.159280
   7 H :    0.108281
   8 H :    0.109791
   9 H :    0.093198

  Mayer bond orders larger than 0.100000
B(  0-C ,  1-N ) :   1.0040 B(  0-C ,  3-H ) :   0.9804 B(  0-C ,  4-H ) :   0.9810
B(  0-C ,  5-H ) :   0.9751 B(  1-N ,  2-C ) :   1.0044 B(  1-N ,  6-H ) :   0.9402
B(  2-C ,  7-H ) :   0.9810 B(  2-C ,  8-H ) :   0.9802 B(  2-C ,  9-H ) :   0.9755

FINAL SINGLE POINT ENERGY      -135.163311766028

DIPOLE MOMENT
-------------

Method             : SCF
Type of density    : Electron Density
Multiplicity       :   1
Irrep              :   0
Energy             :  -135.1702700065278009 Eh
Relativity type    :
Basis              : AO
                                X                 Y                 Z
Electronic contribution:     -0.014551880       1.489542106      -0.023969514
Nuclear contribution   :      0.048103096      -1.776883272       0.389184760
                        -----------------------------------------
Total Dipole Moment    :      0.033551216      -0.287341166       0.365215245
                        -----------------------------------------
Magnitude (a.u.)       :      0.465910726
Magnitude (Debye)      :      1.184250953

Rotational constants in cm-1:             1.113762             0.314236             0.275675
Rotational constants in MHz :         33389.747194          9420.564999          8264.517453

                             ****ORCA TERMINATED NORMALLY****
TOTAL RUN TIME: 0 days 0 hours 0 minutes 29 seconds 673 msec
