                         Program Version 6.0.0  -   RELEASE  -
|  1> ! wb97x-v def2-tzvp def2/J RIJCOSX DEFGRID2 scfconv7 GCP(DFT/TZ) printgap
|  2> %output
|  3>     printlevel normal
|  4> end
|  5> %cpcm
|  6>     smd true
|  7>     smdsolvent "water"
|  8> end
|  9> * xyz 0 1
| 10> C -1.2056409436355988 -0.22997353284114208 0.08586933382225247
| 11> N -0.00515998620670369 0.6169861940750416 0.09939878511098132
| 12> C 1.1905128661248041 -0.20783537240598668 -0.11844766946803009
| 13> H -1.3553133926140855 -0.6406782870368474 -0.9186476862941169
| 14> H -2.0889553179838414 0.3646855595461732 0.3383981204663622
| 15> H -1.1492090364990057 -1.078745780277335 0.7886802980081994
| 16> H 0.07137004635899014 1.0003187456402054 1.0376780306396367
| 17> H 2.0918460096552582 0.4056935575128391 -0.03257660926225249
| 18> H 1.1676658804166289 -0.6295968400875619 -1.1289561656014107
| 19> H 1.2766310207367444 -1.0482699917684435 0.5910424092685039
| 20> *
| 21>
| 22>                          ****END OF INPUT****

CARTESIAN COORDINATES (ANGSTROEM)
---------------------------------
  C     -1.205641   -0.229974    0.085869
  N     -0.005160    0.616986    0.099399
  C      1.190513   -0.207835   -0.118448
  H     -1.355313   -0.640678   -0.918648
  H     -2.088955    0.364686    0.338398
  H     -1.149209   -1.078746    0.788680
  H      0.071370    1.000319    1.037678
  H      2.091846    0.405694   -0.032577
  H      1.167666   -0.629597   -1.128956
  H      1.276631   -1.048270    0.591042

 Total Charge           Charge          ....    0
 Multiplicity           Mult            ....    1
 Number of Electrons    NEL             ....   26
 Basis Dimension        Dim             ....  135

ORBITAL ENERGIES
----------------

  NO   OCC          E(Eh)            E(eV)
   0   2.0000     -16.507965      -449.2046
   1   2.0000     -12.051108      -327.9273
   2   2.0000     -12.050810      -327.9192
   3   2.0000      -1.455265       -39.5998
   4   2.0000      -1.193496       -32.4767
   5   2.0000      -1.113419       -30.2977
   6   2.0000      -0.945019       -25.7153
   7   2.0000      -0.901228       -24.5237
   8   2.0000      -0.872015       -23.7287
   9   2.0000      -0.805100       -21.9079
  10   2.0000      -0.794173       -21.6105
  11   2.0000      -0.789839       -21.4926
  12   2.0000      -0.700227       -19.0541
  13   0.0000      -0.070444        -1.9169
  14   0.0000      -0.029345        -0.7985
  15   0.0000      -0.004371        -0.1189
  16   0.0000       0.033985         0.9248
  17   0.0000       0.049739         1.3535

MULLIKEN ATOMIC CHARGES
-----------------------
   0 C :   -0.292900
   1 N :   -0.384905
   2 C :   -0.293544
   3 H :    0.127645
   4 H :    0.134502
   5 H :    0.109020
   6 H :    0.228714
   7 H :    0.134341
   8 H :    0.127609
   9 H :    0.109517
Sum of atomic charges:    0.0000000

LOEWDIN ATOMIC CHARGES
----------------------
   0 C :   -0.353273
   1 N :   -0.108662
   2 C :   -0.353350
   3 H :    0.111724
   4 H :    0.111333
   5 H :    0.099115
   6 H :    0.171075
   7 H :    0.111134
   8 H :    0.111795
   9 H :    0.099109

  Mayer bond orders larger than 0.100000
B(  0-C ,  1-N ) :   0.9909 B(  0-C ,  3-H ) :   0.9768 B(  0-C ,  4-H ) :   0.9764
B(  0-C ,  5-H ) :   0.9775 B(  1-N ,  2-C ) :   0.9914 B(  1-N ,  6-H ) :   0.9267
B(  2-C ,  7-H ) :   0.9764 B(  2-C ,  8-H ) :   0.9767 B(  2-C ,  9-H ) :   0.9779

FINAL SINGLE POINT ENERGY      -135.170268220214

DIPOLE MOMENT
-------------

Method             : SCF
Type of density    : Electron Density
Multiplicity       :   1
Irrep              :   0
Energy             :  -135.1772264607137970 Eh
Relativity type    :
Basis              : AO
                                X                 Y                 Z
Electronic contribution:     -0.001342326       1.374091993       0.117284688
Nuclear contribution   :      0.048103096      -1.776883272       0.389184760
                        -----------------------------------------
Total Dipole Moment    :      0.046760771      -0.402791279       0.506469448
                        -----------------------------------------
Magnitude (a.u.)       :      0.648797877
Magnitude (Debye)      :      1.649113147

Rotational constants in cm-1:             1.113762             0.314236             0.275675
Rotational constants in MHz :         33389.747194          9420.564999          8264.517453

                             ****ORCA TERMINATED NORMALLY****
TOTAL RUN TIME: 0 days 0 hours 0 minutes 32 seconds 617 msec
