                         Program Version 6.0.0  -   RELEASE  -
|  1> ! pbe def2-sv(p) def2/J RI DEFGRID1 loosescf d4 GCP(DFT/SV(P)) printgap
|  2> %output
|  3>     printlevel normal
|  4> end
|  5> * xyz 0 1
|  6> C -1.0485453124 0.7707047701 -0.0705070659
|  7> C -1.0500926557 -0.7684770062 -0.0716857129
|  8> C 0.4239389545 -1.1435580241 0.1980377493
|  9> N 1.2283252956 -0.0015038929 -0.21515391
| 10> C 0.4267123786 1.1428362313 0.197129853
| 11> H -1.7035161816 1.1821439298 0.6942546117
| 12> H -1.3684364828 1.1601552625 -1.0370065618
| 13> H -1.7074240723 -1.1800861734 0.6910249632
| 14> H -1.3686583949 -1.1555975275 -1.039638175
| 15> H 0.5833280213 -1.2839621567 1.2711117916
| 16> H 0.7373320087 -2.0478051142 -0.3212236598
| 17> H 1.3002084159 -0.0020539682 -1.2292178088
| 18> H 0.5875024963 1.2845148597 1.2698286616
| 19> H 0.7415687351 2.0456441966 -0.3237551428
| 20> *
| 21>
| 22>                          ****END OF INPUT****

CARTESIAN COORDINATES (ANGSTROEM)
---------------------------------
  C     -1.048545    0.770705   -0.070507
  C     -1.050093   -0.768477   -0.071686
  C      0.423939   -1.143558    0.198038
  N      1.228325   -0.001504   -0.215154
  C      0.426712    1.142836    0.197130
  H     -1.703516    1.182144    0.694255
  H     -1.368436    1.160155   -1.037007
  H     -1.707424   -1.180086    0.691025
  H     -1.368658   -1.155598   -1.039638
  H      0.583328   -1.283962    1.271112
  H      0.737332   -2.047805   -0.321224
  H      1.300208   -0.002054   -1.229218
  H      0.587502    1.284515    1.269829
  H      0.741569    2.045644   -0.323755

 Total Charge           Charge          ....    0
 Multiplicity           Mult            ....    1
 Number of Electrons    NEL             ....   40
 Basis Dimension        Dim             ....   88

ORBITAL ENERGIES
----------------

  NO   OCC          E(Eh)            E(eV)
   0   2.0000     -13.963837      -379.9753
   1   2.0000      -9.901873      -269.4437
   2   2.0000      -9.901863      -269.4434
   3   2.0000      -9.879961      -268.8474
   4   2.0000      -9.879867      -268.8448
   5   2.0000      -0.832028       -22.6406
   6   2.0000      -0.676292       -18.4028
   7   2.0000      -0.641902       -17.4670
   8   2.0000      -0.534940       -14.5565
   9   2.0000      -0.509011       -13.8509
  10   2.0000      -0.454294       -12.3620
  11   2.0000      -0.416696       -11.3389
  12   2.0000      -0.383091       -10.4244
  13   2.0000      -0.380118       -10.3435
  14   2.0000      -0.327731        -8.9180
  15   2.0000      -0.309063        -8.4100
  16   2.0000      -0.300298        -8.1715
  17   2.0000      -0.295221        -8.0334
  18   2.0000      -0.277497        -7.5511
  19   2.0000      -0.178140        -4.8474
  20   0.0000       0.024148         0.6571
  21   0.0000       0.050225         1.3667
  22   0.0000       0.081803         2.2260
  23   0.0000       0.084336         2.2949
  24   0.0000       0.099827         2.7164

MULLIKEN ATOMIC CHARGES
-----------------------
   0 C :   -0.178619
   1 C :   -0.178681
   2 C :   -0.081039
   3 N :   -0.340890
   4 C :   -0.080887
   5 H :    0.082822
   6 H :    0.080196
   7 H :    0.082855
   8 H :    0.080183
   9 H :    0.080580
  10 H :    0.089809
  11 H :    0.193359
  12 H :    0.080541
  13 H :    0.089771
Sum of atomic charges:    0.0000000

LOEWDIN ATOMIC CHARGES
----------------------
   0 C :   -0.253444
   1 C :   -0.253397
   2 C :   -0.175031
   3 N :   -0.261224
   4 C :   -0.175036
   5 H :    0.118666
   6 H :    0.115389
   7 H :    0.118663
   8 H :    0.115353
   9 H :    0.110620
  10 H :    0.112506
  11 H :    0.203807
  12 H :    0.110621
  13 H :    0.112507

  Mayer bond orders larger than 0.100000
B(  0-C ,  1-C ) :   1.1745 B(  0-C ,  4-C ) :   1.1249 B(  0-C ,  5-H ) :   0.9175
B(  0-C ,  6-H ) :   0.9211 B(  1-C ,  2-C ) :   1.1251 B(  1-C ,  7-H ) :   0.9175
B(  1-C ,  8-H ) :   0.9211 B(  2-C ,  3-N ) :   1.1042 B(  2-C ,  9-H ) :   0.9191
B(  2-C , 10-H ) :   0.9372 B(  3-N ,  4-C ) :   1.1044 B(  3-N , 11-H ) :   0.8852
B(  4-C , 12-H ) :   0.9191 B(  4-C , 13-H ) :   0.9372

Dispersion correction           -0.009985296
FINAL SINGLE POINT ENERGY      -212.060727980763

DIPOLE MOMENT
-------------

Method             : SCF
Type of density    : Electron Density
Multiplicity       :   1
Irrep              :   0
Energy             :  -212.1137198188814921 Eh
Relativity type    :
Basis              : AO
                                X                 Y                 Z
Electronic contribution:      1.691250278      -0.002477094      -0.260740086
Nuclear contribution   :     -2.055426036       0.002762428      -0.024284098
                        -----------------------------------------
Total Dipole Moment    :     -0.364175758       0.000285334      -0.285024184
                        -----------------------------------------
Magnitude (a.u.)       :      0.462453078
Magnitude (Debye)      :      1.175462310

Rotational constants in cm-1:             0.231745             0.225065             0.131728
Rotational constants in MHz :          6947.532673          6747.290887          3949.101097

                             ****ORCA TERMINATED NORMALLY****
TOTAL RUN TIME: 0 days 0 hours 0 minutes 4 seconds 659 msec
