                         Program Version 6.0.0  -   RELEASE  -
|  1> ! pbe def2-sv(p) def2/J RI DEFGRID1 loosescf d4 GCP(DFT/SV(P)) printgap
|  2> %output
|  3>     printlevel normal
|  4> end
|  5> * xyz 0 1
|  6> C -3.3233424819 0.3152832844 0.1797898698
|  7> C -2.1775975588 -0.5513064514 -0.337736937
|  8> H -2.5974192827 -1.3082328002 -1.007077485
|  9> C -1.4568294503 -1.2488016927 0.8279351584
| 10> C 0.0476837116 -1.3488139567 0.5911620087
| 11> C 0.6392572035 0.0591119761 0.5740797398
| 12> H 0.5770288059 0.4752584642 1.5877823102
| 13> C -0.1737438394 0.981550804 -0.305567619
| 14> O 0.0083150023 2.1858729981 -0.3212812863
| 15> C -1.1979945544 0.3029083444 -1.1660615518
| 16> C 2.1295238831 0.1533106864 0.1619908921
| 17> C 3.0147279633 -0.6573432041 1.1050390601
| 18> C 2.3664121034 -0.2701439055 -1.286230072
| 19> H -3.9916776978 -0.2745176699 0.8024549469
| 20> H -2.9343864071 1.1418775624 0.7721311894
| 21> H -3.8984916132 0.7284449462 -0.6455231397
| 22> H -1.6214025697 -0.6785168527 1.7452838472
| 23> H -1.8785084163 -2.2427219271 0.9792703931
| 24> H 0.5050400435 -1.9249343026 1.3953317107
| 25> H 0.2398596091 -1.8673717662 -0.3471412201
| 26> H -1.739617014 1.0499519083 -1.7478048792
| 27> H -0.6515805053 -0.3431719816 -1.8555376431
| 28> H 2.4006697854 1.2123776386 0.2502658702
| 29> H 2.8272165821 -0.3859805168 2.1409193584
| 30> H 4.0614856944 -0.4631124365 0.8848513782
| 31> H 2.8336695009 -1.7216436265 0.9825450793
| 32> H 2.0995398586 -1.3120733992 -1.441209456
| 33> H 3.4190274238 -0.152531514 -1.5323937293
| 34> H 1.7894232973 0.3510332267 -1.9683028946
| 35> *
| 36>
| 37>                          ****END OF INPUT****

CARTESIAN COORDINATES (ANGSTROEM)
---------------------------------
  C     -3.323342    0.315283    0.179790
  C     -2.177598   -0.551306   -0.337737
  H     -2.597419   -1.308233   -1.007077
  C     -1.456829   -1.248802    0.827935
  C      0.047684   -1.348814    0.591162
  C      0.639257    0.059112    0.574080
  H      0.577029    0.475258    1.587782
  C     -0.173744    0.981551   -0.305568
  O      0.008315    2.185873   -0.321281
  C     -1.197995    0.302908   -1.166062
  C      2.129524    0.153311    0.161991
  C      3.014728   -0.657343    1.105039
  C      2.366412   -0.270144   -1.286230
  H     -3.991678   -0.274518    0.802455
  H     -2.934386    1.141878    0.772131
  H     -3.898492    0.728445   -0.645523
  H     -1.621403   -0.678517    1.745284
  H     -1.878508   -2.242722    0.979270
  H      0.505040   -1.924934    1.395332
  H      0.239860   -1.867372   -0.347141
  H     -1.739617    1.049952   -1.747805
  H     -0.651581   -0.343172   -1.855538
  H      2.400670    1.212378    0.250266
  H      2.827217   -0.385981    2.140919
  H      4.061486   -0.463112    0.884851
  H      2.833670   -1.721644    0.982545
  H      2.099540   -1.312073   -1.441209
  H      3.419027   -0.152532   -1.532394
  H      1.789423    0.351033   -1.968303

 Total Charge           Charge          ....    0
 Multiplicity           Mult            ....    1
 Number of Electrons    NEL             ....   86
 Basis Dimension        Dim             ....  190

ORBITAL ENERGIES
----------------

  NO   OCC          E(Eh)            E(eV)
   0   2.0000     -18.736125      -509.8359
   1   2.0000      -9.966412      -271.1999
   2   2.0000      -9.905393      -269.5394
   3   2.0000      -9.901221      -269.4259
   4   2.0000      -9.897258      -269.3181
   5   2.0000      -9.891507      -269.1616
   6   2.0000      -9.890793      -269.1422
   7   2.0000      -9.889687      -269.1121
   8   2.0000      -9.879554      -268.8363
   9   2.0000      -9.878746      -268.8144
  10   2.0000      -9.878060      -268.7957
  11   2.0000      -0.930257       -25.3136
  12   2.0000      -0.769253       -20.9324
  13   2.0000      -0.731092       -19.8940
  14   2.0000      -0.678947       -18.4751
  15   2.0000      -0.653050       -17.7704
  16   2.0000      -0.616552       -16.7772
  17   2.0000      -0.613423       -16.6921
  18   2.0000      -0.559288       -15.2190
  19   2.0000      -0.522666       -14.2225
  20   2.0000      -0.500735       -13.6257
  21   2.0000      -0.460959       -12.5433
  22   2.0000      -0.440700       -11.9921
  23   2.0000      -0.427240       -11.6258
  24   2.0000      -0.412668       -11.2293
  25   2.0000      -0.395423       -10.7600
  26   2.0000      -0.391221       -10.6457
  27   2.0000      -0.381811       -10.3896
  28   2.0000      -0.367740       -10.0067
  29   2.0000      -0.358353        -9.7513
  30   2.0000      -0.352404        -9.5894
  31   2.0000      -0.345632        -9.4051
  32   2.0000      -0.337320        -9.1789
  33   2.0000      -0.334832        -9.1112
  34   2.0000      -0.321391        -8.7455
  35   2.0000      -0.315261        -8.5787
  36   2.0000      -0.301478        -8.2036
  37   2.0000      -0.297008        -8.0820
  38   2.0000      -0.290676        -7.9097
  39   2.0000      -0.281151        -7.6505
  40   2.0000      -0.273400        -7.4396
  41   2.0000      -0.269286        -7.3277
  42   2.0000      -0.188120        -5.1190
  43   0.0000      -0.051807        -1.4098
  44   0.0000       0.024889         0.6773
  45   0.0000       0.045090         1.2270
  46   0.0000       0.045911         1.2493
  47   0.0000       0.064506         1.7553

MULLIKEN ATOMIC CHARGES
-----------------------
   0 C :   -0.247974
   1 C :   -0.198302
   2 H :    0.069948
   3 C :   -0.092534
   4 C :   -0.108636
   5 C :   -0.155100
   6 H :    0.079973
   7 C :   -0.020076
   8 O :   -0.167491
   9 C :   -0.040730
  10 C :   -0.139883
  11 C :   -0.230442
  12 C :   -0.273982
  13 H :    0.104863
  14 H :    0.110766
  15 H :    0.101510
  16 H :    0.071685
  17 H :    0.084382
  18 H :    0.089618
  19 H :    0.077179
  20 H :    0.082489
  21 H :    0.092877
  22 H :    0.085725
  23 H :    0.096877
  24 H :    0.102135
  25 H :    0.100859
  26 H :    0.100146
  27 H :    0.102877
  28 H :    0.121240
Sum of atomic charges:   -0.0000000

LOEWDIN ATOMIC CHARGES
----------------------
   0 C :   -0.328952
   1 C :   -0.144343
   2 H :    0.118371
   3 C :   -0.217239
   4 C :   -0.222170
   5 C :   -0.161102
   6 H :    0.135926
   7 C :    0.052848
   8 O :   -0.134717
   9 C :   -0.238118
  10 C :   -0.138171
  11 C :   -0.329034
  12 C :   -0.333964
  13 H :    0.119418
  14 H :    0.120970
  15 H :    0.119021
  16 H :    0.117360
  17 H :    0.121075
  18 H :    0.121903
  19 H :    0.116818
  20 H :    0.128641
  21 H :    0.137118
  22 H :    0.123216
  23 H :    0.118025
  24 H :    0.121095
  25 H :    0.116485
  26 H :    0.115077
  27 H :    0.122813
  28 H :    0.121630

  Mayer bond orders larger than 0.100000
B(  0-C ,  1-C ) :   1.1110 B(  0-C , 13-H ) :   0.9495 B(  0-C , 14-H ) :   0.9467
B(  0-C , 15-H ) :   0.9471 B(  1-C ,  2-H ) :   0.8889 B(  1-C ,  3-C ) :   1.0876
B(  1-C ,  9-C ) :   1.0849 B(  3-C ,  4-C ) :   1.1878 B(  3-C , 16-H ) :   0.9025
B(  3-C , 17-H ) :   0.9105 B(  4-C ,  5-C ) :   1.0814 B(  4-C , 18-H ) :   0.9022
B(  4-C , 19-H ) :   0.8787 B(  5-C ,  6-H ) :   0.8565 B(  5-C ,  7-C ) :   0.9314
B(  5-C , 10-C ) :   1.0347 B(  7-C ,  8-O ) :   2.1695 B(  7-C ,  9-C ) :   1.0909
B(  9-C , 20-H ) :   0.8904 B(  9-C , 21-H ) :   0.8603 B( 10-C , 11-C ) :   1.1202
B( 10-C , 12-C ) :   1.1109 B( 10-C , 22-H ) :   0.8905 B( 11-C , 23-H ) :   0.9476
B( 11-C , 24-H ) :   0.9475 B( 11-C , 25-H ) :   0.9416 B( 12-C , 26-H ) :   0.9405
B( 12-C , 27-H ) :   0.9469 B( 12-C , 28-H ) :   0.9389

Dispersion correction           -0.030586850
FINAL SINGLE POINT ENERGY      -466.030764455277

DIPOLE MOMENT
-------------

Method             : SCF
Type of density    : Electron Density
Multiplicity       :   1
Irrep              :   0
Energy             :  -466.1266077349957868 Eh
Relativity type    :
Basis              : AO
                                X                 Y                 Z
Electronic contribution:     -1.442842606       6.152118583      -0.877270077
Nuclear contribution   :      1.350966293      -7.206334741       0.929502373
                        -----------------------------------------
Total Dipole Moment    :     -0.091876312      -1.054216158       0.052232296
                        -----------------------------------------
Magnitude (a.u.)       :      1.059500438
Magnitude (Debye)      :      2.693036093

Rotational constants in cm-1:             0.062725             0.025389             0.021736
Rotational constants in MHz :          1880.439861           761.144321           651.640432

                             ****ORCA TERMINATED NORMALLY****
TOTAL RUN TIME: 0 days 0 hours 0 minutes 15 seconds 949 msec
