                         Program Version 6.0.0  -   RELEASE  -
|  1> ! wb97x-v def2-tzvp def2/J RIJCOSX DEFGRID2 scfconv7 GCP(DFT/TZ) printgap
|  2> %output
|  3>     printlevel normal
|  4> end
|  5> * xyz 0 1
|  6> C -1.3882766606839536 -0.880864061262801 0.2232215872682889
|  7> S 0.005965079319739531 0.1408339643217994 -0.4269081627847895
|  8> O 0.013865709350116481 1.4427470564511244 0.4041756560741239
|  9> C 1.3777200062849377 -0.8698599378854825 0.22762838243321387
| 10> H -2.0513722223649333 -1.1399778375063985 -0.60503049670033
| 11> H -1.9161010928798348 -0.24891427096661958 0.9417518061438027
| 12> H -1.014250634941361 -1.7822832026032294 0.7117678699307036
| 13> H 1.3489607876631529 -1.8533292838316207 -0.2509373032593672
| 14> H 1.2663994660793647 -0.9596638323108693 1.3118677796725438
| 15> H 2.308949055383387 -0.358066242290722 -0.02658980305368136
| 16> *
| 17>
| 18>                          ****END OF INPUT****

CARTESIAN COORDINATES (ANGSTROEM)
---------------------------------
  C     -1.388277   -0.880864    0.223222
  S      0.005965    0.140834   -0.426908
  O      0.013866    1.442747    0.404176
  C      1.377720   -0.869860    0.227628
  H     -2.051372   -1.139978   -0.605030
  H     -1.916101   -0.248914    0.941752
  H     -1.014251   -1.782283    0.711768
  H      1.348961   -1.853329   -0.250937
  H      1.266399   -0.959664    1.311868
  H      2.308949   -0.358066   -0.026590

 Total Charge           Charge          ....    0
 Multiplicity           Mult            ....    1
 Number of Electrons    NEL             ....   42
 Basis Dimension        Dim             ....  166

ORBITAL ENERGIES
----------------

  NO   OCC          E(Eh)            E(eV)
   0   2.0000     -94.229545     -2564.1163
   1   2.0000     -21.622636      -588.3818
   2   2.0000     -12.082441      -328.7799
   3   2.0000     -12.080682      -328.7321
   4   2.0000      -9.727073      -264.6871
   5   2.0000      -7.705543      -209.6785
   6   2.0000      -7.705415      -209.6750
   7   2.0000      -7.702734      -209.6021
   8   2.0000      -1.623486       -44.1773
   9   2.0000      -1.312051       -35.7027
  10   2.0000      -1.215784       -33.0832
  11   2.0000      -1.120538       -30.4914
  12   2.0000      -0.947964       -25.7954
  13   2.0000      -0.915047       -24.8997
  14   2.0000      -0.905992       -24.6533
  15   2.0000      -0.872400       -23.7392
  16   2.0000      -0.858967       -23.3737
  17   2.0000      -0.847042       -23.0492
  18   2.0000      -0.841899       -22.9092
  19   2.0000      -0.790819       -21.5193
  20   2.0000      -0.721795       -19.6411
  21   0.0000      -0.254258        -6.9187
  22   0.0000      -0.234483        -6.3806
  23   0.0000      -0.205221        -5.5843
  24   0.0000      -0.026970        -0.7339
  25   0.0000       0.004876         0.1327

MULLIKEN ATOMIC CHARGES
-----------------------
   0 C :   -0.365977
   1 S :    0.477890
   2 O :   -0.576569
   3 C :   -0.376558
   4 H :    0.132445
   5 H :    0.161029
   6 H :    0.127841
   7 H :    0.127270
   8 H :    0.144148
   9 H :    0.148481
Sum of atomic charges:   -0.0000000

LOEWDIN ATOMIC CHARGES
----------------------
   0 C :   -0.452792
   1 S :    0.713292
   2 O :   -0.468318
   3 C :   -0.465968
   4 H :    0.108238
   5 H :    0.120209
   6 H :    0.109085
   7 H :    0.109412
   8 H :    0.111625
   9 H :    0.115217

  Mayer bond orders larger than 0.100000
B(  0-C ,  1-S ) :   0.9288 B(  0-C ,  4-H ) :   0.9608 B(  0-C ,  5-H ) :   0.9543
B(  0-C ,  6-H ) :   0.9573 B(  1-S ,  2-O ) :   1.6330 B(  1-S ,  3-C ) :   0.9663
B(  3-C ,  7-H ) :   0.9473 B(  3-C ,  8-H ) :   0.9583 B(  3-C ,  9-H ) :   0.9613

FINAL SINGLE POINT ENERGY      -553.160995620303

DIPOLE MOMENT
-------------

Method             : SCF
Type of density    : Electron Density
Multiplicity       :   1
Irrep              :   0
Energy             :  -553.1679050678030762 Eh
Relativity type    :
Basis              : AO
                                X                 Y                 Z
Electronic contribution:      0.052388470       4.238823687      -2.152474064
Nuclear contribution   :     -0.070247685      -5.945575772       1.951241634
                        -----------------------------------------
Total Dipole Moment    :     -0.017859215      -1.706752085      -0.201232430
                        -----------------------------------------
Magnitude (a.u.)       :      1.718666960
Magnitude (Debye)      :      4.368504243

Rotational constants in cm-1:             0.226338             0.218393             0.134627
Rotational constants in MHz :          6785.445851          6547.250941          4036.008973

                             ****ORCA TERMINATED NORMALLY****
TOTAL RUN TIME: 0 days 0 hours 0 minutes 46 seconds 148 msec
