                         Program Version 6.0.0  -   RELEASE  -
|  1> ! wb97x-v def2-tzvp def2/J RIJCOSX DEFGRID2 scfconv7 GCP(DFT/TZ) printgap
|  2> %output
|  3>     printlevel normal
|  4> end
|  5> %cpcm
|  6>     smd true
|  7>     smdsolvent "water"
|  8> end
|  9> * xyz 0 1
| 10> C -1.3882766606839536 -0.880864061262801 0.2232215872682889
| 11> S 0.005965079319739531 0.1408339643217994 -0.4269081627847895
| 12> O 0.013865709350116481 1.4427470564511244 0.4041756560741239
| 13> C 1.3777200062849377 -0.8698599378854825 0.22762838243321387
| 14> H -2.0513722223649333 -1.1399778375063985 -0.60503049670033
| 15> H -1.9161010928798348 -0.24891427096661958 0.9417518061438027
| 16> H -1.014250634941361 -1.7822832026032294 0.7117678699307036
| 17> H 1.3489607876631529 -1.8533292838316207 -0.2509373032593672
| 18> H 1.2663994660793647 -0.9596638323108693 1.3118677796725438
| 19> H 2.308949055383387 -0.358066242290722 -0.02658980305368136
| 20> *
| 21>
| 22>                          ****END OF INPUT****

CARTESIAN COORDINATES (ANGSTROEM)
---------------------------------
  C     -1.388277   -0.880864    0.223222
  S      0.005965    0.140834   -0.426908
  O      0.013866    1.442747    0.404176
  C      1.377720   -0.869860    0.227628
  H     -2.051372   -1.139978   -0.605030
  H     -1.916101   -0.248914    0.941752
  H     -1.014251   -1.782283    0.711768
  H      1.348961   -1.853329   -0.250937
  H      1.266399   -0.959664    1.311868
  H      2.308949   -0.358066   -0.026590

 Total Charge           Charge          ....    0
 Multiplicity           Mult            ....    1
 Number of Electrons    NEL             ....   42
 Basis Dimension        Dim             ....  166

ORBITAL ENERGIES
----------------

  NO   OCC          E(Eh)            E(eV)
   0   2.0000     -94.230092     -2564.1312
   1   2.0000     -21.638269      -588.8072
   2   2.0000     -12.067163      -328.3642
   3   2.0000     -12.065798      -328.3270
   4   2.0000      -9.728204      -264.7179
   5   2.0000      -7.706718      -209.7105
   6   2.0000      -7.706272      -209.6983
   7   2.0000      -7.704070      -209.6384
   8   2.0000      -1.642071       -44.6830
   9   2.0000      -1.307042       -35.5664
  10   2.0000      -1.200206       -32.6593
  11   2.0000      -1.117148       -30.3992
  12   2.0000      -0.958113       -26.0716
  13   2.0000      -0.919000       -25.0073
  14   2.0000      -0.912067       -24.8186
  15   2.0000      -0.859333       -23.3836
  16   2.0000      -0.842723       -22.9317
  17   2.0000      -0.840020       -22.8581
  18   2.0000      -0.831144       -22.6166
  19   2.0000      -0.793447       -21.5908
  20   2.0000      -0.724428       -19.7127
  21   0.0000      -0.257832        -7.0160
  22   0.0000      -0.227896        -6.2014
  23   0.0000      -0.195153        -5.3104
  24   0.0000      -0.001932        -0.0526
  25   0.0000       0.024622         0.6700

MULLIKEN ATOMIC CHARGES
-----------------------
   0 C :   -0.387641
   1 S :    0.501859
   2 O :   -0.720631
   3 C :   -0.406203
   4 H :    0.164296
   5 H :    0.163814
   6 H :    0.173323
   7 H :    0.171946
   8 H :    0.169272
   9 H :    0.169966
Sum of atomic charges:   -0.0000000

LOEWDIN ATOMIC CHARGES
----------------------
   0 C :   -0.436762
   1 S :    0.726108
   2 O :   -0.571261
   3 C :   -0.451424
   4 H :    0.119502
   5 H :    0.122013
   6 H :    0.124237
   7 H :    0.126562
   8 H :    0.120219
   9 H :    0.120805

  Mayer bond orders larger than 0.100000
B(  0-C ,  1-S ) :   0.9411 B(  0-C ,  4-H ) :   0.9512 B(  0-C ,  5-H ) :   0.9499
B(  0-C ,  6-H ) :   0.9489 B(  1-S ,  2-O ) :   1.4946 B(  1-S ,  3-C ) :   0.9816
B(  3-C ,  7-H ) :   0.9383 B(  3-C ,  8-H ) :   0.9521 B(  3-C ,  9-H ) :   0.9496

FINAL SINGLE POINT ENERGY      -553.177808994574

DIPOLE MOMENT
-------------

Method             : SCF
Type of density    : Electron Density
Multiplicity       :   1
Irrep              :   0
Energy             :  -553.1847184420738586 Eh
Relativity type    :
Basis              : AO
                                X                 Y                 Z
Electronic contribution:      0.048278965       3.468077912      -2.244484767
Nuclear contribution   :     -0.070247685      -5.945575772       1.951241634
                        -----------------------------------------
Total Dipole Moment    :     -0.021968720      -2.477497860      -0.293243134
                        -----------------------------------------
Magnitude (a.u.)       :      2.494888736
Magnitude (Debye)      :      6.341503199

Rotational constants in cm-1:             0.226338             0.218393             0.134627
Rotational constants in MHz :          6785.445851          6547.250941          4036.008973

                             ****ORCA TERMINATED NORMALLY****
TOTAL RUN TIME: 0 days 0 hours 0 minutes 48 seconds 482 msec
