                         Program Version 6.0.0  -   RELEASE  -
|  1> ! r2scan-3c def2/J RI DEFGRID2 scfconv6 printgap
|  2> %output
|  3>     printlevel normal
|  4> end
|  5> * xyz 0 1
|  6> C -2.9603400681 -0.3521355081 -0.0021727484
|  7> C -1.959624543 0.520478297 0.0016611089
|  8> C -0.5330192466 0.2164100822 0.0006951091
|  9> C 0.379575273 1.2733306482 -0.0001356378
| 10> C 1.7414721112 1.039783557 -0.0008816054
| 11> C 2.2229972293 -0.2588875013 -0.0007411978
| 12> C 1.3303332453 -1.318943858 0.0005085003
| 13> C -0.0313849073 -1.0861249485 0.0013277842
| 14> H -3.985463404 -0.0247900046 -0.0023744116
| 15> H -2.8060019606 -1.4172128765 -0.0053020631
| 16> H -2.1897962506 1.5791264194 0.0077210608
| 17> H 0.0108839705 2.289394875 -0.0003801454
| 18> H 2.4299798324 1.871875589 -0.001915097
| 19> H 3.2864900122 -0.4443871617 -0.0015313928
| 20> H 1.7001139344 -2.3337524915 0.0001113363
| 21> H -0.7103759722 -1.9243388992 0.0005568758
| 22> *
| 23>
| 24>                          ****END OF INPUT****

CARTESIAN COORDINATES (ANGSTROEM)
---------------------------------
  C     -2.960340   -0.352136   -0.002173
  C     -1.959625    0.520478    0.001661
  C     -0.533019    0.216410    0.000695
  C      0.379575    1.273331   -0.000136
  C      1.741472    1.039784   -0.000882
  C      2.222997   -0.258888   -0.000741
  C      1.330333   -1.318944    0.000509
  C     -0.031385   -1.086125    0.001328
  H     -3.985463   -0.024790   -0.002374
  H     -2.806002   -1.417213   -0.005302
  H     -2.189796    1.579126    0.007721
  H      0.010884    2.289395   -0.000380
  H      2.429980    1.871876   -0.001915
  H      3.286490   -0.444387   -0.001531
  H      1.700114   -2.333752    0.000111
  H     -0.710376   -1.924339    0.000557

 Total Charge           Charge          ....    0
 Multiplicity           Mult            ....    1
 Number of Electrons    NEL             ....   56
 Basis Dimension        Dim             ....  192

ORBITAL ENERGIES
----------------

  NO   OCC          E(Eh)            E(eV)
   0   2.0000     -10.047395      -273.4035
   1   2.0000     -10.040908      -273.2270
   2   2.0000     -10.038122      -273.1512
   3   2.0000     -10.037644      -273.1382
   4   2.0000     -10.037218      -273.1266
   5   2.0000     -10.036977      -273.1200
   6   2.0000     -10.036893      -273.1177
   7   2.0000     -10.028146      -272.8797
   8   2.0000      -0.833786       -22.6885
   9   2.0000      -0.763144       -20.7662
  10   2.0000      -0.720132       -19.5958
  11   2.0000      -0.697494       -18.9798
  12   2.0000      -0.597592       -16.2613
  13   2.0000      -0.577166       -15.7055
  14   2.0000      -0.531716       -14.4687
  15   2.0000      -0.487164       -13.2564
  16   2.0000      -0.446646       -12.1539
  17   2.0000      -0.427082       -11.6215
  18   2.0000      -0.410941       -11.1823
  19   2.0000      -0.392306       -10.6752
  20   2.0000      -0.382898       -10.4192
  21   2.0000      -0.357075        -9.7165
  22   2.0000      -0.341506        -9.2929
  23   2.0000      -0.315404        -8.5826
  24   2.0000      -0.308991        -8.4081
  25   2.0000      -0.285828        -7.7778
  26   2.0000      -0.240883        -6.5548
  27   2.0000      -0.212990        -5.7958
  28   0.0000      -0.065506        -1.7825
  29   0.0000      -0.033569        -0.9135
  30   0.0000       0.023903         0.6504
  31   0.0000       0.082674         2.2497
  32   0.0000       0.099572         2.7095

MULLIKEN ATOMIC CHARGES
-----------------------
   0 C :   -0.299091
   1 C :   -0.197649
   2 C :    0.256294
   3 C :   -0.208631
   4 C :   -0.156897
   5 C :   -0.146612
   6 C :   -0.152689
   7 C :   -0.220247
   8 H :    0.143553
   9 H :    0.126830
  10 H :    0.139426
  11 H :    0.143031
  12 H :    0.145967
  13 H :    0.147164
  14 H :    0.145836
  15 H :    0.133716
Sum of atomic charges:   -0.0000000

LOEWDIN ATOMIC CHARGES
----------------------
   0 C :   -0.290304
   1 C :   -0.165681
   2 C :   -0.087272
   3 C :   -0.151529
   4 C :   -0.161379
   5 C :   -0.164897
   6 C :   -0.159328
   7 C :   -0.141779
   8 H :    0.159655
   9 H :    0.154992
  10 H :    0.166961
  11 H :    0.169276
  12 H :    0.167803
  13 H :    0.167208
  14 H :    0.167480
  15 H :    0.168793

  Mayer bond orders larger than 0.100000
B(  0-C ,  1-C ) :   1.8484 B(  0-C ,  8-H ) :   0.9594 B(  0-C ,  9-H ) :   0.9658
B(  1-C ,  2-C ) :   0.9704 B(  1-C , 10-H ) :   0.9656 B(  2-C ,  3-C ) :   1.3449
B(  2-C ,  7-C ) :   1.4056 B(  3-C ,  4-C ) :   1.4241 B(  3-C , 11-H ) :   0.9592
B(  4-C ,  5-C ) :   1.4231 B(  4-C , 12-H ) :   0.9477 B(  5-C ,  6-C ) :   1.4031
B(  5-C , 13-H ) :   0.9489 B(  6-C ,  7-C ) :   1.4736 B(  6-C , 14-H ) :   0.9493
B(  7-C , 15-H ) :   0.9459

Dispersion correction           -0.005138354
FINAL SINGLE POINT ENERGY      -309.554046496691

DIPOLE MOMENT
-------------

Method             : SCF
Type of density    : Electron Density
Multiplicity       :   1
Irrep              :   0
Energy             :  -309.5525444980092402 Eh
Relativity type    :
Basis              : AO
                                X                 Y                 Z
Electronic contribution:      2.206906302       0.379028214       0.002671380
Nuclear contribution   :     -2.124184693      -0.379101515      -0.002921320
                        -----------------------------------------
Total Dipole Moment    :      0.082721609      -0.000073301      -0.000249940
                        -----------------------------------------
Magnitude (a.u.)       :      0.082722019
Magnitude (Debye)      :      0.210262662

Rotational constants in cm-1:             0.174854             0.052252             0.040230
Rotational constants in MHz :          5241.979869          1566.487947          1206.072759

                             ****ORCA TERMINATED NORMALLY****
TOTAL RUN TIME: 0 days 0 hours 0 minutes 17 seconds 461 msec
