                         Program Version 6.0.0  -   RELEASE  -
|  1> ! r2scan-3c def2/J RI DEFGRID2 scfconv6 printgap
|  2> %output
|  3>     printlevel normal
|  4> end
|  5> %cpcm
|  6>     smd true
|  7>     smdsolvent "water"
|  8> end
|  9> * xyz 0 1
| 10> C -2.9603400681 -0.3521355081 -0.0021727484
| 11> C -1.959624543 0.520478297 0.0016611089
| 12> C -0.5330192466 0.2164100822 0.0006951091
| 13> C 0.379575273 1.2733306482 -0.0001356378
| 14> C 1.7414721112 1.039783557 -0.0008816054
| 15> C 2.2229972293 -0.2588875013 -0.0007411978
| 16> C 1.3303332453 -1.318943858 0.0005085003
| 17> C -0.0313849073 -1.0861249485 0.0013277842
| 18> H -3.985463404 -0.0247900046 -0.0023744116
| 19> H -2.8060019606 -1.4172128765 -0.0053020631
| 20> H -2.1897962506 1.5791264194 0.0077210608
| 21> H 0.0108839705 2.289394875 -0.0003801454
| 22> H 2.4299798324 1.871875589 -0.001915097
| 23> H 3.2864900122 -0.4443871617 -0.0015313928
| 24> H 1.7001139344 -2.3337524915 0.0001113363
| 25> H -0.7103759722 -1.9243388992 0.0005568758
| 26> *
| 27>
| 28>                          ****END OF INPUT****

CARTESIAN COORDINATES (ANGSTROEM)
---------------------------------
  C     -2.960340   -0.352136   -0.002173
  C     -1.959625    0.520478    0.001661
  C     -0.533019    0.216410    0.000695
  C      0.379575    1.273331   -0.000136
  C      1.741472    1.039784   -0.000882
  C      2.222997   -0.258888   -0.000741
  C      1.330333   -1.318944    0.000509
  C     -0.031385   -1.086125    0.001328
  H     -3.985463   -0.024790   -0.002374
  H     -2.806002   -1.417213   -0.005302
  H     -2.189796    1.579126    0.007721
  H      0.010884    2.289395   -0.000380
  H      2.429980    1.871876   -0.001915
  H      3.286490   -0.444387   -0.001531
  H      1.700114   -2.333752    0.000111
  H     -0.710376   -1.924339    0.000557

 Total Charge           Charge          ....    0
 Multiplicity           Mult            ....    1
 Number of Electrons    NEL             ....   56
 Basis Dimension        Dim             ....  192

ORBITAL ENERGIES
----------------

  NO   OCC          E(Eh)            E(eV)
   0   2.0000     -10.046568      -273.3810
   1   2.0000     -10.038109      -273.1508
   2   2.0000     -10.034882      -273.0630
   3   2.0000     -10.034595      -273.0552
   4   2.0000     -10.034138      -273.0428
   5   2.0000     -10.034054      -273.0405
   6   2.0000     -10.033656      -273.0297
   7   2.0000     -10.023383      -272.7501
   8   2.0000      -0.833198       -22.6725
   9   2.0000      -0.761421       -20.7193
  10   2.0000      -0.717871       -19.5343
  11   2.0000      -0.695305       -18.9202
  12   2.0000      -0.594019       -16.1641
  13   2.0000      -0.573614       -15.6088
  14   2.0000      -0.527196       -14.3457
  15   2.0000      -0.481824       -13.1111
  16   2.0000      -0.442265       -12.0346
  17   2.0000      -0.421973       -11.4825
  18   2.0000      -0.405702       -11.0397
  19   2.0000      -0.387010       -10.5311
  20   2.0000      -0.378593       -10.3020
  21   2.0000      -0.359519        -9.7830
  22   2.0000      -0.335072        -9.1178
  23   2.0000      -0.310514        -8.4495
  24   2.0000      -0.303186        -8.2501
  25   2.0000      -0.287459        -7.8222
  26   2.0000      -0.242083        -6.5874
  27   2.0000      -0.214293        -5.8312
  28   0.0000      -0.065958        -1.7948
  29   0.0000      -0.033891        -0.9222
  30   0.0000       0.023837         0.6487
  31   0.0000       0.093019         2.5312
  32   0.0000       0.111479         3.0335

MULLIKEN ATOMIC CHARGES
-----------------------
   0 C :   -0.360788
   1 C :   -0.220007
   2 C :    0.191730
   3 C :   -0.217141
   4 C :   -0.195841
   5 C :   -0.173506
   6 C :   -0.191424
   7 C :   -0.233589
   8 H :    0.172849
   9 H :    0.162805
  10 H :    0.174384
  11 H :    0.179305
  12 H :    0.179074
  13 H :    0.180820
  14 H :    0.179253
  15 H :    0.172075
Sum of atomic charges:   -0.0000000

LOEWDIN ATOMIC CHARGES
----------------------
   0 C :   -0.301302
   1 C :   -0.179332
   2 C :   -0.103659
   3 C :   -0.159271
   4 C :   -0.171094
   5 C :   -0.173588
   6 C :   -0.168644
   7 C :   -0.152203
   8 H :    0.167557
   9 H :    0.165504
  10 H :    0.177892
  11 H :    0.181589
  12 H :    0.178783
  13 H :    0.177986
  14 H :    0.178524
  15 H :    0.181259

  Mayer bond orders larger than 0.100000
B(  0-C ,  1-C ) :   1.8121 B(  0-C ,  8-H ) :   0.9592 B(  0-C ,  9-H ) :   0.9665
B(  1-C ,  2-C ) :   0.9640 B(  1-C , 10-H ) :   0.9626 B(  2-C ,  3-C ) :   1.3244
B(  2-C ,  7-C ) :   1.3665 B(  3-C ,  4-C ) :   1.3892 B(  3-C , 11-H ) :   0.9617
B(  4-C ,  5-C ) :   1.3841 B(  4-C , 12-H ) :   0.9581 B(  5-C ,  6-C ) :   1.3654
B(  5-C , 13-H ) :   0.9542 B(  6-C ,  7-C ) :   1.4400 B(  6-C , 14-H ) :   0.9585
B(  7-C , 15-H ) :   0.9505

Dispersion correction           -0.005138354
FINAL SINGLE POINT ENERGY      -309.556244384973

DIPOLE MOMENT
-------------

Method             : SCF
Type of density    : Electron Density
Multiplicity       :   1
Irrep              :   0
Energy             :  -309.5547423862910819 Eh
Relativity type    :
Basis              : AO
                                X                 Y                 Z
Electronic contribution:      2.221328073       0.372217506       0.002617424
Nuclear contribution   :     -2.124184693      -0.379101515      -0.002921320
                        -----------------------------------------
Total Dipole Moment    :      0.097143380      -0.006884009      -0.000303896
                        -----------------------------------------
Magnitude (a.u.)       :      0.097387464
Magnitude (Debye)      :      0.247539262

Rotational constants in cm-1:             0.174854             0.052252             0.040230
Rotational constants in MHz :          5241.979869          1566.487947          1206.072759

                             ****ORCA TERMINATED NORMALLY****
TOTAL RUN TIME: 0 days 0 hours 0 minutes 18 seconds 502 msec
