                         Program Version 6.0.0  -   RELEASE  -
|  1> ! wb97x-v def2-tzvp def2/J RIJCOSX DEFGRID2 scfconv7 GCP(DFT/TZ) printgap
|  2> %output
|  3>     printlevel normal
|  4> end
|  5> * xyz 0 1
|  6> C -0.9163172896959999 1.382263056835112 -0.4488819741612236
|  7> C -0.4855240119107754 -0.00016592612105843346 0.00018923055763086567
|  8> C -0.9158483873312271 -1.0799342872425048 -0.9731601103420581
|  9> C -0.9161271237623977 -0.3025042387717506 1.4219294176486557
| 10> Cl 1.4124112420493464 -0.00022422127236947903 0.0004962667338277895
| 11> H -0.5579842995230799 1.6026290277666193 -1.457576638580276
| 12> H -2.0120481201458427 1.413489119841043 -0.4587089394766716
| 13> H -0.5577178525515866 2.1537565773357183 0.2370657316719398
| 14> H -0.5560294055360557 -2.0638388172819524 -0.6619166929791458
| 15> H -2.011543510704049 -1.1053712948250636 -0.9946313077364265
| 16> H -0.5580453450451139 -0.8696394459756143 -1.984215593524739
| 17> H -2.011869248012391 -0.30822220090773056 1.4546296674717347
| 18> H -0.5568181007505482 0.4599741225420117 2.117619925630649
| 19> H -0.5585198492655669 -1.2827187754845297 1.7471640506132862
| 20> *
| 21>
| 22>                          ****END OF INPUT****

CARTESIAN COORDINATES (ANGSTROEM)
---------------------------------
  C     -0.916317    1.382263   -0.448882
  C     -0.485524   -0.000166    0.000189
  C     -0.915848   -1.079934   -0.973160
  C     -0.916127   -0.302504    1.421929
  Cl     1.412411   -0.000224    0.000496
  H     -0.557984    1.602629   -1.457577
  H     -2.012048    1.413489   -0.458709
  H     -0.557718    2.153757    0.237066
  H     -0.556029   -2.063839   -0.661917
  H     -2.011544   -1.105371   -0.994631
  H     -0.558045   -0.869639   -1.984216
  H     -2.011869   -0.308222    1.454630
  H     -0.556818    0.459974    2.117620
  H     -0.558520   -1.282719    1.747164

 Total Charge           Charge          ....    0
 Multiplicity           Mult            ....    1
 Number of Electrons    NEL             ....   50
 Basis Dimension        Dim             ....  215

ORBITAL ENERGIES
----------------

  NO   OCC          E(Eh)            E(eV)
   0   2.0000    -107.111316     -2914.6471
   1   2.0000     -12.127106      -329.9953
   2   2.0000     -12.050042      -327.8983
   3   2.0000     -12.050036      -327.8982
   4   2.0000     -12.049559      -327.8852
   5   2.0000     -11.264634      -306.5263
   6   2.0000      -9.055924      -246.4242
   7   2.0000      -9.053466      -246.3573
   8   2.0000      -9.053466      -246.3573
   9   2.0000      -1.387251       -37.7490
  10   2.0000      -1.301625       -35.4190
  11   2.0000      -1.200984       -32.6804
  12   2.0000      -1.200932       -32.6790
  13   2.0000      -1.030842       -28.0506
  14   2.0000      -0.910019       -24.7629
  15   2.0000      -0.898462       -24.4484
  16   2.0000      -0.898338       -24.4450
  17   2.0000      -0.832580       -22.6557
  18   2.0000      -0.832526       -22.6542
  19   2.0000      -0.813573       -22.1384
  20   2.0000      -0.800624       -21.7861
  21   2.0000      -0.800573       -21.7847
  22   2.0000      -0.789638       -21.4871
  23   2.0000      -0.755155       -20.5488
  24   2.0000      -0.755150       -20.5487
  25   0.0000      -0.270996        -7.3742
  26   0.0000      -0.038240        -1.0406
  27   0.0000      -0.023839        -0.6487
  28   0.0000      -0.023778        -0.6470
  29   0.0000      -0.018331        -0.4988

MULLIKEN ATOMIC CHARGES
-----------------------
   0 C :   -0.335130
   1 C :    0.148125
   2 C :   -0.334944
   3 C :   -0.335387
   4 Cl:   -0.225825
   5 H :    0.126431
   6 H :    0.108128
   7 H :    0.126464
   8 H :    0.126558
   9 H :    0.108027
  10 H :    0.126438
  11 H :    0.108145
  12 H :    0.126525
  13 H :    0.126443
Sum of atomic charges:   -0.0000000

LOEWDIN ATOMIC CHARGES
----------------------
   0 C :   -0.281803
   1 C :   -0.499532
   2 C :   -0.281838
   3 C :   -0.281911
   4 Cl:    0.213449
   5 H :    0.125222
   6 H :    0.126809
   7 H :    0.125196
   8 H :    0.125186
   9 H :    0.126777
  10 H :    0.125228
  11 H :    0.126792
  12 H :    0.125228
  13 H :    0.125197

  Mayer bond orders larger than 0.100000
B(  0-C ,  1-C ) :   0.9940 B(  0-C ,  5-H ) :   0.9751 B(  0-C ,  6-H ) :   0.9600
B(  0-C ,  7-H ) :   0.9751 B(  1-C ,  2-C ) :   0.9938 B(  1-C ,  3-C ) :   0.9938
B(  1-C ,  4-Cl) :   0.9696 B(  2-C ,  8-H ) :   0.9751 B(  2-C ,  9-H ) :   0.9599
B(  2-C , 10-H ) :   0.9751 B(  3-C , 11-H ) :   0.9599 B(  3-C , 12-H ) :   0.9751
B(  3-C , 13-H ) :   0.9752

FINAL SINGLE POINT ENERGY      -618.008324213196

DIPOLE MOMENT
-------------

Method             : SCF
Type of density    : Electron Density
Multiplicity       :   1
Irrep              :   0
Energy             :  -618.0181167389964685 Eh
Relativity type    :
Basis              : AO
                                X                 Y                 Z
Electronic contribution:      9.835752919      -0.001157083       0.002502122
Nuclear contribution   :    -10.832722402       0.001275545      -0.002576874
                        -----------------------------------------
Total Dipole Moment    :     -0.996969484       0.000118462      -0.000074752
                        -----------------------------------------
Magnitude (a.u.)       :      0.996969494
Magnitude (Debye)      :      2.534095065

Rotational constants in cm-1:             0.151574             0.097179             0.097156
Rotational constants in MHz :          4544.074767          2913.341108          2912.670130

                             ****ORCA TERMINATED NORMALLY****
TOTAL RUN TIME: 0 days 0 hours 1 minutes 13 seconds 498 msec
