                         Program Version 6.0.0  -   RELEASE  -
|  1> ! wb97x-v def2-tzvp def2/J RIJCOSX DEFGRID2 scfconv7 GCP(DFT/TZ) printgap
|  2> %output
|  3>     printlevel normal
|  4> end
|  5> %cpcm
|  6>     smd true
|  7>     smdsolvent "water"
|  8> end
|  9> * xyz 0 1
| 10> C -0.9163172896959999 1.382263056835112 -0.4488819741612236
| 11> C -0.4855240119107754 -0.00016592612105843346 0.00018923055763086567
| 12> C -0.9158483873312271 -1.0799342872425048 -0.9731601103420581
| 13> C -0.9161271237623977 -0.3025042387717506 1.4219294176486557
| 14> Cl 1.4124112420493464 -0.00022422127236947903 0.0004962667338277895
| 15> H -0.5579842995230799 1.6026290277666193 -1.457576638580276
| 16> H -2.0120481201458427 1.413489119841043 -0.4587089394766716
| 17> H -0.5577178525515866 2.1537565773357183 0.2370657316719398
| 18> H -0.5560294055360557 -2.0638388172819524 -0.6619166929791458
| 19> H -2.011543510704049 -1.1053712948250636 -0.9946313077364265
| 20> H -0.5580453450451139 -0.8696394459756143 -1.984215593524739
| 21> H -2.011869248012391 -0.30822220090773056 1.4546296674717347
| 22> H -0.5568181007505482 0.4599741225420117 2.117619925630649
| 23> H -0.5585198492655669 -1.2827187754845297 1.7471640506132862
| 24> *
| 25>
| 26>                          ****END OF INPUT****

CARTESIAN COORDINATES (ANGSTROEM)
---------------------------------
  C     -0.916317    1.382263   -0.448882
  C     -0.485524   -0.000166    0.000189
  C     -0.915848   -1.079934   -0.973160
  C     -0.916127   -0.302504    1.421929
  Cl     1.412411   -0.000224    0.000496
  H     -0.557984    1.602629   -1.457577
  H     -2.012048    1.413489   -0.458709
  H     -0.557718    2.153757    0.237066
  H     -0.556029   -2.063839   -0.661917
  H     -2.011544   -1.105371   -0.994631
  H     -0.558045   -0.869639   -1.984216
  H     -2.011869   -0.308222    1.454630
  H     -0.556818    0.459974    2.117620
  H     -0.558520   -1.282719    1.747164

 Total Charge           Charge          ....    0
 Multiplicity           Mult            ....    1
 Number of Electrons    NEL             ....   50
 Basis Dimension        Dim             ....  215

ORBITAL ENERGIES
----------------

  NO   OCC          E(Eh)            E(eV)
   0   2.0000    -107.113088     -2914.6953
   1   2.0000     -12.118611      -329.7642
   2   2.0000     -12.034904      -327.4864
   3   2.0000     -12.034878      -327.4857
   4   2.0000     -12.034415      -327.4731
   5   2.0000     -11.266684      -306.5821
   6   2.0000      -9.057909      -246.4782
   7   2.0000      -9.055621      -246.4160
   8   2.0000      -9.055621      -246.4160
   9   2.0000      -1.384110       -37.6636
  10   2.0000      -1.294845       -35.2345
  11   2.0000      -1.186883       -32.2967
  12   2.0000      -1.186832       -32.2953
  13   2.0000      -1.018988       -27.7281
  14   2.0000      -0.900485       -24.5034
  15   2.0000      -0.885542       -24.0968
  16   2.0000      -0.885421       -24.0935
  17   2.0000      -0.818310       -22.2673
  18   2.0000      -0.818241       -22.2655
  19   2.0000      -0.798648       -21.7323
  20   2.0000      -0.787187       -21.4205
  21   2.0000      -0.787152       -21.4195
  22   2.0000      -0.782054       -21.2808
  23   2.0000      -0.756175       -20.5766
  24   2.0000      -0.756171       -20.5765
  25   0.0000      -0.265081        -7.2132
  26   0.0000      -0.022797        -0.6203
  27   0.0000      -0.011322        -0.3081
  28   0.0000      -0.011256        -0.3063
  29   0.0000      -0.002861        -0.0779

MULLIKEN ATOMIC CHARGES
-----------------------
   0 C :   -0.385830
   1 C :    0.197830
   2 C :   -0.385531
   3 C :   -0.386000
   4 Cl:   -0.286628
   5 H :    0.138438
   6 H :    0.138367
   7 H :    0.138536
   8 H :    0.138505
   9 H :    0.138321
  10 H :    0.138545
  11 H :    0.138397
  12 H :    0.138597
  13 H :    0.138454
Sum of atomic charges:   -0.0000000

LOEWDIN ATOMIC CHARGES
----------------------
   0 C :   -0.283700
   1 C :   -0.490386
   2 C :   -0.283764
   3 C :   -0.283814
   4 Cl:    0.174005
   5 H :    0.126557
   6 H :    0.136109
   7 H :    0.126568
   8 H :    0.126517
   9 H :    0.136057
  10 H :    0.126622
  11 H :    0.136091
  12 H :    0.126613
  13 H :    0.126526

  Mayer bond orders larger than 0.100000
B(  0-C ,  1-C ) :   0.9930 B(  0-C ,  5-H ) :   0.9705 B(  0-C ,  6-H ) :   0.9587
B(  0-C ,  7-H ) :   0.9706 B(  1-C ,  2-C ) :   0.9932 B(  1-C ,  3-C ) :   0.9927
B(  1-C ,  4-Cl) :   0.8941 B(  2-C ,  8-H ) :   0.9705 B(  2-C ,  9-H ) :   0.9586
B(  2-C , 10-H ) :   0.9706 B(  3-C , 11-H ) :   0.9587 B(  3-C , 12-H ) :   0.9706
B(  3-C , 13-H ) :   0.9706

FINAL SINGLE POINT ENERGY      -618.010381724311

DIPOLE MOMENT
-------------

Method             : SCF
Type of density    : Electron Density
Multiplicity       :   1
Irrep              :   0
Energy             :  -618.0201742501110402 Eh
Relativity type    :
Basis              : AO
                                X                 Y                 Z
Electronic contribution:      9.430368121      -0.000372942       0.002681283
Nuclear contribution   :    -10.832722402       0.001275545      -0.002576874
                        -----------------------------------------
Total Dipole Moment    :     -1.402354281       0.000902604       0.000104409
                        -----------------------------------------
Magnitude (a.u.)       :      1.402354575
Magnitude (Debye)      :      3.564502055

Rotational constants in cm-1:             0.151574             0.097179             0.097156
Rotational constants in MHz :          4544.074767          2913.341108          2912.670130

                             ****ORCA TERMINATED NORMALLY****
TOTAL RUN TIME: 0 days 0 hours 1 minutes 19 seconds 730 msec
