                         Program Version 6.0.0  -   RELEASE  -
|  1> ! pbe def2-sv(p) def2/J RI DEFGRID1 loosescf d4 GCP(DFT/SV(P)) printgap
|  2> %output
|  3>     printlevel normal
|  4> end
|  5> * xyz 0 1
|  6> C -3.5128137113 -0.5273794015 0.1097229038
|  7> C -2.1660332479 -0.1220746895 -0.4849626094
|  8> H -2.3308793085 0.2178713847 -1.5120482075
|  9> C -1.1794322892 -1.3006159224 -0.502777957
| 10> C -0.2472839293 -1.2457492488 0.7030572861
| 11> C 0.6942082224 -0.0387153632 0.5868268673
| 12> H 1.0465173875 0.219675499 1.5934086785
| 13> C -0.0967397702 1.1616922214 0.1048456701
| 14> O 0.4079395502 2.133062144 -0.4267454491
| 15> C -1.5799833202 1.058113921 0.3181416143
| 16> C 1.9551225146 -0.2410831711 -0.2927020443
| 17> C 3.0316516746 0.7670749613 0.1147079315
| 18> C 2.5401011026 -1.6501378703 -0.2101665348
| 19> H -3.9869745466 -1.283510967 -0.5109097232
| 20> H -3.3813772844 -0.9340275538 1.1095359816
| 21> H -4.1765041827 0.33163433 0.1702290634
| 22> H -1.7328729341 -2.2399466667 -0.5078092549
| 23> H -0.5761614097 -1.2656065264 -1.4120627213
| 24> H -0.8416657461 -1.1605644138 1.6136194566
| 25> H 0.3263303852 -2.1653053608 0.783594184
| 26> H -1.7624014794 0.8941678079 1.3808498251
| 27> H -2.054771909 1.9940490776 0.021575384
| 28> H 1.6787936269 -0.0384809877 -1.3339408766
| 29> H 3.8861929845 0.6968977722 -0.5542528656
| 30> H 3.3717174274 0.5676230068 1.1291200822
| 31> H 2.6453186191 1.7812918484 0.0664139507
| 32> H 2.7188184867 -1.9313653967 0.8250429894
| 33> H 3.4919632611 -1.6706112734 -0.7356986091
| 34> H 1.8900989347 -2.3853483707 -0.6756900764
| 35> *
| 36>
| 37>                          ****END OF INPUT****

CARTESIAN COORDINATES (ANGSTROEM)
---------------------------------
  C     -3.512814   -0.527379    0.109723
  C     -2.166033   -0.122075   -0.484963
  H     -2.330879    0.217871   -1.512048
  C     -1.179432   -1.300616   -0.502778
  C     -0.247284   -1.245749    0.703057
  C      0.694208   -0.038715    0.586827
  H      1.046517    0.219675    1.593409
  C     -0.096740    1.161692    0.104846
  O      0.407940    2.133062   -0.426745
  C     -1.579983    1.058114    0.318142
  C      1.955123   -0.241083   -0.292702
  C      3.031652    0.767075    0.114708
  C      2.540101   -1.650138   -0.210167
  H     -3.986975   -1.283511   -0.510910
  H     -3.381377   -0.934028    1.109536
  H     -4.176504    0.331634    0.170229
  H     -1.732873   -2.239947   -0.507809
  H     -0.576161   -1.265607   -1.412063
  H     -0.841666   -1.160564    1.613619
  H      0.326330   -2.165305    0.783594
  H     -1.762401    0.894168    1.380850
  H     -2.054772    1.994049    0.021575
  H      1.678794   -0.038481   -1.333941
  H      3.886193    0.696898   -0.554253
  H      3.371717    0.567623    1.129120
  H      2.645319    1.781292    0.066414
  H      2.718818   -1.931365    0.825043
  H      3.491963   -1.670611   -0.735699
  H      1.890099   -2.385348   -0.675690

 Total Charge           Charge          ....    0
 Multiplicity           Mult            ....    1
 Number of Electrons    NEL             ....   86
 Basis Dimension        Dim             ....  190

ORBITAL ENERGIES
----------------

  NO   OCC          E(Eh)            E(eV)
   0   2.0000     -18.739143      -509.9180
   1   2.0000      -9.969665      -271.2884
   2   2.0000      -9.906771      -269.5770
   3   2.0000      -9.900614      -269.4094
   4   2.0000      -9.896234      -269.2902
   5   2.0000      -9.892136      -269.1787
   6   2.0000      -9.891055      -269.1493
   7   2.0000      -9.890432      -269.1323
   8   2.0000      -9.883491      -268.9435
   9   2.0000      -9.875949      -268.7382
  10   2.0000      -9.863909      -268.4106
  11   2.0000      -0.934598       -25.4317
  12   2.0000      -0.769982       -20.9523
  13   2.0000      -0.728398       -19.8207
  14   2.0000      -0.677086       -18.4244
  15   2.0000      -0.655745       -17.8437
  16   2.0000      -0.616918       -16.7872
  17   2.0000      -0.605184       -16.4679
  18   2.0000      -0.560014       -15.2388
  19   2.0000      -0.513515       -13.9734
  20   2.0000      -0.504342       -13.7238
  21   2.0000      -0.461770       -12.5654
  22   2.0000      -0.449301       -12.2261
  23   2.0000      -0.427092       -11.6218
  24   2.0000      -0.411328       -11.1928
  25   2.0000      -0.399863       -10.8808
  26   2.0000      -0.387567       -10.5462
  27   2.0000      -0.369241       -10.0476
  28   2.0000      -0.366073        -9.9613
  29   2.0000      -0.357853        -9.7377
  30   2.0000      -0.348735        -9.4896
  31   2.0000      -0.346676        -9.4335
  32   2.0000      -0.335276        -9.1233
  33   2.0000      -0.334495        -9.1021
  34   2.0000      -0.324488        -8.8298
  35   2.0000      -0.319989        -8.7074
  36   2.0000      -0.296957        -8.0806
  37   2.0000      -0.294911        -8.0249
  38   2.0000      -0.286609        -7.7990
  39   2.0000      -0.280478        -7.6322
  40   2.0000      -0.271861        -7.3977
  41   2.0000      -0.269995        -7.3470
  42   2.0000      -0.189709        -5.1622
  43   0.0000      -0.051783        -1.4091
  44   0.0000       0.027546         0.7496
  45   0.0000       0.039608         1.0778
  46   0.0000       0.051312         1.3963
  47   0.0000       0.070917         1.9298

MULLIKEN ATOMIC CHARGES
-----------------------
   0 C :   -0.234951
   1 C :   -0.209146
   2 H :    0.080938
   3 C :   -0.116727
   4 C :   -0.099530
   5 C :   -0.151168
   6 H :    0.090870
   7 C :   -0.008076
   8 O :   -0.160962
   9 C :   -0.037655
  10 C :   -0.154157
  11 C :   -0.250246
  12 C :   -0.237126
  13 H :    0.104565
  14 H :    0.096343
  15 H :    0.104157
  16 H :    0.081929
  17 H :    0.090807
  18 H :    0.070899
  19 H :    0.093386
  20 H :    0.082656
  21 H :    0.087278
  22 H :    0.075962
  23 H :    0.093597
  24 H :    0.083221
  25 H :    0.121054
  26 H :    0.094849
  27 H :    0.099568
  28 H :    0.107667
Sum of atomic charges:   -0.0000000

LOEWDIN ATOMIC CHARGES
----------------------
   0 C :   -0.327944
   1 C :   -0.142170
   2 H :    0.121743
   3 C :   -0.220597
   4 C :   -0.218812
   5 C :   -0.159796
   6 H :    0.141907
   7 C :    0.057654
   8 O :   -0.127228
   9 C :   -0.235476
  10 C :   -0.142102
  11 C :   -0.335802
  12 C :   -0.331754
  13 H :    0.119373
  14 H :    0.116205
  15 H :    0.120208
  16 H :    0.119666
  17 H :    0.119939
  18 H :    0.115817
  19 H :    0.122315
  20 H :    0.134056
  21 H :    0.129953
  22 H :    0.117056
  23 H :    0.115453
  24 H :    0.110826
  25 H :    0.125020
  26 H :    0.117183
  27 H :    0.121463
  28 H :    0.115845

  Mayer bond orders larger than 0.100000
B(  0-C ,  1-C ) :   1.1133 B(  0-C , 13-H ) :   0.9455 B(  0-C , 14-H ) :   0.9470
B(  0-C , 15-H ) :   0.9478 B(  1-C ,  2-H ) :   0.8985 B(  1-C ,  3-C ) :   1.0836
B(  1-C ,  9-C ) :   1.0828 B(  3-C ,  4-C ) :   1.1807 B(  3-C , 16-H ) :   0.9153
B(  3-C , 17-H ) :   0.9032 B(  4-C ,  5-C ) :   1.1014 B(  4-C , 18-H ) :   0.8837
B(  4-C , 19-H ) :   0.8940 B(  5-C ,  6-H ) :   0.8416 B(  5-C ,  7-C ) :   0.9199
B(  5-C , 10-C ) :   1.0303 B(  7-C ,  8-O ) :   2.1594 B(  7-C ,  9-C ) :   1.1058
B(  9-C , 20-H ) :   0.8624 B(  9-C , 21-H ) :   0.8889 B( 10-C , 11-C ) :   1.1078
B( 10-C , 12-C ) :   1.1339 B( 10-C , 22-H ) :   0.8949 B( 11-C , 23-H ) :   0.9468
B( 11-C , 24-H ) :   0.9454 B( 11-C , 25-H ) :   0.9346 B( 12-C , 26-H ) :   0.9414
B( 12-C , 27-H ) :   0.9440 B( 12-C , 28-H ) :   0.9359

Dispersion correction           -0.030329703
FINAL SINGLE POINT ENERGY      -466.026081785366

DIPOLE MOMENT
-------------

Method             : SCF
Type of density    : Electron Density
Multiplicity       :   1
Irrep              :   0
Energy             :  -466.1230481727405959 Eh
Relativity type    :
Basis              : AO
                                X                 Y                 Z
Electronic contribution:     -0.685688226       6.971195140      -1.015762761
Nuclear contribution   :      0.205075609      -7.822265437       1.354926779
                        -----------------------------------------
Total Dipole Moment    :     -0.480612616      -0.851070297       0.339164017
                        -----------------------------------------
Magnitude (a.u.)       :      1.034573037
Magnitude (Debye)      :      2.629675676

Rotational constants in cm-1:             0.064167             0.025590             0.020076
Rotational constants in MHz :          1923.672425           767.162444           601.856497

                             ****ORCA TERMINATED NORMALLY****
TOTAL RUN TIME: 0 days 0 hours 0 minutes 15 seconds 82 msec
