                         Program Version 6.0.0  -   RELEASE  -
|  1> ! wb97x-v def2-tzvp def2/J RIJCOSX DEFGRID2 scfconv7 GCP(DFT/TZ) printgap
|  2> %output
|  3>     printlevel normal
|  4> end
|  5> * xyz 0 1
|  6> C 1.690734624208423 -1.073917143517953 0.15059248003678022
|  7> C 1.040799054476385 0.2606294264526488 -0.1906780347891376
|  8> C -0.45764462508222314 0.34732816430487956 -0.06304586341976715
|  9> O -1.0743090074593327 1.3943959218085882 -0.15549895402130198
| 10> O -1.1553727725083378 -0.7927566946949488 0.14477581509044202
| 11> H 1.360958355783357 -1.8735497857337533 -0.5220739211274649
| 12> H 2.7748567819233396 -0.9911684671119394 0.04083732251713646
| 13> H 1.4841732963675855 -1.3701311375440108 1.1840697875754085
| 14> H 1.441366022709768 1.0661085084414577 0.43355193558657484
| 15> H 1.2622950963211008 0.5470784761006477 -1.2265785568753873
| 16> H -0.5586049801942781 -1.5564954865707974 0.1971457172962887
| 17> *
| 18>
| 19>                          ****END OF INPUT****

CARTESIAN COORDINATES (ANGSTROEM)
---------------------------------
  C      1.690735   -1.073917    0.150592
  C      1.040799    0.260629   -0.190678
  C     -0.457645    0.347328   -0.063046
  O     -1.074309    1.394396   -0.155499
  O     -1.155373   -0.792757    0.144776
  H      1.360958   -1.873550   -0.522074
  H      2.774857   -0.991168    0.040837
  H      1.484173   -1.370131    1.184070
  H      1.441366    1.066109    0.433552
  H      1.262295    0.547078   -1.226579
  H     -0.558605   -1.556495    0.197146

 Total Charge           Charge          ....    0
 Multiplicity           Mult            ....    1
 Number of Electrons    NEL             ....   40
 Basis Dimension        Dim             ....  191

ORBITAL ENERGIES
----------------

  NO   OCC          E(Eh)            E(eV)
   0   2.0000     -21.725277      -591.1748
   1   2.0000     -21.651109      -589.1566
   2   2.0000     -12.183332      -331.5253
   3   2.0000     -12.079360      -328.6961
   4   2.0000     -12.073374      -328.5332
   5   2.0000      -1.761912       -47.9441
   6   2.0000      -1.691902       -46.0390
   7   2.0000      -1.319165       -35.8963
   8   2.0000      -1.216028       -33.0898
   9   2.0000      -1.164276       -31.6816
  10   2.0000      -1.055049       -28.7093
  11   2.0000      -1.045340       -28.4451
  12   2.0000      -0.979634       -26.6572
  13   2.0000      -0.946802       -25.7638
  14   2.0000      -0.908059       -24.7095
  15   2.0000      -0.882369       -24.0105
  16   2.0000      -0.879989       -23.9457
  17   2.0000      -0.853443       -23.2234
  18   2.0000      -0.821345       -22.3499
  19   2.0000      -0.807609       -21.9762
  20   0.0000      -0.305736        -8.3195
  21   0.0000      -0.137820        -3.7503
  22   0.0000      -0.087244        -2.3740
  23   0.0000      -0.061283        -1.6676
  24   0.0000      -0.008403        -0.2287

MULLIKEN ATOMIC CHARGES
-----------------------
   0 C :   -0.428697
   1 C :   -0.149501
   2 C :    0.256804
   3 O :   -0.325419
   4 O :   -0.332350
   5 H :    0.120671
   6 H :    0.133697
   7 H :    0.142114
   8 H :    0.132564
   9 H :    0.130535
  10 H :    0.319581
Sum of atomic charges:   -0.0000000

LOEWDIN ATOMIC CHARGES
----------------------
   0 C :   -0.313791
   1 C :   -0.260309
   2 C :   -0.488441
   3 O :    0.088536
   4 O :    0.105461
   5 H :    0.116865
   6 H :    0.128161
   7 H :    0.121636
   8 H :    0.157300
   9 H :    0.157884
  10 H :    0.186697

  Mayer bond orders larger than 0.100000
B(  0-C ,  1-C ) :   0.9361 B(  0-C ,  5-H ) :   0.9722 B(  0-C ,  6-H ) :   0.9698
B(  0-C ,  7-H ) :   0.9759 B(  1-C ,  2-C ) :   0.9828 B(  1-C ,  8-H ) :   0.9532
B(  1-C ,  9-H ) :   0.9447 B(  2-C ,  3-O ) :   2.1245 B(  2-C ,  4-O ) :   1.2072
B(  4-O , 10-H ) :   0.8750

FINAL SINGLE POINT ENERGY      -268.409689513701

DIPOLE MOMENT
-------------

Method             : SCF
Type of density    : Electron Density
Multiplicity       :   1
Irrep              :   0
Energy             :  -268.4170757455010516 Eh
Relativity type    :
Basis              : AO
                                X                 Y                 Z
Electronic contribution:     -5.780546860       2.696855006      -0.157625855
Nuclear contribution   :      7.292783865      -3.897003400       0.199672146
                        -----------------------------------------
Total Dipole Moment    :      1.512237005      -1.200148394       0.042046290
                        -----------------------------------------
Magnitude (a.u.)       :      1.931057953
Magnitude (Debye)      :      4.908359243

Rotational constants in cm-1:             0.322879             0.130499             0.096519
Rotational constants in MHz :          9679.665049          3912.251721          2893.556220

                             ****ORCA TERMINATED NORMALLY****
TOTAL RUN TIME: 0 days 0 hours 0 minutes 55 seconds 911 msec
