                         Program Version 6.0.0  -   RELEASE  -
|  1> ! wb97x-v def2-tzvp def2/J RIJCOSX DEFGRID2 scfconv7 GCP(DFT/TZ) printgap
|  2> %output
|  3>     printlevel normal
|  4> end
|  5> %cpcm
|  6>     smd true
|  7>     smdsolvent "water"
|  8> end
|  9> * xyz 0 1
| 10> C 1.690734624208423 -1.073917143517953 0.15059248003678022
| 11> C 1.040799054476385 0.2606294264526488 -0.1906780347891376
| 12> C -0.45764462508222314 0.34732816430487956 -0.06304586341976715
| 13> O -1.0743090074593327 1.3943959218085882 -0.15549895402130198
| 14> O -1.1553727725083378 -0.7927566946949488 0.14477581509044202
| 15> H 1.360958355783357 -1.8735497857337533 -0.5220739211274649
| 16> H 2.7748567819233396 -0.9911684671119394 0.04083732251713646
| 17> H 1.4841732963675855 -1.3701311375440108 1.1840697875754085
| 18> H 1.441366022709768 1.0661085084414577 0.43355193558657484
| 19> H 1.2622950963211008 0.5470784761006477 -1.2265785568753873
| 20> H -0.5586049801942781 -1.5564954865707974 0.1971457172962887
| 21> *
| 22>
| 23>                          ****END OF INPUT****

CARTESIAN COORDINATES (ANGSTROEM)
---------------------------------
  C      1.690735   -1.073917    0.150592
  C      1.040799    0.260629   -0.190678
  C     -0.457645    0.347328   -0.063046
  O     -1.074309    1.394396   -0.155499
  O     -1.155373   -0.792757    0.144776
  H      1.360958   -1.873550   -0.522074
  H      2.774857   -0.991168    0.040837
  H      1.484173   -1.370131    1.184070
  H      1.441366    1.066109    0.433552
  H      1.262295    0.547078   -1.226579
  H     -0.558605   -1.556495    0.197146

 Total Charge           Charge          ....    0
 Multiplicity           Mult            ....    1
 Number of Electrons    NEL             ....   40
 Basis Dimension        Dim             ....  191

ORBITAL ENERGIES
----------------

  NO   OCC          E(Eh)            E(eV)
   0   2.0000     -21.723601      -591.1292
   1   2.0000     -21.666206      -589.5674
   2   2.0000     -12.191934      -331.7594
   3   2.0000     -12.059365      -328.1520
   4   2.0000     -12.039910      -327.6226
   5   2.0000      -1.765579       -48.0438
   6   2.0000      -1.704401       -46.3791
   7   2.0000      -1.298900       -35.3449
   8   2.0000      -1.211122       -32.9563
   9   2.0000      -1.147126       -31.2149
  10   2.0000      -1.072514       -29.1846
  11   2.0000      -1.040446       -28.3120
  12   2.0000      -0.981432       -26.7061
  13   2.0000      -0.948365       -25.8063
  14   2.0000      -0.910102       -24.7651
  15   2.0000      -0.871452       -23.7134
  16   2.0000      -0.869087       -23.6491
  17   2.0000      -0.838036       -22.8041
  18   2.0000      -0.796044       -21.6615
  19   2.0000      -0.780043       -21.2260
  20   0.0000      -0.306290        -8.3346
  21   0.0000      -0.129380        -3.5206
  22   0.0000      -0.056967        -1.5501
  23   0.0000      -0.041098        -1.1183
  24   0.0000       0.018500         0.5034

MULLIKEN ATOMIC CHARGES
-----------------------
   0 C :   -0.448983
   1 C :   -0.161818
   2 C :    0.335333
   3 O :   -0.465784
   4 O :   -0.390029
   5 H :    0.145648
   6 H :    0.145889
   7 H :    0.151011
   8 H :    0.148047
   9 H :    0.152926
  10 H :    0.387760
Sum of atomic charges:   -0.0000000

LOEWDIN ATOMIC CHARGES
----------------------
   0 C :   -0.305766
   1 C :   -0.251571
   2 C :   -0.469419
   3 O :    0.002707
   4 O :    0.094955
   5 H :    0.126124
   6 H :    0.130775
   7 H :    0.126914
   8 H :    0.162492
   9 H :    0.166384
  10 H :    0.216405

  Mayer bond orders larger than 0.100000
B(  0-C ,  1-C ) :   0.9593 B(  0-C ,  5-H ) :   0.9687 B(  0-C ,  6-H ) :   0.9650
B(  0-C ,  7-H ) :   0.9736 B(  1-C ,  2-C ) :   0.9959 B(  1-C ,  8-H ) :   0.9460
B(  1-C ,  9-H ) :   0.9312 B(  2-C ,  3-O ) :   1.9896 B(  2-C ,  4-O ) :   1.2372
B(  4-O , 10-H ) :   0.8315

FINAL SINGLE POINT ENERGY      -268.427134921206

DIPOLE MOMENT
-------------

Method             : SCF
Type of density    : Electron Density
Multiplicity       :   1
Irrep              :   0
Energy             :  -268.4345211530064716 Eh
Relativity type    :
Basis              : AO
                                X                 Y                 Z
Electronic contribution:     -5.357977830       2.204478376      -0.142979057
Nuclear contribution   :      7.292783865      -3.897003400       0.199672146
                        -----------------------------------------
Total Dipole Moment    :      1.934806035      -1.692525024       0.056693088
                        -----------------------------------------
Magnitude (a.u.)       :      2.571250563
Magnitude (Debye)      :      6.535599539

Rotational constants in cm-1:             0.322879             0.130499             0.096519
Rotational constants in MHz :          9679.665049          3912.251721          2893.556220

                             ****ORCA TERMINATED NORMALLY****
TOTAL RUN TIME: 0 days 0 hours 0 minutes 54 seconds 12 msec
