                         Program Version 6.0.0  -   RELEASE  -
|  1> ! wb97x-v def2-tzvp def2/J RIJCOSX DEFGRID2 scfconv7 GCP(DFT/TZ) printgap
|  2> %output
|  3>     printlevel normal
|  4> end
|  5> * xyz 0 1
|  6> C -5.0754923264330305 -0.7249926507553882 0.05094322799067868
|  7> C -4.310850899932895 -1.3752029091082463 -0.9141721186733904
|  8> C -2.9278896158253724 -1.2219102394629462 -0.9289472925509361
|  9> C -2.298340055681897 -0.40627865069590663 0.01704317924537724
| 10> C -3.070908229030358 0.24217241439187737 0.9866689223773762
| 11> C -4.451591748440481 0.07958406303359128 1.0027131492892918
| 12> C -0.8218992423796656 -0.29373069740471086 0.012263078965570008
| 13> C -0.06715202144660297 -1.4653888230760654 0.08083139217233032
| 14> C 1.31717718380678 -1.4291523559667958 0.08861217823822531
| 15> C 1.9989695970064367 -0.2118977687559234 0.029908752594975597
| 16> C 1.2577379504275266 0.9738845241986842 -0.054716969307004225
| 17> C -0.14135363769879317 0.9281831408929649 -0.06827924170787439
| 18> Cl -1.033619090851644 2.4122517036278754 -0.2558191488120369
| 19> Cl 2.085181246209567 2.492561334447935 -0.15862170576814064
| 20> Cl 3.7285247362522846 -0.16714929278784477 0.05595303042016373
| 21> Cl 2.1938891839133596 -2.9303419501041863 0.18811532914759038
| 22> H -6.153776883837332 -0.8471690856397152 0.06505287985026241
| 23> H -4.789731580573675 -2.0036792005958954 -1.6582840410525312
| 24> H -2.330465770903102 -1.7256428370984034 -1.6828074681603946
| 25> H -2.589521269010315 0.8576182430684489 1.7394347699897559
| 26> H -5.04155073148697 0.5794597088339809 1.764413973485111
| 27> H -0.578260527884434 -2.418882520211926 0.14587900774642276
| 28> *
| 29>
| 30>                          ****END OF INPUT****

CARTESIAN COORDINATES (ANGSTROEM)
---------------------------------
  C     -5.075492   -0.724993    0.050943
  C     -4.310851   -1.375203   -0.914172
  C     -2.927890   -1.221910   -0.928947
  C     -2.298340   -0.406279    0.017043
  C     -3.070908    0.242172    0.986669
  C     -4.451592    0.079584    1.002713
  C     -0.821899   -0.293731    0.012263
  C     -0.067152   -1.465389    0.080831
  C      1.317177   -1.429152    0.088612
  C      1.998970   -0.211898    0.029909
  C      1.257738    0.973885   -0.054717
  C     -0.141354    0.928183   -0.068279
  Cl    -1.033619    2.412252   -0.255819
  Cl     2.085181    2.492561   -0.158622
  Cl     3.728525   -0.167149    0.055953
  Cl     2.193889   -2.930342    0.188115
  H     -6.153777   -0.847169    0.065053
  H     -4.789732   -2.003679   -1.658284
  H     -2.330466   -1.725643   -1.682807
  H     -2.589521    0.857618    1.739435
  H     -5.041551    0.579460    1.764414
  H     -0.578261   -2.418883    0.145879

 Total Charge           Charge          ....    0
 Multiplicity           Mult            ....    1
 Number of Electrons    NEL             ....  146
 Basis Dimension        Dim             ....  556

ORBITAL ENERGIES
----------------

  NO   OCC          E(Eh)            E(eV)
   0   2.0000    -107.163497     -2916.0670
   1   2.0000    -107.163002     -2916.0535
   2   2.0000    -107.161901     -2916.0236
   3   2.0000    -107.159876     -2915.9685
   4   2.0000     -12.151791      -330.6671
   5   2.0000     -12.149202      -330.5966
   6   2.0000     -12.145398      -330.4931
   7   2.0000     -12.144469      -330.4678
   8   2.0000     -12.102046      -329.3134
   9   2.0000     -12.088609      -328.9478
  10   2.0000     -12.081102      -328.7435
  11   2.0000     -12.068290      -328.3949
  12   2.0000     -12.067176      -328.3645
  13   2.0000     -12.066154      -328.3367
  14   2.0000     -12.064689      -328.2969
  15   2.0000     -12.063259      -328.2580
  16   2.0000     -11.316532      -307.9385
  17   2.0000     -11.316073      -307.9260
  18   2.0000     -11.314984      -307.8964
  19   2.0000     -11.313045      -307.8436
  20   2.0000      -9.108431      -247.8530
  21   2.0000      -9.107727      -247.8339
  22   2.0000      -9.106473      -247.7997
  23   2.0000      -9.105685      -247.7783
  24   2.0000      -9.105338      -247.7688
  25   2.0000      -9.104872      -247.7562
  26   2.0000      -9.104679      -247.7509
  27   2.0000      -9.104544      -247.7472
  28   2.0000      -9.103819      -247.7275
  29   2.0000      -9.103651      -247.7229
  30   2.0000      -9.101875      -247.6746
  31   2.0000      -9.101694      -247.6697
  32   2.0000      -1.489648       -40.5354
  33   2.0000      -1.454011       -39.5656
  34   2.0000      -1.439168       -39.1618
  35   2.0000      -1.422300       -38.7027
  36   2.0000      -1.405877       -38.2558
  37   2.0000      -1.381372       -37.5890
  38   2.0000      -1.322485       -35.9866
  39   2.0000      -1.290859       -35.1261
  40   2.0000      -1.287799       -35.0428
  41   2.0000      -1.272690       -34.6317
  42   2.0000      -1.166969       -31.7548
  43   2.0000      -1.146349       -31.1938
  44   2.0000      -1.120868       -30.5004
  45   2.0000      -1.107502       -30.1367
  46   2.0000      -1.032969       -28.1085
  47   2.0000      -1.014770       -27.6133
  48   2.0000      -0.989773       -26.9331
  49   2.0000      -0.969007       -26.3680
  50   2.0000      -0.966743       -26.3064
  51   2.0000      -0.950684       -25.8694
  52   2.0000      -0.945955       -25.7407
  53   2.0000      -0.922747       -25.1092
  54   2.0000      -0.900611       -24.5069
  55   2.0000      -0.890275       -24.2256
  56   2.0000      -0.888951       -24.1896
  57   2.0000      -0.880831       -23.9686
  58   2.0000      -0.841459       -22.8973
  59   2.0000      -0.837539       -22.7906
  60   2.0000      -0.827839       -22.5266
  61   2.0000      -0.822863       -22.3912
  62   2.0000      -0.818963       -22.2851
  63   2.0000      -0.817246       -22.2384
  64   2.0000      -0.815424       -22.1888
  65   2.0000      -0.808417       -21.9981
  66   2.0000      -0.801663       -21.8144
  67   2.0000      -0.790244       -21.5036
  68   2.0000      -0.772818       -21.0294
  69   2.0000      -0.692585       -18.8462
  70   2.0000      -0.681828       -18.5535
  71   2.0000      -0.653249       -17.7758
  72   2.0000      -0.649036       -17.6612
  73   0.0000      -0.337784        -9.1916
  74   0.0000      -0.314825        -8.5668
  75   0.0000      -0.302583        -8.2337
  76   0.0000      -0.281570        -7.6619
  77   0.0000      -0.258806        -7.0425

MULLIKEN ATOMIC CHARGES
-----------------------
   0 C :   -0.121609
   1 C :   -0.113565
   2 C :   -0.241825
   3 C :    0.205340
   4 C :   -0.219467
   5 C :   -0.107640
   6 C :    0.147096
   7 C :   -0.308850
   8 C :    0.112258
   9 C :    0.006006
  10 C :    0.020089
  11 C :   -0.050180
  12 Cl:   -0.034838
  13 Cl:   -0.025865
  14 Cl:   -0.025659
  15 Cl:   -0.052643
  16 H :    0.123456
  17 H :    0.123067
  18 H :    0.141199
  19 H :    0.140788
  20 H :    0.123565
  21 H :    0.159277
Sum of atomic charges:   -0.0000000

LOEWDIN ATOMIC CHARGES
----------------------
   0 C :   -0.132164
   1 C :   -0.133378
   2 C :   -0.098169
   3 C :   -0.115306
   4 C :   -0.100788
   5 C :   -0.131948
   6 C :   -0.102085
   7 C :   -0.095840
   8 C :   -0.427389
   9 C :   -0.445851
  10 C :   -0.438394
  11 C :   -0.387140
  12 Cl:    0.437672
  13 Cl:    0.432897
  14 Cl:    0.433996
  15 Cl:    0.412566
  16 H :    0.143362
  17 H :    0.144059
  18 H :    0.150051
  19 H :    0.148596
  20 H :    0.144336
  21 H :    0.160915

  Mayer bond orders larger than 0.100000
B(  0-C ,  1-C ) :   1.4235 B(  0-C ,  5-C ) :   1.4149 B(  0-C , 16-H ) :   0.9706
B(  1-C ,  2-C ) :   1.4492 B(  1-C , 17-H ) :   0.9727 B(  2-C ,  3-C ) :   1.3882
B(  2-C , 18-H ) :   0.9650 B(  3-C ,  4-C ) :   1.3587 B(  3-C ,  6-C ) :   0.8214
B(  4-C ,  5-C ) :   1.4571 B(  4-C , 19-H ) :   0.9624 B(  5-C , 20-H ) :   0.9716
B(  6-C ,  7-C ) :   1.3889 B(  6-C , 11-C ) :   1.3144 B(  7-C ,  8-C ) :   1.4016
B(  7-C , 21-H ) :   0.9589 B(  8-C ,  9-C ) :   1.3220 B(  8-C , 15-Cl) :   1.0730
B(  9-C , 10-C ) :   1.3180 B(  9-C , 14-Cl) :   1.2070 B( 10-C , 11-C ) :   1.3420
B( 10-C , 13-Cl) :   1.2025 B( 11-C , 12-Cl) :   1.2199

FINAL SINGLE POINT ENERGY     -2301.496796322501

DIPOLE MOMENT
-------------

Method             : SCF
Type of density    : Electron Density
Multiplicity       :   1
Irrep              :   0
Energy             : -2301.5077094765010770 Eh
Relativity type    :
Basis              : AO
                                X                 Y                 Z
Electronic contribution:     28.511504127       7.253404376      -0.530958652
Nuclear contribution   :    -29.517694889      -7.640071912       0.581066972
                        -----------------------------------------
Total Dipole Moment    :     -1.006190762      -0.386667536       0.050108320
                        -----------------------------------------
Magnitude (a.u.)       :      1.079093358
Magnitude (Debye)      :      2.742837340

Rotational constants in cm-1:             0.018108             0.007797             0.005672
Rotational constants in MHz :           542.873901           233.755718           170.038063

                             ****ORCA TERMINATED NORMALLY****
TOTAL RUN TIME: 0 days 0 hours 8 minutes 26 seconds 891 msec
