                         Program Version 6.0.0  -   RELEASE  -
|  1> ! wb97x-v def2-tzvp def2/J RIJCOSX DEFGRID2 scfconv7 GCP(DFT/TZ) printgap
|  2> %output
|  3>     printlevel normal
|  4> end
|  5> %cpcm
|  6>     smd true
|  7>     smdsolvent "water"
|  8> end
|  9> * xyz 0 1
| 10> C -5.0754923264330305 -0.7249926507553882 0.05094322799067868
| 11> C -4.310850899932895 -1.3752029091082463 -0.9141721186733904
| 12> C -2.9278896158253724 -1.2219102394629462 -0.9289472925509361
| 13> C -2.298340055681897 -0.40627865069590663 0.01704317924537724
| 14> C -3.070908229030358 0.24217241439187737 0.9866689223773762
| 15> C -4.451591748440481 0.07958406303359128 1.0027131492892918
| 16> C -0.8218992423796656 -0.29373069740471086 0.012263078965570008
| 17> C -0.06715202144660297 -1.4653888230760654 0.08083139217233032
| 18> C 1.31717718380678 -1.4291523559667958 0.08861217823822531
| 19> C 1.9989695970064367 -0.2118977687559234 0.029908752594975597
| 20> C 1.2577379504275266 0.9738845241986842 -0.054716969307004225
| 21> C -0.14135363769879317 0.9281831408929649 -0.06827924170787439
| 22> Cl -1.033619090851644 2.4122517036278754 -0.2558191488120369
| 23> Cl 2.085181246209567 2.492561334447935 -0.15862170576814064
| 24> Cl 3.7285247362522846 -0.16714929278784477 0.05595303042016373
| 25> Cl 2.1938891839133596 -2.9303419501041863 0.18811532914759038
| 26> H -6.153776883837332 -0.8471690856397152 0.06505287985026241
| 27> H -4.789731580573675 -2.0036792005958954 -1.6582840410525312
| 28> H -2.330465770903102 -1.7256428370984034 -1.6828074681603946
| 29> H -2.589521269010315 0.8576182430684489 1.7394347699897559
| 30> H -5.04155073148697 0.5794597088339809 1.764413973485111
| 31> H -0.578260527884434 -2.418882520211926 0.14587900774642276
| 32> *
| 33>
| 34>                          ****END OF INPUT****

CARTESIAN COORDINATES (ANGSTROEM)
---------------------------------
  C     -5.075492   -0.724993    0.050943
  C     -4.310851   -1.375203   -0.914172
  C     -2.927890   -1.221910   -0.928947
  C     -2.298340   -0.406279    0.017043
  C     -3.070908    0.242172    0.986669
  C     -4.451592    0.079584    1.002713
  C     -0.821899   -0.293731    0.012263
  C     -0.067152   -1.465389    0.080831
  C      1.317177   -1.429152    0.088612
  C      1.998970   -0.211898    0.029909
  C      1.257738    0.973885   -0.054717
  C     -0.141354    0.928183   -0.068279
  Cl    -1.033619    2.412252   -0.255819
  Cl     2.085181    2.492561   -0.158622
  Cl     3.728525   -0.167149    0.055953
  Cl     2.193889   -2.930342    0.188115
  H     -6.153777   -0.847169    0.065053
  H     -4.789732   -2.003679   -1.658284
  H     -2.330466   -1.725643   -1.682807
  H     -2.589521    0.857618    1.739435
  H     -5.041551    0.579460    1.764414
  H     -0.578261   -2.418883    0.145879

 Total Charge           Charge          ....    0
 Multiplicity           Mult            ....    1
 Number of Electrons    NEL             ....  146
 Basis Dimension        Dim             ....  556

ORBITAL ENERGIES
----------------

  NO   OCC          E(Eh)            E(eV)
   0   2.0000    -107.165509     -2916.1217
   1   2.0000    -107.164973     -2916.1072
   2   2.0000    -107.161314     -2916.0076
   3   2.0000    -107.160003     -2915.9719
   4   2.0000     -12.148913      -330.5887
   5   2.0000     -12.146301      -330.5176
   6   2.0000     -12.141709      -330.3927
   7   2.0000     -12.140110      -330.3492
   8   2.0000     -12.095711      -329.1410
   9   2.0000     -12.080286      -328.7213
  10   2.0000     -12.071869      -328.4922
  11   2.0000     -12.056781      -328.0817
  12   2.0000     -12.056252      -328.0673
  13   2.0000     -12.054432      -328.0178
  14   2.0000     -12.052902      -327.9761
  15   2.0000     -12.051559      -327.9396
  16   2.0000     -11.318578      -307.9942
  17   2.0000     -11.318078      -307.9806
  18   2.0000     -11.314414      -307.8808
  19   2.0000     -11.313197      -307.8477
  20   2.0000      -9.110440      -247.9077
  21   2.0000      -9.109631      -247.8857
  22   2.0000      -9.107706      -247.8333
  23   2.0000      -9.107409      -247.8252
  24   2.0000      -9.106905      -247.8115
  25   2.0000      -9.106597      -247.8031
  26   2.0000      -9.105963      -247.7859
  27   2.0000      -9.104826      -247.7549
  28   2.0000      -9.103291      -247.7131
  29   2.0000      -9.103196      -247.7105
  30   2.0000      -9.102050      -247.6794
  31   2.0000      -9.101911      -247.6756
  32   2.0000      -1.487976       -40.4899
  33   2.0000      -1.453364       -39.5480
  34   2.0000      -1.438488       -39.1433
  35   2.0000      -1.423280       -38.7294
  36   2.0000      -1.398542       -38.0563
  37   2.0000      -1.376225       -37.4490
  38   2.0000      -1.316535       -35.8247
  39   2.0000      -1.285999       -34.9938
  40   2.0000      -1.277874       -34.7727
  41   2.0000      -1.265677       -34.4408
  42   2.0000      -1.160754       -31.5857
  43   2.0000      -1.141710       -31.0675
  44   2.0000      -1.110099       -30.2073
  45   2.0000      -1.099048       -29.9066
  46   2.0000      -1.028081       -27.9755
  47   2.0000      -1.009740       -27.4764
  48   2.0000      -0.985606       -26.8197
  49   2.0000      -0.963539       -26.2192
  50   2.0000      -0.956527       -26.0284
  51   2.0000      -0.947265       -25.7764
  52   2.0000      -0.939350       -25.5610
  53   2.0000      -0.916532       -24.9401
  54   2.0000      -0.890688       -24.2368
  55   2.0000      -0.881436       -23.9851
  56   2.0000      -0.879509       -23.9327
  57   2.0000      -0.876227       -23.8434
  58   2.0000      -0.841085       -22.8871
  59   2.0000      -0.827724       -22.5235
  60   2.0000      -0.826905       -22.5012
  61   2.0000      -0.820492       -22.3267
  62   2.0000      -0.819071       -22.2881
  63   2.0000      -0.815118       -22.1805
  64   2.0000      -0.811045       -22.0697
  65   2.0000      -0.807668       -21.9778
  66   2.0000      -0.802866       -21.8471
  67   2.0000      -0.783492       -21.3199
  68   2.0000      -0.768993       -20.9253
  69   2.0000      -0.687460       -18.7067
  70   2.0000      -0.677881       -18.4461
  71   2.0000      -0.644057       -17.5257
  72   2.0000      -0.641228       -17.4487
  73   0.0000      -0.336604        -9.1594
  74   0.0000      -0.309582        -8.4241
  75   0.0000      -0.297038        -8.0828
  76   0.0000      -0.279447        -7.6041
  77   0.0000      -0.254632        -6.9289

MULLIKEN ATOMIC CHARGES
-----------------------
   0 C :   -0.161741
   1 C :   -0.153989
   2 C :   -0.261240
   3 C :    0.178247
   4 C :   -0.256076
   5 C :   -0.149444
   6 C :    0.171426
   7 C :   -0.304069
   8 C :    0.112216
   9 C :    0.017062
  10 C :    0.024960
  11 C :   -0.034208
  12 Cl:   -0.054271
  13 Cl:   -0.044471
  14 Cl:   -0.044346
  15 Cl:   -0.066819
  16 H :    0.163733
  17 H :    0.162848
  18 H :    0.173932
  19 H :    0.173820
  20 H :    0.163104
  21 H :    0.189326
Sum of atomic charges:    0.0000000

LOEWDIN ATOMIC CHARGES
----------------------
   0 C :   -0.140071
   1 C :   -0.140842
   2 C :   -0.097995
   3 C :   -0.121712
   4 C :   -0.108383
   5 C :   -0.141256
   6 C :   -0.094333
   7 C :   -0.080198
   8 C :   -0.425894
   9 C :   -0.445248
  10 C :   -0.437952
  11 C :   -0.383181
  12 Cl:    0.426305
  13 Cl:    0.419958
  14 Cl:    0.421205
  15 Cl:    0.402396
  16 H :    0.152402
  17 H :    0.153239
  18 H :    0.160020
  19 H :    0.156079
  20 H :    0.153283
  21 H :    0.172178

  Mayer bond orders larger than 0.100000
B(  0-C ,  1-C ) :   1.3992 B(  0-C ,  5-C ) :   1.3942 B(  0-C , 16-H ) :   0.9734
B(  1-C ,  2-C ) :   1.4281 B(  1-C , 17-H ) :   0.9772 B(  2-C ,  3-C ) :   1.3737
B(  2-C , 18-H ) :   0.9725 B(  3-C ,  4-C ) :   1.3312 B(  3-C ,  6-C ) :   0.8241
B(  4-C ,  5-C ) :   1.4408 B(  4-C , 19-H ) :   0.9695 B(  5-C , 20-H ) :   0.9752
B(  6-C ,  7-C ) :   1.3949 B(  6-C , 11-C ) :   1.3081 B(  7-C ,  8-C ) :   1.3912
B(  7-C , 21-H ) :   0.9555 B(  8-C ,  9-C ) :   1.3192 B(  8-C , 15-Cl) :   1.0708
B(  9-C , 10-C ) :   1.3231 B(  9-C , 14-Cl) :   1.1817 B( 10-C , 11-C ) :   1.3475
B( 10-C , 13-Cl) :   1.1787 B( 11-C , 12-Cl) :   1.1799

FINAL SINGLE POINT ENERGY     -2301.498775168776

DIPOLE MOMENT
-------------

Method             : SCF
Type of density    : Electron Density
Multiplicity       :   1
Irrep              :   0
Energy             : -2301.5096883227761282 Eh
Relativity type    :
Basis              : AO
                                X                 Y                 Z
Electronic contribution:     28.181724547       6.964967670      -0.511325524
Nuclear contribution   :    -29.517694889      -7.640071912       0.581066972
                        -----------------------------------------
Total Dipole Moment    :     -1.335970342      -0.675104242       0.069741448
                        -----------------------------------------
Magnitude (a.u.)       :      1.498481352
Magnitude (Debye)      :      3.808836902

Rotational constants in cm-1:             0.018108             0.007797             0.005672
Rotational constants in MHz :           542.873901           233.755718           170.038063

                             ****ORCA TERMINATED NORMALLY****
TOTAL RUN TIME: 0 days 0 hours 9 minutes 17 seconds 376 msec
