                         Program Version 6.0.0  -   RELEASE  -
|  1> ! pbe def2-sv(p) def2/J RI DEFGRID1 loosescf d4 GCP(DFT/SV(P)) printgap
|  2> %output
|  3>     printlevel normal
|  4> end
|  5> * xyz 0 1
|  6> C -1.9566020688 -0.6047797526 -0.8012111496
|  7> C -1.1762560837 -0.123784752 0.4313260281
|  8> H -1.8799090183 -0.089352761 1.2715797013
|  9> C -0.6020106593 1.2900730694 0.2429095444
| 10> H -1.3221669632 1.8726165078 -0.346356081
| 11> C 0.7471300705 1.2913064677 -0.5167809743
| 12> H 1.18701345 2.2940588824 -0.4237055923
| 13> C 1.7046140116 0.2842840853 0.1383582714
| 14> H 2.6067488946 0.1846929528 -0.4749637997
| 15> C 1.0292634251 -1.0999052903 0.2154148908
| 16> H 1.6453555063 -1.7465489694 0.8581355971
| 17> O -0.2058630549 -1.0650672588 0.8779477285
| 18> O 0.9434951474 -1.6144004373 -1.083121353
| 19> O 2.1306561755 0.7057377753 1.4046974465
| 20> O 0.5773302349 1.0603181421 -1.8923704117
| 21> O -0.4453860099 1.846263714 1.5321737647
| 22> O -2.6511427209 -1.7810056798 -0.4489540377
| 23> H -1.2761909466 -0.790331619 -1.63764583
| 24> H -2.6595103525 0.1888282467 -1.0836301882
| 25> H 0.646614932 -2.5368262615 -1.0533963099
| 26> H 1.3446601853 0.8829109072 1.9527097898
| 27> H 0.6896336424 0.1119311231 -2.0691642556
| 28> H -0.3118690123 2.8026879318 1.4661864328
| 29> H -3.1866009426 -2.0711686185 -1.200840332
| 30> *
| 31>
| 32>                          ****END OF INPUT****

CARTESIAN COORDINATES (ANGSTROEM)
---------------------------------
  C     -1.956602   -0.604780   -0.801211
  C     -1.176256   -0.123785    0.431326
  H     -1.879909   -0.089353    1.271580
  C     -0.602011    1.290073    0.242910
  H     -1.322167    1.872617   -0.346356
  C      0.747130    1.291306   -0.516781
  H      1.187013    2.294059   -0.423706
  C      1.704614    0.284284    0.138358
  H      2.606749    0.184693   -0.474964
  C      1.029263   -1.099905    0.215415
  H      1.645356   -1.746549    0.858136
  O     -0.205863   -1.065067    0.877948
  O      0.943495   -1.614400   -1.083121
  O      2.130656    0.705738    1.404697
  O      0.577330    1.060318   -1.892370
  O     -0.445386    1.846264    1.532174
  O     -2.651143   -1.781006   -0.448954
  H     -1.276191   -0.790332   -1.637646
  H     -2.659510    0.188828   -1.083630
  H      0.646615   -2.536826   -1.053396
  H      1.344660    0.882911    1.952710
  H      0.689634    0.111931   -2.069164
  H     -0.311869    2.802688    1.466186
  H     -3.186601   -2.071169   -1.200840

 Total Charge           Charge          ....    0
 Multiplicity           Mult            ....    1
 Number of Electrons    NEL             ....   96
 Basis Dimension        Dim             ....  192

ORBITAL ENERGIES
----------------

  NO   OCC          E(Eh)            E(eV)
   0   2.0000     -18.782349      -511.0937
   1   2.0000     -18.771725      -510.8046
   2   2.0000     -18.764274      -510.6019
   3   2.0000     -18.748529      -510.1734
   4   2.0000     -18.746511      -510.1185
   5   2.0000     -18.740219      -509.9473
   6   2.0000      -9.986084      -271.7352
   7   2.0000      -9.948875      -270.7226
   8   2.0000      -9.945312      -270.6257
   9   2.0000      -9.940609      -270.4977
  10   2.0000      -9.938953      -270.4527
  11   2.0000      -9.933570      -270.3062
  12   2.0000      -0.986798       -26.8521
  13   2.0000      -0.949572       -25.8392
  14   2.0000      -0.927991       -25.2519
  15   2.0000      -0.924554       -25.1584
  16   2.0000      -0.918777       -25.0012
  17   2.0000      -0.911564       -24.8049
  18   2.0000      -0.707373       -19.2486
  19   2.0000      -0.684313       -18.6211
  20   2.0000      -0.623767       -16.9736
  21   2.0000      -0.586832       -15.9685
  22   2.0000      -0.576484       -15.6869
  23   2.0000      -0.524345       -14.2682
  24   2.0000      -0.504836       -13.7373
  25   2.0000      -0.488954       -13.3051
  26   2.0000      -0.472367       -12.8538
  27   2.0000      -0.459170       -12.4947
  28   2.0000      -0.439932       -11.9712
  29   2.0000      -0.431032       -11.7290
  30   2.0000      -0.423001       -11.5105
  31   2.0000      -0.404356       -11.0031
  32   2.0000      -0.382106       -10.3976
  33   2.0000      -0.369157       -10.0453
  34   2.0000      -0.360865        -9.8196
  35   2.0000      -0.359332        -9.7779
  36   2.0000      -0.333279        -9.0690
  37   2.0000      -0.327740        -8.9183
  38   2.0000      -0.307597        -8.3701
  39   2.0000      -0.293546        -7.9878
  40   2.0000      -0.277129        -7.5411
  41   2.0000      -0.265488        -7.2243
  42   2.0000      -0.261695        -7.1211
  43   2.0000      -0.250730        -6.8227
  44   2.0000      -0.233732        -6.3602
  45   2.0000      -0.218711        -5.9514
  46   2.0000      -0.212735        -5.7888
  47   2.0000      -0.200139        -5.4461
  48   0.0000       0.009522         0.2591
  49   0.0000       0.012005         0.3267
  50   0.0000       0.029222         0.7952
  51   0.0000       0.052278         1.4226
  52   0.0000       0.068462         1.8630

MULLIKEN ATOMIC CHARGES
-----------------------
   0 C :    0.017881
   1 C :    0.072789
   2 H :    0.085821
   3 C :    0.010523
   4 H :    0.074954
   5 C :    0.056007
   6 H :    0.061279
   7 C :    0.030699
   8 H :    0.085377
   9 C :    0.180212
  10 H :    0.075629
  11 O :   -0.309463
  12 O :   -0.414972
  13 O :   -0.429907
  14 O :   -0.426471
  15 O :   -0.417371
  16 O :   -0.431726
  17 H :    0.060583
  18 H :    0.070133
  19 H :    0.316870
  20 H :    0.300732
  21 H :    0.319897
  22 H :    0.310848
  23 H :    0.299677
Sum of atomic charges:    0.0000000

LOEWDIN ATOMIC CHARGES
----------------------
   0 C :   -0.142985
   1 C :   -0.052587
   2 H :    0.128602
   3 C :   -0.077262
   4 H :    0.109312
   5 C :   -0.076640
   6 H :    0.106532
   7 C :   -0.083158
   8 H :    0.120960
   9 C :   -0.010903
  10 H :    0.104464
  11 O :   -0.137126
  12 O :   -0.311153
  13 O :   -0.316911
  14 O :   -0.321921
  15 O :   -0.308277
  16 O :   -0.344511
  17 H :    0.093213
  18 H :    0.099584
  19 H :    0.295386
  20 H :    0.271604
  21 H :    0.274810
  22 H :    0.292812
  23 H :    0.286156

  Mayer bond orders larger than 0.100000
B(  0-C ,  1-C ) :   1.0633 B(  0-C , 16-O ) :   1.0943 B(  0-C , 17-H ) :   0.8899
B(  0-C , 18-H ) :   0.9117 B(  1-C ,  2-H ) :   0.8892 B(  1-C ,  3-C ) :   0.9967
B(  1-C , 11-O ) :   0.9962 B(  3-C ,  4-H ) :   0.8950 B(  3-C ,  5-C ) :   0.9448
B(  3-C , 15-O ) :   1.0232 B(  5-C ,  6-H ) :   0.9028 B(  5-C ,  7-C ) :   0.9950
B(  5-C , 14-O ) :   1.0874 B(  7-C ,  8-H ) :   0.8931 B(  7-C ,  9-C ) :   0.9874
B(  7-C , 13-O ) :   1.0671 B(  9-C , 10-H ) :   0.9047 B(  9-C , 11-O ) :   1.0761
B(  9-C , 12-O ) :   1.0631 B( 12-O , 19-H ) :   0.8295 B( 13-O , 20-H ) :   0.8098
B( 14-O , 21-H ) :   0.8005 B( 15-O , 22-H ) :   0.8406 B( 16-O , 23-H ) :   0.8521

Dispersion correction           -0.025919466
FINAL SINGLE POINT ENERGY      -685.696611000663

DIPOLE MOMENT
-------------

Method             : SCF
Type of density    : Electron Density
Multiplicity       :   1
Irrep              :   0
Energy             :  -685.8287172083548739 Eh
Relativity type    :
Basis              : AO
                                X                 Y                 Z
Electronic contribution:      1.643555855      -1.104323941       1.915921548
Nuclear contribution   :     -2.355471413       1.022704185      -2.565826363
                        -----------------------------------------
Total Dipole Moment    :     -0.711915559      -0.081619756      -0.649904816
                        -----------------------------------------
Magnitude (a.u.)       :      0.967399512
Magnitude (Debye)      :      2.458934146

Rotational constants in cm-1:             0.041723             0.027862             0.024659
Rotational constants in MHz :          1250.813901           835.275342           739.264446

                             ****ORCA TERMINATED NORMALLY****
TOTAL RUN TIME: 0 days 0 hours 0 minutes 12 seconds 502 msec
