                         Program Version 6.0.0  -   RELEASE  -
|  1> ! r2scan-3c def2/J RI DEFGRID2 scfconv6 printgap
|  2> %output
|  3>     printlevel normal
|  4> end
|  5> * xyz 0 1
|  6> C 1.5788967303 1.6336113918 0.8425046403
|  7> C 0.2789277698 0.8825945739 1.1965041222
|  8> H -0.080359578 1.2683704693 2.1523853641
|  9> C 0.3129201021 -0.674743105 1.2799203617
| 10> H -0.0695846821 -0.9895147725 2.2533857393
| 11> C 1.6499944679 -1.4004381937 1.0926311603
| 12> O 2.43547922 -0.8733874226 0.0519776721
| 13> S 3.6556629277 0.1473348124 0.5740262907
| 14> O 4.4504357516 -0.567198988 1.5410653208
| 15> O 2.6959425328 1.1112357085 1.5251916289
| 16> C -0.736488259 -1.0898023554 0.2115256378
| 17> C -0.2032114041 -0.6922235058 -1.1494293941
| 18> C -0.2603300584 0.6453393233 -1.2151160517
| 19> C -0.8084156355 1.1359794624 0.1130674188
| 20> C -1.8139487276 0.0010528642 0.4045776449
| 21> Cl -3.1266769484 -0.0924503174 -0.7846748841
| 22> Cl -2.5326095796 0.0495720143 2.007984364
| 23> Cl -1.4606396183 2.7621996783 0.0990220077
| 24> Cl 0.2112441998 1.6691661542 -2.478046434
| 25> Cl 0.3782545497 -1.794897706 -2.2863976042
| 26> Cl -1.2910779309 -2.7487170195 0.3421320697
| 27> H 1.4690372774 2.6791235247 1.1386038874
| 28> H 1.7649683696 1.5860112582 -0.2330088399
| 29> H 2.2238779446 -1.3542395929 2.0251993016
| 30> H 1.4498564308 -2.4513011601 0.8643250929
| 31> *
| 32>
| 33>                          ****END OF INPUT****

CARTESIAN COORDINATES (ANGSTROEM)
---------------------------------
  C      1.578897    1.633611    0.842505
  C      0.278928    0.882595    1.196504
  H     -0.080360    1.268370    2.152385
  C      0.312920   -0.674743    1.279920
  H     -0.069585   -0.989515    2.253386
  C      1.649994   -1.400438    1.092631
  O      2.435479   -0.873387    0.051978
  S      3.655663    0.147335    0.574026
  O      4.450436   -0.567199    1.541065
  O      2.695943    1.111236    1.525192
  C     -0.736488   -1.089802    0.211526
  C     -0.203211   -0.692224   -1.149429
  C     -0.260330    0.645339   -1.215116
  C     -0.808416    1.135979    0.113067
  C     -1.813949    0.001053    0.404578
  Cl    -3.126677   -0.092450   -0.784675
  Cl    -2.532610    0.049572    2.007984
  Cl    -1.460640    2.762200    0.099022
  Cl     0.211244    1.669166   -2.478046
  Cl     0.378255   -1.794898   -2.286398
  Cl    -1.291078   -2.748717    0.342132
  H      1.469037    2.679124    1.138604
  H      1.764968    1.586011   -0.233009
  H      2.223878   -1.354240    2.025199
  H      1.449856   -2.451301    0.864325

 Total Charge           Charge          ....    0
 Multiplicity           Mult            ....    1
 Number of Electrons    NEL             ....  202
 Basis Dimension        Dim             ....  462

ORBITAL ENERGIES
----------------

  NO   OCC          E(Eh)            E(eV)
   0   2.0000    -101.259725     -2755.4172
   1   2.0000    -101.256327     -2755.3247
   2   2.0000    -101.248974     -2755.1247
   3   2.0000    -101.243420     -2754.9735
   4   2.0000    -101.242104     -2754.9377
   5   2.0000    -101.238298     -2754.8341
   6   2.0000     -88.751616     -2415.0543
   7   2.0000     -19.015136      -517.4282
   8   2.0000     -19.009837      -517.2840
   9   2.0000     -18.972052      -516.2558
  10   2.0000     -10.203128      -277.6412
  11   2.0000     -10.167349      -276.6676
  12   2.0000     -10.163884      -276.5733
  13   2.0000     -10.138160      -275.8734
  14   2.0000     -10.136586      -275.8305
  15   2.0000     -10.122813      -275.4557
  16   2.0000     -10.115157      -275.2474
  17   2.0000     -10.097203      -274.7589
  18   2.0000     -10.095350      -274.7084
  19   2.0000      -9.415088      -256.1976
  20   2.0000      -9.411701      -256.1054
  21   2.0000      -9.405120      -255.9263
  22   2.0000      -9.399278      -255.7674
  23   2.0000      -9.397927      -255.7306
  24   2.0000      -9.394193      -255.6290
  25   2.0000      -8.026835      -218.4213
  26   2.0000      -7.161628      -194.8778
  27   2.0000      -7.158327      -194.7880
  28   2.0000      -7.151829      -194.6112
  29   2.0000      -7.151460      -194.6011
  30   2.0000      -7.150540      -194.5761
  31   2.0000      -7.147965      -194.5060
  32   2.0000      -7.147162      -194.4842
  33   2.0000      -7.145917      -194.4503
  34   2.0000      -7.144563      -194.4134
  35   2.0000      -7.141188      -194.3216
  36   2.0000      -7.140920      -194.3143
  37   2.0000      -7.140839      -194.3121
  38   2.0000      -7.135209      -194.1589
  39   2.0000      -7.134983      -194.1528
  40   2.0000      -7.133855      -194.1221
  41   2.0000      -7.133638      -194.1162
  42   2.0000      -7.129903      -194.0145
  43   2.0000      -7.129763      -194.0107
  44   2.0000      -5.974463      -162.5734
  45   2.0000      -5.973134      -162.5372
  46   2.0000      -5.964328      -162.2976
  47   2.0000      -1.111345       -30.2412
  48   2.0000      -1.027657       -27.9640
  49   2.0000      -1.016433       -27.6585
  50   2.0000      -0.973547       -26.4916
  51   2.0000      -0.894362       -24.3368
  52   2.0000      -0.881731       -23.9931
  53   2.0000      -0.854798       -23.2602
  54   2.0000      -0.845300       -23.0018
  55   2.0000      -0.821424       -22.3521
  56   2.0000      -0.814650       -22.1677
  57   2.0000      -0.775732       -21.1087
  58   2.0000      -0.741698       -20.1826
  59   2.0000      -0.711667       -19.3654
  60   2.0000      -0.672171       -18.2907
  61   2.0000      -0.671286       -18.2666
  62   2.0000      -0.604089       -16.4381
  63   2.0000      -0.587603       -15.9895
  64   2.0000      -0.573082       -15.5944
  65   2.0000      -0.541488       -14.7346
  66   2.0000      -0.531810       -14.4713
  67   2.0000      -0.521088       -14.1795
  68   2.0000      -0.509606       -13.8671
  69   2.0000      -0.494280       -13.4501
  70   2.0000      -0.481827       -13.1112
  71   2.0000      -0.465575       -12.6689
  72   2.0000      -0.461066       -12.5462
  73   2.0000      -0.455476       -12.3941
  74   2.0000      -0.448638       -12.2081
  75   2.0000      -0.433216       -11.7884
  76   2.0000      -0.428666       -11.6646
  77   2.0000      -0.422217       -11.4891
  78   2.0000      -0.415572       -11.3083
  79   2.0000      -0.402075       -10.9410
  80   2.0000      -0.389120       -10.5885
  81   2.0000      -0.385475       -10.4893
  82   2.0000      -0.368198       -10.0192
  83   2.0000      -0.353910        -9.6304
  84   2.0000      -0.346241        -9.4217
  85   2.0000      -0.343886        -9.3576
  86   2.0000      -0.335173        -9.1205
  87   2.0000      -0.327493        -8.9115
  88   2.0000      -0.319533        -8.6949
  89   2.0000      -0.316800        -8.6206
  90   2.0000      -0.313578        -8.5329
  91   2.0000      -0.311871        -8.4864
  92   2.0000      -0.306143        -8.3306
  93   2.0000      -0.304088        -8.2747
  94   2.0000      -0.303016        -8.2455
  95   2.0000      -0.297658        -8.0997
  96   2.0000      -0.296080        -8.0567
  97   2.0000      -0.293608        -7.9895
  98   2.0000      -0.280397        -7.6300
  99   2.0000      -0.268811        -7.3147
 100   2.0000      -0.243094        -6.6149
 101   0.0000      -0.075805        -2.0628
 102   0.0000      -0.070651        -1.9225
 103   0.0000      -0.049432        -1.3451
 104   0.0000      -0.032319        -0.8794
 105   0.0000      -0.016661        -0.4534

MULLIKEN ATOMIC CHARGES
-----------------------
   0 C :   -0.148028
   1 C :   -0.274492
   2 H :    0.221858
   3 C :   -0.119752
   4 H :    0.226034
   5 C :   -0.217710
   6 O :   -0.277532
   7 S :    0.655102
   8 O :   -0.465560
   9 O :   -0.290315
  10 C :    0.206127
  11 C :   -0.026020
  12 C :   -0.323971
  13 C :    0.365335
  14 C :    0.097967
  15 Cl:   -0.067693
  16 Cl:   -0.066127
  17 Cl:   -0.087125
  18 Cl:   -0.020504
  19 Cl:   -0.023573
  20 Cl:   -0.084220
  21 H :    0.173914
  22 H :    0.168281
  23 H :    0.196302
  24 H :    0.181702
Sum of atomic charges:    0.0000000

LOEWDIN ATOMIC CHARGES
----------------------
   0 C :    0.030170
   1 C :   -0.167882
   2 H :    0.189931
   3 C :   -0.171268
   4 H :    0.194362
   5 C :    0.021168
   6 O :   -0.695854
   7 S :    1.073600
   8 O :   -0.508463
   9 O :   -0.669665
  10 C :   -0.231597
  11 C :   -0.225835
  12 C :   -0.252042
  13 C :   -0.229488
  14 C :   -0.292294
  15 Cl:    0.170011
  16 Cl:    0.175384
  17 Cl:    0.171431
  18 Cl:    0.219448
  19 Cl:    0.245395
  20 Cl:    0.170234
  21 H :    0.193035
  22 H :    0.191763
  23 H :    0.199850
  24 H :    0.198606

  Mayer bond orders larger than 0.100000
B(  0-C ,  1-C ) :   0.8667 B(  0-C ,  9-O ) :   0.8833 B(  0-C , 21-H ) :   0.9493
B(  0-C , 22-H ) :   0.9655 B(  1-C ,  2-H ) :   0.9440 B(  1-C ,  3-C ) :   0.9328
B(  1-C , 13-C ) :   0.9168 B(  3-C ,  4-H ) :   0.9495 B(  3-C ,  5-C ) :   0.8377
B(  3-C , 10-C ) :   0.9580 B(  5-C ,  6-O ) :   0.7983 B(  5-C , 23-H ) :   0.9689
B(  5-C , 24-H ) :   0.9474 B(  6-O ,  7-S ) :   0.8230 B(  7-S ,  8-O ) :   1.6896
B(  7-S ,  9-O ) :   0.8000 B( 10-C , 11-C ) :   0.9594 B( 10-C , 14-C ) :   0.8581
B( 10-C , 20-Cl) :   1.0157 B( 11-C , 12-C ) :   1.4143 B( 11-C , 19-Cl) :   1.1329
B( 12-C , 13-C ) :   0.7955 B( 12-C , 18-Cl) :   1.2324 B( 13-C , 14-C ) :   0.8570
B( 13-C , 17-Cl) :   1.0349 B( 14-C , 15-Cl) :   1.0675 B( 14-C , 16-Cl) :   1.0184

Dispersion correction           -0.018926605
FINAL SINGLE POINT ENERGY     -3731.289613641181

DIPOLE MOMENT
-------------

Method             : SCF
Type of density    : Electron Density
Multiplicity       :   1
Irrep              :   0
Energy             : -3731.3009833068576881 Eh
Relativity type    :
Basis              : AO
                                X                 Y                 Z
Electronic contribution:    -17.036280432      -0.533028125     -11.804746041
Nuclear contribution   :     16.873948816       0.891874113      11.884195324
                        -----------------------------------------
Total Dipole Moment    :     -0.162331616       0.358845988       0.079449283
                        -----------------------------------------
Magnitude (a.u.)       :      0.401788732
Magnitude (Debye)      :      1.021265796

Rotational constants in cm-1:             0.010071             0.006546             0.006150
Rotational constants in MHz :           301.910051           196.229355           184.373837

                             ****ORCA TERMINATED NORMALLY****
TOTAL RUN TIME: 0 days 0 hours 1 minutes 21 seconds 448 msec
