                         Program Version 6.0.0  -   RELEASE  -
|  1> ! r2scan-3c def2/J RI DEFGRID2 scfconv6 printgap
|  2> %output
|  3>     printlevel normal
|  4> end
|  5> %cpcm
|  6>     smd true
|  7>     smdsolvent "water"
|  8> end
|  9> * xyz 0 1
| 10> C 1.5788967303 1.6336113918 0.8425046403
| 11> C 0.2789277698 0.8825945739 1.1965041222
| 12> H -0.080359578 1.2683704693 2.1523853641
| 13> C 0.3129201021 -0.674743105 1.2799203617
| 14> H -0.0695846821 -0.9895147725 2.2533857393
| 15> C 1.6499944679 -1.4004381937 1.0926311603
| 16> O 2.43547922 -0.8733874226 0.0519776721
| 17> S 3.6556629277 0.1473348124 0.5740262907
| 18> O 4.4504357516 -0.567198988 1.5410653208
| 19> O 2.6959425328 1.1112357085 1.5251916289
| 20> C -0.736488259 -1.0898023554 0.2115256378
| 21> C -0.2032114041 -0.6922235058 -1.1494293941
| 22> C -0.2603300584 0.6453393233 -1.2151160517
| 23> C -0.8084156355 1.1359794624 0.1130674188
| 24> C -1.8139487276 0.0010528642 0.4045776449
| 25> Cl -3.1266769484 -0.0924503174 -0.7846748841
| 26> Cl -2.5326095796 0.0495720143 2.007984364
| 27> Cl -1.4606396183 2.7621996783 0.0990220077
| 28> Cl 0.2112441998 1.6691661542 -2.478046434
| 29> Cl 0.3782545497 -1.794897706 -2.2863976042
| 30> Cl -1.2910779309 -2.7487170195 0.3421320697
| 31> H 1.4690372774 2.6791235247 1.1386038874
| 32> H 1.7649683696 1.5860112582 -0.2330088399
| 33> H 2.2238779446 -1.3542395929 2.0251993016
| 34> H 1.4498564308 -2.4513011601 0.8643250929
| 35> *
| 36>
| 37>                          ****END OF INPUT****

CARTESIAN COORDINATES (ANGSTROEM)
---------------------------------
  C      1.578897    1.633611    0.842505
  C      0.278928    0.882595    1.196504
  H     -0.080360    1.268370    2.152385
  C      0.312920   -0.674743    1.279920
  H     -0.069585   -0.989515    2.253386
  C      1.649994   -1.400438    1.092631
  O      2.435479   -0.873387    0.051978
  S      3.655663    0.147335    0.574026
  O      4.450436   -0.567199    1.541065
  O      2.695943    1.111236    1.525192
  C     -0.736488   -1.089802    0.211526
  C     -0.203211   -0.692224   -1.149429
  C     -0.260330    0.645339   -1.215116
  C     -0.808416    1.135979    0.113067
  C     -1.813949    0.001053    0.404578
  Cl    -3.126677   -0.092450   -0.784675
  Cl    -2.532610    0.049572    2.007984
  Cl    -1.460640    2.762200    0.099022
  Cl     0.211244    1.669166   -2.478046
  Cl     0.378255   -1.794898   -2.286398
  Cl    -1.291078   -2.748717    0.342132
  H      1.469037    2.679124    1.138604
  H      1.764968    1.586011   -0.233009
  H      2.223878   -1.354240    2.025199
  H      1.449856   -2.451301    0.864325

 Total Charge           Charge          ....    0
 Multiplicity           Mult            ....    1
 Number of Electrons    NEL             ....  202
 Basis Dimension        Dim             ....  462

ORBITAL ENERGIES
----------------

  NO   OCC          E(Eh)            E(eV)
   0   2.0000    -101.255293     -2755.2966
   1   2.0000    -101.254253     -2755.2683
   2   2.0000    -101.244653     -2755.0071
   3   2.0000    -101.238525     -2754.8403
   4   2.0000    -101.238208     -2754.8317
   5   2.0000    -101.237995     -2754.8259
   6   2.0000     -88.752780     -2415.0859
   7   2.0000     -19.012313      -517.3513
   8   2.0000     -19.007390      -517.2174
   9   2.0000     -18.977095      -516.3930
  10   2.0000     -10.198911      -277.5265
  11   2.0000     -10.160554      -276.4827
  12   2.0000     -10.157378      -276.3963
  13   2.0000     -10.133130      -275.7365
  14   2.0000     -10.131703      -275.6976
  15   2.0000     -10.107340      -275.0347
  16   2.0000     -10.101975      -274.8887
  17   2.0000     -10.082282      -274.3528
  18   2.0000     -10.081068      -274.3198
  19   2.0000      -9.410670      -256.0773
  20   2.0000      -9.409666      -256.0500
  21   2.0000      -9.400799      -255.8087
  22   2.0000      -9.394445      -255.6358
  23   2.0000      -9.394203      -255.6293
  24   2.0000      -9.393888      -255.6207
  25   2.0000      -8.027909      -218.4505
  26   2.0000      -7.157189      -194.7570
  27   2.0000      -7.156228      -194.7309
  28   2.0000      -7.147520      -194.4939
  29   2.0000      -7.147022      -194.4803
  30   2.0000      -7.146160      -194.4569
  31   2.0000      -7.145950      -194.4512
  32   2.0000      -7.145164      -194.4298
  33   2.0000      -7.141047      -194.3178
  34   2.0000      -7.141023      -194.3171
  35   2.0000      -7.140448      -194.3015
  36   2.0000      -7.136626      -194.1975
  37   2.0000      -7.136478      -194.1934
  38   2.0000      -7.130409      -194.0283
  39   2.0000      -7.130164      -194.0216
  40   2.0000      -7.129987      -194.0168
  41   2.0000      -7.129850      -194.0131
  42   2.0000      -7.129830      -194.0125
  43   2.0000      -7.129630      -194.0071
  44   2.0000      -5.975430      -162.5997
  45   2.0000      -5.974223      -162.5669
  46   2.0000      -5.965433      -162.3277
  47   2.0000      -1.111151       -30.2360
  48   2.0000      -1.023449       -27.8495
  49   2.0000      -1.018244       -27.7078
  50   2.0000      -0.967965       -26.3397
  51   2.0000      -0.890761       -24.2388
  52   2.0000      -0.876930       -23.8625
  53   2.0000      -0.849705       -23.1216
  54   2.0000      -0.841320       -22.8935
  55   2.0000      -0.815623       -22.1942
  56   2.0000      -0.811376       -22.0787
  57   2.0000      -0.767896       -20.8955
  58   2.0000      -0.730494       -19.8778
  59   2.0000      -0.705734       -19.2040
  60   2.0000      -0.666824       -18.1452
  61   2.0000      -0.664858       -18.0917
  62   2.0000      -0.594236       -16.1700
  63   2.0000      -0.579540       -15.7701
  64   2.0000      -0.566163       -15.4061
  65   2.0000      -0.536121       -14.5886
  66   2.0000      -0.525087       -14.2884
  67   2.0000      -0.513638       -13.9768
  68   2.0000      -0.504294       -13.7225
  69   2.0000      -0.490091       -13.3360
  70   2.0000      -0.473518       -12.8851
  71   2.0000      -0.461262       -12.5516
  72   2.0000      -0.456689       -12.4271
  73   2.0000      -0.449966       -12.2442
  74   2.0000      -0.443600       -12.0710
  75   2.0000      -0.426086       -11.5944
  76   2.0000      -0.420851       -11.4519
  77   2.0000      -0.417374       -11.3573
  78   2.0000      -0.409069       -11.1313
  79   2.0000      -0.396368       -10.7857
  80   2.0000      -0.382586       -10.4107
  81   2.0000      -0.379606       -10.3296
  82   2.0000      -0.361166        -9.8278
  83   2.0000      -0.352780        -9.5996
  84   2.0000      -0.342607        -9.3228
  85   2.0000      -0.338238        -9.2039
  86   2.0000      -0.331737        -9.0270
  87   2.0000      -0.323101        -8.7920
  88   2.0000      -0.315973        -8.5981
  89   2.0000      -0.313195        -8.5225
  90   2.0000      -0.309800        -8.4301
  91   2.0000      -0.307669        -8.3721
  92   2.0000      -0.303173        -8.2498
  93   2.0000      -0.299551        -8.1512
  94   2.0000      -0.298296        -8.1171
  95   2.0000      -0.293705        -7.9921
  96   2.0000      -0.292686        -7.9644
  97   2.0000      -0.290538        -7.9059
  98   2.0000      -0.279176        -7.5968
  99   2.0000      -0.266346        -7.2476
 100   2.0000      -0.238736        -6.4963
 101   0.0000      -0.070885        -1.9289
 102   0.0000      -0.066080        -1.7981
 103   0.0000      -0.048345        -1.3155
 104   0.0000      -0.029351        -0.7987
 105   0.0000      -0.013201        -0.3592

MULLIKEN ATOMIC CHARGES
-----------------------
   0 C :   -0.156888
   1 C :   -0.269635
   2 H :    0.257953
   3 C :   -0.091163
   4 H :    0.263413
   5 C :   -0.243807
   6 O :   -0.290682
   7 S :    0.672971
   8 O :   -0.516559
   9 O :   -0.307981
  10 C :    0.208745
  11 C :   -0.048653
  12 C :   -0.324784
  13 C :    0.368188
  14 C :    0.085619
  15 Cl:   -0.086391
  16 Cl:   -0.066341
  17 Cl:   -0.099661
  18 Cl:   -0.022122
  19 Cl:   -0.032808
  20 Cl:   -0.098943
  21 H :    0.204258
  22 H :    0.180494
  23 H :    0.212312
  24 H :    0.202465
Sum of atomic charges:    0.0000000

LOEWDIN ATOMIC CHARGES
----------------------
   0 C :    0.039093
   1 C :   -0.161021
   2 H :    0.201712
   3 C :   -0.163183
   4 H :    0.207032
   5 C :    0.028097
   6 O :   -0.701189
   7 S :    1.081169
   8 O :   -0.554338
   9 O :   -0.672197
  10 C :   -0.231172
  11 C :   -0.229984
  12 C :   -0.250247
  13 C :   -0.228378
  14 C :   -0.293928
  15 Cl:    0.156219
  16 Cl:    0.175389
  17 Cl:    0.164761
  18 Cl:    0.218143
  19 Cl:    0.237167
  20 Cl:    0.162051
  21 H :    0.206291
  22 H :    0.195875
  23 H :    0.206136
  24 H :    0.206502

  Mayer bond orders larger than 0.100000
B(  0-C ,  1-C ) :   0.8716 B(  0-C ,  9-O ) :   0.8776 B(  0-C , 21-H ) :   0.9371
B(  0-C , 22-H ) :   0.9583 B(  1-C ,  2-H ) :   0.9387 B(  1-C ,  3-C ) :   0.8887
B(  1-C , 13-C ) :   0.9051 B(  3-C ,  4-H ) :   0.9436 B(  3-C ,  5-C ) :   0.8281
B(  3-C , 10-C ) :   0.9494 B(  5-C ,  6-O ) :   0.7801 B(  5-C , 23-H ) :   0.9623
B(  5-C , 24-H ) :   0.9406 B(  6-O ,  7-S ) :   0.8413 B(  7-S ,  8-O ) :   1.6419
B(  7-S ,  9-O ) :   0.8209 B( 10-C , 11-C ) :   0.9477 B( 10-C , 14-C ) :   0.8576
B( 10-C , 20-Cl) :   0.9932 B( 11-C , 12-C ) :   1.4262 B( 11-C , 19-Cl) :   1.1313
B( 12-C , 13-C ) :   0.7881 B( 12-C , 18-Cl) :   1.2286 B( 13-C , 14-C ) :   0.8571
B( 13-C , 17-Cl) :   1.0178 B( 14-C , 15-Cl) :   1.0510 B( 14-C , 16-Cl) :   1.0361

Dispersion correction           -0.018926605
FINAL SINGLE POINT ENERGY     -3731.298809490824

DIPOLE MOMENT
-------------

Method             : SCF
Type of density    : Electron Density
Multiplicity       :   1
Irrep              :   0
Energy             : -3731.3101791565004532 Eh
Relativity type    :
Basis              : AO
                                X                 Y                 Z
Electronic contribution:    -17.048146026      -0.311198529     -11.520935285
Nuclear contribution   :     16.873948816       0.891874113      11.884195324
                        -----------------------------------------
Total Dipole Moment    :     -0.174197210       0.580675584       0.363260039
                        -----------------------------------------
Magnitude (a.u.)       :      0.706743700
Magnitude (Debye)      :      1.796399724

Rotational constants in cm-1:             0.010071             0.006546             0.006150
Rotational constants in MHz :           301.910051           196.229355           184.373837

                             ****ORCA TERMINATED NORMALLY****
TOTAL RUN TIME: 0 days 0 hours 1 minutes 56 seconds 213 msec
