                         Program Version 6.0.0  -   RELEASE  -
|  1> ! pbe def2-sv(p) def2/J RI DEFGRID1 loosescf d4 GCP(DFT/SV(P)) printgap
|  2> %output
|  3>     printlevel normal
|  4> end
|  5> * xyz 0 1
|  6> C -1.9809144621 -0.9482855999 0.5785558366
|  7> C -1.4420201818 -0.0133532807 -0.5027820532
|  8> C -0.0225858259 0.4178754436 -0.2336452328
|  9> O 0.3662707201 1.5675045615 -0.2897188919
| 10> O 0.7613019855 -0.6111678768 0.0547404676
| 11> C 2.1454267629 -0.3800483183 0.3306239539
| 12> H -2.9964529125 -1.2436743392 0.3325108265
| 13> H -1.3618014767 -1.8375980255 0.6514943988
| 14> H -1.98903981 -0.4484137622 1.5438651739
| 15> H -2.0523618282 0.8858342041 -0.5863695151
| 16> H -1.4462005288 -0.528614801 -1.4654323134
| 17> H 2.3887799535 0.6687203325 0.1571517874
| 18> H 2.7201149984 -1.0234586669 -0.332296642
| 19> H 2.3306593161 -0.6448247415 1.3704346963
| 20> *
| 21>
| 22>                          ****END OF INPUT****

CARTESIAN COORDINATES (ANGSTROEM)
---------------------------------
  C     -1.980914   -0.948286    0.578556
  C     -1.442020   -0.013353   -0.502782
  C     -0.022586    0.417875   -0.233645
  O      0.366271    1.567505   -0.289719
  O      0.761302   -0.611168    0.054740
  C      2.145427   -0.380048    0.330624
  H     -2.996453   -1.243674    0.332511
  H     -1.361801   -1.837598    0.651494
  H     -1.989040   -0.448414    1.543865
  H     -2.052362    0.885834   -0.586370
  H     -1.446201   -0.528615   -1.465432
  H      2.388780    0.668720    0.157152
  H      2.720115   -1.023459   -0.332297
  H      2.330659   -0.644825    1.370435

 Total Charge           Charge          ....    0
 Multiplicity           Mult            ....    1
 Number of Electrons    NEL             ....   48
 Basis Dimension        Dim             ....  100

ORBITAL ENERGIES
----------------

  NO   OCC          E(Eh)            E(eV)
   0   2.0000     -18.800241      -511.5806
   1   2.0000     -18.731431      -509.7082
   2   2.0000     -10.003464      -272.2081
   3   2.0000      -9.939330      -270.4629
   4   2.0000      -9.898285      -269.3460
   5   2.0000      -9.884275      -268.9648
   6   2.0000      -1.005057       -27.3490
   7   2.0000      -0.907368       -24.6908
   8   2.0000      -0.715991       -19.4831
   9   2.0000      -0.654963       -17.8225
  10   2.0000      -0.576013       -15.6741
  11   2.0000      -0.507488       -13.8095
  12   2.0000      -0.449081       -12.2201
  13   2.0000      -0.436318       -11.8728
  14   2.0000      -0.416296       -11.3280
  15   2.0000      -0.391999       -10.6668
  16   2.0000      -0.378347       -10.2953
  17   2.0000      -0.361504        -9.8370
  18   2.0000      -0.336611        -9.1597
  19   2.0000      -0.321981        -8.7615
  20   2.0000      -0.310270        -8.4429
  21   2.0000      -0.294883        -8.0242
  22   2.0000      -0.255368        -6.9489
  23   2.0000      -0.215939        -5.8760
  24   0.0000      -0.018068        -0.4917
  25   0.0000       0.044635         1.2146
  26   0.0000       0.060945         1.6584
  27   0.0000       0.087272         2.3748
  28   0.0000       0.093469         2.5434

MULLIKEN ATOMIC CHARGES
-----------------------
   0 C :   -0.296435
   1 C :   -0.158088
   2 C :    0.093824
   3 O :   -0.200583
   4 O :   -0.245287
   5 C :   -0.130414
   6 H :    0.109122
   7 H :    0.118887
   8 H :    0.109776
   9 H :    0.106072
  10 H :    0.115225
  11 H :    0.134116
  12 H :    0.122115
  13 H :    0.121671
Sum of atomic charges:    0.0000000

LOEWDIN ATOMIC CHARGES
----------------------
   0 C :   -0.338464
   1 C :   -0.250495
   2 C :    0.033791
   3 O :   -0.171029
   4 O :   -0.073633
   5 C :   -0.208909
   6 H :    0.122482
   7 H :    0.123725
   8 H :    0.122414
   9 H :    0.134371
  10 H :    0.140694
  11 H :    0.124591
  12 H :    0.120412
  13 H :    0.120051

  Mayer bond orders larger than 0.100000
B(  0-C ,  1-C ) :   1.1358 B(  0-C ,  6-H ) :   0.9508 B(  0-C ,  7-H ) :   0.9490
B(  0-C ,  8-H ) :   0.9585 B(  1-C ,  2-C ) :   1.0277 B(  1-C ,  9-H ) :   0.9191
B(  1-C , 10-H ) :   0.8995 B(  2-C ,  3-O ) :   2.0855 B(  2-C ,  4-O ) :   1.1934
B(  4-O ,  5-C ) :   0.9374 B(  5-C , 11-H ) :   0.9285 B(  5-C , 12-H ) :   0.9612
B(  5-C , 13-H ) :   0.9604

Dispersion correction           -0.009155036
FINAL SINGLE POINT ENERGY      -307.025122942492

DIPOLE MOMENT
-------------

Method             : SCF
Type of density    : Electron Density
Multiplicity       :   1
Irrep              :   0
Energy             :  -307.0796642282372773 Eh
Relativity type    :
Basis              : AO
                                X                 Y                 Z
Electronic contribution:      2.336377718       3.130253667      -1.449624936
Nuclear contribution   :     -2.240779444      -3.899881295       1.564533372
                        -----------------------------------------
Total Dipole Moment    :      0.095598273      -0.769627628       0.114908436
                        -----------------------------------------
Magnitude (a.u.)       :      0.784008714
Magnitude (Debye)      :      1.992791782

Rotational constants in cm-1:             0.202813             0.087650             0.066355
Rotational constants in MHz :          6080.184526          2627.682246          1989.286243

                             ****ORCA TERMINATED NORMALLY****
TOTAL RUN TIME: 0 days 0 hours 0 minutes 6 seconds 624 msec
