                         Program Version 6.0.0  -   RELEASE  -
|  1> ! wb97x-v def2-tzvp def2/J RIJCOSX DEFGRID2 scfconv7 GCP(DFT/TZ) printgap
|  2> %output
|  3>     printlevel normal
|  4> end
|  5> * xyz 0 1
|  6> C -2.0151206232167644 -0.7363599039334622 1.2552479958558873
|  7> C -1.5204411342103126 0.005707497697872461 8.362716731860449e-05
|  8> C -2.0156762678165476 -0.7368200721169651 -1.2545776652700662
|  9> C -2.1290426986318796 1.4113314541826494 -5.2610248924781916e-05
| 10> C 0.010254581551263235 0.03129590586477808 -0.0001436637187593661
| 11> C 0.7485914552593719 1.2189987662586652 -0.00014959790992015304
| 12> C 2.1442820682617736 1.2029798839959902 -0.00011366027719385163
| 13> C 2.835152765406049 -0.0032942699950670312 -7.931085132438928e-05
| 14> C 2.114778473730597 -1.1968602170547142 -0.00012424540148806853
| 15> C 0.7243828091056936 -1.1768092028430859 -0.00016016533203544076
| 16> H -3.1105441267760456 -0.7565760753192466 1.269578251326732
| 17> H -1.658377271597517 -1.770360909156473 1.2783062772813576
| 18> H -1.669414494649755 -0.2343810312331549 2.165459949088978
| 19> H -1.670829366094178 -0.23488871472501938 -2.1651396581351956
| 20> H -1.6585530679390899 -1.7706861659941278 -1.2776846801290371
| 21> H -3.1111000641412794 -0.7574791414497086 -1.2681214005617178
| 22> H -1.8373811424094035 1.9814086464350624 -0.8884345247436687
| 23> H -3.2206717881595703 1.3292950944601516 7.781671626854041e-05
| 24> H -1.8371952276809163 1.9816730519666783 0.8880973549276904
| 25> H 0.24184041283011243 2.177142739174431 -0.00015805530155203726
| 26> H 2.6892309535768018 2.142442425874966 -9.057916525259994e-05
| 27> H 3.9205709103771382 -0.016465470528747462 -1.1033988263748183e-05
| 28> H 2.6381929017254344 -2.148457714331041 -0.00010943175519145615
| 29> H 0.18776225876470706 -2.1207452019367268 -0.00016447401554270155
| 30> *
| 31>
| 32>                          ****END OF INPUT****

CARTESIAN COORDINATES (ANGSTROEM)
---------------------------------
  C     -2.015121   -0.736360    1.255248
  C     -1.520441    0.005707    0.000084
  C     -2.015676   -0.736820   -1.254578
  C     -2.129043    1.411331   -0.000053
  C      0.010255    0.031296   -0.000144
  C      0.748591    1.218999   -0.000150
  C      2.144282    1.202980   -0.000114
  C      2.835153   -0.003294   -0.000079
  C      2.114778   -1.196860   -0.000124
  C      0.724383   -1.176809   -0.000160
  H     -3.110544   -0.756576    1.269578
  H     -1.658377   -1.770361    1.278306
  H     -1.669414   -0.234381    2.165460
  H     -1.670829   -0.234889   -2.165140
  H     -1.658553   -1.770686   -1.277685
  H     -3.111100   -0.757479   -1.268121
  H     -1.837381    1.981409   -0.888435
  H     -3.220672    1.329295    0.000078
  H     -1.837195    1.981673    0.888097
  H      0.241840    2.177143   -0.000158
  H      2.689231    2.142442   -0.000091
  H      3.920571   -0.016465   -0.000011
  H      2.638193   -2.148458   -0.000109
  H      0.187762   -2.120745   -0.000164

 Total Charge           Charge          ....    0
 Multiplicity           Mult            ....    1
 Number of Electrons    NEL             ....   74
 Basis Dimension        Dim             ....  394

ORBITAL ENERGIES
----------------

  NO   OCC          E(Eh)            E(eV)
   0   2.0000     -12.065134      -328.3090
   1   2.0000     -12.055880      -328.0572
   2   2.0000     -12.049177      -327.8748
   3   2.0000     -12.048696      -327.8617
   4   2.0000     -12.045998      -327.7883
   5   2.0000     -12.045489      -327.7744
   6   2.0000     -12.044650      -327.7516
   7   2.0000     -12.035097      -327.4916
   8   2.0000     -12.034834      -327.4845
   9   2.0000     -12.034420      -327.4732
  10   2.0000      -1.383409       -37.6445
  11   2.0000      -1.330505       -36.2049
  12   2.0000      -1.268213       -34.5098
  13   2.0000      -1.257546       -34.2196
  14   2.0000      -1.180251       -32.1163
  15   2.0000      -1.178144       -32.0589
  16   2.0000      -1.111933       -30.2572
  17   2.0000      -1.099767       -29.9262
  18   2.0000      -1.029788       -28.0219
  19   2.0000      -0.958313       -26.0770
  20   2.0000      -0.948634       -25.8136
  21   2.0000      -0.913503       -24.8577
  22   2.0000      -0.892585       -24.2885
  23   2.0000      -0.874584       -23.7986
  24   2.0000      -0.871438       -23.7130
  25   2.0000      -0.863539       -23.4981
  26   2.0000      -0.827675       -22.5222
  27   2.0000      -0.818065       -22.2607
  28   2.0000      -0.811408       -22.0795
  29   2.0000      -0.804646       -21.8955
  30   2.0000      -0.796797       -21.6820
  31   2.0000      -0.777296       -21.1513
  32   2.0000      -0.777009       -21.1435
  33   2.0000      -0.769831       -20.9482
  34   2.0000      -0.757830       -20.6216
  35   2.0000      -0.634186       -17.2571
  36   2.0000      -0.632469       -17.2104
  37   0.0000      -0.238660        -6.4943
  38   0.0000      -0.232757        -6.3336
  39   0.0000      -0.071993        -1.9590
  40   0.0000      -0.054832        -1.4921
  41   0.0000      -0.036403        -0.9906

MULLIKEN ATOMIC CHARGES
-----------------------
   0 C :   -0.345467
   1 C :    0.108148
   2 C :   -0.345414
   3 C :   -0.398072
   4 C :    0.192905
   5 C :   -0.223059
   6 C :   -0.118786
   7 C :   -0.132569
   8 C :   -0.128732
   9 C :   -0.240876
  10 H :    0.110258
  11 H :    0.108709
  12 H :    0.118664
  13 H :    0.118637
  14 H :    0.108701
  15 H :    0.110267
  16 H :    0.124102
  17 H :    0.118410
  18 H :    0.124100
  19 H :    0.128086
  20 H :    0.113758
  21 H :    0.114852
  22 H :    0.114045
  23 H :    0.119334
Sum of atomic charges:    0.0000000

LOEWDIN ATOMIC CHARGES
----------------------
   0 C :   -0.246669
   1 C :   -0.312429
   2 C :   -0.246671
   3 C :   -0.257867
   4 C :   -0.093260
   5 C :   -0.112982
   6 C :   -0.140171
   7 C :   -0.146968
   8 C :   -0.140916
   9 C :   -0.108178
  10 H :    0.120458
  11 H :    0.119256
  12 H :    0.123868
  13 H :    0.123864
  14 H :    0.119252
  15 H :    0.120462
  16 H :    0.121974
  17 H :    0.123271
  18 H :    0.121973
  19 H :    0.146761
  20 H :    0.140813
  21 H :    0.139881
  22 H :    0.140912
  23 H :    0.143364

  Mayer bond orders larger than 0.100000
B(  0-C ,  1-C ) :   0.9850 B(  0-C , 10-H ) :   0.9765 B(  0-C , 11-H ) :   0.9712
B(  0-C , 12-H ) :   0.9789 B(  1-C ,  2-C ) :   0.9850 B(  1-C ,  3-C ) :   0.9572
B(  1-C ,  4-C ) :   0.9052 B(  2-C , 13-H ) :   0.9789 B(  2-C , 14-H ) :   0.9712
B(  2-C , 15-H ) :   0.9765 B(  3-C , 16-H ) :   0.9800 B(  3-C , 17-H ) :   0.9820
B(  3-C , 18-H ) :   0.9800 B(  4-C ,  5-C ) :   1.3723 B(  4-C ,  9-C ) :   1.3420
B(  5-C ,  6-C ) :   1.4543 B(  5-C , 19-H ) :   0.9570 B(  6-C ,  7-C ) :   1.4401
B(  6-C , 20-H ) :   0.9756 B(  7-C ,  8-C ) :   1.4066 B(  7-C , 21-H ) :   0.9746
B(  8-C ,  9-C ) :   1.5016 B(  8-C , 22-H ) :   0.9749 B(  9-C , 23-H ) :   0.9622

FINAL SINGLE POINT ENERGY      -389.517270292172

DIPOLE MOMENT
-------------

Method             : SCF
Type of density    : Electron Density
Multiplicity       :   1
Irrep              :   0
Energy             :  -389.5324170869719751 Eh
Relativity type    :
Basis              : AO
                                X                 Y                 Z
Electronic contribution:      9.379269126       0.186438458      -0.001341448
Nuclear contribution   :     -9.530842579      -0.190000920       0.001429586
                        -----------------------------------------
Total Dipole Moment    :     -0.151573452      -0.003562461       0.000088138
                        -----------------------------------------
Magnitude (a.u.)       :      0.151615337
Magnitude (Debye)      :      0.385375560

Rotational constants in cm-1:             0.085432             0.031714             0.027276
Rotational constants in MHz :          2561.177484           950.769061           817.701368

                             ****ORCA TERMINATED NORMALLY****
TOTAL RUN TIME: 0 days 0 hours 5 minutes 16 seconds 162 msec
