                         Program Version 6.0.0  -   RELEASE  -
|  1> ! wb97x-v def2-tzvp def2/J RIJCOSX DEFGRID2 scfconv7 GCP(DFT/TZ) printgap
|  2> %output
|  3>     printlevel normal
|  4> end
|  5> %cpcm
|  6>     smd true
|  7>     smdsolvent "water"
|  8> end
|  9> * xyz 0 1
| 10> C -2.0151206232167644 -0.7363599039334622 1.2552479958558873
| 11> C -1.5204411342103126 0.005707497697872461 8.362716731860449e-05
| 12> C -2.0156762678165476 -0.7368200721169651 -1.2545776652700662
| 13> C -2.1290426986318796 1.4113314541826494 -5.2610248924781916e-05
| 14> C 0.010254581551263235 0.03129590586477808 -0.0001436637187593661
| 15> C 0.7485914552593719 1.2189987662586652 -0.00014959790992015304
| 16> C 2.1442820682617736 1.2029798839959902 -0.00011366027719385163
| 17> C 2.835152765406049 -0.0032942699950670312 -7.931085132438928e-05
| 18> C 2.114778473730597 -1.1968602170547142 -0.00012424540148806853
| 19> C 0.7243828091056936 -1.1768092028430859 -0.00016016533203544076
| 20> H -3.1105441267760456 -0.7565760753192466 1.269578251326732
| 21> H -1.658377271597517 -1.770360909156473 1.2783062772813576
| 22> H -1.669414494649755 -0.2343810312331549 2.165459949088978
| 23> H -1.670829366094178 -0.23488871472501938 -2.1651396581351956
| 24> H -1.6585530679390899 -1.7706861659941278 -1.2776846801290371
| 25> H -3.1111000641412794 -0.7574791414497086 -1.2681214005617178
| 26> H -1.8373811424094035 1.9814086464350624 -0.8884345247436687
| 27> H -3.2206717881595703 1.3292950944601516 7.781671626854041e-05
| 28> H -1.8371952276809163 1.9816730519666783 0.8880973549276904
| 29> H 0.24184041283011243 2.177142739174431 -0.00015805530155203726
| 30> H 2.6892309535768018 2.142442425874966 -9.057916525259994e-05
| 31> H 3.9205709103771382 -0.016465470528747462 -1.1033988263748183e-05
| 32> H 2.6381929017254344 -2.148457714331041 -0.00010943175519145615
| 33> H 0.18776225876470706 -2.1207452019367268 -0.00016447401554270155
| 34> *
| 35>
| 36>                          ****END OF INPUT****

CARTESIAN COORDINATES (ANGSTROEM)
---------------------------------
  C     -2.015121   -0.736360    1.255248
  C     -1.520441    0.005707    0.000084
  C     -2.015676   -0.736820   -1.254578
  C     -2.129043    1.411331   -0.000053
  C      0.010255    0.031296   -0.000144
  C      0.748591    1.218999   -0.000150
  C      2.144282    1.202980   -0.000114
  C      2.835153   -0.003294   -0.000079
  C      2.114778   -1.196860   -0.000124
  C      0.724383   -1.176809   -0.000160
  H     -3.110544   -0.756576    1.269578
  H     -1.658377   -1.770361    1.278306
  H     -1.669414   -0.234381    2.165460
  H     -1.670829   -0.234889   -2.165140
  H     -1.658553   -1.770686   -1.277685
  H     -3.111100   -0.757479   -1.268121
  H     -1.837381    1.981409   -0.888435
  H     -3.220672    1.329295    0.000078
  H     -1.837195    1.981673    0.888097
  H      0.241840    2.177143   -0.000158
  H      2.689231    2.142442   -0.000091
  H      3.920571   -0.016465   -0.000011
  H      2.638193   -2.148458   -0.000109
  H      0.187762   -2.120745   -0.000164

 Total Charge           Charge          ....    0
 Multiplicity           Mult            ....    1
 Number of Electrons    NEL             ....   74
 Basis Dimension        Dim             ....  394

ORBITAL ENERGIES
----------------

  NO   OCC          E(Eh)            E(eV)
   0   2.0000     -12.057862      -328.1111
   1   2.0000     -12.054376      -328.0162
   2   2.0000     -12.047209      -327.8212
   3   2.0000     -12.046917      -327.8133
   4   2.0000     -12.044014      -327.7343
   5   2.0000     -12.043132      -327.7103
   6   2.0000     -12.042571      -327.6950
   7   2.0000     -12.025479      -327.2299
   8   2.0000     -12.025193      -327.2221
   9   2.0000     -12.023836      -327.1852
  10   2.0000      -1.382602       -37.6225
  11   2.0000      -1.324729       -36.0477
  12   2.0000      -1.267381       -34.4872
  13   2.0000      -1.254958       -34.1491
  14   2.0000      -1.170597       -31.8536
  15   2.0000      -1.169557       -31.8253
  16   2.0000      -1.108948       -30.1760
  17   2.0000      -1.097650       -29.8686
  18   2.0000      -1.024069       -27.8663
  19   2.0000      -0.954142       -25.9635
  20   2.0000      -0.947083       -25.7714
  21   2.0000      -0.907551       -24.6957
  22   2.0000      -0.887894       -24.1608
  23   2.0000      -0.867687       -23.6110
  24   2.0000      -0.865696       -23.5568
  25   2.0000      -0.855476       -23.2787
  26   2.0000      -0.823358       -22.4047
  27   2.0000      -0.809176       -22.0188
  28   2.0000      -0.802317       -21.8322
  29   2.0000      -0.799512       -21.7558
  30   2.0000      -0.787011       -21.4157
  31   2.0000      -0.771437       -20.9919
  32   2.0000      -0.769799       -20.9473
  33   2.0000      -0.760972       -20.7071
  34   2.0000      -0.755597       -20.5608
  35   2.0000      -0.635220       -17.2852
  36   2.0000      -0.632898       -17.2220
  37   0.0000      -0.238880        -6.5003
  38   0.0000      -0.233199        -6.3457
  39   0.0000      -0.070998        -1.9320
  40   0.0000      -0.047645        -1.2965
  41   0.0000      -0.028893        -0.7862

MULLIKEN ATOMIC CHARGES
-----------------------
   0 C :   -0.419026
   1 C :    0.201263
   2 C :   -0.418977
   3 C :   -0.445641
   4 C :    0.130273
   5 C :   -0.258082
   6 C :   -0.164668
   7 C :   -0.184203
   8 C :   -0.167464
   9 C :   -0.280036
  10 H :    0.131127
  11 H :    0.132439
  12 H :    0.130112
  13 H :    0.130091
  14 H :    0.132433
  15 H :    0.131135
  16 H :    0.137027
  17 H :    0.138764
  18 H :    0.137030
  19 H :    0.165646
  20 H :    0.157420
  21 H :    0.158730
  22 H :    0.157242
  23 H :    0.167365
Sum of atomic charges:    0.0000000

LOEWDIN ATOMIC CHARGES
----------------------
   0 C :   -0.253066
   1 C :   -0.309999
   2 C :   -0.253068
   3 C :   -0.260959
   4 C :   -0.100528
   5 C :   -0.121041
   6 C :   -0.152382
   7 C :   -0.160102
   8 C :   -0.152778
   9 C :   -0.115415
  10 H :    0.124747
  11 H :    0.123338
  12 H :    0.124380
  13 H :    0.124377
  14 H :    0.123335
  15 H :    0.124751
  16 H :    0.124565
  17 H :    0.126671
  18 H :    0.124565
  19 H :    0.155339
  20 H :    0.149864
  21 H :    0.148722
  22 H :    0.150004
  23 H :    0.154678

  Mayer bond orders larger than 0.100000
B(  0-C ,  1-C ) :   0.9528 B(  0-C , 10-H ) :   0.9756 B(  0-C , 11-H ) :   0.9717
B(  0-C , 12-H ) :   0.9779 B(  1-C ,  2-C ) :   0.9528 B(  1-C ,  3-C ) :   0.9535
B(  1-C ,  4-C ) :   0.9122 B(  2-C , 13-H ) :   0.9779 B(  2-C , 14-H ) :   0.9717
B(  2-C , 15-H ) :   0.9756 B(  3-C , 16-H ) :   0.9766 B(  3-C , 17-H ) :   0.9794
B(  3-C , 18-H ) :   0.9766 B(  4-C ,  5-C ) :   1.3511 B(  4-C ,  9-C ) :   1.3332
B(  5-C ,  6-C ) :   1.4312 B(  5-C , 19-H ) :   0.9647 B(  6-C ,  7-C ) :   1.4178
B(  6-C , 20-H ) :   0.9803 B(  7-C ,  8-C ) :   1.3842 B(  7-C , 21-H ) :   0.9773
B(  8-C ,  9-C ) :   1.4728 B(  8-C , 22-H ) :   0.9798 B(  9-C , 23-H ) :   0.9651

FINAL SINGLE POINT ENERGY      -389.517879507772

DIPOLE MOMENT
-------------

Method             : SCF
Type of density    : Electron Density
Multiplicity       :   1
Irrep              :   0
Energy             :  -389.5330263025717272 Eh
Relativity type    :
Basis              : AO
                                X                 Y                 Z
Electronic contribution:      9.266341091       0.160471538      -0.001294230
Nuclear contribution   :     -9.530842579      -0.190000920       0.001429586
                        -----------------------------------------
Total Dipole Moment    :     -0.264501488      -0.029529382       0.000135356
                        -----------------------------------------
Magnitude (a.u.)       :      0.266144772
Magnitude (Debye)      :      0.676486250

Rotational constants in cm-1:             0.085432             0.031714             0.027276
Rotational constants in MHz :          2561.177484           950.769061           817.701368

                             ****ORCA TERMINATED NORMALLY****
TOTAL RUN TIME: 0 days 0 hours 5 minutes 3 seconds 265 msec
