                         Program Version 6.0.0  -   RELEASE  -
|  1> ! r2scan-3c def2/J RI DEFGRID2 scfconv6 printgap
|  2> %output
|  3>     printlevel normal
|  4> end
|  5> * xyz 0 1
|  6> C 1.9200876703 0.1291586918 -0.5249392444
|  7> C 0.788119832 0.0525236867 0.4985025437
|  8> H 1.2200657085 -0.012337451 1.5058711889
|  9> C -0.1991391235 1.2227501959 0.3774724513
| 10> C -1.2874020054 0.6469343916 -0.5266177498
| 11> C -1.3083011564 -0.8131495234 -0.0805946378
| 12> O 0.0246738438 -1.1426068772 0.2888701353
| 13> H 1.5153991408 0.2410510635 -1.5272835169
| 14> H 2.5660370826 0.9727239422 -0.3001162666
| 15> H 2.5038222845 -0.7866386226 -0.4883523307
| 16> H -0.6143913696 1.4675837874 1.3551382928
| 17> H 0.2754640185 2.1067794441 -0.0392782072
| 18> H -2.2518580625 1.1291918192 -0.3947129626
| 19> H -0.9917159701 0.7169581042 -1.5731559017
| 20> H -1.9617620761 -0.9461321245 0.7931484689
| 21> H -1.6203676605 -1.5069103179 -0.863968234
| 22> *
| 23>
| 24>                          ****END OF INPUT****

CARTESIAN COORDINATES (ANGSTROEM)
---------------------------------
  C      1.920088    0.129159   -0.524939
  C      0.788120    0.052524    0.498503
  H      1.220066   -0.012337    1.505871
  C     -0.199139    1.222750    0.377472
  C     -1.287402    0.646934   -0.526618
  C     -1.308301   -0.813150   -0.080595
  O      0.024674   -1.142607    0.288870
  H      1.515399    0.241051   -1.527284
  H      2.566037    0.972724   -0.300116
  H      2.503822   -0.786639   -0.488352
  H     -0.614391    1.467584    1.355138
  H      0.275464    2.106779   -0.039278
  H     -2.251858    1.129192   -0.394713
  H     -0.991716    0.716958   -1.573156
  H     -1.961762   -0.946132    0.793148
  H     -1.620368   -1.506910   -0.863968

 Total Charge           Charge          ....    0
 Multiplicity           Mult            ....    1
 Number of Electrons    NEL             ....   48
 Basis Dimension        Dim             ....  169

ORBITAL ENERGIES
----------------

  NO   OCC          E(Eh)            E(eV)
   0   2.0000     -18.939476      -515.3693
   1   2.0000     -10.077328      -274.2180
   2   2.0000     -10.069956      -274.0174
   3   2.0000     -10.032188      -272.9897
   4   2.0000     -10.030969      -272.9565
   5   2.0000     -10.014245      -272.5015
   6   2.0000      -0.991139       -26.9703
   7   2.0000      -0.754297       -20.5255
   8   2.0000      -0.727091       -19.7852
   9   2.0000      -0.640928       -17.4405
  10   2.0000      -0.562922       -15.3179
  11   2.0000      -0.533931       -14.5290
  12   2.0000      -0.465813       -12.6754
  13   2.0000      -0.452628       -12.3166
  14   2.0000      -0.413776       -11.2594
  15   2.0000      -0.391220       -10.6456
  16   2.0000      -0.364620        -9.9218
  17   2.0000      -0.362637        -9.8678
  18   2.0000      -0.350605        -9.5405
  19   2.0000      -0.321438        -8.7468
  20   2.0000      -0.303687        -8.2638
  21   2.0000      -0.296555        -8.0697
  22   2.0000      -0.279347        -7.6014
  23   2.0000      -0.208170        -5.6646
  24   0.0000       0.076945         2.0938
  25   0.0000       0.103365         2.8127
  26   0.0000       0.109767         2.9869
  27   0.0000       0.112263         3.0548
  28   0.0000       0.126373         3.4388

MULLIKEN ATOMIC CHARGES
-----------------------
   0 C :   -0.504634
   1 C :    0.037846
   2 H :    0.145479
   3 C :   -0.293425
   4 C :   -0.336594
   5 C :   -0.149549
   6 O :   -0.260737
   7 H :    0.148776
   8 H :    0.140679
   9 H :    0.157778
  10 H :    0.164490
  11 H :    0.155811
  12 H :    0.153528
  13 H :    0.166883
  14 H :    0.133668
  15 H :    0.140001
Sum of atomic charges:   -0.0000000

LOEWDIN ATOMIC CHARGES
----------------------
   0 C :   -0.390493
   1 C :    0.057737
   2 H :    0.170990
   3 C :   -0.270406
   4 C :   -0.276677
   5 C :    0.018318
   6 O :   -0.759613
   7 H :    0.155969
   8 H :    0.153955
   9 H :    0.162229
  10 H :    0.161978
  11 H :    0.165181
  12 H :    0.162038
  13 H :    0.158550
  14 H :    0.158606
  15 H :    0.171638

  Mayer bond orders larger than 0.100000
B(  0-C ,  1-C ) :   0.9744 B(  0-C ,  7-H ) :   0.9806 B(  0-C ,  8-H ) :   0.9713
B(  0-C ,  9-H ) :   0.9700 B(  1-C ,  2-H ) :   0.9412 B(  1-C ,  3-C ) :   0.8963
B(  1-C ,  6-O ) :   0.8359 B(  3-C ,  4-C ) :   0.8897 B(  3-C , 10-H ) :   0.9722
B(  3-C , 11-H ) :   0.9721 B(  4-C ,  5-C ) :   0.9375 B(  4-C , 12-H ) :   0.9599
B(  4-C , 13-H ) :   0.9879 B(  5-C ,  6-O ) :   0.9186 B(  5-C , 14-H ) :   0.9717
B(  5-C , 15-H ) :   0.9606

Dispersion correction           -0.003917442
FINAL SINGLE POINT ENERGY      -271.689974917811

DIPOLE MOMENT
-------------

Method             : SCF
Type of density    : Electron Density
Multiplicity       :   1
Irrep              :   0
Energy             :  -271.6949708799575660 Eh
Relativity type    :
Basis              : AO
                                X                 Y                 Z
Electronic contribution:     -0.809595115      -2.535038931       1.342476958
Nuclear contribution   :      0.601447506       3.156159251      -1.433649642
                        -----------------------------------------
Total Dipole Moment    :     -0.208147609       0.621120320      -0.091172684
                        -----------------------------------------
Magnitude (a.u.)       :      0.661383654
Magnitude (Debye)      :      1.681103649

Rotational constants in cm-1:             0.190303             0.115227             0.089628
Rotational constants in MHz :          5705.152495          3454.410698          2686.979650

                             ****ORCA TERMINATED NORMALLY****
TOTAL RUN TIME: 0 days 0 hours 0 minutes 17 seconds 912 msec
