                         Program Version 6.0.0  -   RELEASE  -
|  1> ! r2scan-3c def2/J RI DEFGRID2 scfconv6 printgap
|  2> %output
|  3>     printlevel normal
|  4> end
|  5> %cpcm
|  6>     smd true
|  7>     smdsolvent "water"
|  8> end
|  9> * xyz 0 1
| 10> C 1.9200876703 0.1291586918 -0.5249392444
| 11> C 0.788119832 0.0525236867 0.4985025437
| 12> H 1.2200657085 -0.012337451 1.5058711889
| 13> C -0.1991391235 1.2227501959 0.3774724513
| 14> C -1.2874020054 0.6469343916 -0.5266177498
| 15> C -1.3083011564 -0.8131495234 -0.0805946378
| 16> O 0.0246738438 -1.1426068772 0.2888701353
| 17> H 1.5153991408 0.2410510635 -1.5272835169
| 18> H 2.5660370826 0.9727239422 -0.3001162666
| 19> H 2.5038222845 -0.7866386226 -0.4883523307
| 20> H -0.6143913696 1.4675837874 1.3551382928
| 21> H 0.2754640185 2.1067794441 -0.0392782072
| 22> H -2.2518580625 1.1291918192 -0.3947129626
| 23> H -0.9917159701 0.7169581042 -1.5731559017
| 24> H -1.9617620761 -0.9461321245 0.7931484689
| 25> H -1.6203676605 -1.5069103179 -0.863968234
| 26> *
| 27>
| 28>                          ****END OF INPUT****

CARTESIAN COORDINATES (ANGSTROEM)
---------------------------------
  C      1.920088    0.129159   -0.524939
  C      0.788120    0.052524    0.498503
  H      1.220066   -0.012337    1.505871
  C     -0.199139    1.222750    0.377472
  C     -1.287402    0.646934   -0.526618
  C     -1.308301   -0.813150   -0.080595
  O      0.024674   -1.142607    0.288870
  H      1.515399    0.241051   -1.527284
  H      2.566037    0.972724   -0.300116
  H      2.503822   -0.786639   -0.488352
  H     -0.614391    1.467584    1.355138
  H      0.275464    2.106779   -0.039278
  H     -2.251858    1.129192   -0.394713
  H     -0.991716    0.716958   -1.573156
  H     -1.961762   -0.946132    0.793148
  H     -1.620368   -1.506910   -0.863968

 Total Charge           Charge          ....    0
 Multiplicity           Mult            ....    1
 Number of Electrons    NEL             ....   48
 Basis Dimension        Dim             ....  169

ORBITAL ENERGIES
----------------

  NO   OCC          E(Eh)            E(eV)
   0   2.0000     -18.948207      -515.6069
   1   2.0000     -10.074214      -274.1333
   2   2.0000     -10.066282      -273.9175
   3   2.0000     -10.022074      -272.7145
   4   2.0000     -10.020940      -272.6836
   5   2.0000     -10.008916      -272.3565
   6   2.0000      -0.997815       -27.1519
   7   2.0000      -0.747750       -20.3473
   8   2.0000      -0.723157       -19.6781
   9   2.0000      -0.635831       -17.3018
  10   2.0000      -0.557183       -15.1617
  11   2.0000      -0.529870       -14.4185
  12   2.0000      -0.461580       -12.5602
  13   2.0000      -0.448083       -12.1930
  14   2.0000      -0.411783       -11.2052
  15   2.0000      -0.385647       -10.4940
  16   2.0000      -0.359389        -9.7795
  17   2.0000      -0.356889        -9.7114
  18   2.0000      -0.345396        -9.3987
  19   2.0000      -0.316043        -8.6000
  20   2.0000      -0.299248        -8.1429
  21   2.0000      -0.287717        -7.8292
  22   2.0000      -0.282896        -7.6980
  23   2.0000      -0.214659        -5.8412
  24   0.0000       0.080628         2.1940
  25   0.0000       0.109132         2.9696
  26   0.0000       0.117463         3.1963
  27   0.0000       0.121500         3.3062
  28   0.0000       0.135220         3.6795

MULLIKEN ATOMIC CHARGES
-----------------------
   0 C :   -0.549164
   1 C :    0.048959
   2 H :    0.156967
   3 C :   -0.306732
   4 C :   -0.348407
   5 C :   -0.157522
   6 O :   -0.338927
   7 H :    0.166545
   8 H :    0.161938
   9 H :    0.161168
  10 H :    0.179101
  11 H :    0.172520
  12 H :    0.171155
  13 H :    0.182423
  14 H :    0.145889
  15 H :    0.154088
Sum of atomic charges:   -0.0000000

LOEWDIN ATOMIC CHARGES
----------------------
   0 C :   -0.397897
   1 C :    0.057907
   2 H :    0.175716
   3 C :   -0.268359
   4 C :   -0.274380
   5 C :    0.016685
   6 O :   -0.805594
   7 H :    0.160640
   8 H :    0.162595
   9 H :    0.160737
  10 H :    0.166736
  11 H :    0.171713
  12 H :    0.169103
  13 H :    0.163466
  14 H :    0.164379
  15 H :    0.176553

  Mayer bond orders larger than 0.100000
B(  0-C ,  1-C ) :   0.9644 B(  0-C ,  7-H ) :   0.9766 B(  0-C ,  8-H ) :   0.9654
B(  0-C ,  9-H ) :   0.9689 B(  1-C ,  2-H ) :   0.9384 B(  1-C ,  3-C ) :   0.8941
B(  1-C ,  6-O ) :   0.8306 B(  3-C ,  4-C ) :   0.8752 B(  3-C , 10-H ) :   0.9701
B(  3-C , 11-H ) :   0.9683 B(  4-C ,  5-C ) :   0.9348 B(  4-C , 12-H ) :   0.9556
B(  4-C , 13-H ) :   0.9872 B(  5-C ,  6-O ) :   0.9128 B(  5-C , 14-H ) :   0.9648
B(  5-C , 15-H ) :   0.9553

Dispersion correction           -0.003917442
FINAL SINGLE POINT ENERGY      -271.694037466753

DIPOLE MOMENT
-------------

Method             : SCF
Type of density    : Electron Density
Multiplicity       :   1
Irrep              :   0
Energy             :  -271.6990334288996678 Eh
Relativity type    :
Basis              : AO
                                X                 Y                 Z
Electronic contribution:     -0.904000472      -2.220699143       1.307034347
Nuclear contribution   :      0.601447506       3.156159251      -1.433649642
                        -----------------------------------------
Total Dipole Moment    :     -0.302552965       0.935460108      -0.126615296
                        -----------------------------------------
Magnitude (a.u.)       :      0.991289738
Magnitude (Debye)      :      2.519658273

Rotational constants in cm-1:             0.190303             0.115227             0.089628
Rotational constants in MHz :          5705.152495          3454.410698          2686.979650

                             ****ORCA TERMINATED NORMALLY****
TOTAL RUN TIME: 0 days 0 hours 0 minutes 23 seconds 460 msec
