                         Program Version 6.0.0  -   RELEASE  -
|  1> ! r2scan-3c def2/J RI DEFGRID2 scfconv6 printgap
|  2> %output
|  3>     printlevel normal
|  4> end
|  5> * xyz 0 1
|  6> C 3.3657757453 -0.1112467482 0.0125894601
|  7> N 1.948393446 -0.3507840025 0.1781367354
|  8> C 1.6144890776 -1.5975028726 0.8274411511
|  9> C 1.0582159932 0.5649441328 -0.2251712558
| 10> O 1.3965266411 1.6537134519 -0.7039028143
| 11> C -0.3926474006 0.2267941784 -0.0916137278
| 12> C -0.957331323 -0.8038119858 -0.836384436
| 13> C -2.3172479368 -1.0478660436 -0.7609763204
| 14> C -3.119565508 -0.2703738718 0.0581909657
| 15> C -2.5624525334 0.7634265528 0.7925725412
| 16> C -1.2047947719 1.0190917135 0.7109112987
| 17> H 3.4955238939 0.8321916361 -0.5138224809
| 18> H 3.810962257 -0.9200312614 -0.567227147
| 19> H 3.8549338213 -0.0531280725 0.9857953304
| 20> H 1.8260205267 -2.437673468 0.163051228
| 21> H 0.565036295 -1.6145728624 1.1058509383
| 22> H 2.2236702342 -1.702291931 1.725946604
| 23> H -0.3323014391 -1.4035690741 -1.4807612977
| 24> H -2.7508330241 -1.8465808592 -1.3428489575
| 25> H -4.1791693759 -0.465399541 0.1190658263
| 26> H -3.185312977 1.3765891153 1.4256212043
| 27> H -0.7623785962 1.8323079824 1.2673489895
| 28> *
| 29>
| 30>                          ****END OF INPUT****

CARTESIAN COORDINATES (ANGSTROEM)
---------------------------------
  C      3.365776   -0.111247    0.012589
  N      1.948393   -0.350784    0.178137
  C      1.614489   -1.597503    0.827441
  C      1.058216    0.564944   -0.225171
  O      1.396527    1.653713   -0.703903
  C     -0.392647    0.226794   -0.091614
  C     -0.957331   -0.803812   -0.836384
  C     -2.317248   -1.047866   -0.760976
  C     -3.119566   -0.270374    0.058191
  C     -2.562453    0.763427    0.792573
  C     -1.204795    1.019092    0.710911
  H      3.495524    0.832192   -0.513822
  H      3.810962   -0.920031   -0.567227
  H      3.854934   -0.053128    0.985795
  H      1.826021   -2.437673    0.163051
  H      0.565036   -1.614573    1.105851
  H      2.223670   -1.702292    1.725947
  H     -0.332301   -1.403569   -1.480761
  H     -2.750833   -1.846581   -1.342849
  H     -4.179169   -0.465400    0.119066
  H     -3.185313    1.376589    1.425621
  H     -0.762379    1.832308    1.267349

 Total Charge           Charge          ....    0
 Multiplicity           Mult            ....    1
 Number of Electrons    NEL             ....   80
 Basis Dimension        Dim             ....  274

ORBITAL ENERGIES
----------------

  NO   OCC          E(Eh)            E(eV)
   0   2.0000     -18.905336      -514.4403
   1   2.0000     -14.198019      -386.3477
   2   2.0000     -10.123484      -275.4740
   3   2.0000     -10.070456      -274.0310
   4   2.0000     -10.060712      -273.7659
   5   2.0000     -10.049674      -273.4655
   6   2.0000     -10.044021      -273.3117
   7   2.0000     -10.042465      -273.2694
   8   2.0000     -10.041617      -273.2463
   9   2.0000     -10.041310      -273.2379
  10   2.0000     -10.040925      -273.2275
  11   2.0000      -0.994085       -27.0504
  12   2.0000      -0.907629       -24.6978
  13   2.0000      -0.834485       -22.7075
  14   2.0000      -0.738867       -20.1056
  15   2.0000      -0.724068       -19.7029
  16   2.0000      -0.695833       -18.9346
  17   2.0000      -0.674013       -18.3408
  18   2.0000      -0.590752       -16.0752
  19   2.0000      -0.583239       -15.8707
  20   2.0000      -0.526053       -14.3146
  21   2.0000      -0.501276       -13.6404
  22   2.0000      -0.462628       -12.5888
  23   2.0000      -0.455363       -12.3911
  24   2.0000      -0.443370       -12.0647
  25   2.0000      -0.427553       -11.6343
  26   2.0000      -0.415848       -11.3158
  27   2.0000      -0.397452       -10.8152
  28   2.0000      -0.380975       -10.3669
  29   2.0000      -0.380069       -10.3422
  30   2.0000      -0.370843       -10.0911
  31   2.0000      -0.360889        -9.8203
  32   2.0000      -0.346398        -9.4260
  33   2.0000      -0.338921        -9.2225
  34   2.0000      -0.326188        -8.8760
  35   2.0000      -0.315606        -8.5881
  36   2.0000      -0.248003        -6.7485
  37   2.0000      -0.244525        -6.6539
  38   2.0000      -0.218176        -5.9369
  39   2.0000      -0.208720        -5.6795
  40   0.0000      -0.047262        -1.2861
  41   0.0000      -0.038692        -1.0529
  42   0.0000       0.009518         0.2590
  43   0.0000       0.061425         1.6715
  44   0.0000       0.088386         2.4051

MULLIKEN ATOMIC CHARGES
-----------------------
   0 C :   -0.411526
   1 N :    0.079962
   2 C :   -0.398055
   3 C :    0.238077
   4 O :   -0.449366
   5 C :    0.034014
   6 C :   -0.186150
   7 C :   -0.158339
   8 C :   -0.128440
   9 C :   -0.159651
  10 C :   -0.173808
  11 H :    0.203593
  12 H :    0.139868
  13 H :    0.146903
  14 H :    0.159932
  15 H :    0.175019
  16 H :    0.143343
  17 H :    0.147272
  18 H :    0.145982
  19 H :    0.148008
  20 H :    0.146930
  21 H :    0.156432
Sum of atomic charges:   -0.0000000

LOEWDIN ATOMIC CHARGES
----------------------
   0 C :   -0.109825
   1 N :   -0.833258
   2 C :   -0.104450
   3 C :    0.348688
   4 O :   -0.475792
   5 C :   -0.034968
   6 C :   -0.144711
   7 C :   -0.160598
   8 C :   -0.161855
   9 C :   -0.157879
  10 C :   -0.124415
  11 H :    0.210522
  12 H :    0.173554
  13 H :    0.173334
  14 H :    0.170721
  15 H :    0.196603
  16 H :    0.175415
  17 H :    0.174299
  18 H :    0.168142
  19 H :    0.167787
  20 H :    0.168786
  21 H :    0.179901

  Mayer bond orders larger than 0.100000
B(  0-C ,  1-N ) :   0.9256 B(  0-C , 11-H ) :   0.9545 B(  0-C , 12-H ) :   0.9504
B(  0-C , 13-H ) :   0.9577 B(  1-N ,  2-C ) :   0.9200 B(  1-N ,  3-C ) :   1.2392
B(  2-C , 14-H ) :   0.9582 B(  2-C , 15-H ) :   0.9552 B(  2-C , 16-H ) :   0.9530
B(  3-C ,  4-O ) :   1.8686 B(  3-C ,  5-C ) :   0.8752 B(  5-C ,  6-C ) :   1.4175
B(  5-C , 10-C ) :   1.4307 B(  6-C ,  7-C ) :   1.4194 B(  6-C , 17-H ) :   0.9431
B(  7-C ,  8-C ) :   1.4193 B(  7-C , 18-H ) :   0.9496 B(  8-C ,  9-C ) :   1.4133
B(  8-C , 19-H ) :   0.9457 B(  9-C , 10-C ) :   1.4032 B(  9-C , 20-H ) :   0.9519
B( 10-C , 21-H ) :   0.9509

Dispersion correction           -0.008019228
FINAL SINGLE POINT ENERGY      -479.437248125063

DIPOLE MOMENT
-------------

Method             : SCF
Type of density    : Electron Density
Multiplicity       :   1
Irrep              :   0
Energy             :  -479.4433823294434660 Eh
Relativity type    :
Basis              : AO
                                X                 Y                 Z
Electronic contribution:     -4.312470434       4.584871125      -2.038078892
Nuclear contribution   :      4.315205093      -5.983730838       2.699999951
                        -----------------------------------------
Total Dipole Moment    :      0.002734659      -1.398859713       0.661921059
                        -----------------------------------------
Magnitude (a.u.)       :      1.547564365
Magnitude (Debye)      :      3.933596007

Rotational constants in cm-1:             0.081865             0.024001             0.021378
Rotational constants in MHz :          2454.240511           719.539980           640.888274

                             ****ORCA TERMINATED NORMALLY****
TOTAL RUN TIME: 0 days 0 hours 0 minutes 43 seconds 745 msec
