                         Program Version 6.0.0  -   RELEASE  -
|  1> ! r2scan-3c def2/J RI DEFGRID2 scfconv6 printgap
|  2> %output
|  3>     printlevel normal
|  4> end
|  5> %cpcm
|  6>     smd true
|  7>     smdsolvent "water"
|  8> end
|  9> * xyz 0 1
| 10> C 3.3657757453 -0.1112467482 0.0125894601
| 11> N 1.948393446 -0.3507840025 0.1781367354
| 12> C 1.6144890776 -1.5975028726 0.8274411511
| 13> C 1.0582159932 0.5649441328 -0.2251712558
| 14> O 1.3965266411 1.6537134519 -0.7039028143
| 15> C -0.3926474006 0.2267941784 -0.0916137278
| 16> C -0.957331323 -0.8038119858 -0.836384436
| 17> C -2.3172479368 -1.0478660436 -0.7609763204
| 18> C -3.119565508 -0.2703738718 0.0581909657
| 19> C -2.5624525334 0.7634265528 0.7925725412
| 20> C -1.2047947719 1.0190917135 0.7109112987
| 21> H 3.4955238939 0.8321916361 -0.5138224809
| 22> H 3.810962257 -0.9200312614 -0.567227147
| 23> H 3.8549338213 -0.0531280725 0.9857953304
| 24> H 1.8260205267 -2.437673468 0.163051228
| 25> H 0.565036295 -1.6145728624 1.1058509383
| 26> H 2.2236702342 -1.702291931 1.725946604
| 27> H -0.3323014391 -1.4035690741 -1.4807612977
| 28> H -2.7508330241 -1.8465808592 -1.3428489575
| 29> H -4.1791693759 -0.465399541 0.1190658263
| 30> H -3.185312977 1.3765891153 1.4256212043
| 31> H -0.7623785962 1.8323079824 1.2673489895
| 32> *
| 33>
| 34>                          ****END OF INPUT****

CARTESIAN COORDINATES (ANGSTROEM)
---------------------------------
  C      3.365776   -0.111247    0.012589
  N      1.948393   -0.350784    0.178137
  C      1.614489   -1.597503    0.827441
  C      1.058216    0.564944   -0.225171
  O      1.396527    1.653713   -0.703903
  C     -0.392647    0.226794   -0.091614
  C     -0.957331   -0.803812   -0.836384
  C     -2.317248   -1.047866   -0.760976
  C     -3.119566   -0.270374    0.058191
  C     -2.562453    0.763427    0.792573
  C     -1.204795    1.019092    0.710911
  H      3.495524    0.832192   -0.513822
  H      3.810962   -0.920031   -0.567227
  H      3.854934   -0.053128    0.985795
  H      1.826021   -2.437673    0.163051
  H      0.565036   -1.614573    1.105851
  H      2.223670   -1.702292    1.725947
  H     -0.332301   -1.403569   -1.480761
  H     -2.750833   -1.846581   -1.342849
  H     -4.179169   -0.465400    0.119066
  H     -3.185313    1.376589    1.425621
  H     -0.762379    1.832308    1.267349

 Total Charge           Charge          ....    0
 Multiplicity           Mult            ....    1
 Number of Electrons    NEL             ....   80
 Basis Dimension        Dim             ....  274

ORBITAL ENERGIES
----------------

  NO   OCC          E(Eh)            E(eV)
   0   2.0000     -18.923085      -514.9233
   1   2.0000     -14.201348      -386.4383
   2   2.0000     -10.134711      -275.7795
   3   2.0000     -10.054184      -273.5883
   4   2.0000     -10.051236      -273.5080
   5   2.0000     -10.050894      -273.4987
   6   2.0000     -10.040756      -273.2229
   7   2.0000     -10.040734      -273.2223
   8   2.0000     -10.037682      -273.1392
   9   2.0000     -10.037504      -273.1344
  10   2.0000     -10.036813      -273.1156
  11   2.0000      -1.009806       -27.4782
  12   2.0000      -0.910640       -24.7798
  13   2.0000      -0.833876       -22.6909
  14   2.0000      -0.738154       -20.0862
  15   2.0000      -0.721617       -19.6362
  16   2.0000      -0.685693       -18.6587
  17   2.0000      -0.669828       -18.2270
  18   2.0000      -0.588548       -16.0152
  19   2.0000      -0.579921       -15.7805
  20   2.0000      -0.521433       -14.1889
  21   2.0000      -0.496582       -13.5127
  22   2.0000      -0.458151       -12.4669
  23   2.0000      -0.449385       -12.2284
  24   2.0000      -0.445952       -12.1350
  25   2.0000      -0.422843       -11.5061
  26   2.0000      -0.412783       -11.2324
  27   2.0000      -0.391964       -10.6659
  28   2.0000      -0.382212       -10.4005
  29   2.0000      -0.369273       -10.0484
  30   2.0000      -0.364754        -9.9255
  31   2.0000      -0.360939        -9.8217
  32   2.0000      -0.347065        -9.4441
  33   2.0000      -0.341085        -9.2814
  34   2.0000      -0.324817        -8.8387
  35   2.0000      -0.312247        -8.4967
  36   2.0000      -0.254261        -6.9188
  37   2.0000      -0.244448        -6.6518
  38   2.0000      -0.226187        -6.1549
  39   2.0000      -0.222792        -6.0625
  40   0.0000      -0.049390        -1.3440
  41   0.0000      -0.038130        -1.0376
  42   0.0000       0.002057         0.0560
  43   0.0000       0.070112         1.9078
  44   0.0000       0.101650         2.7660

MULLIKEN ATOMIC CHARGES
-----------------------
   0 C :   -0.432608
   1 N :    0.091219
   2 C :   -0.413369
   3 C :    0.284245
   4 O :   -0.568384
   5 C :   -0.001516
   6 C :   -0.187085
   7 C :   -0.198127
   8 C :   -0.151343
   9 C :   -0.202187
  10 C :   -0.206188
  11 H :    0.188064
  12 H :    0.171827
  13 H :    0.177679
  14 H :    0.184916
  15 H :    0.180714
  16 H :    0.169779
  17 H :    0.185303
  18 H :    0.180132
  19 H :    0.182360
  20 H :    0.180379
  21 H :    0.184193
Sum of atomic charges:   -0.0000000

LOEWDIN ATOMIC CHARGES
----------------------
   0 C :   -0.106810
   1 N :   -0.813457
   2 C :   -0.096269
   3 C :    0.348419
   4 O :   -0.569718
   5 C :   -0.049323
   6 C :   -0.141621
   7 C :   -0.164305
   8 C :   -0.165024
   9 C :   -0.164728
  10 C :   -0.138126
  11 H :    0.203099
  12 H :    0.187329
  13 H :    0.186291
  14 H :    0.183513
  15 H :    0.198740
  16 H :    0.187582
  17 H :    0.187491
  18 H :    0.180294
  19 H :    0.179321
  20 H :    0.180267
  21 H :    0.187035

  Mayer bond orders larger than 0.100000
B(  0-C ,  1-N ) :   0.9140 B(  0-C , 11-H ) :   0.9569 B(  0-C , 12-H ) :   0.9423
B(  0-C , 13-H ) :   0.9477 B(  1-N ,  2-C ) :   0.9175 B(  1-N ,  3-C ) :   1.3087
B(  2-C , 14-H ) :   0.9472 B(  2-C , 15-H ) :   0.9501 B(  2-C , 16-H ) :   0.9450
B(  3-C ,  4-O ) :   1.7817 B(  3-C ,  5-C ) :   0.8752 B(  4-O ,  5-C ) :  -0.1001
B(  5-C ,  6-C ) :   1.4022 B(  5-C , 10-C ) :   1.3762 B(  6-C ,  7-C ) :   1.3952
B(  6-C , 17-H ) :   0.9450 B(  7-C ,  8-C ) :   1.3835 B(  7-C , 18-H ) :   0.9581
B(  8-C ,  9-C ) :   1.3827 B(  8-C , 19-H ) :   0.9500 B(  9-C , 10-C ) :   1.3847
B(  9-C , 20-H ) :   0.9589 B( 10-C , 21-H ) :   0.9549

Dispersion correction           -0.008019228
FINAL SINGLE POINT ENERGY      -479.450265937440

DIPOLE MOMENT
-------------

Method             : SCF
Type of density    : Electron Density
Multiplicity       :   1
Irrep              :   0
Energy             :  -479.4564001418202110 Eh
Relativity type    :
Basis              : AO
                                X                 Y                 Z
Electronic contribution:     -4.301116212       3.762853842      -1.714049751
Nuclear contribution   :      4.315205093      -5.983730838       2.699999951
                        -----------------------------------------
Total Dipole Moment    :      0.014088881      -2.220876996       0.985950200
                        -----------------------------------------
Magnitude (a.u.)       :      2.429936403
Magnitude (Debye)      :      6.176407490

Rotational constants in cm-1:             0.081865             0.024001             0.021378
Rotational constants in MHz :          2454.240511           719.539980           640.888274

                             ****ORCA TERMINATED NORMALLY****
TOTAL RUN TIME: 0 days 0 hours 0 minutes 52 seconds 688 msec
