                         Program Version 6.0.0  -   RELEASE  -
|  1> ! pbe def2-sv(p) def2/J RI DEFGRID1 loosescf d4 GCP(DFT/SV(P)) printgap
|  2> %output
|  3>     printlevel normal
|  4> end
|  5> * xyz 0 1
|  6> C -3.4294887127 0.5948309219 0.0189246729
|  7> C -1.9340690469 0.5078975961 0.0457805561
|  8> C -1.1413794044 1.4900839064 -0.3613345846
|  9> C 0.3542922755 1.4433418931 -0.3494329251
| 10> C 0.8767199741 0.007787967 -0.2344139815
| 11> H 0.6647039169 -0.5059029972 -1.1781459707
| 12> C 0.1108286313 -0.706064366 0.8834602727
| 13> C -1.3816644547 -0.8074332198 0.5508756339
| 14> H -1.9318667336 -1.1034789769 1.4530902789
| 15> O -1.6565404203 -1.8623489996 -0.364690639
| 16> C 2.3716521086 -0.0262180925 -0.0059230869
| 17> C 2.9352290922 0.4640635724 1.0869888192
| 18> C 3.176268446 -0.6509983388 -1.1041982713
| 19> H -3.8416100618 -0.3009661606 -0.4433423807
| 20> H -3.7625290789 1.4707192371 -0.5305728956
| 21> H -3.8170415914 0.6493882231 1.036037151
| 22> H -1.5773295496 2.4168050713 -0.711023545
| 23> H 0.7429410755 1.9099966804 -1.2578128123
| 24> H 0.7198029537 2.0352142769 0.4951094406
| 25> H 0.5074097946 -1.7123093061 1.0329611319
| 26> H 0.222850044 -0.152680739 1.8156591381
| 27> H -1.2105438095 -1.6693839869 -1.200605376
| 28> H 4.0012038786 0.4349085469 1.2352797254
| 29> H 2.3626745548 0.911933652 1.8810304172
| 30> H 3.0010878742 -0.1257471987 -2.0423149671
| 31> H 4.2385285969 -0.6213020401 -0.8783460758
| 32> H 2.8761300971 -1.6891098516 -1.2425046519
| 33> *
| 34>
| 35>                          ****END OF INPUT****

CARTESIAN COORDINATES (ANGSTROEM)
---------------------------------
  C     -3.429489    0.594831    0.018925
  C     -1.934069    0.507898    0.045781
  C     -1.141379    1.490084   -0.361335
  C      0.354292    1.443342   -0.349433
  C      0.876720    0.007788   -0.234414
  H      0.664704   -0.505903   -1.178146
  C      0.110829   -0.706064    0.883460
  C     -1.381664   -0.807433    0.550876
  H     -1.931867   -1.103479    1.453090
  O     -1.656540   -1.862349   -0.364691
  C      2.371652   -0.026218   -0.005923
  C      2.935229    0.464064    1.086989
  C      3.176268   -0.650998   -1.104198
  H     -3.841610   -0.300966   -0.443342
  H     -3.762529    1.470719   -0.530573
  H     -3.817042    0.649388    1.036037
  H     -1.577330    2.416805   -0.711024
  H      0.742941    1.909997   -1.257813
  H      0.719803    2.035214    0.495109
  H      0.507410   -1.712309    1.032961
  H      0.222850   -0.152681    1.815659
  H     -1.210544   -1.669384   -1.200605
  H      4.001204    0.434909    1.235280
  H      2.362675    0.911934    1.881030
  H      3.001088   -0.125747   -2.042315
  H      4.238529   -0.621302   -0.878346
  H      2.876130   -1.689110   -1.242505

 Total Charge           Charge          ....    0
 Multiplicity           Mult            ....    1
 Number of Electrons    NEL             ....   84
 Basis Dimension        Dim             ....  186

ORBITAL ENERGIES
----------------

  NO   OCC          E(Eh)            E(eV)
   0   2.0000     -18.742190      -510.0009
   1   2.0000      -9.935812      -270.3672
   2   2.0000      -9.902881      -269.4711
   3   2.0000      -9.899815      -269.3876
   4   2.0000      -9.891956      -269.1738
   5   2.0000      -9.891466      -269.1605
   6   2.0000      -9.884223      -268.9634
   7   2.0000      -9.884030      -268.9581
   8   2.0000      -9.883322      -268.9389
   9   2.0000      -9.875316      -268.7210
  10   2.0000      -9.869561      -268.5644
  11   2.0000      -0.918599       -24.9963
  12   2.0000      -0.766024       -20.8446
  13   2.0000      -0.723889       -19.6980
  14   2.0000      -0.678220       -18.4553
  15   2.0000      -0.660992       -17.9865
  16   2.0000      -0.615608       -16.7515
  17   2.0000      -0.605481       -16.4760
  18   2.0000      -0.561345       -15.2750
  19   2.0000      -0.538488       -14.6530
  20   2.0000      -0.488975       -13.3057
  21   2.0000      -0.463100       -12.6016
  22   2.0000      -0.436541       -11.8789
  23   2.0000      -0.420619       -11.4456
  24   2.0000      -0.402665       -10.9571
  25   2.0000      -0.401762       -10.9325
  26   2.0000      -0.388432       -10.5698
  27   2.0000      -0.376922       -10.2566
  28   2.0000      -0.372718       -10.1422
  29   2.0000      -0.367915       -10.0115
  30   2.0000      -0.361136        -9.8270
  31   2.0000      -0.344483        -9.3739
  32   2.0000      -0.328366        -8.9353
  33   2.0000      -0.326878        -8.8948
  34   2.0000      -0.314863        -8.5678
  35   2.0000      -0.303195        -8.2504
  36   2.0000      -0.298018        -8.1095
  37   2.0000      -0.274764        -7.4767
  38   2.0000      -0.267424        -7.2770
  39   2.0000      -0.220371        -5.9966
  40   2.0000      -0.213780        -5.8173
  41   2.0000      -0.209159        -5.6915
  42   0.0000      -0.021908        -0.5962
  43   0.0000      -0.006148        -0.1673
  44   0.0000       0.021078         0.5736
  45   0.0000       0.046434         1.2635
  46   0.0000       0.055309         1.5050

MULLIKEN ATOMIC CHARGES
-----------------------
   0 C :   -0.205185
   1 C :   -0.096995
   2 C :   -0.177087
   3 C :   -0.037646
   4 C :   -0.196967
   5 H :    0.034388
   6 C :   -0.079089
   7 C :    0.107663
   8 H :    0.062064
   9 O :   -0.433529
  10 C :   -0.000199
  11 C :   -0.259139
  12 C :   -0.210361
  13 H :    0.111576
  14 H :    0.095831
  15 H :    0.104771
  16 H :    0.042280
  17 H :    0.085915
  18 H :    0.096523
  19 H :    0.085563
  20 H :    0.081058
  21 H :    0.295128
  22 H :    0.083849
  23 H :    0.094346
  24 H :    0.108370
  25 H :    0.095870
  26 H :    0.111002
Sum of atomic charges:   -0.0000000

LOEWDIN ATOMIC CHARGES
----------------------
   0 C :   -0.324070
   1 C :   -0.084825
   2 C :   -0.147158
   3 C :   -0.205085
   4 C :   -0.132391
   5 H :    0.105597
   6 C :   -0.216486
   7 C :   -0.038463
   8 H :    0.116845
   9 O :   -0.322945
  10 C :   -0.046211
  11 C :   -0.267174
  12 C :   -0.321696
  13 H :    0.129222
  14 H :    0.121098
  15 H :    0.127951
  16 H :    0.116852
  17 H :    0.124693
  18 H :    0.129696
  19 H :    0.122095
  20 H :    0.122373
  21 H :    0.276690
  22 H :    0.118792
  23 H :    0.115340
  24 H :    0.127472
  25 H :    0.123042
  26 H :    0.128747

  Mayer bond orders larger than 0.100000
B(  0-C ,  1-C ) :   1.1187 B(  0-C , 13-H ) :   0.9271 B(  0-C , 14-H ) :   0.9454
B(  0-C , 15-H ) :   0.9293 B(  1-C ,  2-C ) :   1.9126 B(  1-C ,  7-C ) :   0.9906
B(  2-C ,  3-C ) :   1.0447 B(  2-C , 16-H ) :   0.9237 B(  3-C ,  4-C ) :   1.0831
B(  3-C , 17-H ) :   0.9054 B(  3-C , 18-H ) :   0.8822 B(  4-C ,  5-H ) :   0.8846
B(  4-C ,  6-C ) :   1.0560 B(  4-C , 10-C ) :   0.9877 B(  6-C ,  7-C ) :   1.0609
B(  6-C , 19-H ) :   0.9110 B(  6-C , 20-H ) :   0.8933 B(  7-C ,  8-H ) :   0.8867
B(  7-C ,  9-O ) :   1.0090 B(  9-O , 21-H ) :   0.8476 B( 10-C , 11-C ) :   2.0319
B( 10-C , 12-C ) :   1.1386 B( 11-C , 22-H ) :   0.9023 B( 11-C , 23-H ) :   0.9080
B( 12-C , 24-H ) :   0.9280 B( 12-C , 25-H ) :   0.9387 B( 12-C , 26-H ) :   0.9274

Dispersion correction           -0.028239750
FINAL SINGLE POINT ENERGY      -464.793979936475

DIPOLE MOMENT
-------------

Method             : SCF
Type of density    : Electron Density
Multiplicity       :   1
Irrep              :   0
Energy             :  -464.8838648925895995 Eh
Relativity type    :
Basis              : AO
                                X                 Y                 Z
Electronic contribution:     -2.698733480      -1.421082217       0.240203142
Nuclear contribution   :      2.974202302       1.800011284      -0.507797408
                        -----------------------------------------
Total Dipole Moment    :      0.275468821       0.378929067      -0.267594266
                        -----------------------------------------
Magnitude (a.u.)       :      0.539515524
Magnitude (Debye)      :      1.371339479

Rotational constants in cm-1:             0.071280             0.022322             0.019911
Rotational constants in MHz :          2136.911381           669.208169           596.904874

                             ****ORCA TERMINATED NORMALLY****
TOTAL RUN TIME: 0 days 0 hours 0 minutes 12 seconds 625 msec
