                         Program Version 6.0.0  -   RELEASE  -
|  1> ! pbe def2-sv(p) def2/J RI DEFGRID1 loosescf d4 GCP(DFT/SV(P)) printgap
|  2> %output
|  3>     printlevel normal
|  4> end
|  5> * xyz 0 1
|  6> C -2.6122213128 0.5138506105 -0.0005742775
|  7> O -1.2382907237 0.9089572966 -0.0021488552
|  8> C -0.3234122324 -0.0641606551 -9.29849e-05
|  9> O -0.6143099722 -1.2445757538 0.0028991328
| 10> C 1.0451029647 0.4834386513 -0.0017953414
| 11> C 2.1143433397 -0.2846266419 0.74252627
| 12> C 2.1145122825 -0.2890620793 -0.7410191001
| 13> H -3.1815953233 1.4376858593 -0.0042160175
| 14> H -2.8288953208 -0.077921251 0.8896901458
| 15> H -2.8289613513 -0.0850038432 -0.8860702848
| 16> H 1.0778435008 1.5631078989 -0.0050186355
| 17> H 2.8569290769 0.2932098416 1.2680766806
| 18> H 1.7952322758 -1.182530706 1.2491962171
| 19> H 2.8572201784 0.2856714071 -1.2698854046
| 20> H 1.7954765695 -1.1899534035 -1.2422970699
| 21> *
| 22>
| 23>                          ****END OF INPUT****

CARTESIAN COORDINATES (ANGSTROEM)
---------------------------------
  C     -2.612221    0.513851   -0.000574
  O     -1.238291    0.908957   -0.002149
  C     -0.323412   -0.064161   -0.000093
  O     -0.614310   -1.244576    0.002899
  C      1.045103    0.483439   -0.001795
  C      2.114343   -0.284627    0.742526
  C      2.114512   -0.289062   -0.741019
  H     -3.181595    1.437686   -0.004216
  H     -2.828895   -0.077921    0.889690
  H     -2.828961   -0.085004   -0.886070
  H      1.077844    1.563108   -0.005019
  H      2.856929    0.293210    1.268077
  H      1.795232   -1.182531    1.249196
  H      2.857220    0.285671   -1.269885
  H      1.795477   -1.189953   -1.242297

 Total Charge           Charge          ....    0
 Multiplicity           Mult            ....    1
 Number of Electrons    NEL             ....   54
 Basis Dimension        Dim             ....  114

ORBITAL ENERGIES
----------------

  NO   OCC          E(Eh)            E(eV)
   0   2.0000     -18.797141      -511.4962
   1   2.0000     -18.731140      -509.7002
   2   2.0000     -10.002677      -272.1867
   3   2.0000      -9.938941      -270.4523
   4   2.0000      -9.910815      -269.6870
   5   2.0000      -9.902095      -269.4497
   6   2.0000      -9.902039      -269.4482
   7   2.0000      -1.001554       -27.2537
   8   2.0000      -0.907013       -24.6811
   9   2.0000      -0.793079       -21.5808
  10   2.0000      -0.672971       -18.3125
  11   2.0000      -0.573936       -15.6176
  12   2.0000      -0.543362       -14.7856
  13   2.0000      -0.497096       -13.5267
  14   2.0000      -0.475388       -12.9360
  15   2.0000      -0.442867       -12.0510
  16   2.0000      -0.430189       -11.7060
  17   2.0000      -0.402297       -10.9471
  18   2.0000      -0.389706       -10.6044
  19   2.0000      -0.356575        -9.7029
  20   2.0000      -0.347519        -9.4565
  21   2.0000      -0.326049        -8.8722
  22   2.0000      -0.303771        -8.2660
  23   2.0000      -0.277031        -7.5384
  24   2.0000      -0.264712        -7.2032
  25   2.0000      -0.254890        -6.9359
  26   2.0000      -0.220603        -6.0029
  27   0.0000      -0.020565        -0.5596
  28   0.0000       0.043769         1.1910
  29   0.0000       0.056853         1.5470
  30   0.0000       0.074832         2.0363
  31   0.0000       0.086967         2.3665

MULLIKEN ATOMIC CHARGES
-----------------------
   0 C :   -0.105930
   1 O :   -0.247893
   2 C :    0.170077
   3 O :   -0.214811
   4 C :   -0.186454
   5 C :   -0.182526
   6 C :   -0.182346
   7 H :    0.120234
   8 H :    0.118557
   9 H :    0.118586
  10 H :    0.098571
  11 H :    0.117601
  12 H :    0.129388
  13 H :    0.117592
  14 H :    0.129354
Sum of atomic charges:   -0.0000000

LOEWDIN ATOMIC CHARGES
----------------------
   0 C :   -0.202751
   1 O :   -0.078229
   2 C :    0.045024
   3 O :   -0.180596
   4 C :   -0.177433
   5 C :   -0.215942
   6 C :   -0.215956
   7 H :    0.120073
   8 H :    0.119389
   9 H :    0.119401
  10 H :    0.134847
  11 H :    0.130376
  12 H :    0.135707
  13 H :    0.130380
  14 H :    0.135710

  Mayer bond orders larger than 0.100000
B(  0-C ,  1-O ) :   0.9417 B(  0-C ,  7-H ) :   0.9594 B(  0-C ,  8-H ) :   0.9519
B(  0-C ,  9-H ) :   0.9518 B(  1-O ,  2-C ) :   1.2056 B(  2-C ,  3-O ) :   2.0571
B(  2-C ,  4-C ) :   1.0280 B(  4-C ,  5-C ) :   0.9697 B(  4-C ,  6-C ) :   0.9697
B(  4-C , 10-H ) :   0.9122 B(  5-C ,  6-C ) :   1.0937 B(  5-C , 11-H ) :   0.9292
B(  5-C , 12-H ) :   0.9216 B(  6-C , 13-H ) :   0.9292 B(  6-C , 14-H ) :   0.9216

Dispersion correction           -0.010893579
FINAL SINGLE POINT ENERGY      -345.032181294974

DIPOLE MOMENT
-------------

Method             : SCF
Type of density    : Electron Density
Multiplicity       :   1
Irrep              :   0
Energy             :  -345.0885398888480040 Eh
Relativity type    :
Basis              : AO
                                X                 Y                 Z
Electronic contribution:     -1.428440253      -0.328989141      -0.000873839
Nuclear contribution   :      1.420331903       0.974719959      -0.000480810
                        -----------------------------------------
Total Dipole Moment    :     -0.008108349       0.645730817      -0.001354649
                        -----------------------------------------
Magnitude (a.u.)       :      0.645783144
Magnitude (Debye)      :      1.641450304

Rotational constants in cm-1:             0.242538             0.054171             0.049825
Rotational constants in MHz :          7271.107138          1623.998071          1493.721726

                             ****ORCA TERMINATED NORMALLY****
TOTAL RUN TIME: 0 days 0 hours 0 minutes 6 seconds 930 msec
