                         Program Version 6.0.0  -   RELEASE  -
|  1> ! r2scan-3c def2/J RI DEFGRID2 scfconv6 printgap
|  2> %output
|  3>     printlevel normal
|  4> end
|  5> * xyz 0 1
|  6> C 2.0900840524 0.0837283314 -0.1274562229
|  7> C 0.7591480873 0.6689804881 0.3346528299
|  8> C -0.4558879207 0.0035171352 -0.3263349053
|  9> H -0.3122828411 0.0011249705 -1.4201222525
| 10> C -1.7400614343 0.7597387324 0.0020127215
| 11> O -0.6391224472 -1.3325285238 0.1167864187
| 12> H 2.1921407286 -0.9553545016 0.1771988093
| 13> H 2.9134388459 0.6416718207 0.3108191584
| 14> H 2.1755239325 0.1402301287 -1.2107807202
| 15> H 0.7315399411 1.7326347524 0.0950780487
| 16> H 0.6631517616 0.5614942694 1.4169716389
| 17> H -1.6930616788 1.7707495373 -0.3899283311
| 18> H -2.5889507635 0.2427693024 -0.4368666901
| 19> H -1.878192597 0.7947434969 1.0793783552
| 20> H 0.1571209303 -1.8427672978 -0.079859104
| 21> *
| 22>
| 23>                          ****END OF INPUT****

CARTESIAN COORDINATES (ANGSTROEM)
---------------------------------
  C      2.090084    0.083728   -0.127456
  C      0.759148    0.668980    0.334653
  C     -0.455888    0.003517   -0.326335
  H     -0.312283    0.001125   -1.420122
  C     -1.740061    0.759739    0.002013
  O     -0.639122   -1.332529    0.116786
  H      2.192141   -0.955355    0.177199
  H      2.913439    0.641672    0.310819
  H      2.175524    0.140230   -1.210781
  H      0.731540    1.732635    0.095078
  H      0.663152    0.561494    1.416972
  H     -1.693062    1.770750   -0.389928
  H     -2.588951    0.242769   -0.436867
  H     -1.878193    0.794743    1.079378
  H      0.157121   -1.842767   -0.079859

 Total Charge           Charge          ....    0
 Multiplicity           Mult            ....    1
 Number of Electrons    NEL             ....   42
 Basis Dimension        Dim             ....  150

ORBITAL ENERGIES
----------------

  NO   OCC          E(Eh)            E(eV)
   0   2.0000     -18.943730      -515.4851
   1   2.0000     -10.079192      -274.2688
   2   2.0000     -10.026390      -272.8319
   3   2.0000     -10.024932      -272.7923
   4   2.0000     -10.014363      -272.5047
   5   2.0000      -0.981657       -26.7122
   6   2.0000      -0.752912       -20.4878
   7   2.0000      -0.697615       -18.9831
   8   2.0000      -0.600783       -16.3481
   9   2.0000      -0.546708       -14.8767
  10   2.0000      -0.482760       -13.1366
  11   2.0000      -0.430409       -11.7120
  12   2.0000      -0.403233       -10.9725
  13   2.0000      -0.392240       -10.6734
  14   2.0000      -0.356716        -9.7067
  15   2.0000      -0.350922        -9.5491
  16   2.0000      -0.328659        -8.9433
  17   2.0000      -0.324780        -8.8377
  18   2.0000      -0.311091        -8.4652
  19   2.0000      -0.283962        -7.7270
  20   2.0000      -0.232559        -6.3282
  21   0.0000       0.060136         1.6364
  22   0.0000       0.107488         2.9249
  23   0.0000       0.117592         3.1998
  24   0.0000       0.132428         3.6036
  25   0.0000       0.140142         3.8135

MULLIKEN ATOMIC CHARGES
-----------------------
   0 C :   -0.493996
   1 C :   -0.233936
   2 C :    0.054661
   3 H :    0.125806
   4 C :   -0.483111
   5 O :   -0.424837
   6 H :    0.133711
   7 H :    0.152830
   8 H :    0.150163
   9 H :    0.131785
  10 H :    0.153658
  11 H :    0.140914
  12 H :    0.156680
  13 H :    0.149251
  14 H :    0.286421
Sum of atomic charges:    0.0000000

LOEWDIN ATOMIC CHARGES
----------------------
   0 C :   -0.425871
   1 C :   -0.299861
   2 C :    0.046172
   3 H :    0.158835
   4 C :   -0.384277
   5 O :   -0.615495
   6 H :    0.144856
   7 H :    0.154812
   8 H :    0.152116
   9 H :    0.158526
  10 H :    0.163701
  11 H :    0.155635
  12 H :    0.162511
  13 H :    0.161040
  14 H :    0.267300

  Mayer bond orders larger than 0.100000
B(  0-C ,  1-C ) :   0.8888 B(  0-C ,  6-H ) :   0.9792 B(  0-C ,  7-H ) :   0.9719
B(  0-C ,  8-H ) :   0.9847 B(  1-C ,  2-C ) :   0.9125 B(  1-C ,  9-H ) :   0.9659
B(  1-C , 10-H ) :   0.9695 B(  2-C ,  3-H ) :   0.9550 B(  2-C ,  4-C ) :   0.9456
B(  2-C ,  5-O ) :   0.8458 B(  4-C , 11-H ) :   0.9771 B(  4-C , 12-H ) :   0.9711
B(  4-C , 13-H ) :   0.9793 B(  5-O , 14-H ) :   0.8999

Dispersion correction           -0.003146400
FINAL SINGLE POINT ENERGY      -233.604256065030

DIPOLE MOMENT
-------------

Method             : SCF
Type of density    : Electron Density
Multiplicity       :   1
Irrep              :   0
Energy             :  -233.6093019701391711 Eh
Relativity type    :
Basis              : AO
                                X                 Y                 Z
Electronic contribution:     -1.689300503      -2.603633071       0.199303117
Nuclear contribution   :      2.204973545       2.876579241      -0.428048472
                        -----------------------------------------
Total Dipole Moment    :      0.515673042       0.272946171      -0.228745355
                        -----------------------------------------
Magnitude (a.u.)       :      0.626691898
Magnitude (Debye)      :      1.592924214

Rotational constants in cm-1:             0.267763             0.114263             0.088689
Rotational constants in MHz :          8027.327975          3425.510824          2658.817904

                             ****ORCA TERMINATED NORMALLY****
TOTAL RUN TIME: 0 days 0 hours 0 minutes 15 seconds 436 msec
