                         Program Version 6.0.0  -   RELEASE  -
|  1> ! r2scan-3c def2/J RI DEFGRID2 scfconv6 printgap
|  2> %output
|  3>     printlevel normal
|  4> end
|  5> %cpcm
|  6>     smd true
|  7>     smdsolvent "water"
|  8> end
|  9> * xyz 0 1
| 10> C 2.0900840524 0.0837283314 -0.1274562229
| 11> C 0.7591480873 0.6689804881 0.3346528299
| 12> C -0.4558879207 0.0035171352 -0.3263349053
| 13> H -0.3122828411 0.0011249705 -1.4201222525
| 14> C -1.7400614343 0.7597387324 0.0020127215
| 15> O -0.6391224472 -1.3325285238 0.1167864187
| 16> H 2.1921407286 -0.9553545016 0.1771988093
| 17> H 2.9134388459 0.6416718207 0.3108191584
| 18> H 2.1755239325 0.1402301287 -1.2107807202
| 19> H 0.7315399411 1.7326347524 0.0950780487
| 20> H 0.6631517616 0.5614942694 1.4169716389
| 21> H -1.6930616788 1.7707495373 -0.3899283311
| 22> H -2.5889507635 0.2427693024 -0.4368666901
| 23> H -1.878192597 0.7947434969 1.0793783552
| 24> H 0.1571209303 -1.8427672978 -0.079859104
| 25> *
| 26>
| 27>                          ****END OF INPUT****

CARTESIAN COORDINATES (ANGSTROEM)
---------------------------------
  C      2.090084    0.083728   -0.127456
  C      0.759148    0.668980    0.334653
  C     -0.455888    0.003517   -0.326335
  H     -0.312283    0.001125   -1.420122
  C     -1.740061    0.759739    0.002013
  O     -0.639122   -1.332529    0.116786
  H      2.192141   -0.955355    0.177199
  H      2.913439    0.641672    0.310819
  H      2.175524    0.140230   -1.210781
  H      0.731540    1.732635    0.095078
  H      0.663152    0.561494    1.416972
  H     -1.693062    1.770750   -0.389928
  H     -2.588951    0.242769   -0.436867
  H     -1.878193    0.794743    1.079378
  H      0.157121   -1.842767   -0.079859

 Total Charge           Charge          ....    0
 Multiplicity           Mult            ....    1
 Number of Electrons    NEL             ....   42
 Basis Dimension        Dim             ....  150

ORBITAL ENERGIES
----------------

  NO   OCC          E(Eh)            E(eV)
   0   2.0000     -18.948648      -515.6189
   1   2.0000     -10.074629      -274.1446
   2   2.0000     -10.016970      -272.5756
   3   2.0000     -10.010495      -272.3994
   4   2.0000     -10.009881      -272.3827
   5   2.0000      -0.985421       -26.8147
   6   2.0000      -0.745114       -20.2756
   7   2.0000      -0.690376       -18.7861
   8   2.0000      -0.592379       -16.1194
   9   2.0000      -0.541933       -14.7467
  10   2.0000      -0.479668       -13.0524
  11   2.0000      -0.422953       -11.5091
  12   2.0000      -0.396701       -10.7948
  13   2.0000      -0.383449       -10.4342
  14   2.0000      -0.353554        -9.6207
  15   2.0000      -0.346161        -9.4195
  16   2.0000      -0.324273        -8.8239
  17   2.0000      -0.317105        -8.6289
  18   2.0000      -0.301702        -8.2097
  19   2.0000      -0.282292        -7.6816
  20   2.0000      -0.236920        -6.4469
  21   0.0000       0.076698         2.0871
  22   0.0000       0.115717         3.1488
  23   0.0000       0.127706         3.4750
  24   0.0000       0.142564         3.8794
  25   0.0000       0.149791         4.0760

MULLIKEN ATOMIC CHARGES
-----------------------
   0 C :   -0.522076
   1 C :   -0.258060
   2 C :    0.075034
   3 H :    0.139821
   4 C :   -0.528934
   5 O :   -0.514232
   6 H :    0.154634
   7 H :    0.161254
   8 H :    0.159400
   9 H :    0.148273
  10 H :    0.156381
  11 H :    0.164914
  12 H :    0.161369
  13 H :    0.159836
  14 H :    0.342387
Sum of atomic charges:    0.0000000

LOEWDIN ATOMIC CHARGES
----------------------
   0 C :   -0.431070
   1 C :   -0.299602
   2 C :    0.046872
   3 H :    0.166721
   4 C :   -0.394453
   5 O :   -0.653195
   6 H :    0.152460
   7 H :    0.155981
   8 H :    0.155608
   9 H :    0.164365
  10 H :    0.163277
  11 H :    0.164625
  12 H :    0.161402
  13 H :    0.161735
  14 H :    0.285275

  Mayer bond orders larger than 0.100000
B(  0-C ,  1-C ) :   0.8899 B(  0-C ,  6-H ) :   0.9733 B(  0-C ,  7-H ) :   0.9708
B(  0-C ,  8-H ) :   0.9806 B(  1-C ,  2-C ) :   0.9240 B(  1-C ,  9-H ) :   0.9647
B(  1-C , 10-H ) :   0.9706 B(  2-C ,  3-H ) :   0.9501 B(  2-C ,  4-C ) :   0.9304
B(  2-C ,  5-O ) :   0.8326 B(  4-C , 11-H ) :   0.9707 B(  4-C , 12-H ) :   0.9705
B(  4-C , 13-H ) :   0.9769 B(  5-O , 14-H ) :   0.8743

Dispersion correction           -0.003146400
FINAL SINGLE POINT ENERGY      -233.610761474939

DIPOLE MOMENT
-------------

Method             : SCF
Type of density    : Electron Density
Multiplicity       :   1
Irrep              :   0
Energy             :  -233.6158073800478689 Eh
Relativity type    :
Basis              : AO
                                X                 Y                 Z
Electronic contribution:     -1.469355983      -2.504840610       0.063049438
Nuclear contribution   :      2.204973545       2.876579241      -0.428048472
                        -----------------------------------------
Total Dipole Moment    :      0.735617562       0.371738631      -0.364999034
                        -----------------------------------------
Magnitude (a.u.)       :      0.901413946
Magnitude (Debye)      :      2.291212166

Rotational constants in cm-1:             0.267763             0.114263             0.088689
Rotational constants in MHz :          8027.327975          3425.510824          2658.817904

                             ****ORCA TERMINATED NORMALLY****
TOTAL RUN TIME: 0 days 0 hours 0 minutes 17 seconds 272 msec
