                         Program Version 6.0.0  -   RELEASE  -
|  1> ! pbe def2-sv(p) def2/J RI DEFGRID1 loosescf d4 GCP(DFT/SV(P)) printgap
|  2> %output
|  3>     printlevel normal
|  4> end
|  5> * xyz 0 1
|  6> C -2.0781627613 -0.9151503866 -0.4000877233
|  7> C -1.2300447984 -0.3524458118 0.7574537401
|  8> H -1.8475530696 -0.3987230098 1.6617257196
|  9> C -0.8289802068 1.119200507 0.5781640667
| 10> H -1.677153811 1.645652446 0.1124975463
| 11> C 0.3881674648 1.3150660962 -0.3498001795
| 12> H 0.8420595249 2.2821090621 -0.0922292673
| 13> C 1.4964295598 0.2491750857 -0.1578072392
| 14> H 1.9811345962 0.1118028832 -1.1367700914
| 15> C 1.0098391745 -1.1456154928 0.2779454591
| 16> H 1.8044989747 -1.5618594211 0.9125933344
| 17> O -0.1207796915 -1.1773736685 1.0978545568
| 18> O 0.836913146 -1.9384748624 -0.8706237841
| 19> O 2.4385054696 0.6444090273 0.8108773315
| 20> O 0.0089536161 1.4466110738 -1.6943703336
| 21> O -0.594607967 1.6250787046 1.8724058232
| 22> O -1.496817401 -0.8192867786 -1.679448103
| 23> H -3.0103842763 -0.34939766 -0.449421038
| 24> H -2.3104408242 -1.9603516942 -0.1666857678
| 25> H 0.8004775301 -2.8747945656 -0.6209195324
| 26> H 2.9086839552 1.4352694223 0.5085264085
| 27> H -0.5920798567 0.7073146697 -1.9345577816
| 28> H -0.4322811428 2.5783873949 1.8317762949
| 29> H -0.6768458936 -1.3587172614 -1.6837715355
| 30> *
| 31>
| 32>                          ****END OF INPUT****

CARTESIAN COORDINATES (ANGSTROEM)
---------------------------------
  C     -2.078163   -0.915150   -0.400088
  C     -1.230045   -0.352446    0.757454
  H     -1.847553   -0.398723    1.661726
  C     -0.828980    1.119201    0.578164
  H     -1.677154    1.645652    0.112498
  C      0.388167    1.315066   -0.349800
  H      0.842060    2.282109   -0.092229
  C      1.496430    0.249175   -0.157807
  H      1.981135    0.111803   -1.136770
  C      1.009839   -1.145615    0.277945
  H      1.804499   -1.561859    0.912593
  O     -0.120780   -1.177374    1.097855
  O      0.836913   -1.938475   -0.870624
  O      2.438505    0.644409    0.810877
  O      0.008954    1.446611   -1.694370
  O     -0.594608    1.625079    1.872406
  O     -1.496817   -0.819287   -1.679448
  H     -3.010384   -0.349398   -0.449421
  H     -2.310441   -1.960352   -0.166686
  H      0.800478   -2.874795   -0.620920
  H      2.908684    1.435269    0.508526
  H     -0.592080    0.707315   -1.934558
  H     -0.432281    2.578387    1.831776
  H     -0.676846   -1.358717   -1.683772

 Total Charge           Charge          ....    0
 Multiplicity           Mult            ....    1
 Number of Electrons    NEL             ....   96
 Basis Dimension        Dim             ....  192

ORBITAL ENERGIES
----------------

  NO   OCC          E(Eh)            E(eV)
   0   2.0000     -18.792262      -511.3634
   1   2.0000     -18.768467      -510.7159
   2   2.0000     -18.761939      -510.5383
   3   2.0000     -18.752152      -510.2720
   4   2.0000     -18.748533      -510.1735
   5   2.0000     -18.726827      -509.5829
   6   2.0000      -9.993654      -271.9412
   7   2.0000      -9.945960      -270.6433
   8   2.0000      -9.942745      -270.5558
   9   2.0000      -9.940995      -270.5082
  10   2.0000      -9.940806      -270.5031
  11   2.0000      -9.937549      -270.4145
  12   2.0000      -0.992647       -27.0113
  13   2.0000      -0.938995       -25.5514
  14   2.0000      -0.934052       -25.4168
  15   2.0000      -0.928214       -25.2580
  16   2.0000      -0.919917       -25.0322
  17   2.0000      -0.903750       -24.5923
  18   2.0000      -0.704510       -19.1707
  19   2.0000      -0.685246       -18.6465
  20   2.0000      -0.625903       -17.0317
  21   2.0000      -0.588938       -16.0258
  22   2.0000      -0.582430       -15.8487
  23   2.0000      -0.532979       -14.5031
  24   2.0000      -0.487835       -13.2747
  25   2.0000      -0.484780       -13.1915
  26   2.0000      -0.470067       -12.7912
  27   2.0000      -0.461848       -12.5675
  28   2.0000      -0.447288       -12.1713
  29   2.0000      -0.432976       -11.7819
  30   2.0000      -0.430359       -11.7107
  31   2.0000      -0.411843       -11.2068
  32   2.0000      -0.380000       -10.3403
  33   2.0000      -0.370531       -10.0827
  34   2.0000      -0.359103        -9.7717
  35   2.0000      -0.357547        -9.7294
  36   2.0000      -0.340110        -9.2549
  37   2.0000      -0.309921        -8.4334
  38   2.0000      -0.302709        -8.2371
  39   2.0000      -0.301870        -8.2143
  40   2.0000      -0.287263        -7.8168
  41   2.0000      -0.276291        -7.5183
  42   2.0000      -0.256930        -6.9914
  43   2.0000      -0.240513        -6.5447
  44   2.0000      -0.233469        -6.3530
  45   2.0000      -0.224909        -6.1201
  46   2.0000      -0.217539        -5.9195
  47   2.0000      -0.193382        -5.2622
  48   0.0000       0.004080         0.1110
  49   0.0000       0.018817         0.5120
  50   0.0000       0.034632         0.9424
  51   0.0000       0.048098         1.3088
  52   0.0000       0.054636         1.4867

MULLIKEN ATOMIC CHARGES
-----------------------
   0 C :    0.024824
   1 C :    0.034959
   2 H :    0.083996
   3 C :    0.052577
   4 H :    0.067290
   5 C :    0.036229
   6 H :    0.032226
   7 C :    0.064973
   8 H :    0.079139
   9 C :    0.169483
  10 H :    0.084749
  11 O :   -0.300809
  12 O :   -0.412222
  13 O :   -0.420461
  14 O :   -0.430914
  15 O :   -0.410710
  16 O :   -0.450617
  17 H :    0.094341
  18 H :    0.083668
  19 H :    0.316976
  20 H :    0.303312
  21 H :    0.289585
  22 H :    0.299429
  23 H :    0.307976
Sum of atomic charges:    0.0000000

LOEWDIN ATOMIC CHARGES
----------------------
   0 C :   -0.135282
   1 C :   -0.069363
   2 H :    0.130169
   3 C :   -0.071425
   4 H :    0.104069
   5 C :   -0.079696
   6 H :    0.102171
   7 C :   -0.079956
   8 H :    0.110054
   9 C :   -0.002282
  10 H :    0.113883
  11 O :   -0.134966
  12 O :   -0.304774
  13 O :   -0.316150
  14 O :   -0.338147
  15 O :   -0.316819
  16 O :   -0.336791
  17 H :    0.120794
  18 H :    0.105553
  19 H :    0.294377
  20 H :    0.286576
  21 H :    0.264623
  22 H :    0.284318
  23 H :    0.269064

  Mayer bond orders larger than 0.100000
B(  0-C ,  1-C ) :   1.0345 B(  0-C , 16-O ) :   1.0511 B(  0-C , 17-H ) :   0.9192
B(  0-C , 18-H ) :   0.9163 B(  1-C ,  2-H ) :   0.8808 B(  1-C ,  3-C ) :   0.9943
B(  1-C , 11-O ) :   0.9903 B(  3-C ,  4-H ) :   0.9000 B(  3-C ,  5-C ) :   0.9648
B(  3-C , 15-O ) :   1.0793 B(  5-C ,  6-H ) :   0.8948 B(  5-C ,  7-C ) :   0.9417
B(  5-C , 14-O ) :   1.0928 B(  7-C ,  8-H ) :   0.8983 B(  7-C ,  9-C ) :   0.9875
B(  7-C , 13-O ) :   1.0738 B(  9-C , 10-H ) :   0.9001 B(  9-C , 11-O ) :   1.0887
B(  9-C , 12-O ) :   1.0366 B( 12-O , 19-H ) :   0.8331 B( 12-O , 23-H ) :   0.1406
B( 13-O , 20-H ) :   0.8456 B( 14-O , 21-H ) :   0.7730 B( 15-O , 22-H ) :   0.8468
B( 16-O , 21-H ) :   0.1625 B( 16-O , 23-H ) :   0.7602

Dispersion correction           -0.026157867
FINAL SINGLE POINT ENERGY      -685.698262581519

DIPOLE MOMENT
-------------

Method             : SCF
Type of density    : Electron Density
Multiplicity       :   1
Irrep              :   0
Energy             :  -685.8317690380952172 Eh
Relativity type    :
Basis              : AO
                                X                 Y                 Z
Electronic contribution:      2.194435020      -0.538601803       1.101363891
Nuclear contribution   :     -2.057363797       0.237576099      -0.998730572
                        -----------------------------------------
Total Dipole Moment    :      0.137071223      -0.301025704       0.102633319
                        -----------------------------------------
Magnitude (a.u.)       :      0.346321517
Magnitude (Debye)      :      0.880279339

Rotational constants in cm-1:             0.036913             0.031805             0.027481
Rotational constants in MHz :          1106.638558           953.475939           823.872094

                             ****ORCA TERMINATED NORMALLY****
TOTAL RUN TIME: 0 days 0 hours 0 minutes 12 seconds 292 msec
