                         Program Version 6.0.0  -   RELEASE  -
|  1> ! wb97x-v def2-tzvp def2/J RIJCOSX DEFGRID2 scfconv7 GCP(DFT/TZ) printgap
|  2> %output
|  3>     printlevel normal
|  4> end
|  5> * xyz 0 1
|  6> C -3.450734149136826 -1.196696019754661 -0.0026764396343965722
|  7> C -2.062688605629423 -0.6176133785541432 0.0024266177496694266
|  8> C -1.8735503848937507 0.7855378997444079 0.0005506615602712756
|  9> C -0.6232216404322248 1.3705080070278293 -0.0005370209712924071
| 10> C 0.5308273013951914 0.5305665749237296 -0.00022085780912241187
| 11> C 1.8509960228497195 1.0479281410065489 -0.0001076551793243121
| 12> C 2.9417433675105786 0.20861532190598256 -0.000189485774523675
| 13> C 2.7650273262449567 -1.1916510827770657 -0.00042801815213516255
| 14> C 1.4991338043529214 -1.7273715863200232 0.00031758907599618375
| 15> C 0.3535612255447544 -0.8915820328129234 0.0007879290062464813
| 16> C -0.9523959406562928 -1.4341625195814869 0.0030052093438694086
| 17> C -0.4832964349673333 2.8653728008131085 -0.0006044665020933963
| 18> H -4.208602585121949 -0.4126212103502725 0.06707009980705719
| 19> H -3.63468237705794 -1.7651892141508476 -0.9209588275072501
| 20> H -3.5928121663546717 -1.886676161293736 0.8356153209705516
| 21> H -2.7522636807446985 1.4261949034524501 0.0009818922497409311
| 22> H 2.002020643442657 2.1220460000586634 4.329226456038945e-05
| 23> H 3.9450501230790707 0.6231814580344387 -9.819263586412272e-05
| 24> H 3.6332833383203034 -1.8434107327340066 -0.0010365679962250774
| 25> H 1.3551236073976942 -2.8045101750203174 0.0003921697954302524
| 26> H -1.0677331642227426 -2.5157294803082264 0.004611797143333978
| 27> H 0.06327051292961458 3.216949895753079 0.8819522469075499
| 28> H 0.07036123820914876 3.2163552530566313 -0.8789021433129173
| 29> H -1.4659760336280554 3.342335738977824 -0.004675871271880339
| 30> *
| 31>
| 32>                          ****END OF INPUT****

CARTESIAN COORDINATES (ANGSTROEM)
---------------------------------
  C     -3.450734   -1.196696   -0.002676
  C     -2.062689   -0.617613    0.002427
  C     -1.873550    0.785538    0.000551
  C     -0.623222    1.370508   -0.000537
  C      0.530827    0.530567   -0.000221
  C      1.850996    1.047928   -0.000108
  C      2.941743    0.208615   -0.000189
  C      2.765027   -1.191651   -0.000428
  C      1.499134   -1.727372    0.000318
  C      0.353561   -0.891582    0.000788
  C     -0.952396   -1.434163    0.003005
  C     -0.483296    2.865373   -0.000604
  H     -4.208603   -0.412621    0.067070
  H     -3.634682   -1.765189   -0.920959
  H     -3.592812   -1.886676    0.835615
  H     -2.752264    1.426195    0.000982
  H      2.002021    2.122046    0.000043
  H      3.945050    0.623181   -0.000098
  H      3.633283   -1.843411   -0.001037
  H      1.355124   -2.804510    0.000392
  H     -1.067733   -2.515729    0.004612
  H      0.063271    3.216950    0.881952
  H      0.070361    3.216355   -0.878902
  H     -1.465976    3.342336   -0.004676

 Total Charge           Charge          ....    0
 Multiplicity           Mult            ....    1
 Number of Electrons    NEL             ....   84
 Basis Dimension        Dim             ....  444

ORBITAL ENERGIES
----------------

  NO   OCC          E(Eh)            E(eV)
   0   2.0000     -12.060652      -328.1870
   1   2.0000     -12.058346      -328.1243
   2   2.0000     -12.058117      -328.1180
   3   2.0000     -12.055208      -328.0389
   4   2.0000     -12.050993      -327.9242
   5   2.0000     -12.050368      -327.9072
   6   2.0000     -12.048944      -327.8684
   7   2.0000     -12.047720      -327.8351
   8   2.0000     -12.044659      -327.7518
   9   2.0000     -12.044068      -327.7358
  10   2.0000     -12.043112      -327.7097
  11   2.0000     -12.042508      -327.6933
  12   2.0000      -1.400268       -38.1032
  13   2.0000      -1.351605       -36.7790
  14   2.0000      -1.313407       -35.7396
  15   2.0000      -1.279082       -34.8056
  16   2.0000      -1.258559       -34.2471
  17   2.0000      -1.197515       -32.5860
  18   2.0000      -1.190599       -32.3978
  19   2.0000      -1.123730       -30.5783
  20   2.0000      -1.104207       -30.0470
  21   2.0000      -1.065853       -29.0033
  22   2.0000      -0.993098       -27.0236
  23   2.0000      -0.981304       -26.7026
  24   2.0000      -0.963296       -26.2126
  25   2.0000      -0.911758       -24.8102
  26   2.0000      -0.899721       -24.4827
  27   2.0000      -0.891324       -24.2542
  28   2.0000      -0.873870       -23.7792
  29   2.0000      -0.857133       -23.3238
  30   2.0000      -0.843368       -22.9492
  31   2.0000      -0.834183       -22.6993
  32   2.0000      -0.834154       -22.6985
  33   2.0000      -0.830528       -22.5998
  34   2.0000      -0.812272       -22.1031
  35   2.0000      -0.807214       -21.9654
  36   2.0000      -0.791331       -21.5332
  37   2.0000      -0.783191       -21.3117
  38   2.0000      -0.716022       -19.4840
  39   2.0000      -0.672329       -18.2950
  40   2.0000      -0.623165       -16.9572
  41   2.0000      -0.592064       -16.1109
  42   0.0000      -0.281239        -7.6529
  43   0.0000      -0.253451        -6.8967
  44   0.0000      -0.195509        -5.3201
  45   0.0000      -0.129490        -3.5236
  46   0.0000      -0.057987        -1.5779

MULLIKEN ATOMIC CHARGES
-----------------------
   0 C :   -0.374472
   1 C :    0.215553
   2 C :   -0.296632
   3 C :    0.148565
   4 C :    0.049193
   5 C :   -0.231525
   6 C :   -0.138134
   7 C :   -0.099883
   8 C :   -0.213830
   9 C :    0.238804
  10 C :   -0.333091
  11 C :   -0.387801
  12 H :    0.116821
  13 H :    0.124979
  14 H :    0.124235
  15 H :    0.103168
  16 H :    0.127413
  17 H :    0.115177
  18 H :    0.115374
  19 H :    0.110578
  20 H :    0.105840
  21 H :    0.130510
  22 H :    0.130326
  23 H :    0.118834
Sum of atomic charges:    0.0000000

LOEWDIN ATOMIC CHARGES
----------------------
   0 C :   -0.251268
   1 C :   -0.167392
   2 C :   -0.096618
   3 C :   -0.127410
   4 C :   -0.067637
   5 C :   -0.102384
   6 C :   -0.143435
   7 C :   -0.142576
   8 C :   -0.101370
   9 C :   -0.088374
  10 C :   -0.084358
  11 C :   -0.250651
  12 H :    0.123144
  13 H :    0.128111
  14 H :    0.127633
  15 H :    0.144254
  16 H :    0.146640
  17 H :    0.141064
  18 H :    0.141268
  19 H :    0.144472
  20 H :    0.146419
  21 H :    0.127642
  22 H :    0.127576
  23 H :    0.125248

  Mayer bond orders larger than 0.100000
B(  0-C ,  1-C ) :   0.8991 B(  0-C , 12-H ) :   0.9995 B(  0-C , 13-H ) :   0.9732
B(  0-C , 14-H ) :   0.9794 B(  1-C ,  2-C ) :   1.2608 B(  1-C , 10-C ) :   1.5127
B(  2-C ,  3-C ) :   1.5769 B(  2-C , 15-H ) :   0.9529 B(  3-C ,  4-C ) :   1.1665
B(  3-C , 11-C ) :   0.9064 B(  4-C ,  5-C ) :   1.2119 B(  4-C ,  9-C ) :   1.2806
B(  5-C ,  6-C ) :   1.6019 B(  5-C , 16-H ) :   0.9688 B(  6-C ,  7-C ) :   1.2741
B(  6-C , 17-H ) :   0.9756 B(  7-C ,  8-C ) :   1.5693 B(  7-C , 18-H ) :   0.9776
B(  8-C ,  9-C ) :   1.2157 B(  8-C , 19-H ) :   0.9828 B(  9-C , 10-C ) :   1.2021
B( 10-C , 20-H ) :   0.9890 B( 11-C , 21-H ) :   0.9813 B( 11-C , 22-H ) :   0.9816
B( 11-C , 23-H ) :   0.9908

FINAL SINGLE POINT ENERGY      -464.539803252061

DIPOLE MOMENT
-------------

Method             : SCF
Type of density    : Electron Density
Multiplicity       :   1
Irrep              :   0
Energy             :  -464.5531663724613054 Eh
Relativity type    :
Basis              : AO
                                X                 Y                 Z
Electronic contribution:      5.152720695      -2.484863610       0.011592763
Nuclear contribution   :     -5.321640247       2.570192195      -0.014998772
                        -----------------------------------------
Total Dipole Moment    :     -0.168919552       0.085328585      -0.003406009
                        -----------------------------------------
Magnitude (a.u.)       :      0.189278587
Magnitude (Debye)      :      0.481107933

Rotational constants in cm-1:             0.052441             0.027339             0.018091
Rotational constants in MHz :          1572.145332           819.600301           542.355781

                             ****ORCA TERMINATED NORMALLY****
TOTAL RUN TIME: 0 days 0 hours 7 minutes 0 seconds 287 msec
