                         Program Version 6.0.0  -   RELEASE  -
|  1> ! wb97x-v def2-tzvp def2/J RIJCOSX DEFGRID2 scfconv7 GCP(DFT/TZ) printgap
|  2> %output
|  3>     printlevel normal
|  4> end
|  5> %cpcm
|  6>     smd true
|  7>     smdsolvent "water"
|  8> end
|  9> * xyz 0 1
| 10> C -3.450734149136826 -1.196696019754661 -0.0026764396343965722
| 11> C -2.062688605629423 -0.6176133785541432 0.0024266177496694266
| 12> C -1.8735503848937507 0.7855378997444079 0.0005506615602712756
| 13> C -0.6232216404322248 1.3705080070278293 -0.0005370209712924071
| 14> C 0.5308273013951914 0.5305665749237296 -0.00022085780912241187
| 15> C 1.8509960228497195 1.0479281410065489 -0.0001076551793243121
| 16> C 2.9417433675105786 0.20861532190598256 -0.000189485774523675
| 17> C 2.7650273262449567 -1.1916510827770657 -0.00042801815213516255
| 18> C 1.4991338043529214 -1.7273715863200232 0.00031758907599618375
| 19> C 0.3535612255447544 -0.8915820328129234 0.0007879290062464813
| 20> C -0.9523959406562928 -1.4341625195814869 0.0030052093438694086
| 21> C -0.4832964349673333 2.8653728008131085 -0.0006044665020933963
| 22> H -4.208602585121949 -0.4126212103502725 0.06707009980705719
| 23> H -3.63468237705794 -1.7651892141508476 -0.9209588275072501
| 24> H -3.5928121663546717 -1.886676161293736 0.8356153209705516
| 25> H -2.7522636807446985 1.4261949034524501 0.0009818922497409311
| 26> H 2.002020643442657 2.1220460000586634 4.329226456038945e-05
| 27> H 3.9450501230790707 0.6231814580344387 -9.819263586412272e-05
| 28> H 3.6332833383203034 -1.8434107327340066 -0.0010365679962250774
| 29> H 1.3551236073976942 -2.8045101750203174 0.0003921697954302524
| 30> H -1.0677331642227426 -2.5157294803082264 0.004611797143333978
| 31> H 0.06327051292961458 3.216949895753079 0.8819522469075499
| 32> H 0.07036123820914876 3.2163552530566313 -0.8789021433129173
| 33> H -1.4659760336280554 3.342335738977824 -0.004675871271880339
| 34> *
| 35>
| 36>                          ****END OF INPUT****

CARTESIAN COORDINATES (ANGSTROEM)
---------------------------------
  C     -3.450734   -1.196696   -0.002676
  C     -2.062689   -0.617613    0.002427
  C     -1.873550    0.785538    0.000551
  C     -0.623222    1.370508   -0.000537
  C      0.530827    0.530567   -0.000221
  C      1.850996    1.047928   -0.000108
  C      2.941743    0.208615   -0.000189
  C      2.765027   -1.191651   -0.000428
  C      1.499134   -1.727372    0.000318
  C      0.353561   -0.891582    0.000788
  C     -0.952396   -1.434163    0.003005
  C     -0.483296    2.865373   -0.000604
  H     -4.208603   -0.412621    0.067070
  H     -3.634682   -1.765189   -0.920959
  H     -3.592812   -1.886676    0.835615
  H     -2.752264    1.426195    0.000982
  H      2.002021    2.122046    0.000043
  H      3.945050    0.623181   -0.000098
  H      3.633283   -1.843411   -0.001037
  H      1.355124   -2.804510    0.000392
  H     -1.067733   -2.515729    0.004612
  H      0.063271    3.216950    0.881952
  H      0.070361    3.216355   -0.878902
  H     -1.465976    3.342336   -0.004676

 Total Charge           Charge          ....    0
 Multiplicity           Mult            ....    1
 Number of Electrons    NEL             ....   84
 Basis Dimension        Dim             ....  444

ORBITAL ENERGIES
----------------

  NO   OCC          E(Eh)            E(eV)
   0   2.0000     -12.060189      -328.1744
   1   2.0000     -12.059635      -328.1593
   2   2.0000     -12.057655      -328.1055
   3   2.0000     -12.056192      -328.0657
   4   2.0000     -12.050129      -327.9007
   5   2.0000     -12.049547      -327.8849
   6   2.0000     -12.048136      -327.8465
   7   2.0000     -12.046790      -327.8098
   8   2.0000     -12.042031      -327.6803
   9   2.0000     -12.040669      -327.6433
  10   2.0000     -12.034008      -327.4620
  11   2.0000     -12.033354      -327.4442
  12   2.0000      -1.401535       -38.1377
  13   2.0000      -1.351724       -36.7823
  14   2.0000      -1.312367       -35.7113
  15   2.0000      -1.278731       -34.7960
  16   2.0000      -1.257920       -34.2297
  17   2.0000      -1.191595       -32.4249
  18   2.0000      -1.186699       -32.2917
  19   2.0000      -1.123144       -30.5623
  20   2.0000      -1.102695       -30.0058
  21   2.0000      -1.063700       -28.9447
  22   2.0000      -0.991359       -26.9763
  23   2.0000      -0.980140       -26.6710
  24   2.0000      -0.962440       -26.1893
  25   2.0000      -0.909923       -24.7603
  26   2.0000      -0.896909       -24.4061
  27   2.0000      -0.887359       -24.1463
  28   2.0000      -0.870057       -23.6755
  29   2.0000      -0.853231       -23.2176
  30   2.0000      -0.836956       -22.7747
  31   2.0000      -0.830043       -22.5866
  32   2.0000      -0.825577       -22.4651
  33   2.0000      -0.824299       -22.4303
  34   2.0000      -0.805156       -21.9094
  35   2.0000      -0.800573       -21.7847
  36   2.0000      -0.788028       -21.4433
  37   2.0000      -0.784345       -21.3431
  38   2.0000      -0.716728       -19.5032
  39   2.0000      -0.674005       -18.3406
  40   2.0000      -0.625336       -17.0163
  41   2.0000      -0.593017       -16.1368
  42   0.0000      -0.282001        -7.6736
  43   0.0000      -0.255468        -6.9516
  44   0.0000      -0.197004        -5.3608
  45   0.0000      -0.129510        -3.5241
  46   0.0000      -0.052412        -1.4262

MULLIKEN ATOMIC CHARGES
-----------------------
   0 C :   -0.402976
   1 C :    0.199848
   2 C :   -0.341580
   3 C :    0.124861
   4 C :    0.027618
   5 C :   -0.266229
   6 C :   -0.185006
   7 C :   -0.139978
   8 C :   -0.257591
   9 C :    0.213517
  10 C :   -0.377641
  11 C :   -0.408167
  12 H :    0.142521
  13 H :    0.141706
  14 H :    0.141883
  15 H :    0.151451
  16 H :    0.169646
  17 H :    0.159830
  18 H :    0.160241
  19 H :    0.157259
  20 H :    0.150355
  21 H :    0.146630
  22 H :    0.146570
  23 H :    0.145231
Sum of atomic charges:    0.0000000

LOEWDIN ATOMIC CHARGES
----------------------
   0 C :   -0.252548
   1 C :   -0.174578
   2 C :   -0.102300
   3 C :   -0.134713
   4 C :   -0.080997
   5 C :   -0.108445
   6 C :   -0.153208
   7 C :   -0.151425
   8 C :   -0.110434
   9 C :   -0.103739
  10 C :   -0.093616
  11 C :   -0.250899
  12 H :    0.129044
  13 H :    0.132700
  14 H :    0.132265
  15 H :    0.155363
  16 H :    0.157091
  17 H :    0.150738
  18 H :    0.151068
  19 H :    0.155160
  20 H :    0.156835
  21 H :    0.132930
  22 H :    0.132886
  23 H :    0.130823

  Mayer bond orders larger than 0.100000
B(  0-C ,  1-C ) :   0.9182 B(  0-C , 12-H ) :   0.9942 B(  0-C , 13-H ) :   0.9669
B(  0-C , 14-H ) :   0.9726 B(  1-C ,  2-C ) :   1.2412 B(  1-C , 10-C ) :   1.4884
B(  2-C ,  3-C ) :   1.5578 B(  2-C , 15-H ) :   0.9694 B(  3-C ,  4-C ) :   1.1594
B(  3-C , 11-C ) :   0.9332 B(  4-C ,  5-C ) :   1.2034 B(  4-C ,  9-C ) :   1.2488
B(  5-C ,  6-C ) :   1.5771 B(  5-C , 16-H ) :   0.9760 B(  6-C ,  7-C ) :   1.2545
B(  6-C , 17-H ) :   0.9804 B(  7-C ,  8-C ) :   1.5485 B(  7-C , 18-H ) :   0.9804
B(  8-C ,  9-C ) :   1.2053 B(  8-C , 19-H ) :   0.9881 B(  9-C , 10-C ) :   1.1967
B( 10-C , 20-H ) :   1.0015 B( 11-C , 21-H ) :   0.9733 B( 11-C , 22-H ) :   0.9736
B( 11-C , 23-H ) :   0.9837

FINAL SINGLE POINT ENERGY      -464.542649789605

DIPOLE MOMENT
-------------

Method             : SCF
Type of density    : Electron Density
Multiplicity       :   1
Irrep              :   0
Energy             :  -464.5560129100051086 Eh
Relativity type    :
Basis              : AO
                                X                 Y                 Z
Electronic contribution:      5.070042318      -2.417313768       0.010229199
Nuclear contribution   :     -5.321640247       2.570192195      -0.014998772
                        -----------------------------------------
Total Dipole Moment    :     -0.251597929       0.152878427      -0.004769573
                        -----------------------------------------
Magnitude (a.u.)       :      0.294441981
Magnitude (Debye)      :      0.748412038

Rotational constants in cm-1:             0.052441             0.027339             0.018091
Rotational constants in MHz :          1572.145332           819.600301           542.355781

                             ****ORCA TERMINATED NORMALLY****
TOTAL RUN TIME: 0 days 0 hours 7 minutes 48 seconds 434 msec
