                         Program Version 6.0.0  -   RELEASE  -
|  1> ! pbe def2-sv(p) def2/J RI DEFGRID1 loosescf d4 GCP(DFT/SV(P)) printgap
|  2> %output
|  3>     printlevel normal
|  4> end
|  5> * xyz 0 1
|  6> C -2.5142905551 -0.5905345844 -0.2619689219
|  7> C -1.263498166 -0.4438830339 0.6197525805
|  8> H -1.4961336109 -0.7650416625 1.6470239436
|  9> C -0.7439459404 1.0036697946 0.7342322425
| 10> H -1.5842416459 1.6920977513 0.5573421398
| 11> C 0.3442887606 1.3170316268 -0.3095506276
| 12> H 0.7992231211 2.281590547 -0.0456043035
| 13> C 1.4876615272 0.2645808816 -0.2828552241
| 14> H 1.7412896514 0.0081986664 -1.3197459562
| 15> C 1.0307477353 -1.0306501753 0.4035352983
| 16> H 1.1141288455 -0.8937843055 1.4975611255
| 17> O -0.3036400063 -1.3275021888 0.0579204739
| 18> O 1.8228078742 -2.0660652834 -0.0491671947
| 19> O 2.6117584934 0.732891292 0.4186676187
| 20> O -0.1931151008 1.4936077875 -1.5928048376
| 21> O -0.2681799259 1.1516093171 2.0529325244
| 22> O -2.2030517071 -0.442416781 -1.627625131
| 23> H -3.2425566123 0.1828056937 -0.0163523156
| 24> H -2.9570154176 -1.5740508831 -0.0798020527
| 25> H 1.5166469478 -2.9052226326 0.3295099248
| 26> H 3.1270869914 1.3252417281 -0.1471209907
| 27> H -0.9156251972 0.84790518 -1.7517435606
| 28> H 0.030692035 2.0603150411 2.200812303
| 29> H -1.6434713254 -1.1910576965 -1.8865623446
| 30> *
| 31>
| 32>                          ****END OF INPUT****

CARTESIAN COORDINATES (ANGSTROEM)
---------------------------------
  C     -2.514291   -0.590535   -0.261969
  C     -1.263498   -0.443883    0.619753
  H     -1.496134   -0.765042    1.647024
  C     -0.743946    1.003670    0.734232
  H     -1.584242    1.692098    0.557342
  C      0.344289    1.317032   -0.309551
  H      0.799223    2.281591   -0.045604
  C      1.487662    0.264581   -0.282855
  H      1.741290    0.008199   -1.319746
  C      1.030748   -1.030650    0.403535
  H      1.114129   -0.893784    1.497561
  O     -0.303640   -1.327502    0.057920
  O      1.822808   -2.066065   -0.049167
  O      2.611758    0.732891    0.418668
  O     -0.193115    1.493608   -1.592805
  O     -0.268180    1.151609    2.052933
  O     -2.203052   -0.442417   -1.627625
  H     -3.242557    0.182806   -0.016352
  H     -2.957015   -1.574051   -0.079802
  H      1.516647   -2.905223    0.329510
  H      3.127087    1.325242   -0.147121
  H     -0.915625    0.847905   -1.751744
  H      0.030692    2.060315    2.200812
  H     -1.643471   -1.191058   -1.886562

 Total Charge           Charge          ....    0
 Multiplicity           Mult            ....    1
 Number of Electrons    NEL             ....   96
 Basis Dimension        Dim             ....  192

ORBITAL ENERGIES
----------------

  NO   OCC          E(Eh)            E(eV)
   0   2.0000     -18.780147      -511.0338
   1   2.0000     -18.773889      -510.8635
   2   2.0000     -18.757783      -510.4252
   3   2.0000     -18.754566      -510.3377
   4   2.0000     -18.744871      -510.0739
   5   2.0000     -18.727354      -509.5972
   6   2.0000      -9.978902      -271.5397
   7   2.0000      -9.951232      -270.7868
   8   2.0000      -9.949797      -270.7477
   9   2.0000      -9.946817      -270.6666
  10   2.0000      -9.933294      -270.2987
  11   2.0000      -9.928526      -270.1689
  12   2.0000      -0.984516       -26.7900
  13   2.0000      -0.953085       -25.9348
  14   2.0000      -0.936781       -25.4911
  15   2.0000      -0.923640       -25.1335
  16   2.0000      -0.910637       -24.7797
  17   2.0000      -0.903563       -24.5872
  18   2.0000      -0.704131       -19.1604
  19   2.0000      -0.681607       -18.5475
  20   2.0000      -0.623290       -16.9606
  21   2.0000      -0.589186       -16.0326
  22   2.0000      -0.569358       -15.4930
  23   2.0000      -0.509373       -13.8608
  24   2.0000      -0.499140       -13.5823
  25   2.0000      -0.491257       -13.3678
  26   2.0000      -0.474779       -12.9194
  27   2.0000      -0.471481       -12.8297
  28   2.0000      -0.456361       -12.4182
  29   2.0000      -0.428375       -11.6567
  30   2.0000      -0.411815       -11.2060
  31   2.0000      -0.403626       -10.9832
  32   2.0000      -0.390001       -10.6125
  33   2.0000      -0.375180       -10.2092
  34   2.0000      -0.360265        -9.8033
  35   2.0000      -0.352599        -9.5947
  36   2.0000      -0.323272        -8.7967
  37   2.0000      -0.310099        -8.4382
  38   2.0000      -0.309330        -8.4173
  39   2.0000      -0.291719        -7.9381
  40   2.0000      -0.286084        -7.7847
  41   2.0000      -0.271717        -7.3938
  42   2.0000      -0.245271        -6.6741
  43   2.0000      -0.243535        -6.6269
  44   2.0000      -0.236218        -6.4278
  45   2.0000      -0.228364        -6.2141
  46   2.0000      -0.213802        -5.8179
  47   2.0000      -0.189514        -5.1569
  48   0.0000       0.018198         0.4952
  49   0.0000       0.021342         0.5808
  50   0.0000       0.036001         0.9796
  51   0.0000       0.039160         1.0656
  52   0.0000       0.055859         1.5200

MULLIKEN ATOMIC CHARGES
-----------------------
   0 C :    0.049561
   1 C :    0.026808
   2 H :    0.081774
   3 C :   -0.022113
   4 H :    0.071690
   5 C :    0.082074
   6 H :    0.035037
   7 C :    0.058222
   8 H :    0.059479
   9 C :    0.182916
  10 H :    0.061867
  11 O :   -0.338134
  12 O :   -0.372344
  13 O :   -0.415028
  14 O :   -0.434409
  15 O :   -0.406346
  16 O :   -0.433459
  17 H :    0.103334
  18 H :    0.095274
  19 H :    0.300490
  20 H :    0.303390
  21 H :    0.287123
  22 H :    0.305117
  23 H :    0.317676
Sum of atomic charges:    0.0000000

LOEWDIN ATOMIC CHARGES
----------------------
   0 C :   -0.123735
   1 C :   -0.068396
   2 H :    0.115675
   3 C :   -0.080416
   4 H :    0.103626
   5 C :   -0.077221
   6 H :    0.102239
   7 C :   -0.083537
   8 H :    0.110082
   9 C :   -0.000044
  10 H :    0.092134
  11 O :   -0.167696
  12 O :   -0.291077
  13 O :   -0.317637
  14 O :   -0.337182
  15 O :   -0.313958
  16 O :   -0.310472
  17 H :    0.121802
  18 H :    0.110828
  19 H :    0.286084
  20 H :    0.288776
  21 H :    0.262448
  22 H :    0.287978
  23 H :    0.289698

  Mayer bond orders larger than 0.100000
B(  0-C ,  1-C ) :   1.0361 B(  0-C , 16-O ) :   1.0286 B(  0-C , 17-H ) :   0.9246
B(  0-C , 18-H ) :   0.9221 B(  1-C ,  2-H ) :   0.8884 B(  1-C ,  3-C ) :   0.9616
B(  1-C , 11-O ) :   1.0027 B(  3-C ,  4-H ) :   0.8968 B(  3-C ,  5-C ) :   1.0175
B(  3-C , 15-O ) :   1.0524 B(  5-C ,  6-H ) :   0.8832 B(  5-C ,  7-C ) :   0.9165
B(  5-C , 14-O ) :   1.0905 B(  7-C ,  8-H ) :   0.8758 B(  7-C ,  9-C ) :   1.0260
B(  7-C , 13-O ) :   1.0840 B(  9-C , 10-H ) :   0.8753 B(  9-C , 11-O ) :   1.0068
B(  9-C , 12-O ) :   1.1859 B( 12-O , 19-H ) :   0.8430 B( 13-O , 20-H ) :   0.8488
B( 14-O , 21-H ) :   0.7768 B( 15-O , 22-H ) :   0.8434 B( 16-O , 21-H ) :   0.1610
B( 16-O , 23-H ) :   0.8217

Dispersion correction           -0.025212136
FINAL SINGLE POINT ENERGY      -685.694166868463

DIPOLE MOMENT
-------------

Method             : SCF
Type of density    : Electron Density
Multiplicity       :   1
Irrep              :   0
Energy             :  -685.8258461246933848 Eh
Relativity type    :
Basis              : AO
                                X                 Y                 Z
Electronic contribution:      2.790028041      -1.195506790      -0.499718875
Nuclear contribution   :     -3.271228171       0.996118245       0.913431965
                        -----------------------------------------
Total Dipole Moment    :     -0.481200129      -0.199388546       0.413713090
                        -----------------------------------------
Magnitude (a.u.)       :      0.665182590
Magnitude (Debye)      :      1.690759776

Rotational constants in cm-1:             0.040090             0.027381             0.024254
Rotational constants in MHz :          1201.880971           820.872061           727.102921

                             ****ORCA TERMINATED NORMALLY****
TOTAL RUN TIME: 0 days 0 hours 0 minutes 12 seconds 221 msec
