                         Program Version 6.0.0  -   RELEASE  -
|  1> ! r2scan-3c def2/J RI DEFGRID2 scfconv6 printgap
|  2> %output
|  3>     printlevel normal
|  4> end
|  5> * xyz 0 1
|  6> C -1.1215698058 -1.3623794063 -0.435676732
|  7> C -0.6827023171 -0.1810216082 0.4327137548
|  8> C -1.5552839171 1.0426398158 0.2172238765
|  9> N 0.7104714113 0.1015773293 0.0513477117
| 10> O 0.9256802073 0.8739486923 -0.8568889327
| 11> O 1.5837420162 -0.4986297299 0.6485537229
| 12> H -0.4622703474 -2.2140688535 -0.2850199824
| 13> H -2.131873672 -1.6495038391 -0.1626661119
| 14> H -1.1063295058 -1.081392805 -1.4861578994
| 15> H -0.6528738353 -0.4845006581 1.4824222609
| 16> H -2.5803627866 0.8042443762 0.480934628
| 17> H -1.5207357796 1.3519123317 -0.8240318482
| 18> H -1.2186267486 1.8713093302 0.8347952749
| 19> *
| 20>
| 21>                          ****END OF INPUT****

CARTESIAN COORDINATES (ANGSTROEM)
---------------------------------
  C     -1.121570   -1.362379   -0.435677
  C     -0.682702   -0.181022    0.432714
  C     -1.555284    1.042640    0.217224
  N      0.710471    0.101577    0.051348
  O      0.925680    0.873949   -0.856889
  O      1.583742   -0.498630    0.648554
  H     -0.462270   -2.214069   -0.285020
  H     -2.131874   -1.649504   -0.162666
  H     -1.106330   -1.081393   -1.486158
  H     -0.652874   -0.484501    1.482422
  H     -2.580363    0.804244    0.480935
  H     -1.520736    1.351912   -0.824032
  H     -1.218627    1.871309    0.834795

 Total Charge           Charge          ....    0
 Multiplicity           Mult            ....    1
 Number of Electrons    NEL             ....   48
 Basis Dimension        Dim             ....  164

ORBITAL ENERGIES
----------------

  NO   OCC          E(Eh)            E(eV)
   0   2.0000     -18.983814      -516.5758
   1   2.0000     -18.980679      -516.4905
   2   2.0000     -14.385798      -391.4575
   3   2.0000     -10.104355      -274.9535
   4   2.0000     -10.051360      -273.5114
   5   2.0000     -10.044319      -273.3198
   6   2.0000      -1.203960       -32.7614
   7   2.0000      -1.025198       -27.8971
   8   2.0000      -0.824927       -22.4474
   9   2.0000      -0.685744       -18.6600
  10   2.0000      -0.677184       -18.4271
  11   2.0000      -0.552125       -15.0241
  12   2.0000      -0.518662       -14.1135
  13   2.0000      -0.501768       -13.6538
  14   2.0000      -0.482688       -13.1346
  15   2.0000      -0.441487       -12.0135
  16   2.0000      -0.398303       -10.8384
  17   2.0000      -0.391656       -10.6575
  18   2.0000      -0.381154       -10.3717
  19   2.0000      -0.346448        -9.4273
  20   2.0000      -0.342352        -9.3159
  21   2.0000      -0.290426        -7.9029
  22   2.0000      -0.272355        -7.4112
  23   2.0000      -0.255051        -6.9403
  24   0.0000      -0.097832        -2.6621
  25   0.0000       0.069587         1.8936
  26   0.0000       0.094875         2.5817
  27   0.0000       0.113576         3.0906
  28   0.0000       0.119750         3.2586

MULLIKEN ATOMIC CHARGES
-----------------------
   0 C :   -0.473918
   1 C :   -0.118445
   2 C :   -0.437192
   3 N :    0.250036
   4 O :   -0.191892
   5 O :   -0.197641
   6 H :    0.169538
   7 H :    0.159214
   8 H :    0.167158
   9 H :    0.186180
  10 H :    0.150955
  11 H :    0.177056
  12 H :    0.158953
Sum of atomic charges:    0.0000000

LOEWDIN ATOMIC CHARGES
----------------------
   0 C :   -0.346333
   1 C :    0.059922
   2 C :   -0.362896
   3 N :   -0.542863
   4 O :   -0.007367
   5 O :   -0.006441
   6 H :    0.170040
   7 H :    0.162750
   8 H :    0.168423
   9 H :    0.201931
  10 H :    0.161080
  11 H :    0.176296
  12 H :    0.165459

  Mayer bond orders larger than 0.100000
B(  0-C ,  1-C ) :   0.9188 B(  0-C ,  6-H ) :   0.9619 B(  0-C ,  7-H ) :   0.9710
B(  0-C ,  8-H ) :   0.9654 B(  1-C ,  2-C ) :   0.9302 B(  1-C ,  3-N ) :   0.8253
B(  1-C ,  5-O ) :   0.1071 B(  1-C ,  9-H ) :   0.9454 B(  2-C , 10-H ) :   0.9660
B(  2-C , 11-H ) :   0.9633 B(  2-C , 12-H ) :   0.9667 B(  3-N ,  4-O ) :   1.8510
B(  3-N ,  5-O ) :   1.8445 B(  4-O ,  5-O ) :   0.2747

Dispersion correction           -0.003007480
FINAL SINGLE POINT ENERGY      -323.585714183876

DIPOLE MOMENT
-------------

Method             : SCF
Type of density    : Electron Density
Multiplicity       :   1
Irrep              :   0
Energy             :  -323.5950625970201600 Eh
Relativity type    :
Basis              : AO
                                X                 Y                 Z
Electronic contribution:      7.591241076       1.054097609       0.224667495
Nuclear contribution   :     -9.033855849      -1.309188407       0.034976167
                        -----------------------------------------
Total Dipole Moment    :     -1.442614773      -0.255090798       0.259643662
                        -----------------------------------------
Magnitude (a.u.)       :      1.487825100
Magnitude (Debye)      :      3.781750865

Rotational constants in cm-1:             0.173980             0.107604             0.086114
Rotational constants in MHz :          5215.798816          3225.899492          2581.634835

                             ****ORCA TERMINATED NORMALLY****
TOTAL RUN TIME: 0 days 0 hours 0 minutes 21 seconds 172 msec
