                         Program Version 6.0.0  -   RELEASE  -
|  1> ! r2scan-3c def2/J RI DEFGRID2 scfconv6 printgap
|  2> %output
|  3>     printlevel normal
|  4> end
|  5> %cpcm
|  6>     smd true
|  7>     smdsolvent "water"
|  8> end
|  9> * xyz 0 1
| 10> C -1.1215698058 -1.3623794063 -0.435676732
| 11> C -0.6827023171 -0.1810216082 0.4327137548
| 12> C -1.5552839171 1.0426398158 0.2172238765
| 13> N 0.7104714113 0.1015773293 0.0513477117
| 14> O 0.9256802073 0.8739486923 -0.8568889327
| 15> O 1.5837420162 -0.4986297299 0.6485537229
| 16> H -0.4622703474 -2.2140688535 -0.2850199824
| 17> H -2.131873672 -1.6495038391 -0.1626661119
| 18> H -1.1063295058 -1.081392805 -1.4861578994
| 19> H -0.6528738353 -0.4845006581 1.4824222609
| 20> H -2.5803627866 0.8042443762 0.480934628
| 21> H -1.5207357796 1.3519123317 -0.8240318482
| 22> H -1.2186267486 1.8713093302 0.8347952749
| 23> *
| 24>
| 25>                          ****END OF INPUT****

CARTESIAN COORDINATES (ANGSTROEM)
---------------------------------
  C     -1.121570   -1.362379   -0.435677
  C     -0.682702   -0.181022    0.432714
  C     -1.555284    1.042640    0.217224
  N      0.710471    0.101577    0.051348
  O      0.925680    0.873949   -0.856889
  O      1.583742   -0.498630    0.648554
  H     -0.462270   -2.214069   -0.285020
  H     -2.131874   -1.649504   -0.162666
  H     -1.106330   -1.081393   -1.486158
  H     -0.652874   -0.484501    1.482422
  H     -2.580363    0.804244    0.480935
  H     -1.520736    1.351912   -0.824032
  H     -1.218627    1.871309    0.834795

 Total Charge           Charge          ....    0
 Multiplicity           Mult            ....    1
 Number of Electrons    NEL             ....   48
 Basis Dimension        Dim             ....  164

ORBITAL ENERGIES
----------------

  NO   OCC          E(Eh)            E(eV)
   0   2.0000     -18.995920      -516.9053
   1   2.0000     -18.994477      -516.8660
   2   2.0000     -14.394339      -391.6899
   3   2.0000     -10.090667      -274.5810
   4   2.0000     -10.030356      -272.9399
   5   2.0000     -10.024232      -272.7732
   6   2.0000      -1.214801       -33.0564
   7   2.0000      -1.037348       -28.2277
   8   2.0000      -0.814781       -22.1713
   9   2.0000      -0.669377       -18.2147
  10   2.0000      -0.665829       -18.1181
  11   2.0000      -0.556370       -15.1396
  12   2.0000      -0.521300       -14.1853
  13   2.0000      -0.503965       -13.7136
  14   2.0000      -0.489967       -13.3327
  15   2.0000      -0.425644       -11.5824
  16   2.0000      -0.380448       -10.3525
  17   2.0000      -0.374112       -10.1801
  18   2.0000      -0.360507        -9.8099
  19   2.0000      -0.328154        -8.9295
  20   2.0000      -0.324151        -8.8206
  21   2.0000      -0.304188        -8.2774
  22   2.0000      -0.283463        -7.7134
  23   2.0000      -0.269380        -7.3302
  24   0.0000      -0.107631        -2.9288
  25   0.0000       0.086225         2.3463
  26   0.0000       0.108650         2.9565
  27   0.0000       0.133854         3.6424
  28   0.0000       0.137156         3.7322

MULLIKEN ATOMIC CHARGES
-----------------------
   0 C :   -0.503284
   1 C :   -0.083991
   2 C :   -0.486731
   3 N :    0.290454
   4 O :   -0.244905
   5 O :   -0.258484
   6 H :    0.176039
   7 H :    0.186750
   8 H :    0.178720
   9 H :    0.212522
  10 H :    0.178594
  11 H :    0.177756
  12 H :    0.176560
Sum of atomic charges:    0.0000000

LOEWDIN ATOMIC CHARGES
----------------------
   0 C :   -0.343637
   1 C :    0.073519
   2 C :   -0.364017
   3 N :   -0.535227
   4 O :   -0.037329
   5 O :   -0.041963
   6 H :    0.171612
   7 H :    0.174325
   8 H :    0.171613
   9 H :    0.214306
  10 H :    0.172502
  11 H :    0.174621
  12 H :    0.169676

  Mayer bond orders larger than 0.100000
B(  0-C ,  1-C ) :   0.8919 B(  0-C ,  6-H ) :   0.9599 B(  0-C ,  7-H ) :   0.9614
B(  0-C ,  8-H ) :   0.9621 B(  1-C ,  2-C ) :   0.9091 B(  1-C ,  3-N ) :   0.8497
B(  1-C ,  9-H ) :   0.9346 B(  2-C , 10-H ) :   0.9584 B(  2-C , 11-H ) :   0.9638
B(  2-C , 12-H ) :   0.9664 B(  3-N ,  4-O ) :   1.8103 B(  3-N ,  5-O ) :   1.7952
B(  4-O ,  5-O ) :   0.2661

Dispersion correction           -0.003007480
FINAL SINGLE POINT ENERGY      -323.590457980183

DIPOLE MOMENT
-------------

Method             : SCF
Type of density    : Electron Density
Multiplicity       :   1
Irrep              :   0
Energy             :  -323.5998063933265030 Eh
Relativity type    :
Basis              : AO
                                X                 Y                 Z
Electronic contribution:      7.119213640       0.955899855       0.353834379
Nuclear contribution   :     -9.033855849      -1.309188407       0.034976167
                        -----------------------------------------
Total Dipole Moment    :     -1.914642209      -0.353288551       0.388810546
                        -----------------------------------------
Magnitude (a.u.)       :      1.985407069
Magnitude (Debye)      :      5.046503718

Rotational constants in cm-1:             0.173980             0.107604             0.086114
Rotational constants in MHz :          5215.798816          3225.899492          2581.634835

                             ****ORCA TERMINATED NORMALLY****
TOTAL RUN TIME: 0 days 0 hours 0 minutes 22 seconds 921 msec
