                         Program Version 6.0.0  -   RELEASE  -
|  1> ! pbe def2-sv(p) def2/J RI DEFGRID1 loosescf d4 GCP(DFT/SV(P)) printgap
|  2> %output
|  3>     printlevel normal
|  4> end
|  5> * xyz 0 1
|  6> C -2.6769834011 0.0002588078 -0.4071873284
|  7> C -2.0199229757 1.1985706532 -0.1822188581
|  8> C -0.7113310209 1.1988487405 0.2668143345
|  9> C -0.0466161197 -0.0002270025 0.4993401529
| 10> C -0.7116498154 -1.1990425956 0.2663903596
| 11> C -2.0202621367 -1.1983009627 -0.182606068
| 12> C 1.3729920565 -0.0005351612 0.9597000082
| 13> Cl 2.476113839 0.0001833654 -0.4829230834
| 14> H -3.6976459829 0.0004798991 -0.7580013329
| 15> H -2.5274203494 2.1349329824 -0.3573658221
| 16> H -0.1987226031 2.1336837424 0.4382705534
| 17> H -0.1993329331 -2.1340960037 0.4376007546
| 18> H -2.5278800351 -2.1344627964 -0.3585396005
| 19> H 1.6253666065 -0.8972780214 1.5212604422
| 20> H 1.6254110725 0.895384952 1.5225045066
| 21> *
| 22>
| 23>                          ****END OF INPUT****

CARTESIAN COORDINATES (ANGSTROEM)
---------------------------------
  C     -2.676983    0.000259   -0.407187
  C     -2.019923    1.198571   -0.182219
  C     -0.711331    1.198849    0.266814
  C     -0.046616   -0.000227    0.499340
  C     -0.711650   -1.199043    0.266390
  C     -2.020262   -1.198301   -0.182606
  C      1.372992   -0.000535    0.959700
  Cl     2.476114    0.000183   -0.482923
  H     -3.697646    0.000480   -0.758001
  H     -2.527420    2.134933   -0.357366
  H     -0.198723    2.133684    0.438271
  H     -0.199333   -2.134096    0.437601
  H     -2.527880   -2.134463   -0.358540
  H      1.625367   -0.897278    1.521260
  H      1.625411    0.895385    1.522505

 Total Charge           Charge          ....    0
 Multiplicity           Mult            ....    1
 Number of Electrons    NEL             ....   66
 Basis Dimension        Dim             ....  130

ORBITAL ENERGIES
----------------

  NO   OCC          E(Eh)            E(eV)
   0   2.0000    -100.615295     -2737.8814
   1   2.0000      -9.946065      -270.6462
   2   2.0000      -9.911561      -269.7073
   3   2.0000      -9.899560      -269.3807
   4   2.0000      -9.899498      -269.3790
   5   2.0000      -9.899416      -269.3768
   6   2.0000      -9.899132      -269.3691
   7   2.0000      -9.899105      -269.3683
   8   2.0000      -9.151017      -249.0118
   9   2.0000      -6.982807      -190.0118
  10   2.0000      -6.970590      -189.6794
  11   2.0000      -6.970537      -189.6780
  12   2.0000      -0.794405       -21.6169
  13   2.0000      -0.761726       -20.7276
  14   2.0000      -0.685881       -18.6638
  15   2.0000      -0.677815       -18.4443
  16   2.0000      -0.603323       -16.4172
  17   2.0000      -0.552298       -15.0288
  18   2.0000      -0.529437       -14.4067
  19   2.0000      -0.472380       -12.8541
  20   2.0000      -0.432753       -11.7758
  21   2.0000      -0.414766       -11.2864
  22   2.0000      -0.388090       -10.5605
  23   2.0000      -0.384188       -10.4543
  24   2.0000      -0.377152       -10.2628
  25   2.0000      -0.373296       -10.1579
  26   2.0000      -0.331662        -9.0250
  27   2.0000      -0.315658        -8.5895
  28   2.0000      -0.307054        -8.3554
  29   2.0000      -0.250515        -6.8169
  30   2.0000      -0.246043        -6.6952
  31   2.0000      -0.235247        -6.4014
  32   2.0000      -0.227667        -6.1951
  33   0.0000      -0.055051        -1.4980
  34   0.0000      -0.041629        -1.1328
  35   0.0000       0.019763         0.5378
  36   0.0000       0.036673         0.9979
  37   0.0000       0.061539         1.6746

MULLIKEN ATOMIC CHARGES
-----------------------
   0 C :   -0.045654
   1 C :   -0.049312
   2 C :   -0.091970
   3 C :    0.080619
   4 C :   -0.092002
   5 C :   -0.049313
   6 C :   -0.133215
   7 Cl:   -0.154361
   8 H :    0.057915
   9 H :    0.056715
  10 H :    0.045791
  11 H :    0.045794
  12 H :    0.056717
  13 H :    0.136131
  14 H :    0.136144
Sum of atomic charges:    0.0000000

LOEWDIN ATOMIC CHARGES
----------------------
   0 C :   -0.119451
   1 C :   -0.118924
   2 C :   -0.110540
   3 C :   -0.073053
   4 C :   -0.110545
   5 C :   -0.118927
   6 C :   -0.249843
   7 Cl:    0.015564
   8 H :    0.125518
   9 H :    0.125841
  10 H :    0.125013
  11 H :    0.125009
  12 H :    0.125842
  13 H :    0.129244
  14 H :    0.129251

  Mayer bond orders larger than 0.100000
B(  0-C ,  1-C ) :   1.3786 B(  0-C ,  5-C ) :   1.3786 B(  0-C ,  8-H ) :   0.9649
B(  1-C ,  2-C ) :   1.3815 B(  1-C ,  9-H ) :   0.9637 B(  2-C ,  3-C ) :   1.3818
B(  2-C , 10-H ) :   0.9631 B(  3-C ,  4-C ) :   1.3818 B(  3-C ,  6-C ) :   1.0558
B(  4-C ,  5-C ) :   1.3815 B(  4-C , 11-H ) :   0.9631 B(  5-C , 12-H ) :   0.9637
B(  6-C ,  7-Cl) :   1.0326 B(  6-C , 13-H ) :   0.9175 B(  6-C , 14-H ) :   0.9174

Dispersion correction           -0.016344091
FINAL SINGLE POINT ENERGY      -730.216209519155

DIPOLE MOMENT
-------------

Method             : SCF
Type of density    : Electron Density
Multiplicity       :   1
Irrep              :   0
Energy             :  -730.2550772017319787 Eh
Relativity type    :
Basis              : AO
                                X                 Y                 Z
Electronic contribution:      8.314789717       0.001291773      -2.485185010
Nuclear contribution   :     -8.858827325      -0.001517566       2.942690659
                        -----------------------------------------
Total Dipole Moment    :     -0.544037609      -0.000225793       0.457505649
                        -----------------------------------------
Magnitude (a.u.)       :      0.710836401
Magnitude (Debye)      :      1.806802543

Rotational constants in cm-1:             0.138477             0.033642             0.030244
Rotational constants in MHz :          4151.445701          1008.574384           906.697687

                             ****ORCA TERMINATED NORMALLY****
TOTAL RUN TIME: 0 days 0 hours 0 minutes 7 seconds 189 msec
