                         Program Version 6.0.0  -   RELEASE  -
|  1> ! wb97x-v def2-tzvp def2/J RIJCOSX DEFGRID2 scfconv7 GCP(DFT/TZ) printgap
|  2> %output
|  3>     printlevel normal
|  4> end
|  5> * xyz 0 1
|  6> C 1.2335820303577703 -0.01053079087214223 -1.6611294132579598e-06
|  7> S -0.6055407732387657 0.04662165447416106 9.903733111307753e-07
|  8> H 1.576999627732037 1.0262757266872533 -3.2359643673331154e-05
|  9> H 1.606377135940625 -0.5097444879046875 -0.8961530438262455
| 10> H 1.6063823279381517 -0.5096943450942171 0.8961755326440732
| 11> H -0.809465530757434 -1.2838252959343137 1.9820885304702787e-05
| 12> *
| 13>
| 14>                          ****END OF INPUT****

CARTESIAN COORDINATES (ANGSTROEM)
---------------------------------
  C      1.233582   -0.010531   -0.000002
  S     -0.605541    0.046622    0.000001
  H      1.577000    1.026276   -0.000032
  H      1.606377   -0.509744   -0.896153
  H      1.606382   -0.509694    0.896176
  H     -0.809466   -1.283825    0.000020

 Total Charge           Charge          ....    0
 Multiplicity           Mult            ....    1
 Number of Electrons    NEL             ....   26
 Basis Dimension        Dim             ....   92

ORBITAL ENERGIES
----------------

  NO   OCC          E(Eh)            E(eV)
   0   2.0000     -94.122863     -2561.2133
   1   2.0000     -12.078317      -328.6677
   2   2.0000      -9.633938      -262.1528
   3   2.0000      -7.611571      -207.1214
   4   2.0000      -7.610391      -207.0893
   5   2.0000      -7.609939      -207.0770
   6   2.0000      -1.270557       -34.5736
   7   2.0000      -1.129740       -30.7418
   8   2.0000      -0.869600       -23.6630
   9   2.0000      -0.853427       -23.2229
  10   2.0000      -0.819852       -22.3093
  11   2.0000      -0.753425       -20.5017
  12   2.0000      -0.644392       -17.5348
  13   0.0000      -0.193721        -5.2714
  14   0.0000      -0.106358        -2.8941
  15   0.0000       0.013333         0.3628
  16   0.0000       0.029459         0.8016
  17   0.0000       0.032776         0.8919

MULLIKEN ATOMIC CHARGES
-----------------------
   0 C :   -0.322037
   1 S :   -0.207018
   2 H :    0.132106
   3 H :    0.131617
   4 H :    0.131617
   5 H :    0.133715
Sum of atomic charges:   -0.0000000

LOEWDIN ATOMIC CHARGES
----------------------
   0 C :   -0.523908
   1 S :    0.181294
   2 H :    0.109564
   3 H :    0.101478
   4 H :    0.101478
   5 H :    0.030094

  Mayer bond orders larger than 0.100000
B(  0-C ,  1-S ) :   1.0596 B(  0-C ,  2-H ) :   0.9653 B(  0-C ,  3-H ) :   0.9688
B(  0-C ,  4-H ) :   0.9688 B(  1-S ,  5-H ) :   0.9729

FINAL SINGLE POINT ENERGY      -438.649631932108

DIPOLE MOMENT
-------------

Method             : SCF
Type of density    : Electron Density
Multiplicity       :   1
Irrep              :   0
Energy             :  -438.6535801450076519 Eh
Relativity type    :
Basis              : AO
                                X                 Y                 Z
Electronic contribution:     -3.248488666       0.882410749      -0.000004891
Nuclear contribution   :      3.797029550      -1.205660496       0.000007616
                        -----------------------------------------
Total Dipole Moment    :      0.548540885      -0.323249747       0.000002726
                        -----------------------------------------
Magnitude (a.u.)       :      0.636700480
Magnitude (Debye)      :      1.618364006

Rotational constants in cm-1:             3.414713             0.421287             0.404131
Rotational constants in MHz :        102370.520199         12629.855476         12115.549265

                             ****ORCA TERMINATED NORMALLY****
TOTAL RUN TIME: 0 days 0 hours 0 minutes 14 seconds 840 msec
