                         Program Version 6.0.0  -   RELEASE  -
|  1> ! wb97x-v def2-tzvp def2/J RIJCOSX DEFGRID2 scfconv7 GCP(DFT/TZ) printgap
|  2> %output
|  3>     printlevel normal
|  4> end
|  5> %cpcm
|  6>     smd true
|  7>     smdsolvent "water"
|  8> end
|  9> * xyz 0 1
| 10> C 1.2335820303577703 -0.01053079087214223 -1.6611294132579598e-06
| 11> S -0.6055407732387657 0.04662165447416106 9.903733111307753e-07
| 12> H 1.576999627732037 1.0262757266872533 -3.2359643673331154e-05
| 13> H 1.606377135940625 -0.5097444879046875 -0.8961530438262455
| 14> H 1.6063823279381517 -0.5096943450942171 0.8961755326440732
| 15> H -0.809465530757434 -1.2838252959343137 1.9820885304702787e-05
| 16> *
| 17>
| 18>                          ****END OF INPUT****

CARTESIAN COORDINATES (ANGSTROEM)
---------------------------------
  C      1.233582   -0.010531   -0.000002
  S     -0.605541    0.046622    0.000001
  H      1.577000    1.026276   -0.000032
  H      1.606377   -0.509744   -0.896153
  H      1.606382   -0.509694    0.896176
  H     -0.809466   -1.283825    0.000020

 Total Charge           Charge          ....    0
 Multiplicity           Mult            ....    1
 Number of Electrons    NEL             ....   26
 Basis Dimension        Dim             ....   92

ORBITAL ENERGIES
----------------

  NO   OCC          E(Eh)            E(eV)
   0   2.0000     -94.119489     -2561.1215
   1   2.0000     -12.065021      -328.3059
   2   2.0000      -9.630705      -262.0648
   3   2.0000      -7.608361      -207.0340
   4   2.0000      -7.607196      -207.0023
   5   2.0000      -7.606966      -206.9961
   6   2.0000      -1.263072       -34.3699
   7   2.0000      -1.120228       -30.4830
   8   2.0000      -0.858956       -23.3734
   9   2.0000      -0.840018       -22.8581
  10   2.0000      -0.809447       -22.0262
  11   2.0000      -0.748863       -20.3776
  12   2.0000      -0.642017       -17.4702
  13   0.0000      -0.187213        -5.0943
  14   0.0000      -0.097064        -2.6412
  15   0.0000       0.029954         0.8151
  16   0.0000       0.044475         1.2102
  17   0.0000       0.047991         1.3059

MULLIKEN ATOMIC CHARGES
-----------------------
   0 C :   -0.352770
   1 S :   -0.279581
   2 H :    0.157002
   3 H :    0.153482
   4 H :    0.153481
   5 H :    0.168386
Sum of atomic charges:   -0.0000000

LOEWDIN ATOMIC CHARGES
----------------------
   0 C :   -0.519796
   1 S :    0.145394
   2 H :    0.115682
   3 H :    0.108061
   4 H :    0.108060
   5 H :    0.042600

  Mayer bond orders larger than 0.100000
B(  0-C ,  1-S ) :   1.0449 B(  0-C ,  2-H ) :   0.9574 B(  0-C ,  3-H ) :   0.9653
B(  0-C ,  4-H ) :   0.9653 B(  1-S ,  5-H ) :   0.9662

FINAL SINGLE POINT ENERGY      -438.651282568728

DIPOLE MOMENT
-------------

Method             : SCF
Type of density    : Electron Density
Multiplicity       :   1
Irrep              :   0
Energy             :  -438.6552307816284610 Eh
Relativity type    :
Basis              : AO
                                X                 Y                 Z
Electronic contribution:     -3.069040438       0.784897499      -0.000004295
Nuclear contribution   :      3.797029550      -1.205660496       0.000007616
                        -----------------------------------------
Total Dipole Moment    :      0.727989112      -0.420762997       0.000003321
                        -----------------------------------------
Magnitude (a.u.)       :      0.840838657
Magnitude (Debye)      :      2.137242017

Rotational constants in cm-1:             3.414713             0.421287             0.404131
Rotational constants in MHz :        102370.520199         12629.855476         12115.549265

                             ****ORCA TERMINATED NORMALLY****
TOTAL RUN TIME: 0 days 0 hours 0 minutes 15 seconds 474 msec
