                         Program Version 6.0.0  -   RELEASE  -
|  1> ! r2scan-3c def2/J RI DEFGRID2 scfconv6 printgap
|  2> %output
|  3>     printlevel normal
|  4> end
|  5> * xyz 0 1
|  6> C 1.8652443592 -1.06645949 0.0476700821
|  7> C 1.1048002484 0.1772506064 0.4959143749
|  8> C -0.3600872875 0.2106443015 0.013265685
|  9> C -1.0279401844 1.4958978586 0.5198888224
| 10> C -1.1423930036 -1.0074541701 0.507296614
| 11> O -0.4122425997 0.1634946422 -1.4104164684
| 12> H 1.7118193967 -1.2337018947 -1.0162019804
| 13> H 1.5261804482 -1.9461646443 0.5873723891
| 14> H 2.9294856284 -0.9417116494 0.2313062956
| 15> H 1.6113003493 1.063271783 0.1034178213
| 16> H 1.1142086748 0.2456352221 1.5843989651
| 17> H -0.454694403 2.3711758076 0.2205639156
| 18> H -2.0303530321 1.5770936399 0.1060871644
| 19> H -1.0963826119 1.4806728621 1.6035030106
| 20> H -2.1921657786 -0.8943164169 0.249967813
| 21> H -0.7711698518 -1.9053533794 0.0230030391
| 22> H -1.0453388131 -1.1076905189 1.5836982412
| 23> H 0.0021092978 0.9614194545 -1.7648972957
| 24> *
| 25>
| 26>                          ****END OF INPUT****

CARTESIAN COORDINATES (ANGSTROEM)
---------------------------------
  C      1.865244   -1.066459    0.047670
  C      1.104800    0.177251    0.495914
  C     -0.360087    0.210644    0.013266
  C     -1.027940    1.495898    0.519889
  C     -1.142393   -1.007454    0.507297
  O     -0.412243    0.163495   -1.410416
  H      1.711819   -1.233702   -1.016202
  H      1.526180   -1.946165    0.587372
  H      2.929486   -0.941712    0.231306
  H      1.611300    1.063272    0.103418
  H      1.114209    0.245635    1.584399
  H     -0.454694    2.371176    0.220564
  H     -2.030353    1.577094    0.106087
  H     -1.096383    1.480673    1.603503
  H     -2.192166   -0.894316    0.249968
  H     -0.771170   -1.905353    0.023003
  H     -1.045339   -1.107691    1.583698
  H      0.002109    0.961419   -1.764897

 Total Charge           Charge          ....    0
 Multiplicity           Mult            ....    1
 Number of Electrons    NEL             ....   50
 Basis Dimension        Dim             ....  179

ORBITAL ENERGIES
----------------

  NO   OCC          E(Eh)            E(eV)
   0   2.0000     -18.942660      -515.4560
   1   2.0000     -10.086772      -274.4750
   2   2.0000     -10.024591      -272.7830
   3   2.0000     -10.017606      -272.5929
   4   2.0000     -10.013952      -272.4935
   5   2.0000     -10.012042      -272.4415
   6   2.0000      -0.982481       -26.7347
   7   2.0000      -0.762115       -20.7382
   8   2.0000      -0.701249       -19.0820
   9   2.0000      -0.657527       -17.8922
  10   2.0000      -0.592763       -16.1299
  11   2.0000      -0.534744       -14.5511
  12   2.0000      -0.450217       -12.2510
  13   2.0000      -0.428288       -11.6543
  14   2.0000      -0.425136       -11.5685
  15   2.0000      -0.392395       -10.6776
  16   2.0000      -0.375678       -10.2227
  17   2.0000      -0.354872        -9.6566
  18   2.0000      -0.344891        -9.3850
  19   2.0000      -0.334486        -9.1018
  20   2.0000      -0.329052        -8.9540
  21   2.0000      -0.306340        -8.3359
  22   2.0000      -0.303808        -8.2670
  23   2.0000      -0.278771        -7.5858
  24   2.0000      -0.232756        -6.3336
  25   0.0000       0.061203         1.6654
  26   0.0000       0.111362         3.0303
  27   0.0000       0.114409         3.1132
  28   0.0000       0.121321         3.3013
  29   0.0000       0.133220         3.6251

MULLIKEN ATOMIC CHARGES
-----------------------
   0 C :   -0.525709
   1 C :   -0.210855
   2 C :    0.166632
   3 C :   -0.468221
   4 C :   -0.503684
   5 O :   -0.418150
   6 H :    0.175509
   7 H :    0.152308
   8 H :    0.145489
   9 H :    0.137474
  10 H :    0.141546
  11 H :    0.138338
  12 H :    0.165584
  13 H :    0.150375
  14 H :    0.150559
  15 H :    0.165945
  16 H :    0.151475
  17 H :    0.285384
Sum of atomic charges:   -0.0000000

LOEWDIN ATOMIC CHARGES
----------------------
   0 C :   -0.420285
   1 C :   -0.288356
   2 C :    0.054309
   3 C :   -0.390777
   4 C :   -0.371738
   5 O :   -0.605754
   6 H :    0.164046
   7 H :    0.151566
   8 H :    0.149935
   9 H :    0.156415
  10 H :    0.160067
  11 H :    0.154753
  12 H :    0.163696
  13 H :    0.160449
  14 H :    0.163748
  15 H :    0.168030
  16 H :    0.159570
  17 H :    0.270326

  Mayer bond orders larger than 0.100000
B(  0-C ,  1-C ) :   0.8810 B(  0-C ,  6-H ) :   0.9804 B(  0-C ,  7-H ) :   0.9804
B(  0-C ,  8-H ) :   0.9722 B(  1-C ,  2-C ) :   0.9339 B(  1-C ,  9-H ) :   0.9708
B(  1-C , 10-H ) :   0.9704 B(  2-C ,  3-C ) :   0.9489 B(  2-C ,  4-C ) :   0.9224
B(  2-C ,  5-O ) :   0.8456 B(  3-C , 11-H ) :   0.9675 B(  3-C , 12-H ) :   0.9798
B(  3-C , 13-H ) :   0.9774 B(  4-C , 14-H ) :   0.9649 B(  4-C , 15-H ) :   0.9691
B(  4-C , 16-H ) :   0.9788 B(  5-O , 17-H ) :   0.9012

Dispersion correction           -0.004530841
FINAL SINGLE POINT ENERGY      -272.908926261078

DIPOLE MOMENT
-------------

Method             : SCF
Type of density    : Electron Density
Multiplicity       :   1
Irrep              :   0
Energy             :  -272.9140006497995046 Eh
Relativity type    :
Basis              : AO
                                X                 Y                 Z
Electronic contribution:     -0.998627673       0.722251406      -2.943008786
Nuclear contribution   :      1.218185016      -0.306857820       3.274105258
                        -----------------------------------------
Total Dipole Moment    :      0.219557343       0.415393586       0.331096472
                        -----------------------------------------
Magnitude (a.u.)       :      0.574788771
Magnitude (Debye)      :      1.460996949

Rotational constants in cm-1:             0.151186             0.087315             0.085317
Rotational constants in MHz :          4532.456609          2617.650996          2557.742526

                             ****ORCA TERMINATED NORMALLY****
TOTAL RUN TIME: 0 days 0 hours 0 minutes 19 seconds 722 msec
