                         Program Version 6.0.0  -   RELEASE  -
|  1> ! r2scan-3c def2/J RI DEFGRID2 scfconv6 printgap
|  2> %output
|  3>     printlevel normal
|  4> end
|  5> %cpcm
|  6>     smd true
|  7>     smdsolvent "water"
|  8> end
|  9> * xyz 0 1
| 10> C 1.8652443592 -1.06645949 0.0476700821
| 11> C 1.1048002484 0.1772506064 0.4959143749
| 12> C -0.3600872875 0.2106443015 0.013265685
| 13> C -1.0279401844 1.4958978586 0.5198888224
| 14> C -1.1423930036 -1.0074541701 0.507296614
| 15> O -0.4122425997 0.1634946422 -1.4104164684
| 16> H 1.7118193967 -1.2337018947 -1.0162019804
| 17> H 1.5261804482 -1.9461646443 0.5873723891
| 18> H 2.9294856284 -0.9417116494 0.2313062956
| 19> H 1.6113003493 1.063271783 0.1034178213
| 20> H 1.1142086748 0.2456352221 1.5843989651
| 21> H -0.454694403 2.3711758076 0.2205639156
| 22> H -2.0303530321 1.5770936399 0.1060871644
| 23> H -1.0963826119 1.4806728621 1.6035030106
| 24> H -2.1921657786 -0.8943164169 0.249967813
| 25> H -0.7711698518 -1.9053533794 0.0230030391
| 26> H -1.0453388131 -1.1076905189 1.5836982412
| 27> H 0.0021092978 0.9614194545 -1.7648972957
| 28> *
| 29>
| 30>                          ****END OF INPUT****

CARTESIAN COORDINATES (ANGSTROEM)
---------------------------------
  C      1.865244   -1.066459    0.047670
  C      1.104800    0.177251    0.495914
  C     -0.360087    0.210644    0.013266
  C     -1.027940    1.495898    0.519889
  C     -1.142393   -1.007454    0.507297
  O     -0.412243    0.163495   -1.410416
  H      1.711819   -1.233702   -1.016202
  H      1.526180   -1.946165    0.587372
  H      2.929486   -0.941712    0.231306
  H      1.611300    1.063272    0.103418
  H      1.114209    0.245635    1.584399
  H     -0.454694    2.371176    0.220564
  H     -2.030353    1.577094    0.106087
  H     -1.096383    1.480673    1.603503
  H     -2.192166   -0.894316    0.249968
  H     -0.771170   -1.905353    0.023003
  H     -1.045339   -1.107691    1.583698
  H      0.002109    0.961419   -1.764897

 Total Charge           Charge          ....    0
 Multiplicity           Mult            ....    1
 Number of Electrons    NEL             ....   50
 Basis Dimension        Dim             ....  179

ORBITAL ENERGIES
----------------

  NO   OCC          E(Eh)            E(eV)
   0   2.0000     -18.946021      -515.5475
   1   2.0000     -10.082387      -274.3557
   2   2.0000     -10.015384      -272.5325
   3   2.0000     -10.008436      -272.3434
   4   2.0000     -10.007628      -272.3214
   5   2.0000     -10.007000      -272.3043
   6   2.0000      -0.984581       -26.7918
   7   2.0000      -0.756067       -20.5736
   8   2.0000      -0.695075       -18.9139
   9   2.0000      -0.650786       -17.7088
  10   2.0000      -0.586408       -15.9570
  11   2.0000      -0.531338       -14.4584
  12   2.0000      -0.445175       -12.1138
  13   2.0000      -0.422614       -11.4999
  14   2.0000      -0.420194       -11.4341
  15   2.0000      -0.386202       -10.5091
  16   2.0000      -0.368866       -10.0373
  17   2.0000      -0.349744        -9.5170
  18   2.0000      -0.339933        -9.2500
  19   2.0000      -0.332070        -9.0361
  20   2.0000      -0.321751        -8.7553
  21   2.0000      -0.302159        -8.2222
  22   2.0000      -0.297857        -8.1051
  23   2.0000      -0.276154        -7.5145
  24   2.0000      -0.235966        -6.4210
  25   0.0000       0.076955         2.0941
  26   0.0000       0.120407         3.2764
  27   0.0000       0.121063         3.2943
  28   0.0000       0.135290         3.6814
  29   0.0000       0.140978         3.8362

MULLIKEN ATOMIC CHARGES
-----------------------
   0 C :   -0.561392
   1 C :   -0.231736
   2 C :    0.214221
   3 C :   -0.517746
   4 C :   -0.547414
   5 O :   -0.508125
   6 H :    0.166150
   7 H :    0.164933
   8 H :    0.158936
   9 H :    0.158812
  10 H :    0.157439
  11 H :    0.161742
  12 H :    0.167297
  13 H :    0.169026
  14 H :    0.161621
  15 H :    0.170135
  16 H :    0.174539
  17 H :    0.341561
Sum of atomic charges:    0.0000000

LOEWDIN ATOMIC CHARGES
----------------------
   0 C :   -0.427878
   1 C :   -0.287689
   2 C :    0.057215
   3 C :   -0.394924
   4 C :   -0.381244
   5 O :   -0.642055
   6 H :    0.158632
   7 H :    0.154411
   8 H :    0.153899
   9 H :    0.163805
  10 H :    0.165805
  11 H :    0.162537
  12 H :    0.163298
  13 H :    0.166245
  14 H :    0.164316
  15 H :    0.166810
  16 H :    0.168366
  17 H :    0.288452

  Mayer bond orders larger than 0.100000
B(  0-C ,  1-C ) :   0.8660 B(  0-C ,  6-H ) :   0.9833 B(  0-C ,  7-H ) :   0.9775
B(  0-C ,  8-H ) :   0.9691 B(  1-C ,  2-C ) :   0.9271 B(  1-C ,  9-H ) :   0.9718
B(  1-C , 10-H ) :   0.9681 B(  2-C ,  3-C ) :   0.9391 B(  2-C ,  4-C ) :   0.9235
B(  2-C ,  5-O ) :   0.8243 B(  3-C , 11-H ) :   0.9674 B(  3-C , 12-H ) :   0.9753
B(  3-C , 13-H ) :   0.9741 B(  4-C , 14-H ) :   0.9647 B(  4-C , 15-H ) :   0.9664
B(  4-C , 16-H ) :   0.9718 B(  5-O , 17-H ) :   0.8753

Dispersion correction           -0.004530841
FINAL SINGLE POINT ENERGY      -272.914598032539

DIPOLE MOMENT
-------------

Method             : SCF
Type of density    : Electron Density
Multiplicity       :   1
Irrep              :   0
Energy             :  -272.9196724212598042 Eh
Relativity type    :
Basis              : AO
                                X                 Y                 Z
Electronic contribution:     -0.864028479       0.953434139      -2.742035595
Nuclear contribution   :      1.218185016      -0.306857820       3.274105258
                        -----------------------------------------
Total Dipole Moment    :      0.354156537       0.646576319       0.532069663
                        -----------------------------------------
Magnitude (a.u.)       :      0.909167705
Magnitude (Debye)      :      2.310920654

Rotational constants in cm-1:             0.151186             0.087315             0.085317
Rotational constants in MHz :          4532.456609          2617.650996          2557.742526

                             ****ORCA TERMINATED NORMALLY****
TOTAL RUN TIME: 0 days 0 hours 0 minutes 23 seconds 941 msec
