                         Program Version 6.0.0  -   RELEASE  -
|  1> ! pbe def2-sv(p) def2/J RI DEFGRID1 loosescf d4 GCP(DFT/SV(P)) printgap
|  2> %output
|  3>     printlevel normal
|  4> end
|  5> * xyz 0 1
|  6> C -2.2169902741 -1.1951297147 0.1111352434
|  7> C -0.8482448635 -0.5717682211 0.4309727353
|  8> H -0.7968587601 -0.2986496569 1.4956967746
|  9> C -0.5959597338 0.6987842806 -0.394925475
| 10> H -0.6492442141 0.4378439972 -1.4653507473
| 11> C 0.808409165 1.2726696076 -0.1054365144
| 12> H 0.691287959 2.0705587615 0.635344607
| 13> C 1.7447390824 0.1988522226 0.4860643137
| 14> H 2.7705469585 0.471617641 0.2043183385
| 15> C 1.4110275345 -1.1565832796 -0.1582915345
| 16> H 2.0726824657 -1.9457428936 0.2329053116
| 17> O 0.1140178389 -1.5889416384 0.1629166382
| 18> O 1.5847455885 -1.0113135777 -1.5361546242
| 19> O 1.5872285745 0.1655219982 1.8793774539
| 20> O 1.3807813728 1.8719494918 -1.2352822249
| 21> O -1.5351336421 1.6996408841 -0.0939687961
| 22> O -3.2961994651 -0.3900580306 0.515837784
| 23> H -2.2539045544 -2.1869373778 0.5736284073
| 24> H -2.3146206389 -1.3156836709 -0.9705551366
| 25> H 1.4352606066 -1.8598322574 -1.9813632191
| 26> H 2.2955415748 -0.3557216293 2.2849574395
| 27> H 1.5385294538 1.1847799956 -1.9032072116
| 28> H -2.4279227864 1.3081606373 -0.1138077939
| 29> H -3.3596577545 -0.3895995951 1.4815933784
| 30> *
| 31>
| 32>                          ****END OF INPUT****

CARTESIAN COORDINATES (ANGSTROEM)
---------------------------------
  C     -2.216990   -1.195130    0.111135
  C     -0.848245   -0.571768    0.430973
  H     -0.796859   -0.298650    1.495697
  C     -0.595960    0.698784   -0.394925
  H     -0.649244    0.437844   -1.465351
  C      0.808409    1.272670   -0.105437
  H      0.691288    2.070559    0.635345
  C      1.744739    0.198852    0.486064
  H      2.770547    0.471618    0.204318
  C      1.411028   -1.156583   -0.158292
  H      2.072682   -1.945743    0.232905
  O      0.114018   -1.588942    0.162917
  O      1.584746   -1.011314   -1.536155
  O      1.587229    0.165522    1.879377
  O      1.380781    1.871949   -1.235282
  O     -1.535134    1.699641   -0.093969
  O     -3.296199   -0.390058    0.515838
  H     -2.253905   -2.186937    0.573628
  H     -2.314621   -1.315684   -0.970555
  H      1.435261   -1.859832   -1.981363
  H      2.295542   -0.355722    2.284957
  H      1.538529    1.184780   -1.903207
  H     -2.427923    1.308161   -0.113808
  H     -3.359658   -0.389600    1.481593

 Total Charge           Charge          ....    0
 Multiplicity           Mult            ....    1
 Number of Electrons    NEL             ....   96
 Basis Dimension        Dim             ....  192

ORBITAL ENERGIES
----------------

  NO   OCC          E(Eh)            E(eV)
   0   2.0000     -18.778801      -510.9972
   1   2.0000     -18.773496      -510.8528
   2   2.0000     -18.772020      -510.8126
   3   2.0000     -18.762963      -510.5662
   4   2.0000     -18.730378      -509.6795
   5   2.0000     -18.728526      -509.6291
   6   2.0000      -9.992672      -271.9144
   7   2.0000      -9.943176      -270.5676
   8   2.0000      -9.940925      -270.5063
   9   2.0000      -9.937840      -270.4224
  10   2.0000      -9.929167      -270.1864
  11   2.0000      -9.928638      -270.1720
  12   2.0000      -0.987891       -26.8819
  13   2.0000      -0.948715       -25.8159
  14   2.0000      -0.939292       -25.5594
  15   2.0000      -0.921225       -25.0678
  16   2.0000      -0.916514       -24.9396
  17   2.0000      -0.900517       -24.5043
  18   2.0000      -0.697352       -18.9759
  19   2.0000      -0.690293       -18.7838
  20   2.0000      -0.622663       -16.9435
  21   2.0000      -0.581098       -15.8125
  22   2.0000      -0.569495       -15.4968
  23   2.0000      -0.520496       -14.1634
  24   2.0000      -0.504698       -13.7335
  25   2.0000      -0.487153       -13.2561
  26   2.0000      -0.473812       -12.8931
  27   2.0000      -0.461541       -12.5592
  28   2.0000      -0.449862       -12.2414
  29   2.0000      -0.435902       -11.8615
  30   2.0000      -0.413066       -11.2401
  31   2.0000      -0.401836       -10.9345
  32   2.0000      -0.379660       -10.3311
  33   2.0000      -0.365736        -9.9522
  34   2.0000      -0.358105        -9.7445
  35   2.0000      -0.352771        -9.5994
  36   2.0000      -0.333664        -9.0795
  37   2.0000      -0.316231        -8.6051
  38   2.0000      -0.297248        -8.0885
  39   2.0000      -0.295559        -8.0426
  40   2.0000      -0.285045        -7.7565
  41   2.0000      -0.270473        -7.3599
  42   2.0000      -0.256208        -6.9718
  43   2.0000      -0.244335        -6.6487
  44   2.0000      -0.232372        -6.3232
  45   2.0000      -0.219783        -5.9806
  46   2.0000      -0.200731        -5.4622
  47   2.0000      -0.199448        -5.4273
  48   0.0000       0.010686         0.2908
  49   0.0000       0.013092         0.3562
  50   0.0000       0.016314         0.4439
  51   0.0000       0.057782         1.5723
  52   0.0000       0.074187         2.0187

MULLIKEN ATOMIC CHARGES
-----------------------
   0 C :    0.062945
   1 C :    0.012587
   2 H :    0.061858
   3 C :    0.051852
   4 H :    0.028995
   5 C :    0.139680
   6 H :    0.078125
   7 C :   -0.016349
   8 H :    0.076631
   9 C :    0.170011
  10 H :    0.050015
  11 O :   -0.316442
  12 O :   -0.399549
  13 O :   -0.404914
  14 O :   -0.428324
  15 O :   -0.425382
  16 O :   -0.433507
  17 H :    0.091782
  18 H :    0.082206
  19 H :    0.308281
  20 H :    0.303941
  21 H :    0.300008
  22 H :    0.296375
  23 H :    0.309174
Sum of atomic charges:   -0.0000000

LOEWDIN ATOMIC CHARGES
----------------------
   0 C :   -0.130418
   1 C :   -0.082963
   2 H :    0.106106
   3 C :   -0.072308
   4 H :    0.095022
   5 C :   -0.053992
   6 H :    0.128920
   7 C :   -0.091230
   8 H :    0.110529
   9 C :   -0.010348
  10 H :    0.089828
  11 O :   -0.148472
  12 O :   -0.311716
  13 O :   -0.306725
  14 O :   -0.312176
  15 O :   -0.325656
  16 O :   -0.318402
  17 H :    0.105865
  18 H :    0.114406
  19 H :    0.289722
  20 H :    0.289565
  21 H :    0.273056
  22 H :    0.269419
  23 H :    0.291970

  Mayer bond orders larger than 0.100000
B(  0-C ,  1-C ) :   1.0130 B(  0-C , 16-O ) :   1.0360 B(  0-C , 17-H ) :   0.9229
B(  0-C , 18-H ) :   0.9142 B(  1-C ,  2-H ) :   0.8664 B(  1-C ,  3-C ) :   1.0648
B(  1-C , 11-O ) :   0.9578 B(  3-C ,  4-H ) :   0.8493 B(  3-C ,  5-C ) :   1.0129
B(  3-C , 15-O ) :   1.0944 B(  5-C ,  6-H ) :   0.8532 B(  5-C ,  7-C ) :   1.0014
B(  5-C , 14-O ) :   1.0504 B(  7-C ,  8-H ) :   0.8879 B(  7-C ,  9-C ) :   1.0132
B(  7-C , 13-O ) :   1.0391 B(  9-C , 10-H ) :   0.8963 B(  9-C , 11-O ) :   1.0831
B(  9-C , 12-O ) :   1.1085 B( 12-O , 19-H ) :   0.8364 B( 13-O , 20-H ) :   0.8460
B( 14-O , 21-H ) :   0.8330 B( 15-O , 22-H ) :   0.8046 B( 16-O , 22-H ) :   0.1099
B( 16-O , 23-H ) :   0.8423

Dispersion correction           -0.024900907
FINAL SINGLE POINT ENERGY      -685.693252648042

DIPOLE MOMENT
-------------

Method             : SCF
Type of density    : Electron Density
Multiplicity       :   1
Irrep              :   0
Energy             :  -685.8251537544248322 Eh
Relativity type    :
Basis              : AO
                                X                 Y                 Z
Electronic contribution:      1.308027666       0.866443823      -0.073348682
Nuclear contribution   :     -0.939069097      -2.690121629       0.440290778
                        -----------------------------------------
Total Dipole Moment    :      0.368958569      -1.823677806       0.366942096
                        -----------------------------------------
Magnitude (a.u.)       :      1.896464518
Magnitude (Debye)      :      4.820429719

Rotational constants in cm-1:             0.043175             0.025305             0.021881
Rotational constants in MHz :          1294.347361           758.610797           655.990786

                             ****ORCA TERMINATED NORMALLY****
TOTAL RUN TIME: 0 days 0 hours 0 minutes 12 seconds 427 msec
