                         Program Version 6.0.0  -   RELEASE  -
|  1> ! r2scan-3c def2/J RI DEFGRID2 scfconv6 printgap
|  2> %output
|  3>     printlevel normal
|  4> end
|  5> * xyz 0 1
|  6> C -3.4297163691 0.6270361518 0.2420328635
|  7> O -2.0252057575 0.7385275102 -0.0034843933
|  8> C -1.3299328024 -0.3873581247 -0.1050952845
|  9> O -1.8381522952 -1.4848725703 0.0079229332
| 10> C 0.1367076469 -0.1537595227 -0.3939318538
| 11> C 0.984060388 -1.2450840443 0.2676322434
| 12> C 2.4547541658 -1.0647823493 -0.0928192739
| 13> C 2.93959049 0.3191153124 0.3297180827
| 14> C 2.0949120437 1.4046438917 -0.3308519278
| 15> C 0.6197002063 1.2351106864 0.0248154686
| 16> H -3.6085827874 -0.020636431 1.1010744234
| 17> H -3.9266286223 0.2029964779 -0.6311998128
| 18> H -3.7742433779 1.6383761799 0.4331666871
| 19> H 0.2411028674 -0.2506367287 -1.48241618
| 20> H 0.8606814384 -1.1825535518 1.3512529394
| 21> H 0.6236486349 -2.2248239657 -0.0503137907
| 22> H 3.0482430199 -1.8359176353 0.4004482331
| 23> H 2.5809038363 -1.1815781351 -1.1711090953
| 24> H 2.8647391214 0.4119046898 1.4151340984
| 25> H 3.9875605722 0.4450907253 0.0531255179
| 26> H 2.4360976661 2.3892841282 -0.0081108659
| 27> H 2.2144956966 1.3460886406 -1.4146959879
| 28> H 0.4859558904 1.3508750915 1.1021562591
| 29> H 0.0237011762 2.0010483198 -0.4718374546
| 30> *
| 31>
| 32>                          ****END OF INPUT****

CARTESIAN COORDINATES (ANGSTROEM)
---------------------------------
  C     -3.429716    0.627036    0.242033
  O     -2.025206    0.738528   -0.003484
  C     -1.329933   -0.387358   -0.105095
  O     -1.838152   -1.484873    0.007923
  C      0.136708   -0.153760   -0.393932
  C      0.984060   -1.245084    0.267632
  C      2.454754   -1.064782   -0.092819
  C      2.939590    0.319115    0.329718
  C      2.094912    1.404644   -0.330852
  C      0.619700    1.235111    0.024815
  H     -3.608583   -0.020636    1.101074
  H     -3.926629    0.202996   -0.631200
  H     -3.774243    1.638376    0.433167
  H      0.241103   -0.250637   -1.482416
  H      0.860681   -1.182554    1.351253
  H      0.623649   -2.224824   -0.050314
  H      3.048243   -1.835918    0.400448
  H      2.580904   -1.181578   -1.171109
  H      2.864739    0.411905    1.415134
  H      3.987561    0.445091    0.053126
  H      2.436098    2.389284   -0.008111
  H      2.214496    1.346089   -1.414696
  H      0.485956    1.350875    1.102156
  H      0.023701    2.001048   -0.471837

 Total Charge           Charge          ....    0
 Multiplicity           Mult            ....    1
 Number of Electrons    NEL             ....   78
 Basis Dimension        Dim             ....  270

ORBITAL ENERGIES
----------------

  NO   OCC          E(Eh)            E(eV)
   0   2.0000     -18.999332      -516.9981
   1   2.0000     -18.927070      -515.0318
   2   2.0000     -10.149641      -276.1858
   3   2.0000     -10.086588      -274.4700
   4   2.0000     -10.046541      -273.3803
   5   2.0000     -10.027388      -272.8591
   6   2.0000     -10.025493      -272.8075
   7   2.0000     -10.025333      -272.8032
   8   2.0000     -10.024427      -272.7785
   9   2.0000     -10.023459      -272.7522
  10   2.0000      -1.073326       -29.2067
  11   2.0000      -0.974121       -26.5072
  12   2.0000      -0.808673       -22.0051
  13   2.0000      -0.736226       -20.0337
  14   2.0000      -0.711201       -19.3528
  15   2.0000      -0.689509       -18.7625
  16   2.0000      -0.596513       -16.2319
  17   2.0000      -0.576615       -15.6905
  18   2.0000      -0.535401       -14.5690
  19   2.0000      -0.525581       -14.3018
  20   2.0000      -0.478513       -13.0210
  21   2.0000      -0.455303       -12.3894
  22   2.0000      -0.437309       -11.8998
  23   2.0000      -0.431429       -11.7398
  24   2.0000      -0.413561       -11.2536
  25   2.0000      -0.409455       -11.1419
  26   2.0000      -0.398296       -10.8382
  27   2.0000      -0.367919       -10.0116
  28   2.0000      -0.358195        -9.7470
  29   2.0000      -0.350111        -9.5270
  30   2.0000      -0.343844        -9.3565
  31   2.0000      -0.320419        -8.7190
  32   2.0000      -0.316187        -8.6039
  33   2.0000      -0.312997        -8.5171
  34   2.0000      -0.294752        -8.0206
  35   2.0000      -0.280922        -7.6443
  36   2.0000      -0.272758        -7.4221
  37   2.0000      -0.269383        -7.3303
  38   2.0000      -0.231878        -6.3097
  39   0.0000      -0.014753        -0.4014
  40   0.0000       0.062655         1.7049
  41   0.0000       0.093339         2.5399
  42   0.0000       0.098414         2.6780
  43   0.0000       0.107870         2.9353

MULLIKEN ATOMIC CHARGES
-----------------------
   0 C :   -0.296607
   1 O :   -0.158298
   2 C :    0.303706
   3 O :   -0.417496
   4 C :   -0.073766
   5 C :   -0.323128
   6 C :   -0.297207
   7 C :   -0.276076
   8 C :   -0.287042
   9 C :   -0.356184
  10 H :    0.166725
  11 H :    0.157708
  12 H :    0.150422
  13 H :    0.178085
  14 H :    0.152064
  15 H :    0.176646
  16 H :    0.149348
  17 H :    0.147774
  18 H :    0.140086
  19 H :    0.147317
  20 H :    0.147130
  21 H :    0.146692
  22 H :    0.159565
  23 H :    0.162536
Sum of atomic charges:    0.0000000

LOEWDIN ATOMIC CHARGES
----------------------
   0 C :   -0.042228
   1 O :   -0.609691
   2 C :    0.367095
   3 O :   -0.431268
   4 C :   -0.151397
   5 C :   -0.271413
   6 C :   -0.301238
   7 C :   -0.304185
   8 C :   -0.302072
   9 C :   -0.274589
  10 H :    0.180023
  11 H :    0.174965
  12 H :    0.175619
  13 H :    0.186001
  14 H :    0.162708
  15 H :    0.174524
  16 H :    0.156836
  17 H :    0.155126
  18 H :    0.154758
  19 H :    0.154694
  20 H :    0.155998
  21 H :    0.155203
  22 H :    0.163122
  23 H :    0.171410

  Mayer bond orders larger than 0.100000
B(  0-C ,  1-O ) :   0.8441 B(  0-C , 10-H ) :   0.9638 B(  0-C , 11-H ) :   0.9610
B(  0-C , 12-H ) :   0.9710 B(  1-O ,  2-C ) :   1.0999 B(  2-C ,  3-O ) :   1.8341
B(  2-C ,  4-C ) :   0.9893 B(  4-C ,  5-C ) :   0.9180 B(  4-C ,  9-C ) :   0.9301
B(  4-C , 13-H ) :   0.9152 B(  5-C ,  6-C ) :   0.8765 B(  5-C , 14-H ) :   0.9947
B(  5-C , 15-H ) :   0.9421 B(  6-C ,  7-C ) :   0.9112 B(  6-C , 16-H ) :   0.9471
B(  6-C , 17-H ) :   1.0042 B(  7-C ,  8-C ) :   0.9166 B(  7-C , 18-H ) :   0.9866
B(  7-C , 19-H ) :   0.9493 B(  8-C ,  9-C ) :   0.8749 B(  8-C , 20-H ) :   0.9445
B(  8-C , 21-H ) :   1.0009 B(  9-C , 22-H ) :   1.0007 B(  9-C , 23-H ) :   0.9452

Dispersion correction           -0.007550847
FINAL SINGLE POINT ENERGY      -463.635492706600

DIPOLE MOMENT
-------------

Method             : SCF
Type of density    : Electron Density
Multiplicity       :   1
Irrep              :   0
Energy             :  -463.6410623089162755 Eh
Relativity type    :
Basis              : AO
                                X                 Y                 Z
Electronic contribution:     -7.401026355      -2.120814431      -0.608819016
Nuclear contribution   :      7.502166771       2.887418585       0.587991684
                        -----------------------------------------
Total Dipole Moment    :      0.101140416       0.766604154      -0.020827332
                        -----------------------------------------
Magnitude (a.u.)       :      0.773527692
Magnitude (Debye)      :      1.966151141

Rotational constants in cm-1:             0.097331             0.026242             0.021676
Rotational constants in MHz :          2917.924685           786.712461           649.832766

                             ****ORCA TERMINATED NORMALLY****
TOTAL RUN TIME: 0 days 0 hours 0 minutes 31 seconds 792 msec
