                         Program Version 6.0.0  -   RELEASE  -
|  1> ! r2scan-3c def2/J RI DEFGRID2 scfconv6 printgap
|  2> %output
|  3>     printlevel normal
|  4> end
|  5> %cpcm
|  6>     smd true
|  7>     smdsolvent "water"
|  8> end
|  9> * xyz 0 1
| 10> C -3.4297163691 0.6270361518 0.2420328635
| 11> O -2.0252057575 0.7385275102 -0.0034843933
| 12> C -1.3299328024 -0.3873581247 -0.1050952845
| 13> O -1.8381522952 -1.4848725703 0.0079229332
| 14> C 0.1367076469 -0.1537595227 -0.3939318538
| 15> C 0.984060388 -1.2450840443 0.2676322434
| 16> C 2.4547541658 -1.0647823493 -0.0928192739
| 17> C 2.93959049 0.3191153124 0.3297180827
| 18> C 2.0949120437 1.4046438917 -0.3308519278
| 19> C 0.6197002063 1.2351106864 0.0248154686
| 20> H -3.6085827874 -0.020636431 1.1010744234
| 21> H -3.9266286223 0.2029964779 -0.6311998128
| 22> H -3.7742433779 1.6383761799 0.4331666871
| 23> H 0.2411028674 -0.2506367287 -1.48241618
| 24> H 0.8606814384 -1.1825535518 1.3512529394
| 25> H 0.6236486349 -2.2248239657 -0.0503137907
| 26> H 3.0482430199 -1.8359176353 0.4004482331
| 27> H 2.5809038363 -1.1815781351 -1.1711090953
| 28> H 2.8647391214 0.4119046898 1.4151340984
| 29> H 3.9875605722 0.4450907253 0.0531255179
| 30> H 2.4360976661 2.3892841282 -0.0081108659
| 31> H 2.2144956966 1.3460886406 -1.4146959879
| 32> H 0.4859558904 1.3508750915 1.1021562591
| 33> H 0.0237011762 2.0010483198 -0.4718374546
| 34> *
| 35>
| 36>                          ****END OF INPUT****

CARTESIAN COORDINATES (ANGSTROEM)
---------------------------------
  C     -3.429716    0.627036    0.242033
  O     -2.025206    0.738528   -0.003484
  C     -1.329933   -0.387358   -0.105095
  O     -1.838152   -1.484873    0.007923
  C      0.136708   -0.153760   -0.393932
  C      0.984060   -1.245084    0.267632
  C      2.454754   -1.064782   -0.092819
  C      2.939590    0.319115    0.329718
  C      2.094912    1.404644   -0.330852
  C      0.619700    1.235111    0.024815
  H     -3.608583   -0.020636    1.101074
  H     -3.926629    0.202996   -0.631200
  H     -3.774243    1.638376    0.433167
  H      0.241103   -0.250637   -1.482416
  H      0.860681   -1.182554    1.351253
  H      0.623649   -2.224824   -0.050314
  H      3.048243   -1.835918    0.400448
  H      2.580904   -1.181578   -1.171109
  H      2.864739    0.411905    1.415134
  H      3.987561    0.445091    0.053126
  H      2.436098    2.389284   -0.008111
  H      2.214496    1.346089   -1.414696
  H      0.485956    1.350875    1.102156
  H      0.023701    2.001048   -0.471837

 Total Charge           Charge          ....    0
 Multiplicity           Mult            ....    1
 Number of Electrons    NEL             ....   78
 Basis Dimension        Dim             ....  270

ORBITAL ENERGIES
----------------

  NO   OCC          E(Eh)            E(eV)
   0   2.0000     -19.004457      -517.1376
   1   2.0000     -18.942562      -515.4533
   2   2.0000     -10.159978      -276.4671
   3   2.0000     -10.076521      -274.1961
   4   2.0000     -10.041621      -273.2464
   5   2.0000     -10.020924      -272.6832
   6   2.0000     -10.019775      -272.6519
   7   2.0000     -10.015941      -272.5476
   8   2.0000     -10.015504      -272.5357
   9   2.0000     -10.013764      -272.4884
  10   2.0000      -1.079983       -29.3878
  11   2.0000      -0.987559       -26.8728
  12   2.0000      -0.801986       -21.8231
  13   2.0000      -0.731084       -19.8938
  14   2.0000      -0.703897       -19.1540
  15   2.0000      -0.683434       -18.5972
  16   2.0000      -0.590991       -16.0817
  17   2.0000      -0.569708       -15.5025
  18   2.0000      -0.531340       -14.4585
  19   2.0000      -0.519322       -14.1315
  20   2.0000      -0.476738       -12.9727
  21   2.0000      -0.454939       -12.3795
  22   2.0000      -0.450753       -12.2656
  23   2.0000      -0.425323       -11.5736
  24   2.0000      -0.404796       -11.0150
  25   2.0000      -0.401862       -10.9352
  26   2.0000      -0.396406       -10.7867
  27   2.0000      -0.364107        -9.9078
  28   2.0000      -0.357717        -9.7340
  29   2.0000      -0.343826        -9.3560
  30   2.0000      -0.337804        -9.1921
  31   2.0000      -0.320292        -8.7156
  32   2.0000      -0.307632        -8.3711
  33   2.0000      -0.307442        -8.3659
  34   2.0000      -0.285707        -7.7745
  35   2.0000      -0.280848        -7.6423
  36   2.0000      -0.275522        -7.4973
  37   2.0000      -0.262557        -7.1445
  38   2.0000      -0.245797        -6.6885
  39   0.0000      -0.022352        -0.6082
  40   0.0000       0.067385         1.8336
  41   0.0000       0.101099         2.7510
  42   0.0000       0.106582         2.9002
  43   0.0000       0.117577         3.1994

MULLIKEN ATOMIC CHARGES
-----------------------
   0 C :   -0.330199
   1 O :   -0.173871
   2 C :    0.343205
   3 O :   -0.504613
   4 C :   -0.056900
   5 C :   -0.335816
   6 C :   -0.320459
   7 C :   -0.291957
   8 C :   -0.308749
   9 C :   -0.369130
  10 H :    0.177713
  11 H :    0.179094
  12 H :    0.178495
  13 H :    0.209000
  14 H :    0.169430
  15 H :    0.163059
  16 H :    0.156657
  17 H :    0.159947
  18 H :    0.149534
  19 H :    0.154767
  20 H :    0.155022
  21 H :    0.158802
  22 H :    0.174045
  23 H :    0.162926
Sum of atomic charges:   -0.0000000

LOEWDIN ATOMIC CHARGES
----------------------
   0 C :   -0.039856
   1 O :   -0.610741
   2 C :    0.378477
   3 O :   -0.493766
   4 C :   -0.148226
   5 C :   -0.275176
   6 C :   -0.301984
   7 C :   -0.306182
   8 C :   -0.302844
   9 C :   -0.274914
  10 H :    0.183760
  11 H :    0.181817
  12 H :    0.187945
  13 H :    0.198130
  14 H :    0.166699
  15 H :    0.168801
  16 H :    0.158757
  17 H :    0.159197
  18 H :    0.157529
  19 H :    0.156752
  20 H :    0.158354
  21 H :    0.159189
  22 H :    0.166965
  23 H :    0.171315

  Mayer bond orders larger than 0.100000
B(  0-C ,  1-O ) :   0.8245 B(  0-C , 10-H ) :   0.9588 B(  0-C , 11-H ) :   0.9553
B(  0-C , 12-H ) :   0.9608 B(  1-O ,  2-C ) :   1.1264 B(  2-C ,  3-O ) :   1.7742
B(  2-C ,  4-C ) :   0.9949 B(  4-C ,  5-C ) :   0.9017 B(  4-C ,  9-C ) :   0.9188
B(  4-C , 13-H ) :   0.8993 B(  5-C ,  6-C ) :   0.8899 B(  5-C , 14-H ) :   0.9908
B(  5-C , 15-H ) :   0.9392 B(  6-C ,  7-C ) :   0.9129 B(  6-C , 16-H ) :   0.9455
B(  6-C , 17-H ) :   1.0022 B(  7-C ,  8-C ) :   0.9155 B(  7-C , 18-H ) :   0.9840
B(  7-C , 19-H ) :   0.9486 B(  8-C ,  9-C ) :   0.8817 B(  8-C , 20-H ) :   0.9430
B(  8-C , 21-H ) :   0.9996 B(  9-C , 22-H ) :   0.9978 B(  9-C , 23-H ) :   0.9410

Dispersion correction           -0.007550847
FINAL SINGLE POINT ENERGY      -463.640829785653

DIPOLE MOMENT
-------------

Method             : SCF
Type of density    : Electron Density
Multiplicity       :   1
Irrep              :   0
Energy             :  -463.6463993879694385 Eh
Relativity type    :
Basis              : AO
                                X                 Y                 Z
Electronic contribution:     -7.294790626      -1.768960658      -0.656540927
Nuclear contribution   :      7.502166771       2.887418585       0.587991684
                        -----------------------------------------
Total Dipole Moment    :      0.207376145       1.118457927      -0.068549243
                        -----------------------------------------
Magnitude (a.u.)       :      1.139584134
Magnitude (Debye)      :      2.896592673

Rotational constants in cm-1:             0.097331             0.026242             0.021676
Rotational constants in MHz :          2917.924685           786.712461           649.832766

                             ****ORCA TERMINATED NORMALLY****
TOTAL RUN TIME: 0 days 0 hours 0 minutes 42 seconds 768 msec
