                         Program Version 6.0.0  -   RELEASE  -
|  1> ! pbe def2-sv(p) def2/J RI DEFGRID1 loosescf d4 GCP(DFT/SV(P)) printgap
|  2> %output
|  3>     printlevel normal
|  4> end
|  5> * xyz 0 1
|  6> C -0.4985023806 1.4143311015 -4.01627e-05
|  7> N -0.4225744522 -0.0353301093 0.0010737769
|  8> C -1.663066464 -0.7727586897 -0.0005115
|  9> C 0.766457971 -0.619996661 0.0005391404
| 10> O 1.8423460983 -0.031555026 -0.0004854372
| 11> H 0.0268315992 1.8129148141 0.8685936722
| 12> H -1.5389663511 1.71925544 0.0236421984
| 13> H -0.0141865219 1.8111611958 -0.8930774731
| 14> H -2.244848254 -0.5205424385 -0.887905609
| 15> H -2.2439778043 -0.5258289988 0.8889537388
| 16> H -1.4545257737 -1.8396799386 -0.003762573
| 17> H 0.7219966782 -1.722535151 -0.0035108041
| 18> *
| 19>
| 20>                          ****END OF INPUT****

CARTESIAN COORDINATES (ANGSTROEM)
---------------------------------
  C     -0.498502    1.414331   -0.000040
  N     -0.422574   -0.035330    0.001074
  C     -1.663066   -0.772759   -0.000512
  C      0.766458   -0.619997    0.000539
  O      1.842346   -0.031555   -0.000485
  H      0.026832    1.812915    0.868594
  H     -1.538966    1.719255    0.023642
  H     -0.014187    1.811161   -0.893077
  H     -2.244848   -0.520542   -0.887906
  H     -2.243978   -0.525829    0.888954
  H     -1.454526   -1.839680   -0.003763
  H      0.721997   -1.722535   -0.003511

 Total Charge           Charge          ....    0
 Multiplicity           Mult            ....    1
 Number of Electrons    NEL             ....   40
 Basis Dimension        Dim             ....   84

ORBITAL ENERGIES
----------------

  NO   OCC          E(Eh)            E(eV)
   0   2.0000     -18.705824      -509.0113
   1   2.0000     -14.035865      -381.9353
   2   2.0000      -9.962543      -271.0946
   3   2.0000      -9.932517      -270.2775
   4   2.0000      -9.921368      -269.9742
   5   2.0000      -0.925890       -25.1947
   6   2.0000      -0.853263       -23.2185
   7   2.0000      -0.667404       -18.1610
   8   2.0000      -0.641441       -17.4545
   9   2.0000      -0.510108       -13.8807
  10   2.0000      -0.468055       -12.7364
  11   2.0000      -0.435983       -11.8637
  12   2.0000      -0.415191       -11.2979
  13   2.0000      -0.374266       -10.1843
  14   2.0000      -0.372947       -10.1484
  15   2.0000      -0.355192        -9.6653
  16   2.0000      -0.334212        -9.0944
  17   2.0000      -0.322918        -8.7870
  18   2.0000      -0.207498        -5.6463
  19   2.0000      -0.193517        -5.2659
  20   0.0000       0.002643         0.0719
  21   0.0000       0.031812         0.8656
  22   0.0000       0.065063         1.7704
  23   0.0000       0.077819         2.1176
  24   0.0000       0.086984         2.3670

MULLIKEN ATOMIC CHARGES
-----------------------
   0 C :   -0.176180
   1 N :   -0.198081
   2 C :   -0.181744
   3 C :    0.053809
   4 O :   -0.258783
   5 H :    0.128073
   6 H :    0.107880
   7 H :    0.127210
   8 H :    0.118838
   9 H :    0.118936
  10 H :    0.121677
  11 H :    0.038365
Sum of atomic charges:   -0.0000000

LOEWDIN ATOMIC CHARGES
----------------------
   0 C :   -0.248328
   1 N :   -0.058639
   2 C :   -0.247328
   3 C :   -0.043884
   4 O :   -0.215525
   5 H :    0.129014
   6 H :    0.120352
   7 H :    0.128323
   8 H :    0.118128
   9 H :    0.118112
  10 H :    0.125615
  11 H :    0.074160

  Mayer bond orders larger than 0.100000
B(  0-C ,  1-N ) :   0.9901 B(  0-C ,  5-H ) :   0.9507 B(  0-C ,  6-H ) :   0.9505
B(  0-C ,  7-H ) :   0.9514 B(  1-N ,  2-C ) :   1.0171 B(  1-N ,  3-C ) :   1.2282
B(  2-C ,  8-H ) :   0.9493 B(  2-C ,  9-H ) :   0.9493 B(  2-C , 10-H ) :   0.9431
B(  3-C ,  4-O ) :   1.9886 B(  3-C , 11-H ) :   0.9122

Dispersion correction           -0.007684707
FINAL SINGLE POINT ENERGY      -247.958106539736

DIPOLE MOMENT
-------------

Method             : SCF
Type of density    : Electron Density
Multiplicity       :   1
Irrep              :   0
Energy             :  -248.0039766895993978 Eh
Relativity type    :
Basis              : AO
                                X                 Y                 Z
Electronic contribution:      4.733474721      -0.779540254       0.006659691
Nuclear contribution   :     -6.305443084       0.688654488      -0.006631227
                        -----------------------------------------
Total Dipole Moment    :     -1.571968363      -0.090885766       0.000028464
                        -----------------------------------------
Magnitude (a.u.)       :      1.574593521
Magnitude (Debye)      :      4.002298662

Rotational constants in cm-1:             0.303675             0.142294             0.100541
Rotational constants in MHz :          9103.956044          4265.865135          3014.131665

                             ****ORCA TERMINATED NORMALLY****
TOTAL RUN TIME: 0 days 0 hours 0 minutes 4 seconds 739 msec
