                         Program Version 6.0.0  -   RELEASE  -
|  1> ! pbe def2-sv(p) def2/J RI DEFGRID1 loosescf d4 GCP(DFT/SV(P)) printgap
|  2> %output
|  3>     printlevel normal
|  4> end
|  5> * xyz 0 1
|  6> C -3.2941195815 0.3891569484 -0.5768729781
|  7> C -1.874662381 0.5044450858 -0.12237741
|  8> C -1.1030876562 1.5661790888 -0.3223227129
|  9> C 0.3213044615 1.5272600159 0.1309668997
| 10> C 0.9407690577 0.2265482085 -0.404184863
| 11> H 0.8428471362 0.262465172 -1.4951709029
| 12> C 0.1449641356 -0.9913577876 0.1077721955
| 13> C -1.2565069799 -0.6418179761 0.6486562828
| 14> H -1.1439204388 -0.3117134492 1.6974355592
| 15> O -2.0079732456 -1.8402653611 0.6191716822
| 16> C 2.4064969511 0.0507449963 -0.085058916
| 17> C 3.0352894212 0.6742247842 0.8982592574
| 18> C 3.1153824963 -0.9247077765 -0.9775772518
| 19> H -3.5536800917 1.2298763516 -1.2139507529
| 20> H -3.9731384818 0.3797816038 0.2757798818
| 21> H -3.4323229444 -0.5366863783 -1.1331487397
| 22> H -1.4639971106 2.439326936 -0.8437255973
| 23> H 0.8796008719 2.3863966978 -0.2391333047
| 24> H 0.3638548337 1.529279911 1.2233638097
| 25> H -0.003869562 -1.7148489402 -0.6947813346
| 26> H 0.6960667315 -1.4927195949 0.9053157775
| 27> H -2.8587533301 -1.693254408 1.0526094889
| 28> H 4.0806895646 0.5002390499 1.0914509207
| 29> H 2.551197044 1.3796724929 1.5493335207
| 30> H 2.6122074009 -1.8896114998 -0.9558525682
| 31> H 3.1024748134 -0.567204996 -2.0063133739
| 32> H 4.1478652202 -1.0588051434 -0.6674948757
| 33> *
| 34>
| 35>                          ****END OF INPUT****

CARTESIAN COORDINATES (ANGSTROEM)
---------------------------------
  C     -3.294120    0.389157   -0.576873
  C     -1.874662    0.504445   -0.122377
  C     -1.103088    1.566179   -0.322323
  C      0.321304    1.527260    0.130967
  C      0.940769    0.226548   -0.404185
  H      0.842847    0.262465   -1.495171
  C      0.144964   -0.991358    0.107772
  C     -1.256507   -0.641818    0.648656
  H     -1.143920   -0.311713    1.697436
  O     -2.007973   -1.840265    0.619172
  C      2.406497    0.050745   -0.085059
  C      3.035289    0.674225    0.898259
  C      3.115382   -0.924708   -0.977577
  H     -3.553680    1.229876   -1.213951
  H     -3.973138    0.379782    0.275780
  H     -3.432323   -0.536686   -1.133149
  H     -1.463997    2.439327   -0.843726
  H      0.879601    2.386397   -0.239133
  H      0.363855    1.529280    1.223364
  H     -0.003870   -1.714849   -0.694781
  H      0.696067   -1.492720    0.905316
  H     -2.858753   -1.693254    1.052609
  H      4.080690    0.500239    1.091451
  H      2.551197    1.379672    1.549334
  H      2.612207   -1.889611   -0.955853
  H      3.102475   -0.567205   -2.006313
  H      4.147865   -1.058805   -0.667495

 Total Charge           Charge          ....    0
 Multiplicity           Mult            ....    1
 Number of Electrons    NEL             ....   84
 Basis Dimension        Dim             ....  186

ORBITAL ENERGIES
----------------

  NO   OCC          E(Eh)            E(eV)
   0   2.0000     -18.745637      -510.0947
   1   2.0000      -9.940261      -270.4883
   2   2.0000      -9.898283      -269.3460
   3   2.0000      -9.895867      -269.2802
   4   2.0000      -9.887499      -269.0525
   5   2.0000      -9.885465      -268.9972
   6   2.0000      -9.884007      -268.9575
   7   2.0000      -9.882819      -268.9252
   8   2.0000      -9.877377      -268.7771
   9   2.0000      -9.877002      -268.7669
  10   2.0000      -9.864721      -268.4327
  11   2.0000      -0.923804       -25.1380
  12   2.0000      -0.765606       -20.8332
  13   2.0000      -0.721781       -19.6406
  14   2.0000      -0.675150       -18.3718
  15   2.0000      -0.656539       -17.8653
  16   2.0000      -0.613608       -16.6971
  17   2.0000      -0.607719       -16.5369
  18   2.0000      -0.549189       -14.9442
  19   2.0000      -0.532200       -14.4819
  20   2.0000      -0.485970       -13.2239
  21   2.0000      -0.465014       -12.6537
  22   2.0000      -0.439124       -11.9492
  23   2.0000      -0.427835       -11.6420
  24   2.0000      -0.416098       -11.3226
  25   2.0000      -0.391411       -10.6508
  26   2.0000      -0.382660       -10.4127
  27   2.0000      -0.381638       -10.3849
  28   2.0000      -0.370385       -10.0787
  29   2.0000      -0.359951        -9.7948
  30   2.0000      -0.350872        -9.5477
  31   2.0000      -0.343228        -9.3397
  32   2.0000      -0.328595        -8.9415
  33   2.0000      -0.323328        -8.7982
  34   2.0000      -0.310047        -8.4368
  35   2.0000      -0.298842        -8.1319
  36   2.0000      -0.290658        -7.9092
  37   2.0000      -0.277465        -7.5502
  38   2.0000      -0.265173        -7.2157
  39   2.0000      -0.220859        -6.0099
  40   2.0000      -0.215566        -5.8658
  41   2.0000      -0.200438        -5.4542
  42   0.0000      -0.011781        -0.3206
  43   0.0000      -0.005416        -0.1474
  44   0.0000       0.023282         0.6335
  45   0.0000       0.040666         1.1066
  46   0.0000       0.056050         1.5252

MULLIKEN ATOMIC CHARGES
-----------------------
   0 C :   -0.238278
   1 C :   -0.071237
   2 C :   -0.214434
   3 C :   -0.011801
   4 C :   -0.164069
   5 H :    0.064158
   6 C :   -0.098821
   7 C :    0.089733
   8 H :    0.063914
   9 O :   -0.411776
  10 C :   -0.043575
  11 C :   -0.238287
  12 C :   -0.211126
  13 H :    0.101389
  14 H :    0.101131
  15 H :    0.117679
  16 H :    0.038509
  17 H :    0.083684
  18 H :    0.087828
  19 H :    0.090958
  20 H :    0.086141
  21 H :    0.298325
  22 H :    0.078003
  23 H :    0.087645
  24 H :    0.112524
  25 H :    0.106548
  26 H :    0.095237
Sum of atomic charges:    0.0000000

LOEWDIN ATOMIC CHARGES
----------------------
   0 C :   -0.330093
   1 C :   -0.083516
   2 C :   -0.154806
   3 C :   -0.213493
   4 C :   -0.125816
   5 H :    0.123956
   6 C :   -0.208890
   7 C :   -0.038888
   8 H :    0.107515
   9 O :   -0.320486
  10 C :   -0.049066
  11 C :   -0.274631
  12 C :   -0.321451
  13 H :    0.127367
  14 H :    0.121763
  15 H :    0.129502
  16 H :    0.115593
  17 H :    0.123522
  18 H :    0.124660
  19 H :    0.126555
  20 H :    0.125068
  21 H :    0.282837
  22 H :    0.117152
  23 H :    0.116202
  24 H :    0.128322
  25 H :    0.128324
  26 H :    0.122795

  Mayer bond orders larger than 0.100000
B(  0-C ,  1-C ) :   1.1406 B(  0-C , 13-H ) :   0.9382 B(  0-C , 14-H ) :   0.9277
B(  0-C , 15-H ) :   0.9254 B(  1-C ,  2-C ) :   1.8666 B(  1-C ,  7-C ) :   1.0113
B(  2-C ,  3-C ) :   1.0732 B(  2-C , 16-H ) :   0.9452 B(  3-C ,  4-C ) :   1.1433
B(  3-C , 17-H ) :   0.9105 B(  3-C , 18-H ) :   0.8512 B(  4-C ,  5-H ) :   0.8719
B(  4-C ,  6-C ) :   1.0634 B(  4-C , 10-C ) :   0.9920 B(  6-C ,  7-C ) :   1.1093
B(  6-C , 19-H ) :   0.8986 B(  6-C , 20-H ) :   0.8987 B(  7-C ,  8-H ) :   0.8658
B(  7-C ,  9-O ) :   1.1022 B(  9-O , 21-H ) :   0.8425 B( 10-C , 11-C ) :   2.0482
B( 10-C , 12-C ) :   1.1194 B( 11-C , 22-H ) :   0.8991 B( 11-C , 23-H ) :   0.9010
B( 12-C , 24-H ) :   0.9317 B( 12-C , 25-H ) :   0.9296 B( 12-C , 26-H ) :   0.9396

Dispersion correction           -0.028186479
FINAL SINGLE POINT ENERGY      -464.784318882771

DIPOLE MOMENT
-------------

Method             : SCF
Type of density    : Electron Density
Multiplicity       :   1
Irrep              :   0
Energy             :  -464.8746896551671171 Eh
Relativity type    :
Basis              : AO
                                X                 Y                 Z
Electronic contribution:     -3.032817591      -0.530269995       1.452073336
Nuclear contribution   :      2.641298504       0.762829168      -1.355177623
                        -----------------------------------------
Total Dipole Moment    :     -0.391519087       0.232559173       0.096895713
                        -----------------------------------------
Magnitude (a.u.)       :      0.465574638
Magnitude (Debye)      :      1.183396683

Rotational constants in cm-1:             0.069475             0.022412             0.019292
Rotational constants in MHz :          2082.794740           671.883368           578.350319

                             ****ORCA TERMINATED NORMALLY****
TOTAL RUN TIME: 0 days 0 hours 0 minutes 12 seconds 225 msec
