                         Program Version 6.0.0  -   RELEASE  -
|  1> ! pbe def2-sv(p) def2/J RI DEFGRID1 loosescf d4 GCP(DFT/SV(P)) printgap
|  2> %output
|  3>     printlevel normal
|  4> end
|  5> * xyz 0 1
|  6> C -2.0096387871 1.2207474957 -0.3763895218
|  7> C -1.6496512181 -0.228601473 -0.0542956531
|  8> C -1.848786144 -0.5002760737 1.4360935281
|  9> C -0.2916969882 -0.6957248056 -0.6168894195
| 10> C 1.0692083009 -0.0970700887 -0.1971847419
| 11> C 1.2095496604 1.3804182401 -0.5702496556
| 12> C 1.3652450139 -0.2735845616 1.293525545
| 13> C 2.132240782 -0.8819110921 -0.9838595922
| 14> H -1.475734164 1.9144195907 0.266026372
| 15> H -1.7810064912 1.4565655047 -1.4124021508
| 16> H -3.075106981 1.3766021283 -0.2177971436
| 17> H -2.3771127122 -0.857809576 -0.5862193948
| 18> H -1.5112656173 -1.5000179039 1.6968757951
| 19> H -1.3123362736 0.2189872191 2.0470054004
| 20> H -2.9057831955 -0.4216290794 1.6835042329
| 21> H -0.2342948689 -1.7699123036 -0.4158234486
| 22> H -0.3577166646 -0.5832530643 -1.7034606964
| 23> H 2.2464006892 1.6910409465 -0.4564403168
| 24> H 0.6029974133 2.0120602605 0.0698522439
| 25> H 0.9157843234 1.5476294847 -1.6034818299
| 26> H 2.4126593734 -0.0511479743 1.4890388223
| 27> H 1.1697621745 -1.2956048128 1.6083446703
| 28> H 0.7661217292 0.3984266319 1.899369672
| 29> H 1.9757797819 -0.7752798986 -2.0550918268
| 30> H 2.0925562114 -1.9403854599 -0.7360286991
| 31> H 3.1286915258 -0.5149824631 -0.7480351935
| 32> *
| 33>
| 34>                          ****END OF INPUT****

CARTESIAN COORDINATES (ANGSTROEM)
---------------------------------
  C     -2.009639    1.220747   -0.376390
  C     -1.649651   -0.228601   -0.054296
  C     -1.848786   -0.500276    1.436094
  C     -0.291697   -0.695725   -0.616889
  C      1.069208   -0.097070   -0.197185
  C      1.209550    1.380418   -0.570250
  C      1.365245   -0.273585    1.293526
  C      2.132241   -0.881911   -0.983860
  H     -1.475734    1.914420    0.266026
  H     -1.781006    1.456566   -1.412402
  H     -3.075107    1.376602   -0.217797
  H     -2.377113   -0.857810   -0.586219
  H     -1.511266   -1.500018    1.696876
  H     -1.312336    0.218987    2.047005
  H     -2.905783   -0.421629    1.683504
  H     -0.234295   -1.769912   -0.415823
  H     -0.357717   -0.583253   -1.703461
  H      2.246401    1.691041   -0.456440
  H      0.602997    2.012060    0.069852
  H      0.915784    1.547629   -1.603482
  H      2.412659   -0.051148    1.489039
  H      1.169762   -1.295605    1.608345
  H      0.766122    0.398427    1.899370
  H      1.975780   -0.775280   -2.055092
  H      2.092556   -1.940385   -0.736029
  H      3.128692   -0.514982   -0.748035

 Total Charge           Charge          ....    0
 Multiplicity           Mult            ....    1
 Number of Electrons    NEL             ....   66
 Basis Dimension        Dim             ....  148

ORBITAL ENERGIES
----------------

  NO   OCC          E(Eh)            E(eV)
   0   2.0000      -9.902132      -269.4507
   1   2.0000      -9.891102      -269.1506
   2   2.0000      -9.876764      -268.7604
   3   2.0000      -9.867764      -268.5155
   4   2.0000      -9.867557      -268.5099
   5   2.0000      -9.867210      -268.5004
   6   2.0000      -9.867023      -268.4953
   7   2.0000      -9.866727      -268.4873
   8   2.0000      -0.746355       -20.3093
   9   2.0000      -0.705037       -19.1850
  10   2.0000      -0.614217       -16.7137
  11   2.0000      -0.613831       -16.7032
  12   2.0000      -0.600556       -16.3420
  13   2.0000      -0.600073       -16.3288
  14   2.0000      -0.505647       -13.7594
  15   2.0000      -0.459370       -12.5001
  16   2.0000      -0.417058       -11.3487
  17   2.0000      -0.407290       -11.0829
  18   2.0000      -0.396356       -10.7854
  19   2.0000      -0.378172       -10.2906
  20   2.0000      -0.373397       -10.1606
  21   2.0000      -0.367816       -10.0088
  22   2.0000      -0.348857        -9.4929
  23   2.0000      -0.334187        -9.0937
  24   2.0000      -0.326732        -8.8908
  25   2.0000      -0.316471        -8.6116
  26   2.0000      -0.309064        -8.4101
  27   2.0000      -0.308700        -8.4002
  28   2.0000      -0.291341        -7.9278
  29   2.0000      -0.283379        -7.7111
  30   2.0000      -0.273395        -7.4395
  31   2.0000      -0.264940        -7.2094
  32   2.0000      -0.251574        -6.8457
  33   0.0000       0.021773         0.5925
  34   0.0000       0.057410         1.5622
  35   0.0000       0.063785         1.7357
  36   0.0000       0.070918         1.9298
  37   0.0000       0.077667         2.1134

MULLIKEN ATOMIC CHARGES
-----------------------
   0 C :   -0.243881
   1 C :   -0.142453
   2 C :   -0.243823
   3 C :   -0.108027
   4 C :   -0.257194
   5 C :   -0.204154
   6 C :   -0.203906
   7 C :   -0.212666
   8 H :    0.101887
   9 H :    0.093828
  10 H :    0.094419
  11 H :    0.066348
  12 H :    0.093302
  13 H :    0.100227
  14 H :    0.094552
  15 H :    0.069151
  16 H :    0.069449
  17 H :    0.089357
  18 H :    0.099366
  19 H :    0.088956
  20 H :    0.089118
  21 H :    0.089727
  22 H :    0.100407
  23 H :    0.091547
  24 H :    0.091736
  25 H :    0.092727
Sum of atomic charges:    0.0000000

LOEWDIN ATOMIC CHARGES
----------------------
   0 C :   -0.330647
   1 C :   -0.154202
   2 C :   -0.330830
   3 C :   -0.203088
   4 C :   -0.103577
   5 C :   -0.316925
   6 C :   -0.316626
   7 C :   -0.315107
   8 H :    0.114413
   9 H :    0.115804
  10 H :    0.117213
  11 H :    0.117588
  12 H :    0.115566
  13 H :    0.114480
  14 H :    0.117126
  15 H :    0.112788
  16 H :    0.112834
  17 H :    0.115632
  18 H :    0.114458
  19 H :    0.115374
  20 H :    0.115668
  21 H :    0.115673
  22 H :    0.114287
  23 H :    0.114403
  24 H :    0.114317
  25 H :    0.113379

  Mayer bond orders larger than 0.100000
B(  0-C ,  1-C ) :   1.1222 B(  0-C ,  8-H ) :   0.9395 B(  0-C ,  9-H ) :   0.9466
B(  0-C , 10-H ) :   0.9456 B(  1-C ,  2-C ) :   1.1222 B(  1-C ,  3-C ) :   1.1013
B(  1-C , 11-H ) :   0.8910 B(  2-C , 12-H ) :   0.9467 B(  2-C , 13-H ) :   0.9396
B(  2-C , 14-H ) :   0.9461 B(  3-C ,  4-C ) :   1.0495 B(  3-C , 15-H ) :   0.9075
B(  3-C , 16-H ) :   0.9074 B(  4-C ,  5-C ) :   1.0850 B(  4-C ,  6-C ) :   1.0858
B(  4-C ,  7-C ) :   1.0645 B(  5-C , 17-H ) :   0.9435 B(  5-C , 18-H ) :   0.9362
B(  5-C , 19-H ) :   0.9441 B(  6-C , 20-H ) :   0.9429 B(  6-C , 21-H ) :   0.9438
B(  6-C , 22-H ) :   0.9366 B(  7-C , 23-H ) :   0.9486 B(  7-C , 24-H ) :   0.9483
B(  7-C , 25-H ) :   0.9439

Dispersion correction           -0.023914292
FINAL SINGLE POINT ENERGY      -314.868584167683

DIPOLE MOMENT
-------------

Method             : SCF
Type of density    : Electron Density
Multiplicity       :   1
Irrep              :   0
Energy             :  -314.9548412425093602 Eh
Relativity type    :
Basis              : AO
                                X                 Y                 Z
Electronic contribution:     -0.307734885      -0.866106191      -0.785639600
Nuclear contribution   :      0.263057008       0.849701651       0.774205231
                        -----------------------------------------
Total Dipole Moment    :     -0.044677877      -0.016404540      -0.011434370
                        -----------------------------------------
Magnitude (a.u.)       :      0.048948610
Magnitude (Debye)      :      0.124417480

Rotational constants in cm-1:             0.094108             0.044621             0.040297
Rotational constants in MHz :          2821.278258          1337.709649          1208.070663

                             ****ORCA TERMINATED NORMALLY****
TOTAL RUN TIME: 0 days 0 hours 0 minutes 11 seconds 603 msec
