                         Program Version 6.0.0  -   RELEASE  -
|  1> ! pbe def2-sv(p) def2/J RI DEFGRID1 loosescf d4 GCP(DFT/SV(P)) printgap
|  2> %output
|  3>     printlevel normal
|  4> end
|  5> * xyz 0 1
|  6> C -1.7188662115 -1.0304857262 -0.7396858367
|  7> C -1.0667208129 -0.5122874095 0.5497801029
|  8> H -1.7814967333 -0.6657405637 1.368003906
|  9> C -0.7446186549 0.9864028822 0.4548020996
| 10> H -1.6209292608 1.4820896797 0.0128808177
| 11> C 0.4901339007 1.2570372652 -0.4296991562
| 12> H 0.8144026973 2.2881934615 -0.2212994727
| 13> C 1.6553952352 0.3506146427 9.48186e-05
| 14> H 2.414451968 0.3648086348 -0.7889896551
| 15> C 1.2358208961 -1.1221552527 0.1868420947
| 16> H 2.0079721877 -1.5971285983 0.8128928316
| 17> O 0.0605651256 -1.2821855515 0.9444648917
| 18> O 1.1576286728 -1.7326344409 -1.0620515226
| 19> O 2.2662474281 0.8374344406 1.1658296553
| 20> O 0.2411283623 1.079551117 -1.7983071958
| 21> O -0.4434359955 1.53755668 1.7191731619
| 22> O -2.9626423516 -0.3764618226 -0.8791641722
| 23> H -1.85795492 -2.1137442418 -0.6346434722
| 24> H -1.0623803317 -0.829284317 -1.5919803071
| 25> H 1.0914522093 -2.6940437211 -0.9576215888
| 26> H 1.5717181902 1.0263997162 1.8210235646
| 27> H -0.279901639 1.8240259159 -2.1328418309
| 28> H -1.2042096366 1.4420924765 2.3098986395
| 29> H -3.3908358067 -0.6872735792 -1.6888762404
| 30> *
| 31>
| 32>                          ****END OF INPUT****

CARTESIAN COORDINATES (ANGSTROEM)
---------------------------------
  C     -1.718866   -1.030486   -0.739686
  C     -1.066721   -0.512287    0.549780
  H     -1.781497   -0.665741    1.368004
  C     -0.744619    0.986403    0.454802
  H     -1.620929    1.482090    0.012881
  C      0.490134    1.257037   -0.429699
  H      0.814403    2.288193   -0.221299
  C      1.655395    0.350615    0.000095
  H      2.414452    0.364809   -0.788990
  C      1.235821   -1.122155    0.186842
  H      2.007972   -1.597129    0.812893
  O      0.060565   -1.282186    0.944465
  O      1.157629   -1.732634   -1.062052
  O      2.266247    0.837434    1.165830
  O      0.241128    1.079551   -1.798307
  O     -0.443436    1.537557    1.719173
  O     -2.962642   -0.376462   -0.879164
  H     -1.857955   -2.113744   -0.634643
  H     -1.062380   -0.829284   -1.591980
  H      1.091452   -2.694044   -0.957622
  H      1.571718    1.026400    1.821024
  H     -0.279902    1.824026   -2.132842
  H     -1.204210    1.442092    2.309899
  H     -3.390836   -0.687274   -1.688876

 Total Charge           Charge          ....    0
 Multiplicity           Mult            ....    1
 Number of Electrons    NEL             ....   96
 Basis Dimension        Dim             ....  192

ORBITAL ENERGIES
----------------

  NO   OCC          E(Eh)            E(eV)
   0   2.0000     -18.767798      -510.6977
   1   2.0000     -18.760823      -510.5080
   2   2.0000     -18.756683      -510.3953
   3   2.0000     -18.753870      -510.3188
   4   2.0000     -18.750376      -510.2237
   5   2.0000     -18.732017      -509.7241
   6   2.0000      -9.972812      -271.3740
   7   2.0000      -9.942235      -270.5420
   8   2.0000      -9.940940      -270.5067
   9   2.0000      -9.940928      -270.5064
  10   2.0000      -9.929049      -270.1832
  11   2.0000      -9.922018      -269.9918
  12   2.0000      -0.973106       -26.4796
  13   2.0000      -0.944299       -25.6957
  14   2.0000      -0.931918       -25.3588
  15   2.0000      -0.924203       -25.1488
  16   2.0000      -0.909698       -24.7542
  17   2.0000      -0.903910       -24.5966
  18   2.0000      -0.700489       -19.0613
  19   2.0000      -0.680096       -18.5063
  20   2.0000      -0.616881       -16.7862
  21   2.0000      -0.581163       -15.8143
  22   2.0000      -0.563238       -15.3265
  23   2.0000      -0.513711       -13.9788
  24   2.0000      -0.501497       -13.6464
  25   2.0000      -0.476085       -12.9549
  26   2.0000      -0.464097       -12.6287
  27   2.0000      -0.454531       -12.3684
  28   2.0000      -0.449417       -12.2293
  29   2.0000      -0.424160       -11.5420
  30   2.0000      -0.404110       -10.9964
  31   2.0000      -0.395000       -10.7485
  32   2.0000      -0.387885       -10.5549
  33   2.0000      -0.368750       -10.0342
  34   2.0000      -0.358702        -9.7608
  35   2.0000      -0.347511        -9.4562
  36   2.0000      -0.320802        -8.7295
  37   2.0000      -0.314061        -8.5460
  38   2.0000      -0.305035        -8.3004
  39   2.0000      -0.290154        -7.8955
  40   2.0000      -0.270740        -7.3672
  41   2.0000      -0.259830        -7.0703
  42   2.0000      -0.245341        -6.6761
  43   2.0000      -0.237271        -6.4565
  44   2.0000      -0.226701        -6.1689
  45   2.0000      -0.215916        -5.8754
  46   2.0000      -0.209077        -5.6893
  47   2.0000      -0.201493        -5.4829
  48   0.0000       0.011883         0.3234
  49   0.0000       0.018342         0.4991
  50   0.0000       0.026281         0.7151
  51   0.0000       0.034881         0.9492
  52   0.0000       0.071904         1.9566

MULLIKEN ATOMIC CHARGES
-----------------------
   0 C :   -0.011530
   1 C :    0.043756
   2 H :    0.058014
   3 C :    0.043348
   4 H :    0.069151
   5 C :    0.013293
   6 H :    0.078950
   7 C :    0.074428
   8 H :    0.082851
   9 C :    0.172883
  10 H :    0.065432
  11 O :   -0.313573
  12 O :   -0.385548
  13 O :   -0.432343
  14 O :   -0.391292
  15 O :   -0.426908
  16 O :   -0.442899
  17 H :    0.061762
  18 H :    0.120787
  19 H :    0.300589
  20 H :    0.301540
  21 H :    0.304782
  22 H :    0.309288
  23 H :    0.303240
Sum of atomic charges:    0.0000000

LOEWDIN ATOMIC CHARGES
----------------------
   0 C :   -0.154282
   1 C :   -0.062063
   2 H :    0.109768
   3 C :   -0.080891
   4 H :    0.105324
   5 C :   -0.072014
   6 H :    0.108003
   7 C :   -0.068161
   8 H :    0.124630
   9 C :   -0.011571
  10 H :    0.099486
  11 O :   -0.146194
  12 O :   -0.302936
  13 O :   -0.317669
  14 O :   -0.300892
  15 O :   -0.312628
  16 O :   -0.348436
  17 H :    0.093299
  18 H :    0.110338
  19 H :    0.284957
  20 H :    0.273072
  21 H :    0.289451
  22 H :    0.291190
  23 H :    0.288220

  Mayer bond orders larger than 0.100000
B(  0-C ,  1-C ) :   1.0671 B(  0-C , 16-O ) :   1.0545 B(  0-C , 17-H ) :   0.9079
B(  0-C , 18-H ) :   0.8880 B(  1-C ,  2-H ) :   0.8922 B(  1-C ,  3-C ) :   1.0052
B(  1-C , 11-O ) :   1.0229 B(  3-C ,  4-H ) :   0.8884 B(  3-C ,  5-C ) :   0.9663
B(  3-C , 15-O ) :   1.0089 B(  5-C ,  6-H ) :   0.9048 B(  5-C ,  7-C ) :   1.0004
B(  5-C , 14-O ) :   1.0881 B(  7-C ,  8-H ) :   0.8828 B(  7-C ,  9-C ) :   0.9889
B(  7-C , 13-O ) :   1.0608 B(  9-C , 10-H ) :   0.9031 B(  9-C , 11-O ) :   1.0436
B(  9-C , 12-O ) :   1.1271 B( 12-O , 19-H ) :   0.8402 B( 13-O , 20-H ) :   0.8162
B( 14-O , 21-H ) :   0.8438 B( 15-O , 22-H ) :   0.8415 B( 16-O , 23-H ) :   0.8506

Dispersion correction           -0.025804008
FINAL SINGLE POINT ENERGY      -685.692617340194

DIPOLE MOMENT
-------------

Method             : SCF
Type of density    : Electron Density
Multiplicity       :   1
Irrep              :   0
Energy             :  -685.8232200579068376 Eh
Relativity type    :
Basis              : AO
                                X                 Y                 Z
Electronic contribution:      1.807363551      -0.005098676       1.243032507
Nuclear contribution   :     -3.089080889      -0.148799599      -1.585631811
                        -----------------------------------------
Total Dipole Moment    :     -1.281717337      -0.153898275      -0.342599303
                        -----------------------------------------
Magnitude (a.u.)       :      1.335611580
Magnitude (Debye)      :      3.394854844

Rotational constants in cm-1:             0.040320             0.028857             0.025044
Rotational constants in MHz :          1208.768041           865.112441           750.786642

                             ****ORCA TERMINATED NORMALLY****
TOTAL RUN TIME: 0 days 0 hours 0 minutes 12 seconds 502 msec
