                         Program Version 6.0.0  -   RELEASE  -
|  1> ! pbe def2-sv(p) def2/J RI DEFGRID1 loosescf d4 GCP(DFT/SV(P)) printgap
|  2> %output
|  3>     printlevel normal
|  4> end
|  5> * xyz 0 1
|  6> C -2.0586174278 -1.3945813051 -0.0955346974
|  7> C -1.0021001229 -0.5295012623 0.6079223313
|  8> H -1.4160589228 -0.1776548396 1.561247608
|  9> C -0.6542439192 0.6998203437 -0.2408416008
| 10> H -0.5788713557 0.4145880063 -1.3026212049
| 11> C 0.7058603078 1.2504511361 0.1998879446
| 12> H 0.683317098 1.4422043942 1.2838095224
| 13> C 1.7955920695 0.2111540723 -0.0798907848
| 14> H 2.1013585707 0.3338490283 -1.1254541369
| 15> C 1.2399072 -1.2263756151 0.0809110577
| 16> H 2.0023347724 -1.8304604308 0.5925269603
| 17> O 0.1393999556 -1.3064211644 0.9515389684
| 18> O 0.9499456055 -1.7293619987 -1.1869411151
| 19> O 2.8634176857 0.4395318175 0.8039877218
| 20> O 1.0278224619 2.4258635603 -0.4971332282
| 21> O -1.604394573 1.7236173122 -0.0795358439
| 22> O -3.2243400016 -0.6148075974 -0.2448949509
| 23> H -2.2474230963 -2.2804241762 0.5219421422
| 24> H -1.6711019284 -1.7066487444 -1.0732735338
| 25> H 0.8461910603 -2.6930532557 -1.1500020534
| 26> H 3.7004441937 0.1733597756 0.3986497029
| 27> H 0.2626009332 3.0198293408 -0.4418946767
| 28> H -2.4863083973 1.3452586482 -0.2315646337
| 29> H -3.9215496043 -1.1511929161 -0.6477566309
| 30> *
| 31>
| 32>                          ****END OF INPUT****

CARTESIAN COORDINATES (ANGSTROEM)
---------------------------------
  C     -2.058617   -1.394581   -0.095535
  C     -1.002100   -0.529501    0.607922
  H     -1.416059   -0.177655    1.561248
  C     -0.654244    0.699820   -0.240842
  H     -0.578871    0.414588   -1.302621
  C      0.705860    1.250451    0.199888
  H      0.683317    1.442204    1.283810
  C      1.795592    0.211154   -0.079891
  H      2.101359    0.333849   -1.125454
  C      1.239907   -1.226376    0.080911
  H      2.002335   -1.830460    0.592527
  O      0.139400   -1.306421    0.951539
  O      0.949946   -1.729362   -1.186941
  O      2.863418    0.439532    0.803988
  O      1.027822    2.425864   -0.497133
  O     -1.604395    1.723617   -0.079536
  O     -3.224340   -0.614808   -0.244895
  H     -2.247423   -2.280424    0.521942
  H     -1.671102   -1.706649   -1.073274
  H      0.846191   -2.693053   -1.150002
  H      3.700444    0.173360    0.398650
  H      0.262601    3.019829   -0.441895
  H     -2.486308    1.345259   -0.231565
  H     -3.921550   -1.151193   -0.647757

 Total Charge           Charge          ....    0
 Multiplicity           Mult            ....    1
 Number of Electrons    NEL             ....   96
 Basis Dimension        Dim             ....  192

ORBITAL ENERGIES
----------------

  NO   OCC          E(Eh)            E(eV)
   0   2.0000     -18.773608      -510.8559
   1   2.0000     -18.767271      -510.6834
   2   2.0000     -18.764579      -510.6101
   3   2.0000     -18.745155      -510.0816
   4   2.0000     -18.741607      -509.9851
   5   2.0000     -18.730583      -509.6851
   6   2.0000      -9.981697      -271.6158
   7   2.0000      -9.940226      -270.4873
   8   2.0000      -9.938379      -270.4370
   9   2.0000      -9.933671      -270.3089
  10   2.0000      -9.930776      -270.2301
  11   2.0000      -9.927240      -270.1339
  12   2.0000      -0.979008       -26.6402
  13   2.0000      -0.946550       -25.7569
  14   2.0000      -0.930272       -25.3140
  15   2.0000      -0.921138       -25.0654
  16   2.0000      -0.912141       -24.8206
  17   2.0000      -0.899309       -24.4714
  18   2.0000      -0.698373       -19.0037
  19   2.0000      -0.689224       -18.7547
  20   2.0000      -0.618884       -16.8407
  21   2.0000      -0.579126       -15.7588
  22   2.0000      -0.555677       -15.1207
  23   2.0000      -0.510908       -13.9025
  24   2.0000      -0.497987       -13.5509
  25   2.0000      -0.490067       -13.3354
  26   2.0000      -0.470201       -12.7948
  27   2.0000      -0.463296       -12.6069
  28   2.0000      -0.453562       -12.3420
  29   2.0000      -0.417527       -11.3615
  30   2.0000      -0.408980       -11.1289
  31   2.0000      -0.392866       -10.6904
  32   2.0000      -0.383127       -10.4254
  33   2.0000      -0.364462        -9.9175
  34   2.0000      -0.357906        -9.7391
  35   2.0000      -0.353574        -9.6212
  36   2.0000      -0.326421        -8.8824
  37   2.0000      -0.317923        -8.6511
  38   2.0000      -0.296227        -8.0607
  39   2.0000      -0.288960        -7.8630
  40   2.0000      -0.270471        -7.3599
  41   2.0000      -0.264260        -7.1909
  42   2.0000      -0.255018        -6.9394
  43   2.0000      -0.238024        -6.4770
  44   2.0000      -0.224850        -6.1185
  45   2.0000      -0.221369        -6.0238
  46   2.0000      -0.206580        -5.6213
  47   2.0000      -0.197000        -5.3607
  48   0.0000       0.005823         0.1584
  49   0.0000       0.017519         0.4767
  50   0.0000       0.033369         0.9080
  51   0.0000       0.059659         1.6234
  52   0.0000       0.064493         1.7549

MULLIKEN ATOMIC CHARGES
-----------------------
   0 C :    0.049663
   1 C :    0.048244
   2 H :    0.077127
   3 C :    0.004288
   4 H :    0.060755
   5 C :    0.083492
   6 H :    0.059249
   7 C :    0.063815
   8 H :    0.072898
   9 C :    0.165631
  10 H :    0.050159
  11 O :   -0.316159
  12 O :   -0.395116
  13 O :   -0.405558
  14 O :   -0.419879
  15 O :   -0.434970
  16 O :   -0.448279
  17 H :    0.079777
  18 H :    0.069014
  19 H :    0.304041
  20 H :    0.303337
  21 H :    0.305076
  22 H :    0.309887
  23 H :    0.313506
Sum of atomic charges:   -0.0000000

LOEWDIN ATOMIC CHARGES
----------------------
   0 C :   -0.135262
   1 C :   -0.065327
   2 H :    0.118730
   3 C :   -0.081829
   4 H :    0.104515
   5 C :   -0.057209
   6 H :    0.110144
   7 C :   -0.072264
   8 H :    0.115152
   9 C :   -0.010606
  10 H :    0.096717
  11 O :   -0.143006
  12 O :   -0.311001
  13 O :   -0.311882
  14 O :   -0.319414
  15 O :   -0.328783
  16 O :   -0.337607
  17 H :    0.099578
  18 H :    0.096838
  19 H :    0.285515
  20 H :    0.289079
  21 H :    0.284633
  22 H :    0.278880
  23 H :    0.294412

  Mayer bond orders larger than 0.100000
B(  0-C ,  1-C ) :   1.0720 B(  0-C , 16-O ) :   1.0473 B(  0-C , 17-H ) :   0.9167
B(  0-C , 18-H ) :   0.9036 B(  1-C ,  2-H ) :   0.8825 B(  1-C ,  3-C ) :   0.9763
B(  1-C , 11-O ) :   0.9798 B(  3-C ,  4-H ) :   0.8783 B(  3-C ,  5-C ) :   1.0464
B(  3-C , 15-O ) :   1.0752 B(  5-C ,  6-H ) :   0.8577 B(  5-C ,  7-C ) :   1.0350
B(  5-C , 14-O ) :   1.0990 B(  7-C ,  8-H ) :   0.8794 B(  7-C ,  9-C ) :   0.9810
B(  7-C , 13-O ) :   1.1105 B(  9-C , 10-H ) :   0.8943 B(  9-C , 11-O ) :   1.0778
B(  9-C , 12-O ) :   1.0940 B( 12-O , 19-H ) :   0.8368 B( 13-O , 20-H ) :   0.8495
B( 14-O , 21-H ) :   0.8344 B( 15-O , 22-H ) :   0.8125 B( 16-O , 23-H ) :   0.8428

Dispersion correction           -0.024506849
FINAL SINGLE POINT ENERGY      -685.693437769079

DIPOLE MOMENT
-------------

Method             : SCF
Type of density    : Electron Density
Multiplicity       :   1
Irrep              :   0
Energy             :  -685.8239709314178754 Eh
Relativity type    :
Basis              : AO
                                X                 Y                 Z
Electronic contribution:      1.867511837       1.360624929       0.879339829
Nuclear contribution   :     -2.554326528      -2.904130651      -1.518321081
                        -----------------------------------------
Total Dipole Moment    :     -0.686814691      -1.543505722      -0.638981252
                        -----------------------------------------
Magnitude (a.u.)       :      1.806217421
Magnitude (Debye)      :      4.591039829

Rotational constants in cm-1:             0.043895             0.026350             0.018974
Rotational constants in MHz :          1315.926559           789.958780           568.829335

                             ****ORCA TERMINATED NORMALLY****
TOTAL RUN TIME: 0 days 0 hours 0 minutes 12 seconds 206 msec
