                         Program Version 6.0.0  -   RELEASE  -
|  1> ! wb97x-v def2-tzvp def2/J RIJCOSX DEFGRID2 scfconv7 GCP(DFT/TZ) printgap
|  2> %output
|  3>     printlevel normal
|  4> end
|  5> * xyz 0 1
|  6> C -0.7349669600646345 -1.2103885218232722 -6.472319425142514e-06
|  7> C 0.6573375293334384 -1.2142330123027114 2.1011047275636598e-05
|  8> C 1.3221396829857117 -0.00136786111462779 -5.084851078445038e-05
|  9> C 0.6573199685602592 1.2128275625094052 -0.00015931142773245133
| 10> C -0.7337457952932785 1.211670394231245 -0.00019580819268207633
| 11> C -1.425904629101363 0.0010112668467537928 -0.00011288224851012171
| 12> O -2.8034215829655498 0.0572712312732511 -0.00016554797782361583
| 13> F 2.6861045948046813 -0.0014782780361377512 -3.4144003075772645e-05
| 14> H -1.2841838767843063 -2.147295715024418 4.455130989926022e-05
| 15> H 1.2141103982511097 -2.144833502718091 9.493662511890994e-05
| 16> H 1.21639159447846 2.14203380766173 -0.00024757430664544235
| 17> H -1.2844645782698252 2.146088611574733 -0.00031448607736002984
| 18> H -3.152560520175234 -0.8448248060747879 -0.00018732808228188934
| 19> *
| 20>
| 21>                          ****END OF INPUT****

CARTESIAN COORDINATES (ANGSTROEM)
---------------------------------
  C     -0.734967   -1.210389   -0.000006
  C      0.657338   -1.214233    0.000021
  C      1.322140   -0.001368   -0.000051
  C      0.657320    1.212828   -0.000159
  C     -0.733746    1.211670   -0.000196
  C     -1.425905    0.001011   -0.000113
  O     -2.803422    0.057271   -0.000166
  F      2.686105   -0.001478   -0.000034
  H     -1.284184   -2.147296    0.000045
  H      1.214110   -2.144834    0.000095
  H      1.216392    2.142034   -0.000248
  H     -1.284465    2.146089   -0.000314
  H     -3.152561   -0.844825   -0.000187

 Total Charge           Charge          ....    0
 Multiplicity           Mult            ....    1
 Number of Electrons    NEL             ....   58
 Basis Dimension        Dim             ....  278

ORBITAL ENERGIES
----------------

  NO   OCC          E(Eh)            E(eV)
   0   2.0000     -27.567335      -750.1453
   1   2.0000     -21.709457      -590.7444
   2   2.0000     -12.132836      -330.1513
   3   2.0000     -12.122126      -329.8598
   4   2.0000     -12.068876      -328.4108
   5   2.0000     -12.066813      -328.3547
   6   2.0000     -12.066407      -328.3436
   7   2.0000     -12.062092      -328.2262
   8   2.0000      -1.984563       -54.0027
   9   2.0000      -1.722250       -46.8648
  10   2.0000      -1.407309       -38.2948
  11   2.0000      -1.313160       -35.7329
  12   2.0000      -1.297797       -35.3149
  13   2.0000      -1.215558       -33.0770
  14   2.0000      -1.165977       -31.7278
  15   2.0000      -1.134318       -30.8664
  16   2.0000      -1.127271       -30.6746
  17   2.0000      -1.107609       -30.1396
  18   2.0000      -1.061676       -28.8897
  19   2.0000      -1.013409       -27.5763
  20   2.0000      -0.954125       -25.9631
  21   2.0000      -0.953780       -25.9537
  22   2.0000      -0.919207       -25.0129
  23   2.0000      -0.910951       -24.7882
  24   2.0000      -0.894693       -24.3458
  25   2.0000      -0.829830       -22.5808
  26   2.0000      -0.788090       -21.4450
  27   2.0000      -0.660148       -17.9635
  28   2.0000      -0.657849       -17.9010
  29   0.0000      -0.263874        -7.1804
  30   0.0000      -0.256452        -6.9784
  31   0.0000      -0.224105        -6.0982
  32   0.0000      -0.154429        -4.2022
  33   0.0000      -0.085471        -2.3258

MULLIKEN ATOMIC CHARGES
-----------------------
   0 C :   -0.188977
   1 C :   -0.182965
   2 C :    0.233508
   3 C :   -0.154010
   4 C :   -0.187043
   5 C :    0.240582
   6 O :   -0.391181
   7 F :   -0.203562
   8 H :    0.117590
   9 H :    0.135636
  10 H :    0.135174
  11 H :    0.132482
  12 H :    0.312767
Sum of atomic charges:   -0.0000000

LOEWDIN ATOMIC CHARGES
----------------------
   0 C :   -0.136426
   1 C :   -0.116111
   2 C :   -0.257606
   3 C :   -0.112167
   4 C :   -0.109990
   5 C :   -0.264654
   6 O :    0.061649
   7 F :    0.153913
   8 H :    0.142314
   9 H :    0.151509
  10 H :    0.151905
  11 H :    0.150520
  12 H :    0.185144

  Mayer bond orders larger than 0.100000
B(  0-C ,  1-C ) :   1.3659 B(  0-C ,  5-C ) :   1.3815 B(  0-C ,  8-H ) :   0.9533
B(  1-C ,  2-C ) :   1.4403 B(  1-C ,  9-H ) :   0.9610 B(  2-C ,  3-C ) :   1.4183
B(  2-C ,  7-F ) :   1.0499 B(  3-C ,  4-C ) :   1.3868 B(  3-C , 10-H ) :   0.9722
B(  4-C ,  5-C ) :   1.4173 B(  4-C , 11-H ) :   0.9610 B(  5-C ,  6-O ) :   1.1412
B(  6-O , 12-H ) :   0.8908

FINAL SINGLE POINT ENERGY      -406.734730284907

DIPOLE MOMENT
-------------

Method             : SCF
Type of density    : Electron Density
Multiplicity       :   1
Irrep              :   0
Energy             :  -406.7414643027066745 Eh
Relativity type    :
Basis              : AO
                                X                 Y                 Z
Electronic contribution:      5.014846065       0.271419843       0.000164393
Nuclear contribution   :     -5.609567525      -0.795040866      -0.000206928
                        -----------------------------------------
Total Dipole Moment    :     -0.594721460      -0.523621023      -0.000042535
                        -----------------------------------------
Magnitude (a.u.)       :      0.792384120
Magnitude (Debye)      :      2.014080371

Rotational constants in cm-1:             0.187451             0.048458             0.038504
Rotational constants in MHz :          5619.632070          1452.726183          1154.323121

                             ****ORCA TERMINATED NORMALLY****
TOTAL RUN TIME: 0 days 0 hours 2 minutes 5 seconds 233 msec
