                         Program Version 6.0.0  -   RELEASE  -
|  1> ! wb97x-v def2-tzvp def2/J RIJCOSX DEFGRID2 scfconv7 GCP(DFT/TZ) printgap
|  2> %output
|  3>     printlevel normal
|  4> end
|  5> %cpcm
|  6>     smd true
|  7>     smdsolvent "water"
|  8> end
|  9> * xyz 0 1
| 10> C -0.7349669600646345 -1.2103885218232722 -6.472319425142514e-06
| 11> C 0.6573375293334384 -1.2142330123027114 2.1011047275636598e-05
| 12> C 1.3221396829857117 -0.00136786111462779 -5.084851078445038e-05
| 13> C 0.6573199685602592 1.2128275625094052 -0.00015931142773245133
| 14> C -0.7337457952932785 1.211670394231245 -0.00019580819268207633
| 15> C -1.425904629101363 0.0010112668467537928 -0.00011288224851012171
| 16> O -2.8034215829655498 0.0572712312732511 -0.00016554797782361583
| 17> F 2.6861045948046813 -0.0014782780361377512 -3.4144003075772645e-05
| 18> H -1.2841838767843063 -2.147295715024418 4.455130989926022e-05
| 19> H 1.2141103982511097 -2.144833502718091 9.493662511890994e-05
| 20> H 1.21639159447846 2.14203380766173 -0.00024757430664544235
| 21> H -1.2844645782698252 2.146088611574733 -0.00031448607736002984
| 22> H -3.152560520175234 -0.8448248060747879 -0.00018732808228188934
| 23> *
| 24>
| 25>                          ****END OF INPUT****

CARTESIAN COORDINATES (ANGSTROEM)
---------------------------------
  C     -0.734967   -1.210389   -0.000006
  C      0.657338   -1.214233    0.000021
  C      1.322140   -0.001368   -0.000051
  C      0.657320    1.212828   -0.000159
  C     -0.733746    1.211670   -0.000196
  C     -1.425905    0.001011   -0.000113
  O     -2.803422    0.057271   -0.000166
  F      2.686105   -0.001478   -0.000034
  H     -1.284184   -2.147296    0.000045
  H      1.214110   -2.144834    0.000095
  H      1.216392    2.142034   -0.000248
  H     -1.284465    2.146089   -0.000314
  H     -3.152561   -0.844825   -0.000187

 Total Charge           Charge          ....    0
 Multiplicity           Mult            ....    1
 Number of Electrons    NEL             ....   58
 Basis Dimension        Dim             ....  278

ORBITAL ENERGIES
----------------

  NO   OCC          E(Eh)            E(eV)
   0   2.0000     -27.572883      -750.2963
   1   2.0000     -21.701787      -590.5357
   2   2.0000     -12.129577      -330.0626
   3   2.0000     -12.115882      -329.6899
   4   2.0000     -12.060782      -328.1906
   5   2.0000     -12.060147      -328.1733
   6   2.0000     -12.057060      -328.0893
   7   2.0000     -12.055462      -328.0458
   8   2.0000      -1.990893       -54.1749
   9   2.0000      -1.714809       -46.6623
  10   2.0000      -1.402686       -38.1690
  11   2.0000      -1.310791       -35.6684
  12   2.0000      -1.291062       -35.1316
  13   2.0000      -1.215843       -33.0848
  14   2.0000      -1.164270       -31.6814
  15   2.0000      -1.134522       -30.8719
  16   2.0000      -1.131503       -30.7898
  17   2.0000      -1.105882       -30.0926
  18   2.0000      -1.054361       -28.6906
  19   2.0000      -1.009184       -27.4613
  20   2.0000      -0.949111       -25.8266
  21   2.0000      -0.948571       -25.8119
  22   2.0000      -0.908327       -24.7168
  23   2.0000      -0.902645       -24.5622
  24   2.0000      -0.885255       -24.0890
  25   2.0000      -0.820200       -22.3188
  26   2.0000      -0.784072       -21.3357
  27   2.0000      -0.655431       -17.8352
  28   2.0000      -0.653022       -17.7696
  29   0.0000      -0.259809        -7.0698
  30   0.0000      -0.250071        -6.8048
  31   0.0000      -0.222611        -6.0575
  32   0.0000      -0.146118        -3.9761
  33   0.0000      -0.079696        -2.1686

MULLIKEN ATOMIC CHARGES
-----------------------
   0 C :   -0.241177
   1 C :   -0.205334
   2 C :    0.250041
   3 C :   -0.197896
   4 C :   -0.239466
   5 C :    0.259738
   6 O :   -0.471047
   7 F :   -0.226935
   8 H :    0.178125
   9 H :    0.175857
  10 H :    0.173793
  11 H :    0.165302
  12 H :    0.378999
Sum of atomic charges:   -0.0000000

LOEWDIN ATOMIC CHARGES
----------------------
   0 C :   -0.126074
   1 C :   -0.119416
   2 C :   -0.269236
   3 C :   -0.119132
   4 C :   -0.120587
   5 C :   -0.271819
   6 O :    0.036679
   7 F :    0.137960
   8 H :    0.160035
   9 H :    0.161553
  10 H :    0.161405
  11 H :    0.157929
  12 H :    0.210704

  Mayer bond orders larger than 0.100000
B(  0-C ,  1-C ) :   1.3386 B(  0-C ,  5-C ) :   1.3772 B(  0-C ,  8-H ) :   0.9576
B(  1-C ,  2-C ) :   1.4121 B(  1-C ,  9-H ) :   0.9630 B(  2-C ,  3-C ) :   1.4051
B(  2-C ,  7-F ) :   1.0249 B(  3-C ,  4-C ) :   1.3859 B(  3-C , 10-H ) :   0.9716
B(  4-C ,  5-C ) :   1.3875 B(  4-C , 11-H ) :   0.9662 B(  5-C ,  6-O ) :   1.0976
B(  6-O , 12-H ) :   0.8491

FINAL SINGLE POINT ENERGY      -406.744228889788

DIPOLE MOMENT
-------------

Method             : SCF
Type of density    : Electron Density
Multiplicity       :   1
Irrep              :   0
Energy             :  -406.7509629075877911 Eh
Relativity type    :
Basis              : AO
                                X                 Y                 Z
Electronic contribution:      4.835027675       0.013361426       0.000154050
Nuclear contribution   :     -5.609567525      -0.795040866      -0.000206928
                        -----------------------------------------
Total Dipole Moment    :     -0.774539850      -0.781679440      -0.000052878
                        -----------------------------------------
Magnitude (a.u.)       :      1.100424795
Magnitude (Debye)      :      2.797057542

Rotational constants in cm-1:             0.187451             0.048458             0.038504
Rotational constants in MHz :          5619.632070          1452.726183          1154.323121

                             ****ORCA TERMINATED NORMALLY****
TOTAL RUN TIME: 0 days 0 hours 2 minutes 2 seconds 352 msec
