                         Program Version 6.0.0  -   RELEASE  -
|  1> ! wb97x-v def2-tzvp def2/J RIJCOSX DEFGRID2 scfconv7 GCP(DFT/TZ) printgap
|  2> %output
|  3>     printlevel normal
|  4> end
|  5> * xyz 0 1
|  6> C -3.2094944619275414 0.005111284239561386 0.8440653053964491
|  7> C -2.4871235591110827 -0.006774450628261524 -0.508046068529847
|  8> C -0.9892383755390951 -0.004909364837607013 -0.34618078486626663
|  9> C -0.2772908702635248 1.1943472656575482 -0.2393965699494034
| 10> C 1.0980619266914597 1.2081002449501395 -0.03258434948288709
| 11> C 1.7872928934555037 0.0014972366178218142 0.07368155243658735
| 12> C 1.1028042120588322 -1.2083701244921212 -0.028960893325243566
| 13> C -0.2740521287006927 -1.2005924069001295 -0.2362823360698066
| 14> O 3.1516064286256165 0.060636869895926704 0.27606484667548836
| 15> H -2.9380351315060613 0.8953836391591761 1.4214761702021548
| 16> H -2.9389727679748434 -0.8757461814922989 1.4361546955699296
| 17> H -4.296049981161719 0.004651224173841878 0.7089046829803517
| 18> H -2.793123412594637 0.8702024913199349 -1.089417591686263
| 19> H -2.792759300035928 -0.8939301648720147 -1.0738590819932212
| 20> H -0.808388968125763 2.1392525303095122 -0.3220962006272286
| 21> H 1.64223799196975 2.1443241065583925 0.043034009822162884
| 22> H 1.6460821895252982 -2.146452862773458 0.04824067515126514
| 23> H -0.8009559302396583 -2.1480848558739254 -0.3162280500752044
| 24> H 3.498747703895899 -0.8405718572132417 0.3294971743768568
| 25> *
| 26>
| 27>                          ****END OF INPUT****

CARTESIAN COORDINATES (ANGSTROEM)
---------------------------------
  C     -3.209494    0.005111    0.844065
  C     -2.487124   -0.006774   -0.508046
  C     -0.989238   -0.004909   -0.346181
  C     -0.277291    1.194347   -0.239397
  C      1.098062    1.208100   -0.032584
  C      1.787293    0.001497    0.073682
  C      1.102804   -1.208370   -0.028961
  C     -0.274052   -1.200592   -0.236282
  O      3.151606    0.060637    0.276065
  H     -2.938035    0.895384    1.421476
  H     -2.938973   -0.875746    1.436155
  H     -4.296050    0.004651    0.708905
  H     -2.793123    0.870202   -1.089418
  H     -2.792759   -0.893930   -1.073859
  H     -0.808389    2.139253   -0.322096
  H      1.642238    2.144324    0.043034
  H      1.646082   -2.146453    0.048241
  H     -0.800956   -2.148085   -0.316228
  H      3.498748   -0.840572    0.329497

 Total Charge           Charge          ....    0
 Multiplicity           Mult            ....    1
 Number of Electrons    NEL             ....   66
 Basis Dimension        Dim             ....  339

ORBITAL ENERGIES
----------------

  NO   OCC          E(Eh)            E(eV)
   0   2.0000     -21.700672      -590.5053
   1   2.0000     -12.110854      -329.5531
   2   2.0000     -12.053563      -327.9941
   3   2.0000     -12.051858      -327.9477
   4   2.0000     -12.050951      -327.9231
   5   2.0000     -12.049587      -327.8859
   6   2.0000     -12.047147      -327.8195
   7   2.0000     -12.045550      -327.7761
   8   2.0000     -12.036181      -327.5211
   9   2.0000      -1.712492       -46.5993
  10   2.0000      -1.386181       -37.7199
  11   2.0000      -1.306321       -35.5468
  12   2.0000      -1.275991       -34.7215
  13   2.0000      -1.242223       -33.8026
  14   2.0000      -1.156155       -31.4606
  15   2.0000      -1.122200       -30.5366
  16   2.0000      -1.093832       -29.7647
  17   2.0000      -1.050253       -28.5788
  18   2.0000      -1.002971       -27.2922
  19   2.0000      -0.944436       -25.6994
  20   2.0000      -0.943620       -25.6772
  21   2.0000      -0.934865       -25.4390
  22   2.0000      -0.898176       -24.4406
  23   2.0000      -0.875903       -23.8345
  24   2.0000      -0.859758       -23.3952
  25   2.0000      -0.859381       -23.3849
  26   2.0000      -0.830357       -22.5952
  27   2.0000      -0.807019       -21.9601
  28   2.0000      -0.786202       -21.3936
  29   2.0000      -0.767662       -20.8891
  30   2.0000      -0.761285       -20.7156
  31   2.0000      -0.641387       -17.4530
  32   2.0000      -0.632940       -17.2232
  33   0.0000      -0.246284        -6.7017
  34   0.0000      -0.239236        -6.5099
  35   0.0000      -0.144239        -3.9250
  36   0.0000      -0.077262        -2.1024
  37   0.0000      -0.068722        -1.8700

MULLIKEN ATOMIC CHARGES
-----------------------
   0 C :   -0.334070
   1 C :   -0.211650
   2 C :    0.196695
   3 C :   -0.195657
   4 C :   -0.185874
   5 C :    0.236227
   6 C :   -0.184035
   7 C :   -0.233484
   8 O :   -0.394169
   9 H :    0.111012
  10 H :    0.109515
  11 H :    0.108958
  12 H :    0.102635
  13 H :    0.101493
  14 H :    0.115645
  15 H :    0.121320
  16 H :    0.107903
  17 H :    0.116430
  18 H :    0.311108
Sum of atomic charges:   -0.0000000

LOEWDIN ATOMIC CHARGES
----------------------
   0 C :   -0.296098
   1 C :   -0.244878
   2 C :   -0.158419
   3 C :   -0.106536
   4 C :   -0.120283
   5 C :   -0.261605
   6 C :   -0.146108
   7 C :   -0.110310
   8 O :    0.058109
   9 H :    0.117930
  10 H :    0.117528
  11 H :    0.114282
  12 H :    0.137847
  13 H :    0.137445
  14 H :    0.145667
  15 H :    0.147446
  16 H :    0.139222
  17 H :    0.145207
  18 H :    0.183556

  Mayer bond orders larger than 0.100000
B(  0-C ,  1-C ) :   0.9767 B(  0-C ,  9-H ) :   0.9798 B(  0-C , 10-H ) :   0.9797
B(  0-C , 11-H ) :   0.9778 B(  1-C ,  2-C ) :   0.8936 B(  1-C , 12-H ) :   0.9899
B(  1-C , 13-H ) :   0.9901 B(  2-C ,  3-C ) :   1.3822 B(  2-C ,  7-C ) :   1.4029
B(  3-C ,  4-C ) :   1.4518 B(  3-C , 14-H ) :   0.9756 B(  4-C ,  5-C ) :   1.4108
B(  4-C , 15-H ) :   0.9759 B(  5-C ,  6-C ) :   1.3671 B(  5-C ,  8-O ) :   1.1379
B(  6-C ,  7-C ) :   1.4313 B(  6-C , 16-H ) :   0.9590 B(  7-C , 17-H ) :   0.9620
B(  8-O , 18-H ) :   0.8921

FINAL SINGLE POINT ENERGY      -386.118177196669

DIPOLE MOMENT
-------------

Method             : SCF
Type of density    : Electron Density
Multiplicity       :   1
Irrep              :   0
Energy             :  -386.1291341897691041 Eh
Relativity type    :
Basis              : AO
                                X                 Y                 Z
Electronic contribution:      9.756496208       0.275211414      -1.129374700
Nuclear contribution   :     -9.936776408      -0.795398934       1.122461538
                        -----------------------------------------
Total Dipole Moment    :     -0.180280201      -0.520187520      -0.006913162
                        -----------------------------------------
Magnitude (a.u.)       :      0.550584961
Magnitude (Debye)      :      1.399475752

Rotational constants in cm-1:             0.146535             0.031696             0.028060
Rotational constants in MHz :          4392.995045           950.210291           841.208267

                             ****ORCA TERMINATED NORMALLY****
TOTAL RUN TIME: 0 days 0 hours 3 minutes 29 seconds 757 msec
