                         Program Version 6.0.0  -   RELEASE  -
|  1> ! wb97x-v def2-tzvp def2/J RIJCOSX DEFGRID2 scfconv7 GCP(DFT/TZ) printgap
|  2> %output
|  3>     printlevel normal
|  4> end
|  5> %cpcm
|  6>     smd true
|  7>     smdsolvent "water"
|  8> end
|  9> * xyz 0 1
| 10> C -3.2094944619275414 0.005111284239561386 0.8440653053964491
| 11> C -2.4871235591110827 -0.006774450628261524 -0.508046068529847
| 12> C -0.9892383755390951 -0.004909364837607013 -0.34618078486626663
| 13> C -0.2772908702635248 1.1943472656575482 -0.2393965699494034
| 14> C 1.0980619266914597 1.2081002449501395 -0.03258434948288709
| 15> C 1.7872928934555037 0.0014972366178218142 0.07368155243658735
| 16> C 1.1028042120588322 -1.2083701244921212 -0.028960893325243566
| 17> C -0.2740521287006927 -1.2005924069001295 -0.2362823360698066
| 18> O 3.1516064286256165 0.060636869895926704 0.27606484667548836
| 19> H -2.9380351315060613 0.8953836391591761 1.4214761702021548
| 20> H -2.9389727679748434 -0.8757461814922989 1.4361546955699296
| 21> H -4.296049981161719 0.004651224173841878 0.7089046829803517
| 22> H -2.793123412594637 0.8702024913199349 -1.089417591686263
| 23> H -2.792759300035928 -0.8939301648720147 -1.0738590819932212
| 24> H -0.808388968125763 2.1392525303095122 -0.3220962006272286
| 25> H 1.64223799196975 2.1443241065583925 0.043034009822162884
| 26> H 1.6460821895252982 -2.146452862773458 0.04824067515126514
| 27> H -0.8009559302396583 -2.1480848558739254 -0.3162280500752044
| 28> H 3.498747703895899 -0.8405718572132417 0.3294971743768568
| 29> *
| 30>
| 31>                          ****END OF INPUT****

CARTESIAN COORDINATES (ANGSTROEM)
---------------------------------
  C     -3.209494    0.005111    0.844065
  C     -2.487124   -0.006774   -0.508046
  C     -0.989238   -0.004909   -0.346181
  C     -0.277291    1.194347   -0.239397
  C      1.098062    1.208100   -0.032584
  C      1.787293    0.001497    0.073682
  C      1.102804   -1.208370   -0.028961
  C     -0.274052   -1.200592   -0.236282
  O      3.151606    0.060637    0.276065
  H     -2.938035    0.895384    1.421476
  H     -2.938973   -0.875746    1.436155
  H     -4.296050    0.004651    0.708905
  H     -2.793123    0.870202   -1.089418
  H     -2.792759   -0.893930   -1.073859
  H     -0.808389    2.139253   -0.322096
  H      1.642238    2.144324    0.043034
  H      1.646082   -2.146453    0.048241
  H     -0.800956   -2.148085   -0.316228
  H      3.498748   -0.840572    0.329497

 Total Charge           Charge          ....    0
 Multiplicity           Mult            ....    1
 Number of Electrons    NEL             ....   66
 Basis Dimension        Dim             ....  339

ORBITAL ENERGIES
----------------

  NO   OCC          E(Eh)            E(eV)
   0   2.0000     -21.699214      -590.4656
   1   2.0000     -12.109991      -329.5296
   2   2.0000     -12.049842      -327.8929
   3   2.0000     -12.049025      -327.8706
   4   2.0000     -12.047351      -327.8251
   5   2.0000     -12.046212      -327.7941
   6   2.0000     -12.044620      -327.7508
   7   2.0000     -12.038610      -327.5872
   8   2.0000     -12.028192      -327.3037
   9   2.0000      -1.711515       -46.5727
  10   2.0000      -1.385227       -37.6940
  11   2.0000      -1.302948       -35.4550
  12   2.0000      -1.274110       -34.6703
  13   2.0000      -1.237270       -33.6678
  14   2.0000      -1.153291       -31.3827
  15   2.0000      -1.118958       -30.4484
  16   2.0000      -1.089486       -29.6464
  17   2.0000      -1.047124       -28.4937
  18   2.0000      -1.003993       -27.3200
  19   2.0000      -0.946088       -25.7444
  20   2.0000      -0.942510       -25.6470
  21   2.0000      -0.929540       -25.2941
  22   2.0000      -0.893152       -24.3039
  23   2.0000      -0.871364       -23.7110
  24   2.0000      -0.853778       -23.2325
  25   2.0000      -0.851622       -23.1738
  26   2.0000      -0.824075       -22.4242
  27   2.0000      -0.802251       -21.8304
  28   2.0000      -0.779297       -21.2057
  29   2.0000      -0.760997       -20.7078
  30   2.0000      -0.759257       -20.6604
  31   2.0000      -0.641036       -17.4435
  32   2.0000      -0.633284       -17.2325
  33   0.0000      -0.246206        -6.6996
  34   0.0000      -0.238398        -6.4871
  35   0.0000      -0.141804        -3.8587
  36   0.0000      -0.075419        -2.0523
  37   0.0000      -0.042764        -1.1637

MULLIKEN ATOMIC CHARGES
-----------------------
   0 C :   -0.395489
   1 C :   -0.190709
   2 C :    0.146348
   3 C :   -0.240577
   4 C :   -0.237032
   5 C :    0.249143
   6 C :   -0.238438
   7 C :   -0.251473
   8 O :   -0.475491
   9 H :    0.125326
  10 H :    0.125094
  11 H :    0.127181
  12 H :    0.118930
  13 H :    0.118988
  14 H :    0.157611
  15 H :    0.154594
  16 H :    0.168726
  17 H :    0.160131
  18 H :    0.377136
Sum of atomic charges:   -0.0000000

LOEWDIN ATOMIC CHARGES
----------------------
   0 C :   -0.302333
   1 C :   -0.243564
   2 C :   -0.167546
   3 C :   -0.115936
   4 C :   -0.137801
   5 C :   -0.274943
   6 C :   -0.143058
   7 C :   -0.116375
   8 O :    0.031228
   9 H :    0.119324
  10 H :    0.119287
  11 H :    0.118152
  12 H :    0.142173
  13 H :    0.142135
  14 H :    0.155491
  15 H :    0.153619
  16 H :    0.155688
  17 H :    0.155573
  18 H :    0.208886

  Mayer bond orders larger than 0.100000
B(  0-C ,  1-C ) :   0.9662 B(  0-C ,  9-H ) :   0.9788 B(  0-C , 10-H ) :   0.9787
B(  0-C , 11-H ) :   0.9751 B(  1-C ,  2-C ) :   0.9104 B(  1-C , 12-H ) :   0.9825
B(  1-C , 13-H ) :   0.9827 B(  2-C ,  3-C ) :   1.3684 B(  2-C ,  7-C ) :   1.3730
B(  3-C ,  4-C ) :   1.4416 B(  3-C , 14-H ) :   0.9807 B(  4-C ,  5-C ) :   1.3819
B(  4-C , 15-H ) :   0.9823 B(  5-C ,  6-C ) :   1.3669 B(  5-C ,  8-O ) :   1.0936
B(  6-C ,  7-C ) :   1.3874 B(  6-C , 16-H ) :   0.9706 B(  7-C , 17-H ) :   0.9695
B(  8-O , 18-H ) :   0.8506

FINAL SINGLE POINT ENERGY      -386.126897835519

DIPOLE MOMENT
-------------

Method             : SCF
Type of density    : Electron Density
Multiplicity       :   1
Irrep              :   0
Energy             :  -386.1378548286187424 Eh
Relativity type    :
Basis              : AO
                                X                 Y                 Z
Electronic contribution:      9.655624184       0.015079824      -1.145536827
Nuclear contribution   :     -9.936776408      -0.795398934       1.122461538
                        -----------------------------------------
Total Dipole Moment    :     -0.281152224      -0.780319111      -0.023075289
                        -----------------------------------------
Magnitude (a.u.)       :      0.829745115
Magnitude (Debye)      :      2.109044475

Rotational constants in cm-1:             0.146535             0.031696             0.028060
Rotational constants in MHz :          4392.995045           950.210291           841.208267

                             ****ORCA TERMINATED NORMALLY****
TOTAL RUN TIME: 0 days 0 hours 3 minutes 36 seconds 680 msec
