                         Program Version 6.0.0  -   RELEASE  -
|  1> ! r2scan-3c def2/J RI DEFGRID2 scfconv6 printgap
|  2> %output
|  3>     printlevel normal
|  4> end
|  5> * xyz 0 1
|  6> C -2.3798078582 -1.1785130029 -0.3200185316
|  7> C -1.0661532354 -0.628428482 0.2453955995
|  8> H -1.1152564509 -0.6204805636 1.3459594991
|  9> C -0.7887926403 0.8059966534 -0.2342177957
| 10> H -0.8353110563 0.8282493581 -1.3359575599
| 11> C 0.6201634959 1.2311846469 0.2006362958
| 12> H 0.6305141765 1.3107577957 1.2997614066
| 13> C 1.6639517622 0.1932677699 -0.2244936549
| 14> H 1.7055076047 0.1719083852 -1.3251927666
| 15> C 1.2406221949 -1.1973723652 0.2847431581
| 16> H 1.2546343379 -1.1875333225 1.386263062
| 17> O -0.053212691 -1.5102538926 -0.1937443301
| 18> O 2.0891109816 -2.2076206876 -0.0986578002
| 19> O 2.9259053451 0.4888794231 0.3098321438
| 20> O 0.9887262156 2.4618725295 -0.3735606503
| 21> O -1.6848649928 1.7411078348 0.3122223165
| 22> O -3.4485957037 -0.3887030078 0.1469130653
| 23> H -2.4742264735 -2.2191660691 0.0076039036
| 24> H -2.3200753634 -1.1570911134 -1.4150850786
| 25> H 2.0770304866 -2.3021095753 -1.0647479208
| 26> H 3.1429367749 1.4063130844 0.0802218368
| 27> H 0.2930635193 3.1078417638 -0.1809788575
| 28> H -2.5812802402 1.3625485441 0.2905755008
| 29> H -4.286526983 -0.7699694603 -0.1520478578
| 30> *
| 31>
| 32>                          ****END OF INPUT****

CARTESIAN COORDINATES (ANGSTROEM)
---------------------------------
  C     -2.379808   -1.178513   -0.320019
  C     -1.066153   -0.628428    0.245396
  H     -1.115256   -0.620481    1.345959
  C     -0.788793    0.805997   -0.234218
  H     -0.835311    0.828249   -1.335958
  C      0.620163    1.231185    0.200636
  H      0.630514    1.310758    1.299761
  C      1.663952    0.193268   -0.224494
  H      1.705508    0.171908   -1.325193
  C      1.240622   -1.197372    0.284743
  H      1.254634   -1.187533    1.386263
  O     -0.053213   -1.510254   -0.193744
  O      2.089111   -2.207621   -0.098658
  O      2.925905    0.488879    0.309832
  O      0.988726    2.461873   -0.373561
  O     -1.684865    1.741108    0.312222
  O     -3.448596   -0.388703    0.146913
  H     -2.474226   -2.219166    0.007604
  H     -2.320075   -1.157091   -1.415085
  H      2.077030   -2.302110   -1.064748
  H      3.142937    1.406313    0.080222
  H      0.293064    3.107842   -0.180979
  H     -2.581280    1.362549    0.290576
  H     -4.286527   -0.769969   -0.152048

 Total Charge           Charge          ....    0
 Multiplicity           Mult            ....    1
 Number of Electrons    NEL             ....   96
 Basis Dimension        Dim             ....  318

ORBITAL ENERGIES
----------------

  NO   OCC          E(Eh)            E(eV)
   0   2.0000     -18.987100      -516.6652
   1   2.0000     -18.973126      -516.2850
   2   2.0000     -18.963104      -516.0123
   3   2.0000     -18.959020      -515.9012
   4   2.0000     -18.953167      -515.7419
   5   2.0000     -18.951380      -515.6933
   6   2.0000     -10.138442      -275.8810
   7   2.0000     -10.100569      -274.8505
   8   2.0000     -10.099813      -274.8299
   9   2.0000     -10.089324      -274.5445
  10   2.0000     -10.087686      -274.4999
  11   2.0000     -10.087023      -274.4819
  12   2.0000      -1.051360       -28.6090
  13   2.0000      -1.024691       -27.8833
  14   2.0000      -1.010060       -27.4851
  15   2.0000      -0.994919       -27.0731
  16   2.0000      -0.982349       -26.7311
  17   2.0000      -0.979549       -26.6549
  18   2.0000      -0.752084       -20.4653
  19   2.0000      -0.741569       -20.1791
  20   2.0000      -0.663942       -18.0668
  21   2.0000      -0.614979       -16.7344
  22   2.0000      -0.594157       -16.1678
  23   2.0000      -0.564808       -15.3692
  24   2.0000      -0.535755       -14.5786
  25   2.0000      -0.517744       -14.0885
  26   2.0000      -0.496052       -13.4982
  27   2.0000      -0.486472       -13.2376
  28   2.0000      -0.464287       -12.6339
  29   2.0000      -0.457807       -12.4576
  30   2.0000      -0.435742       -11.8572
  31   2.0000      -0.431882       -11.7521
  32   2.0000      -0.422131       -11.4868
  33   2.0000      -0.407492       -11.0884
  34   2.0000      -0.376996       -10.2586
  35   2.0000      -0.371213       -10.1012
  36   2.0000      -0.354869        -9.6565
  37   2.0000      -0.343972        -9.3600
  38   2.0000      -0.337334        -9.1793
  39   2.0000      -0.329307        -8.9609
  40   2.0000      -0.307094        -8.3565
  41   2.0000      -0.292816        -7.9679
  42   2.0000      -0.271964        -7.4005
  43   2.0000      -0.267528        -7.2798
  44   2.0000      -0.257047        -6.9946
  45   2.0000      -0.246816        -6.7162
  46   2.0000      -0.235626        -6.4117
  47   2.0000      -0.230381        -6.2690
  48   0.0000       0.015928         0.4334
  49   0.0000       0.051456         1.4002
  50   0.0000       0.064426         1.7531
  51   0.0000       0.083874         2.2823
  52   0.0000       0.089594         2.4380

MULLIKEN ATOMIC CHARGES
-----------------------
   0 C :   -0.200937
   1 C :   -0.113448
   2 H :    0.180650
   3 C :    0.034546
   4 H :    0.167703
   5 C :   -0.023130
   6 H :    0.171001
   7 C :    0.075499
   8 H :    0.158850
   9 C :   -0.177568
  10 H :    0.155524
  11 O :   -0.183570
  12 O :   -0.345768
  13 O :   -0.418716
  14 O :   -0.448631
  15 O :   -0.444911
  16 O :   -0.429295
  17 H :    0.142336
  18 H :    0.135498
  19 H :    0.311586
  20 H :    0.315213
  21 H :    0.315395
  22 H :    0.314030
  23 H :    0.308143
Sum of atomic charges:    0.0000000

LOEWDIN ATOMIC CHARGES
----------------------
   0 C :    0.056406
   1 C :    0.124471
   2 H :    0.186909
   3 C :    0.103725
   4 H :    0.180511
   5 C :    0.107792
   6 H :    0.186618
   7 C :    0.116454
   8 H :    0.180714
   9 C :    0.301184
  10 H :    0.199485
  11 O :   -0.684666
  12 O :   -0.464543
  13 O :   -0.557788
  14 O :   -0.577283
  15 O :   -0.591149
  16 O :   -0.626209
  17 H :    0.173741
  18 H :    0.169345
  19 H :    0.280323
  20 H :    0.284188
  21 H :    0.284104
  22 H :    0.288279
  23 H :    0.277386

  Mayer bond orders larger than 0.100000
B(  0-C ,  1-C ) :   0.9821 B(  0-C , 16-O ) :   0.9732 B(  0-C , 17-H ) :   0.9556
B(  0-C , 18-H ) :   0.9723 B(  1-C ,  2-H ) :   0.9493 B(  1-C ,  3-C ) :   0.8010
B(  1-C , 11-O ) :   0.8063 B(  3-C ,  4-H ) :   0.9625 B(  3-C ,  5-C ) :   0.8485
B(  3-C , 15-O ) :   0.8631 B(  5-C ,  6-H ) :   0.9943 B(  5-C ,  7-C ) :   0.8702
B(  5-C , 14-O ) :   0.9201 B(  7-C ,  8-H ) :   0.9502 B(  7-C ,  9-C ) :   0.8488
B(  7-C , 13-O ) :   0.8921 B(  9-C , 10-H ) :   1.0000 B(  9-C , 11-O ) :   0.9082
B(  9-C , 12-O ) :   1.1472 B( 12-O , 19-H ) :   0.8760 B( 13-O , 20-H ) :   0.8769
B( 14-O , 21-H ) :   0.8766 B( 15-O , 22-H ) :   0.8461 B( 16-O , 23-H ) :   0.8910

Dispersion correction           -0.007979401
FINAL SINGLE POINT ENERGY      -687.075901115086

DIPOLE MOMENT
-------------

Method             : SCF
Type of density    : Electron Density
Multiplicity       :   1
Irrep              :   0
Energy             :  -687.0878472575376463 Eh
Relativity type    :
Basis              : AO
                                X                 Y                 Z
Electronic contribution:      2.706281773      -0.060232774       0.356375958
Nuclear contribution   :     -4.218094904      -0.055810875      -0.996335071
                        -----------------------------------------
Total Dipole Moment    :     -1.511813132      -0.116043649      -0.639959113
                        -----------------------------------------
Magnitude (a.u.)       :      1.645780283
Magnitude (Debye)      :      4.183241032

Rotational constants in cm-1:             0.043805             0.024603             0.016475
Rotational constants in MHz :          1313.234311           737.587879           493.903807

                             ****ORCA TERMINATED NORMALLY****
TOTAL RUN TIME: 0 days 0 hours 0 minutes 49 seconds 128 msec
