                         Program Version 6.0.0  -   RELEASE  -
|  1> ! r2scan-3c def2/J RI DEFGRID2 scfconv6 printgap
|  2> %output
|  3>     printlevel normal
|  4> end
|  5> %cpcm
|  6>     smd true
|  7>     smdsolvent "water"
|  8> end
|  9> * xyz 0 1
| 10> C -2.3798078582 -1.1785130029 -0.3200185316
| 11> C -1.0661532354 -0.628428482 0.2453955995
| 12> H -1.1152564509 -0.6204805636 1.3459594991
| 13> C -0.7887926403 0.8059966534 -0.2342177957
| 14> H -0.8353110563 0.8282493581 -1.3359575599
| 15> C 0.6201634959 1.2311846469 0.2006362958
| 16> H 0.6305141765 1.3107577957 1.2997614066
| 17> C 1.6639517622 0.1932677699 -0.2244936549
| 18> H 1.7055076047 0.1719083852 -1.3251927666
| 19> C 1.2406221949 -1.1973723652 0.2847431581
| 20> H 1.2546343379 -1.1875333225 1.386263062
| 21> O -0.053212691 -1.5102538926 -0.1937443301
| 22> O 2.0891109816 -2.2076206876 -0.0986578002
| 23> O 2.9259053451 0.4888794231 0.3098321438
| 24> O 0.9887262156 2.4618725295 -0.3735606503
| 25> O -1.6848649928 1.7411078348 0.3122223165
| 26> O -3.4485957037 -0.3887030078 0.1469130653
| 27> H -2.4742264735 -2.2191660691 0.0076039036
| 28> H -2.3200753634 -1.1570911134 -1.4150850786
| 29> H 2.0770304866 -2.3021095753 -1.0647479208
| 30> H 3.1429367749 1.4063130844 0.0802218368
| 31> H 0.2930635193 3.1078417638 -0.1809788575
| 32> H -2.5812802402 1.3625485441 0.2905755008
| 33> H -4.286526983 -0.7699694603 -0.1520478578
| 34> *
| 35>
| 36>                          ****END OF INPUT****

CARTESIAN COORDINATES (ANGSTROEM)
---------------------------------
  C     -2.379808   -1.178513   -0.320019
  C     -1.066153   -0.628428    0.245396
  H     -1.115256   -0.620481    1.345959
  C     -0.788793    0.805997   -0.234218
  H     -0.835311    0.828249   -1.335958
  C      0.620163    1.231185    0.200636
  H      0.630514    1.310758    1.299761
  C      1.663952    0.193268   -0.224494
  H      1.705508    0.171908   -1.325193
  C      1.240622   -1.197372    0.284743
  H      1.254634   -1.187533    1.386263
  O     -0.053213   -1.510254   -0.193744
  O      2.089111   -2.207621   -0.098658
  O      2.925905    0.488879    0.309832
  O      0.988726    2.461873   -0.373561
  O     -1.684865    1.741108    0.312222
  O     -3.448596   -0.388703    0.146913
  H     -2.474226   -2.219166    0.007604
  H     -2.320075   -1.157091   -1.415085
  H      2.077030   -2.302110   -1.064748
  H      3.142937    1.406313    0.080222
  H      0.293064    3.107842   -0.180979
  H     -2.581280    1.362549    0.290576
  H     -4.286527   -0.769969   -0.152048

 Total Charge           Charge          ....    0
 Multiplicity           Mult            ....    1
 Number of Electrons    NEL             ....   96
 Basis Dimension        Dim             ....  318

ORBITAL ENERGIES
----------------

  NO   OCC          E(Eh)            E(eV)
   0   2.0000     -18.975454      -516.3483
   1   2.0000     -18.970771      -516.2209
   2   2.0000     -18.965954      -516.0898
   3   2.0000     -18.961581      -515.9709
   4   2.0000     -18.960838      -515.9506
   5   2.0000     -18.955694      -515.8106
   6   2.0000     -10.139329      -275.9052
   7   2.0000     -10.091394      -274.6008
   8   2.0000     -10.087153      -274.4854
   9   2.0000     -10.085722      -274.4465
  10   2.0000     -10.084760      -274.4203
  11   2.0000     -10.080668      -274.3089
  12   2.0000      -1.054534       -28.6953
  13   2.0000      -1.014173       -27.5971
  14   2.0000      -1.007381       -27.4122
  15   2.0000      -0.995575       -27.0910
  16   2.0000      -0.986290       -26.8383
  17   2.0000      -0.983032       -26.7497
  18   2.0000      -0.747080       -20.3291
  19   2.0000      -0.737803       -20.0766
  20   2.0000      -0.656763       -17.8714
  21   2.0000      -0.614768       -16.7287
  22   2.0000      -0.587767       -15.9939
  23   2.0000      -0.561349       -15.2751
  24   2.0000      -0.528471       -14.3804
  25   2.0000      -0.515148       -14.0179
  26   2.0000      -0.490268       -13.3409
  27   2.0000      -0.479334       -13.0433
  28   2.0000      -0.460660       -12.5352
  29   2.0000      -0.455892       -12.4055
  30   2.0000      -0.436725       -11.8839
  31   2.0000      -0.431439       -11.7400
  32   2.0000      -0.414411       -11.2767
  33   2.0000      -0.398627       -10.8472
  34   2.0000      -0.376679       -10.2500
  35   2.0000      -0.369838       -10.0638
  36   2.0000      -0.355410        -9.6712
  37   2.0000      -0.346048        -9.4165
  38   2.0000      -0.337186        -9.1753
  39   2.0000      -0.333836        -9.0841
  40   2.0000      -0.314412        -8.5556
  41   2.0000      -0.290549        -7.9062
  42   2.0000      -0.275870        -7.5068
  43   2.0000      -0.263973        -7.1831
  44   2.0000      -0.253606        -6.9010
  45   2.0000      -0.249788        -6.7971
  46   2.0000      -0.240065        -6.5325
  47   2.0000      -0.232111        -6.3161
  48   0.0000       0.031494         0.8570
  49   0.0000       0.064228         1.7477
  50   0.0000       0.081495         2.2176
  51   0.0000       0.091421         2.4877
  52   0.0000       0.100401         2.7321

MULLIKEN ATOMIC CHARGES
-----------------------
   0 C :   -0.213180
   1 C :   -0.115797
   2 H :    0.204639
   3 C :    0.027243
   4 H :    0.185420
   5 C :   -0.002288
   6 H :    0.181770
   7 C :    0.054221
   8 H :    0.184327
   9 C :   -0.135513
  10 H :    0.178664
  11 O :   -0.235779
  12 O :   -0.426617
  13 O :   -0.491974
  14 O :   -0.501846
  15 O :   -0.503052
  16 O :   -0.481424
  17 H :    0.156778
  18 H :    0.155594
  19 H :    0.369364
  20 H :    0.354581
  21 H :    0.352368
  22 H :    0.346310
  23 H :    0.356190
Sum of atomic charges:    0.0000000

LOEWDIN ATOMIC CHARGES
----------------------
   0 C :    0.059367
   1 C :    0.125716
   2 H :    0.194769
   3 C :    0.106609
   4 H :    0.189040
   5 C :    0.108529
   6 H :    0.192998
   7 C :    0.117764
   8 H :    0.192921
   9 C :    0.298394
  10 H :    0.208109
  11 O :   -0.700192
  12 O :   -0.497253
  13 O :   -0.590593
  14 O :   -0.597758
  15 O :   -0.613758
  16 O :   -0.633658
  17 H :    0.178796
  18 H :    0.176572
  19 H :    0.299927
  20 H :    0.297643
  21 H :    0.295700
  22 H :    0.294514
  23 H :    0.295844

  Mayer bond orders larger than 0.100000
B(  0-C ,  1-C ) :   0.9508 B(  0-C , 16-O ) :   0.9716 B(  0-C , 17-H ) :   0.9586
B(  0-C , 18-H ) :   0.9700 B(  1-C ,  2-H ) :   0.9464 B(  1-C ,  3-C ) :   0.8117
B(  1-C , 11-O ) :   0.8083 B(  3-C ,  4-H ) :   0.9555 B(  3-C ,  5-C ) :   0.8713
B(  3-C , 15-O ) :   0.8517 B(  5-C ,  6-H ) :   0.9691 B(  5-C ,  7-C ) :   0.8948
B(  5-C , 14-O ) :   0.8992 B(  7-C ,  8-H ) :   0.9475 B(  7-C ,  9-C ) :   0.8562
B(  7-C , 13-O ) :   0.8718 B(  9-C , 10-H ) :   0.9894 B(  9-C , 11-O ) :   0.9100
B(  9-C , 12-O ) :   1.1229 B( 12-O , 19-H ) :   0.8461 B( 13-O , 20-H ) :   0.8581
B( 14-O , 21-H ) :   0.8586 B( 15-O , 22-H ) :   0.8306 B( 16-O , 23-H ) :   0.8642

Dispersion correction           -0.007979401
FINAL SINGLE POINT ENERGY      -687.108946033380

DIPOLE MOMENT
-------------

Method             : SCF
Type of density    : Electron Density
Multiplicity       :   1
Irrep              :   0
Energy             :  -687.1208921758318411 Eh
Relativity type    :
Basis              : AO
                                X                 Y                 Z
Electronic contribution:      2.218995905      -0.049731789       0.089966820
Nuclear contribution   :     -4.218094904      -0.055810875      -0.996335071
                        -----------------------------------------
Total Dipole Moment    :     -1.999098999      -0.105542663      -0.906368252
                        -----------------------------------------
Magnitude (a.u.)       :      2.197507559
Magnitude (Debye)      :      5.585620317

Rotational constants in cm-1:             0.043805             0.024603             0.016475
Rotational constants in MHz :          1313.234311           737.587879           493.903807

                             ****ORCA TERMINATED NORMALLY****
TOTAL RUN TIME: 0 days 0 hours 0 minutes 57 seconds 842 msec
