                         Program Version 6.0.0  -   RELEASE  -
|  1> ! r2scan-3c def2/J RI DEFGRID2 scfconv6 printgap
|  2> %output
|  3>     printlevel normal
|  4> end
|  5> %cpcm
|  6>     smd true
|  7>     smdsolvent "water"
|  8> end
|  9> * xyz 0 1
| 10> C -2.4309201616 -0.9191662865 -0.894872486
| 11> C -1.7169029586 0.0120542002 0.046221585
| 12> C -2.3852446684 0.8151460341 0.8670279647
| 13> C -0.2426668984 0.0164837057 0.0202628935
| 14> C 0.4792516462 -1.1747557622 0.0332495123
| 15> C 1.8620111436 -1.1614610641 0.0271869207
| 16> C 2.5481350708 0.0411437067 -0.002348057
| 17> C 1.8413269893 1.2321626333 -0.0170165367
| 18> C 0.4587753131 1.2199536014 -0.0016531167
| 19> H -2.9171869223 -0.3397805338 -1.6785630767
| 20> H -1.7400947307 -1.6108860203 -1.3673729851
| 21> H -3.1995288731 -1.4830829083 -0.3710568342
| 22> H -1.8824596216 1.4799386851 1.5481696546
| 23> H -3.4617819953 0.8205190561 0.8970292576
| 24> H -0.0442265938 -2.1187090005 0.0738565509
| 25> H 2.4070601348 -2.0937999283 0.0458102688
| 26> H 3.6277184694 0.0501107033 -0.013273871
| 27> H 2.3697851068 2.1738110199 -0.0419440807
| 28> H -0.0900689117 2.1499309236 -0.022868996
| 29> *
| 30>
| 31>                          ****END OF INPUT****

CARTESIAN COORDINATES (ANGSTROEM)
---------------------------------
  C     -2.430920   -0.919166   -0.894872
  C     -1.716903    0.012054    0.046222
  C     -2.385245    0.815146    0.867028
  C     -0.242667    0.016484    0.020263
  C      0.479252   -1.174756    0.033250
  C      1.862011   -1.161461    0.027187
  C      2.548135    0.041144   -0.002348
  C      1.841327    1.232163   -0.017017
  C      0.458775    1.219954   -0.001653
  H     -2.917187   -0.339781   -1.678563
  H     -1.740095   -1.610886   -1.367373
  H     -3.199529   -1.483083   -0.371057
  H     -1.882460    1.479939    1.548170
  H     -3.461782    0.820519    0.897029
  H     -0.044227   -2.118709    0.073857
  H      2.407060   -2.093800    0.045810
  H      3.627718    0.050111   -0.013274
  H      2.369785    2.173811   -0.041944
  H     -0.090069    2.149931   -0.022869

 Total Charge           Charge          ....    0
 Multiplicity           Mult            ....    1
 Number of Electrons    NEL             ....   64
 Basis Dimension        Dim             ....  221

ORBITAL ENERGIES
----------------

  NO   OCC          E(Eh)            E(eV)
   0   2.0000     -10.044850      -273.3343
   1   2.0000     -10.044176      -273.3159
   2   2.0000     -10.033751      -273.0322
   3   2.0000     -10.033350      -273.0213
   4   2.0000     -10.033214      -273.0176
   5   2.0000     -10.032554      -272.9997
   6   2.0000     -10.032165      -272.9891
   7   2.0000     -10.018093      -272.6062
   8   2.0000     -10.013329      -272.4765
   9   2.0000      -0.833785       -22.6884
  10   2.0000      -0.774469       -21.0744
  11   2.0000      -0.716794       -19.5050
  12   2.0000      -0.702188       -19.1075
  13   2.0000      -0.651422       -17.7261
  14   2.0000      -0.582960       -15.8632
  15   2.0000      -0.571772       -15.5587
  16   2.0000      -0.513993       -13.9864
  17   2.0000      -0.472821       -12.8661
  18   2.0000      -0.428989       -11.6734
  19   2.0000      -0.426485       -11.6052
  20   2.0000      -0.407678       -11.0935
  21   2.0000      -0.395297       -10.7566
  22   2.0000      -0.388165       -10.5625
  23   2.0000      -0.373527       -10.1642
  24   2.0000      -0.347771        -9.4633
  25   2.0000      -0.341925        -9.3042
  26   2.0000      -0.332335        -9.0433
  27   2.0000      -0.307377        -8.3642
  28   2.0000      -0.299539        -8.1509
  29   2.0000      -0.256851        -6.9893
  30   2.0000      -0.240554        -6.5458
  31   2.0000      -0.213702        -5.8151
  32   0.0000      -0.051337        -1.3970
  33   0.0000      -0.033896        -0.9224
  34   0.0000       0.006671         0.1815
  35   0.0000       0.087742         2.3876
  36   0.0000       0.113288         3.0827

MULLIKEN ATOMIC CHARGES
-----------------------
   0 C :   -0.530409
   1 C :    0.035627
   2 C :   -0.405101
   3 C :    0.170593
   4 C :   -0.225566
   5 C :   -0.199056
   6 C :   -0.175797
   7 C :   -0.193817
   8 C :   -0.246604
   9 H :    0.185226
  10 H :    0.168622
  11 H :    0.175393
  12 H :    0.171089
  13 H :    0.169338
  14 H :    0.180619
  15 H :    0.178106
  16 H :    0.179790
  17 H :    0.178279
  18 H :    0.183669
Sum of atomic charges:    0.0000000

LOEWDIN ATOMIC CHARGES
----------------------
   0 C :   -0.394021
   1 C :   -0.112515
   2 C :   -0.319044
   3 C :   -0.087238
   4 C :   -0.158808
   5 C :   -0.170587
   6 C :   -0.178087
   7 C :   -0.171080
   8 C :   -0.156389
   9 H :    0.174850
  10 H :    0.166889
  11 H :    0.171075
  12 H :    0.168687
  13 H :    0.166269
  14 H :    0.182767
  15 H :    0.178338
  16 H :    0.177471
  17 H :    0.178359
  18 H :    0.183064

  Mayer bond orders larger than 0.100000
B(  0-C ,  1-C ) :   0.8642 B(  0-C ,  9-H ) :   0.9704 B(  0-C , 10-H ) :   0.9731
B(  0-C , 11-H ) :   0.9732 B(  1-C ,  2-C ) :   1.8259 B(  1-C ,  3-C ) :   0.8997
B(  2-C , 12-H ) :   0.9695 B(  2-C , 13-H ) :   0.9702 B(  3-C ,  4-C ) :   1.3628
B(  3-C ,  8-C ) :   1.3738 B(  4-C ,  5-C ) :   1.4127 B(  4-C , 14-H ) :   0.9466
B(  5-C ,  6-C ) :   1.3812 B(  5-C , 15-H ) :   0.9588 B(  6-C ,  7-C ) :   1.3847
B(  6-C , 16-H ) :   0.9536 B(  7-C ,  8-C ) :   1.4107 B(  7-C , 17-H ) :   0.9560
B(  8-C , 18-H ) :   0.9462

Dispersion correction           -0.006475759
FINAL SINGLE POINT ENERGY      -348.853861106294

DIPOLE MOMENT
-------------

Method             : SCF
Type of density    : Electron Density
Multiplicity       :   1
Irrep              :   0
Energy             :  -348.8525969723974640 Eh
Relativity type    :
Basis              : AO
                                X                 Y                 Z
Electronic contribution:      4.603555408       0.745605163       0.695564774
Nuclear contribution   :     -4.625906061      -0.911850979      -0.872697557
                        -----------------------------------------
Total Dipole Moment    :     -0.022350652      -0.166245815      -0.177132783
                        -----------------------------------------
Magnitude (a.u.)       :      0.243953368
Magnitude (Debye)      :      0.620080182

Rotational constants in cm-1:             0.120629             0.039694             0.032260
Rotational constants in MHz :          3616.367056          1189.993446           967.133676

                             ****ORCA TERMINATED NORMALLY****
TOTAL RUN TIME: 0 days 0 hours 0 minutes 24 seconds 105 msec
