                         Program Version 6.0.0  -   RELEASE  -
|  1> ! r2scan-3c def2/J RI DEFGRID2 scfconv6 printgap
|  2> %output
|  3>     printlevel normal
|  4> end
|  5> %cpcm
|  6>     smd true
|  7>     smdsolvent "water"
|  8> end
|  9> * xyz 0 1
| 10> C 1.433731992 0.9385532403 -0.2716921121
| 11> C 0.760953598 -0.3635796874 0.0558468029
| 12> O 1.4067311063 -1.3893776588 0.2247726734
| 13> C -0.7059153156 -0.3786346681 0.2021187797
| 14> C -1.4894199791 0.8541464307 0.5929328084
| 15> C -1.6085734991 0.3300183216 -0.7890566114
| 16> H 1.4749454375 1.540028122 0.6346982098
| 17> H 2.4504798043 0.745942028 -0.6029641209
| 18> H 0.8904904982 1.4926333846 -1.0295868904
| 19> H -1.0613109489 -1.3329984554 0.5737771363
| 20> H -2.3110934365 0.7071477675 1.2758278463
| 21> H -0.9429306656 1.7688149144 0.7531110779
| 22> H -2.5092524532 -0.190053286 -1.0747076572
| 23> H -1.1451898897 0.8723378893 -1.5974525577
| 24> *
| 25>
| 26>                          ****END OF INPUT****

CARTESIAN COORDINATES (ANGSTROEM)
---------------------------------
  C      1.433732    0.938553   -0.271692
  C      0.760954   -0.363580    0.055847
  O      1.406731   -1.389378    0.224773
  C     -0.705915   -0.378635    0.202119
  C     -1.489420    0.854146    0.592933
  C     -1.608573    0.330018   -0.789057
  H      1.474945    1.540028    0.634698
  H      2.450480    0.745942   -0.602964
  H      0.890490    1.492633   -1.029587
  H     -1.061311   -1.332998    0.573777
  H     -2.311093    0.707148    1.275828
  H     -0.942931    1.768815    0.753111
  H     -2.509252   -0.190053   -1.074708
  H     -1.145190    0.872338   -1.597453

 Total Charge           Charge          ....    0
 Multiplicity           Mult            ....    1
 Number of Electrons    NEL             ....   46
 Basis Dimension        Dim             ....  159

ORBITAL ENERGIES
----------------

  NO   OCC          E(Eh)            E(eV)
   0   2.0000     -18.941888      -515.4350
   1   2.0000     -10.124954      -275.5140
   2   2.0000     -10.047618      -273.4096
   3   2.0000     -10.042342      -273.2660
   4   2.0000     -10.040673      -273.2206
   5   2.0000     -10.023090      -272.7421
   6   2.0000      -1.009431       -27.4680
   7   2.0000      -0.839902       -22.8549
   8   2.0000      -0.709166       -19.2974
   9   2.0000      -0.616201       -16.7677
  10   2.0000      -0.574425       -15.6309
  11   2.0000      -0.502602       -13.6765
  12   2.0000      -0.463562       -12.6142
  13   2.0000      -0.453970       -12.3531
  14   2.0000      -0.411274       -11.1913
  15   2.0000      -0.398813       -10.8523
  16   2.0000      -0.372533       -10.1371
  17   2.0000      -0.344941        -9.3863
  18   2.0000      -0.340233        -9.2582
  19   2.0000      -0.330018        -8.9802
  20   2.0000      -0.289281        -7.8717
  21   2.0000      -0.274220        -7.4619
  22   2.0000      -0.224522        -6.1096
  23   0.0000      -0.048845        -1.3291
  24   0.0000       0.092499         2.5170
  25   0.0000       0.106858         2.9078
  26   0.0000       0.109147         2.9700
  27   0.0000       0.112877         3.0715

MULLIKEN ATOMIC CHARGES
-----------------------
   0 C :   -0.575453
   1 C :    0.358200
   2 O :   -0.474706
   3 C :   -0.135723
   4 C :   -0.355711
   5 C :   -0.381404
   6 H :    0.204318
   7 H :    0.181766
   8 H :    0.196639
   9 H :    0.205437
  10 H :    0.195179
  11 H :    0.192914
  12 H :    0.196172
  13 H :    0.192373
Sum of atomic charges:    0.0000000

LOEWDIN ATOMIC CHARGES
----------------------
   0 C :   -0.383907
   1 C :    0.237097
   2 O :   -0.563252
   3 C :   -0.191496
   4 C :   -0.272947
   5 C :   -0.269018
   6 H :    0.192427
   7 H :    0.178136
   8 H :    0.180870
   9 H :    0.189122
  10 H :    0.176017
  11 H :    0.176729
  12 H :    0.175835
  13 H :    0.174386

  Mayer bond orders larger than 0.100000
B(  0-C ,  1-C ) :   0.9145 B(  0-C ,  6-H ) :   0.9211 B(  0-C ,  7-H ) :   0.9655
B(  0-C ,  8-H ) :   0.9569 B(  1-C ,  2-O ) :   1.8274 B(  1-C ,  3-C ) :   1.0365
B(  3-C ,  4-C ) :   0.8737 B(  3-C ,  5-C ) :   0.8572 B(  3-C ,  9-H ) :   0.9064
B(  4-C ,  5-C ) :   0.9544 B(  4-C , 10-H ) :   0.9370 B(  4-C , 11-H ) :   0.9426
B(  5-C , 12-H ) :   0.9333 B(  5-C , 13-H ) :   0.9532

Dispersion correction           -0.003323997
FINAL SINGLE POINT ENERGY      -270.480433647545

DIPOLE MOMENT
-------------

Method             : SCF
Type of density    : Electron Density
Multiplicity       :   1
Irrep              :   0
Energy             :  -270.4826703400560746 Eh
Relativity type    :
Basis              : AO
                                X                 Y                 Z
Electronic contribution:      1.731696309      -3.622645546       0.753852255
Nuclear contribution   :     -2.937968434       5.236741635      -0.997969858
                        -----------------------------------------
Total Dipole Moment    :     -1.206272125       1.614096089      -0.244117604
                        -----------------------------------------
Magnitude (a.u.)       :      2.029776349
Magnitude (Debye)      :      5.159281464

Rotational constants in cm-1:             0.220824             0.091595             0.077123
Rotational constants in MHz :          6620.141353          2745.963790          2312.076691

                             ****ORCA TERMINATED NORMALLY****
TOTAL RUN TIME: 0 days 0 hours 0 minutes 21 seconds 602 msec
