                         Program Version 6.0.0  -   RELEASE  -
|  1> ! wb97x-v def2-tzvp def2/J RIJCOSX DEFGRID2 scfconv7 GCP(DFT/TZ) printgap
|  2> %output
|  3>     printlevel normal
|  4> end
|  5> * xyz 0 1
|  6> C -2.7582079124806853 -0.9040835363220133 -0.030138443311261188
|  7> N -1.8920181442126758 0.25489781702767145 0.024780645139540907
|  8> C -0.5262005014056524 0.18116410553645068 0.012544145236832633
|  9> C 0.15266302758816785 -1.052862633758651 -0.05619451478684117
| 10> C 1.5449633861649779 -1.0867571904850244 -0.06671873064616932
| 11> C 2.299403669755795 0.08287215599329177 -0.010063525456845041
| 12> C 1.6287521581564586 1.308075471265862 0.05842915096877305
| 13> C 0.24406970614665022 1.364324032512179 0.06978138482188372
| 14> H -3.7951815577753836 -0.5640115540220092 -0.007083305121151915
| 15> H -2.6020996850336107 -1.5762442337732676 0.824767382213419
| 16> H -2.6114888535801275 -1.4852762077176493 -0.9508324448481454
| 17> H -2.3131722648894293 1.1671672553488448 0.073880587838603
| 18> H -0.40584656453320295 -1.9814623368774726 -0.10101367719088558
| 19> H 2.0446026613914823 -2.0502518092286612 -0.1200934536790763
| 20> H 3.383537703109328 0.04480705229962679 -0.018802493283941707
| 21> H 2.1946710677687262 2.2345541371700715 0.10301006065531274
| 22> H -0.26625972051298114 2.323033544708564 0.12269793092083936
| 23> *
| 24>
| 25>                          ****END OF INPUT****

CARTESIAN COORDINATES (ANGSTROEM)
---------------------------------
  C     -2.758208   -0.904084   -0.030138
  N     -1.892018    0.254898    0.024781
  C     -0.526201    0.181164    0.012544
  C      0.152663   -1.052863   -0.056195
  C      1.544963   -1.086757   -0.066719
  C      2.299404    0.082872   -0.010064
  C      1.628752    1.308075    0.058429
  C      0.244070    1.364324    0.069781
  H     -3.795182   -0.564012   -0.007083
  H     -2.602100   -1.576244    0.824767
  H     -2.611489   -1.485276   -0.950832
  H     -2.313172    1.167167    0.073881
  H     -0.405847   -1.981462   -0.101014
  H      2.044603   -2.050252   -0.120093
  H      3.383538    0.044807   -0.018802
  H      2.194671    2.234554    0.103010
  H     -0.266260    2.323034    0.122698

 Total Charge           Charge          ....    0
 Multiplicity           Mult            ....    1
 Number of Electrons    NEL             ....   58
 Basis Dimension        Dim             ....  302

ORBITAL ENERGIES
----------------

  NO   OCC          E(Eh)            E(eV)
   0   2.0000     -16.535876      -449.9641
   1   2.0000     -12.088699      -328.9502
   2   2.0000     -12.080428      -328.7252
   3   2.0000     -12.044434      -327.7457
   4   2.0000     -12.043803      -327.7285
   5   2.0000     -12.037465      -327.5561
   6   2.0000     -12.035450      -327.5012
   7   2.0000     -12.029968      -327.3521
   8   2.0000      -1.509695       -41.0809
   9   2.0000      -1.363091       -37.0916
  10   2.0000      -1.269033       -34.5321
  11   2.0000      -1.262532       -34.3552
  12   2.0000      -1.195378       -32.5279
  13   2.0000      -1.109380       -30.1878
  14   2.0000      -1.088753       -29.6265
  15   2.0000      -1.019465       -27.7410
  16   2.0000      -0.974048       -26.5052
  17   2.0000      -0.936638       -25.4872
  18   2.0000      -0.919961       -25.0334
  19   2.0000      -0.888469       -24.1765
  20   2.0000      -0.886175       -24.1141
  21   2.0000      -0.864508       -23.5245
  22   2.0000      -0.831900       -22.6372
  23   2.0000      -0.818337       -22.2681
  24   2.0000      -0.794394       -21.6166
  25   2.0000      -0.786548       -21.4031
  26   2.0000      -0.726820       -19.7778
  27   2.0000      -0.631050       -17.1717
  28   2.0000      -0.599215       -16.3055
  29   0.0000      -0.227166        -6.1815
  30   0.0000      -0.226646        -6.1674
  31   0.0000      -0.100950        -2.7470
  32   0.0000      -0.057102        -1.5538
  33   0.0000      -0.043666        -1.1882

MULLIKEN ATOMIC CHARGES
-----------------------
   0 C :   -0.263907
   1 N :   -0.280790
   2 C :    0.320546
   3 C :   -0.289065
   4 C :   -0.088970
   5 C :   -0.182979
   6 C :   -0.077766
   7 C :   -0.263473
   8 H :    0.123802
   9 H :    0.124999
  10 H :    0.124986
  11 H :    0.209501
  12 H :    0.117789
  13 H :    0.110602
  14 H :    0.108566
  15 H :    0.110379
  16 H :    0.095780
Sum of atomic charges:    0.0000000

LOEWDIN ATOMIC CHARGES
----------------------
   0 C :   -0.318854
   1 N :    0.074602
   2 C :   -0.215707
   3 C :   -0.146840
   4 C :   -0.141882
   5 C :   -0.175710
   6 C :   -0.143314
   7 C :   -0.140333
   8 H :    0.115649
   9 H :    0.110207
  10 H :    0.110198
  11 H :    0.175526
  12 H :    0.141104
  13 H :    0.141002
  14 H :    0.136625
  15 H :    0.141000
  16 H :    0.136725

  Mayer bond orders larger than 0.100000
B(  0-C ,  1-N ) :   0.9593 B(  0-C ,  8-H ) :   0.9743 B(  0-C ,  9-H ) :   0.9742
B(  0-C , 10-H ) :   0.9741 B(  1-N ,  2-C ) :   1.1668 B(  1-N , 11-H ) :   0.9314
B(  2-C ,  3-C ) :   1.3507 B(  2-C ,  7-C ) :   1.3062 B(  3-C ,  4-C ) :   1.4596
B(  3-C , 12-H ) :   0.9617 B(  4-C ,  5-C ) :   1.4453 B(  4-C , 13-H ) :   0.9707
B(  5-C ,  6-C ) :   1.3981 B(  5-C , 14-H ) :   0.9776 B(  6-C ,  7-C ) :   1.5163
B(  6-C , 15-H ) :   0.9736 B(  7-C , 16-H ) :   0.9736

FINAL SINGLE POINT ENERGY      -326.921341283578

DIPOLE MOMENT
-------------

Method             : SCF
Type of density    : Electron Density
Multiplicity       :   1
Irrep              :   0
Energy             :  -326.9309567057779873 Eh
Relativity type    :
Basis              : AO
                                X                 Y                 Z
Electronic contribution:      3.307052745       1.888109448       0.078189477
Nuclear contribution   :     -4.122926736      -1.799474674      -0.069143498
                        -----------------------------------------
Total Dipole Moment    :     -0.815873992       0.088634774       0.009045979
                        -----------------------------------------
Magnitude (a.u.)       :      0.820724267
Magnitude (Debye)      :      2.086115301

Rotational constants in cm-1:             0.166381             0.050597             0.039085
Rotational constants in MHz :          4987.971861          1516.846447          1171.728803

                             ****ORCA TERMINATED NORMALLY****
TOTAL RUN TIME: 0 days 0 hours 2 minutes 28 seconds 842 msec
