                         Program Version 6.0.0  -   RELEASE  -
|  1> ! wb97x-v def2-tzvp def2/J RIJCOSX DEFGRID2 scfconv7 GCP(DFT/TZ) printgap
|  2> %output
|  3>     printlevel normal
|  4> end
|  5> %cpcm
|  6>     smd true
|  7>     smdsolvent "water"
|  8> end
|  9> * xyz 0 1
| 10> C -2.7582079124806853 -0.9040835363220133 -0.030138443311261188
| 11> N -1.8920181442126758 0.25489781702767145 0.024780645139540907
| 12> C -0.5262005014056524 0.18116410553645068 0.012544145236832633
| 13> C 0.15266302758816785 -1.052862633758651 -0.05619451478684117
| 14> C 1.5449633861649779 -1.0867571904850244 -0.06671873064616932
| 15> C 2.299403669755795 0.08287215599329177 -0.010063525456845041
| 16> C 1.6287521581564586 1.308075471265862 0.05842915096877305
| 17> C 0.24406970614665022 1.364324032512179 0.06978138482188372
| 18> H -3.7951815577753836 -0.5640115540220092 -0.007083305121151915
| 19> H -2.6020996850336107 -1.5762442337732676 0.824767382213419
| 20> H -2.6114888535801275 -1.4852762077176493 -0.9508324448481454
| 21> H -2.3131722648894293 1.1671672553488448 0.073880587838603
| 22> H -0.40584656453320295 -1.9814623368774726 -0.10101367719088558
| 23> H 2.0446026613914823 -2.0502518092286612 -0.1200934536790763
| 24> H 3.383537703109328 0.04480705229962679 -0.018802493283941707
| 25> H 2.1946710677687262 2.2345541371700715 0.10301006065531274
| 26> H -0.26625972051298114 2.323033544708564 0.12269793092083936
| 27> *
| 28>
| 29>                          ****END OF INPUT****

CARTESIAN COORDINATES (ANGSTROEM)
---------------------------------
  C     -2.758208   -0.904084   -0.030138
  N     -1.892018    0.254898    0.024781
  C     -0.526201    0.181164    0.012544
  C      0.152663   -1.052863   -0.056195
  C      1.544963   -1.086757   -0.066719
  C      2.299404    0.082872   -0.010064
  C      1.628752    1.308075    0.058429
  C      0.244070    1.364324    0.069781
  H     -3.795182   -0.564012   -0.007083
  H     -2.602100   -1.576244    0.824767
  H     -2.611489   -1.485276   -0.950832
  H     -2.313172    1.167167    0.073881
  H     -0.405847   -1.981462   -0.101014
  H      2.044603   -2.050252   -0.120093
  H      3.383538    0.044807   -0.018802
  H      2.194671    2.234554    0.103010
  H     -0.266260    2.323034    0.122698

 Total Charge           Charge          ....    0
 Multiplicity           Mult            ....    1
 Number of Electrons    NEL             ....   58
 Basis Dimension        Dim             ....  302

ORBITAL ENERGIES
----------------

  NO   OCC          E(Eh)            E(eV)
   0   2.0000     -16.527955      -449.7485
   1   2.0000     -12.090500      -328.9992
   2   2.0000     -12.063924      -328.2761
   3   2.0000     -12.047481      -327.8286
   4   2.0000     -12.047216      -327.8214
   5   2.0000     -12.038343      -327.5800
   6   2.0000     -12.036835      -327.5389
   7   2.0000     -12.033088      -327.4370
   8   2.0000      -1.502863       -40.8950
   9   2.0000      -1.366861       -37.1942
  10   2.0000      -1.269161       -34.5356
  11   2.0000      -1.265445       -34.4345
  12   2.0000      -1.187635       -32.3172
  13   2.0000      -1.108913       -30.1750
  14   2.0000      -1.087899       -29.6032
  15   2.0000      -1.016640       -27.6642
  16   2.0000      -0.968115       -26.3438
  17   2.0000      -0.937430       -25.5088
  18   2.0000      -0.917026       -24.9536
  19   2.0000      -0.889079       -24.1931
  20   2.0000      -0.875514       -23.8240
  21   2.0000      -0.865454       -23.5502
  22   2.0000      -0.821079       -22.3427
  23   2.0000      -0.814866       -22.1736
  24   2.0000      -0.794734       -21.6258
  25   2.0000      -0.783760       -21.3272
  26   2.0000      -0.726907       -19.7801
  27   2.0000      -0.637047       -17.3349
  28   2.0000      -0.601479       -16.3671
  29   0.0000      -0.232801        -6.3348
  30   0.0000      -0.231838        -6.3086
  31   0.0000      -0.090146        -2.4530
  32   0.0000      -0.061728        -1.6797
  33   0.0000      -0.031552        -0.8586

MULLIKEN ATOMIC CHARGES
-----------------------
   0 C :   -0.295726
   1 N :   -0.288980
   2 C :    0.273346
   3 C :   -0.351299
   4 C :   -0.129511
   5 C :   -0.256027
   6 C :   -0.108600
   7 C :   -0.317532
   8 H :    0.157166
   9 H :    0.134541
  10 H :    0.134507
  11 H :    0.263448
  12 H :    0.164406
  13 H :    0.156960
  14 H :    0.153904
  15 H :    0.156699
  16 H :    0.152698
Sum of atomic charges:    0.0000000

LOEWDIN ATOMIC CHARGES
----------------------
   0 C :   -0.317295
   1 N :    0.079773
   2 C :   -0.227859
   3 C :   -0.159219
   4 C :   -0.158072
   5 C :   -0.199149
   6 C :   -0.158803
   7 C :   -0.148795
   8 H :    0.124196
   9 H :    0.113361
  10 H :    0.113353
  11 H :    0.192297
  12 H :    0.151347
  13 H :    0.150120
  14 H :    0.144128
  15 H :    0.150274
  16 H :    0.150344

  Mayer bond orders larger than 0.100000
B(  0-C ,  1-N ) :   0.9426 B(  0-C ,  8-H ) :   0.9675 B(  0-C ,  9-H ) :   0.9721
B(  0-C , 10-H ) :   0.9721 B(  1-N ,  2-C ) :   1.2109 B(  1-N , 11-H ) :   0.9059
B(  2-C ,  3-C ) :   1.3160 B(  2-C ,  7-C ) :   1.2882 B(  3-C ,  4-C ) :   1.4347
B(  3-C , 12-H ) :   0.9698 B(  4-C ,  5-C ) :   1.4182 B(  4-C , 13-H ) :   0.9725
B(  5-C ,  6-C ) :   1.3681 B(  5-C , 14-H ) :   0.9827 B(  6-C ,  7-C ) :   1.4838
B(  6-C , 15-H ) :   0.9753 B(  7-C , 16-H ) :   0.9792

FINAL SINGLE POINT ENERGY      -326.928338190225

DIPOLE MOMENT
-------------

Method             : SCF
Type of density    : Electron Density
Multiplicity       :   1
Irrep              :   0
Energy             :  -326.9379536124247920 Eh
Relativity type    :
Basis              : AO
                                X                 Y                 Z
Electronic contribution:      2.961744206       1.940512144       0.082815772
Nuclear contribution   :     -4.122926736      -1.799474674      -0.069143498
                        -----------------------------------------
Total Dipole Moment    :     -1.161182530       0.141037470       0.013672273
                        -----------------------------------------
Magnitude (a.u.)       :      1.169796293
Magnitude (Debye)      :      2.973385878

Rotational constants in cm-1:             0.166381             0.050597             0.039085
Rotational constants in MHz :          4987.971861          1516.846447          1171.728803

                             ****ORCA TERMINATED NORMALLY****
TOTAL RUN TIME: 0 days 0 hours 2 minutes 35 seconds 973 msec
