                         Program Version 6.0.0  -   RELEASE  -
|  1> ! pbe def2-sv(p) def2/J RI DEFGRID1 loosescf d4 GCP(DFT/SV(P)) printgap
|  2> %output
|  3>     printlevel normal
|  4> end
|  5> * xyz 0 1
|  6> C 3.4217937534 0.6744131883 0.2300695911
|  7> C 2.1847829047 0.1926040414 -0.5256498991
|  8> H 2.4941939425 -0.0889166408 -1.5378638685
|  9> C 1.1263027261 1.3023616384 -0.6394770767
| 10> C 0.1322434941 1.2551208949 0.5172788295
| 11> C -0.6793937412 -0.0522072597 0.5443246558
| 12> H -0.7890411842 -0.3569248585 1.5934163475
| 13> C 0.1012309573 -1.1848770414 -0.1488733995
| 14> H -0.0444527483 -1.1478381719 -1.2327369134
| 15> C 1.5919144216 -1.0440204529 0.1639089186
| 16> O -0.4003863957 -2.4584441418 0.2137047468
| 17> C -2.1131495877 0.05602801 -0.0149714698
| 18> C -3.0239630245 0.8005750894 0.9613375879
| 19> C -2.1951287522 0.7033850784 -1.395717941
| 20> H 3.9059982439 1.4857691248 -0.3081813105
| 21> H 3.1489648221 1.0327122858 1.22001355
| 22> H 4.1368744813 -0.137212183 0.3430392719
| 23> H 1.6218723588 2.2746803864 -0.6518999327
| 24> H 0.5863974279 1.199289289 -1.5803244467
| 25> H 0.6845878653 1.3568565068 1.4529840847
| 26> H -0.5420776377 2.1086708288 0.452863973
| 27> H 1.7145580694 -0.9604387551 1.2465614832
| 28> H 2.1150946017 -1.9444739044 -0.1632437452
| 29> H -0.2648037765 -2.5882650912 1.1629902675
| 30> H -2.4810305219 -0.9739314969 -0.1045001279
| 31> H -3.0282856742 0.3139984311 1.9339997901
| 32> H -4.043619742 0.8180227444 0.5841654834
| 33> H -2.6932818541 1.8281069459 1.0930931896
| 34> H -1.5867578438 0.1661153349 -2.118626409
| 35> H -1.868960556 1.7395134199 -1.3639810724
| 36> H -3.224647462 0.683766495 -1.7464643406
| 37> *
| 38>
| 39>                          ****END OF INPUT****

CARTESIAN COORDINATES (ANGSTROEM)
---------------------------------
  C      3.421794    0.674413    0.230070
  C      2.184783    0.192604   -0.525650
  H      2.494194   -0.088917   -1.537864
  C      1.126303    1.302362   -0.639477
  C      0.132243    1.255121    0.517279
  C     -0.679394   -0.052207    0.544325
  H     -0.789041   -0.356925    1.593416
  C      0.101231   -1.184877   -0.148873
  H     -0.044453   -1.147838   -1.232737
  C      1.591914   -1.044020    0.163909
  O     -0.400386   -2.458444    0.213705
  C     -2.113150    0.056028   -0.014971
  C     -3.023963    0.800575    0.961338
  C     -2.195129    0.703385   -1.395718
  H      3.905998    1.485769   -0.308181
  H      3.148965    1.032712    1.220014
  H      4.136874   -0.137212    0.343039
  H      1.621872    2.274680   -0.651900
  H      0.586397    1.199289   -1.580324
  H      0.684588    1.356857    1.452984
  H     -0.542078    2.108671    0.452864
  H      1.714558   -0.960439    1.246561
  H      2.115095   -1.944474   -0.163244
  H     -0.264804   -2.588265    1.162990
  H     -2.481031   -0.973931   -0.104500
  H     -3.028286    0.313998    1.934000
  H     -4.043620    0.818023    0.584165
  H     -2.693282    1.828107    1.093093
  H     -1.586758    0.166115   -2.118626
  H     -1.868961    1.739513   -1.363981
  H     -3.224647    0.683766   -1.746464

 Total Charge           Charge          ....    0
 Multiplicity           Mult            ....    1
 Number of Electrons    NEL             ....   88
 Basis Dimension        Dim             ....  194

ORBITAL ENERGIES
----------------

  NO   OCC          E(Eh)            E(eV)
   0   2.0000     -18.737338      -509.8689
   1   2.0000      -9.929914      -270.2067
   2   2.0000      -9.893993      -269.2292
   3   2.0000      -9.888196      -269.0715
   4   2.0000      -9.887203      -269.0445
   5   2.0000      -9.882750      -268.9233
   6   2.0000      -9.880426      -268.8601
   7   2.0000      -9.878825      -268.8165
   8   2.0000      -9.873376      -268.6682
   9   2.0000      -9.870168      -268.5809
  10   2.0000      -9.869087      -268.5515
  11   2.0000      -0.915692       -24.9172
  12   2.0000      -0.759578       -20.6692
  13   2.0000      -0.720411       -19.6034
  14   2.0000      -0.666531       -18.1372
  15   2.0000      -0.653675       -17.7874
  16   2.0000      -0.610134       -16.6026
  17   2.0000      -0.602497       -16.3948
  18   2.0000      -0.560606       -15.2549
  19   2.0000      -0.539116       -14.6701
  20   2.0000      -0.490037       -13.3346
  21   2.0000      -0.481959       -13.1148
  22   2.0000      -0.444539       -12.0965
  23   2.0000      -0.439341       -11.9551
  24   2.0000      -0.409018       -11.1299
  25   2.0000      -0.402020       -10.9395
  26   2.0000      -0.386431       -10.5153
  27   2.0000      -0.379866       -10.3367
  28   2.0000      -0.360869        -9.8197
  29   2.0000      -0.355931        -9.6854
  30   2.0000      -0.343255        -9.3404
  31   2.0000      -0.341172        -9.2838
  32   2.0000      -0.333860        -9.0848
  33   2.0000      -0.331389        -9.0176
  34   2.0000      -0.327377        -8.9084
  35   2.0000      -0.309650        -8.4260
  36   2.0000      -0.298499        -8.1226
  37   2.0000      -0.289662        -7.8821
  38   2.0000      -0.283144        -7.7047
  39   2.0000      -0.278823        -7.5872
  40   2.0000      -0.266611        -7.2548
  41   2.0000      -0.261013        -7.1025
  42   2.0000      -0.246220        -6.7000
  43   2.0000      -0.205395        -5.5891
  44   0.0000       0.023579         0.6416
  45   0.0000       0.032040         0.8718
  46   0.0000       0.046345         1.2611
  47   0.0000       0.053141         1.4460
  48   0.0000       0.074299         2.0218

MULLIKEN ATOMIC CHARGES
-----------------------
   0 C :   -0.241407
   1 C :   -0.187248
   2 H :    0.068415
   3 C :   -0.115023
   4 C :   -0.123669
   5 C :   -0.114348
   6 H :    0.032101
   7 C :    0.042654
   8 H :    0.060663
   9 C :   -0.059591
  10 O :   -0.417805
  11 C :   -0.148909
  12 C :   -0.232680
  13 C :   -0.258150
  14 H :    0.098316
  15 H :    0.095896
  16 H :    0.100182
  17 H :    0.076807
  18 H :    0.080257
  19 H :    0.071599
  20 H :    0.089273
  21 H :    0.045031
  22 H :    0.084077
  23 H :    0.290070
  24 H :    0.072721
  25 H :    0.094060
  26 H :    0.096507
  27 H :    0.093432
  28 H :    0.109241
  29 H :    0.098542
  30 H :    0.098984
Sum of atomic charges:    0.0000000

LOEWDIN ATOMIC CHARGES
----------------------
   0 C :   -0.328877
   1 C :   -0.149487
   2 H :    0.116592
   3 C :   -0.221085
   4 C :   -0.219830
   5 C :   -0.146205
   6 H :    0.108396
   7 C :   -0.049179
   8 H :    0.111850
   9 C :   -0.229726
  10 O :   -0.319823
  11 C :   -0.151139
  12 C :   -0.328862
  13 C :   -0.331495
  14 H :    0.116626
  15 H :    0.114734
  16 H :    0.118026
  17 H :    0.117418
  18 H :    0.116070
  19 H :    0.116100
  20 H :    0.117047
  21 H :    0.109368
  22 H :    0.120187
  23 H :    0.277557
  24 H :    0.118139
  25 H :    0.114935
  26 H :    0.117372
  27 H :    0.113979
  28 H :    0.115563
  29 H :    0.115509
  30 H :    0.120239

  Mayer bond orders larger than 0.100000
B(  0-C ,  1-C ) :   1.1167 B(  0-C , 14-H ) :   0.9466 B(  0-C , 15-H ) :   0.9455
B(  0-C , 16-H ) :   0.9491 B(  1-C ,  2-H ) :   0.8948 B(  1-C ,  3-C ) :   1.0902
B(  1-C ,  9-C ) :   1.0836 B(  3-C ,  4-C ) :   1.1895 B(  3-C , 17-H ) :   0.9144
B(  3-C , 18-H ) :   0.8958 B(  4-C ,  5-C ) :   1.0532 B(  4-C , 19-H ) :   0.8947
B(  4-C , 20-H ) :   0.9039 B(  5-C ,  6-H ) :   0.8684 B(  5-C ,  7-C ) :   1.0279
B(  5-C , 11-C ) :   1.0469 B(  7-C ,  8-H ) :   0.8730 B(  7-C ,  9-C ) :   1.1343
B(  7-C , 10-O ) :   1.0302 B(  9-C , 21-H ) :   0.8792 B(  9-C , 22-H ) :   0.9039
B( 10-O , 23-H ) :   0.8526 B( 11-C , 12-C ) :   1.1106 B( 11-C , 13-C ) :   1.1226
B( 11-C , 24-H ) :   0.8867 B( 12-C , 25-H ) :   0.9479 B( 12-C , 26-H ) :   0.9495
B( 12-C , 27-H ) :   0.9432 B( 13-C , 28-H ) :   0.9374 B( 13-C , 29-H ) :   0.9369
B( 13-C , 30-H ) :   0.9451

Dispersion correction           -0.032188845
FINAL SINGLE POINT ENERGY      -467.190421210111

DIPOLE MOMENT
-------------

Method             : SCF
Type of density    : Electron Density
Multiplicity       :   1
Irrep              :   0
Energy             :  -467.3020893638599773 Eh
Relativity type    :
Basis              : AO
                                X                 Y                 Z
Electronic contribution:      0.387983294      -6.035259016       0.077244050
Nuclear contribution   :     -0.154562045       6.351954296       0.261452422
                        -----------------------------------------
Total Dipole Moment    :      0.233421249       0.316695280       0.338696472
                        -----------------------------------------
Magnitude (a.u.)       :      0.519130696
Magnitude (Debye)      :      1.319525366

Rotational constants in cm-1:             0.055136             0.025124             0.020666
Rotational constants in MHz :          1652.920908           753.201779           619.545532

                             ****ORCA TERMINATED NORMALLY****
TOTAL RUN TIME: 0 days 0 hours 0 minutes 14 seconds 655 msec
