                         Program Version 6.0.0  -   RELEASE  -
|  1> ! pbe def2-sv(p) def2/J RI DEFGRID1 loosescf d4 GCP(DFT/SV(P)) printgap
|  2> %output
|  3>     printlevel normal
|  4> end
|  5> * xyz 0 1
|  6> C -2.4131904816 0.0129777375 -0.0002677973
|  7> C -0.9869738441 -0.5223706373 0.0002854625
|  8> C 0.027713038 0.6307063186 0.0001592969
|  9> C 1.3749026284 0.1390531689 5.5098e-05
| 10> N 2.4454818529 -0.2700190203 -0.0002070424
| 11> H -2.5944185812 0.6211392879 -0.8833795059
| 12> H -3.1216574034 -0.8109258542 -1.93329e-05
| 13> H -2.5947870074 0.6220131691 0.8821658226
| 14> H -0.824979384 -1.1449791726 0.8824647843
| 15> H -0.8245331233 -1.1455437242 -0.8814127274
| 16> H -0.1098647364 1.2540432735 0.8874363759
| 17> H -0.1100299086 1.2539756918 -0.8871435359
| 18> *
| 19>
| 20>                          ****END OF INPUT****

CARTESIAN COORDINATES (ANGSTROEM)
---------------------------------
  C     -2.413190    0.012978   -0.000268
  C     -0.986974   -0.522371    0.000285
  C      0.027713    0.630706    0.000159
  C      1.374903    0.139053    0.000055
  N      2.445482   -0.270019   -0.000207
  H     -2.594419    0.621139   -0.883380
  H     -3.121657   -0.810926   -0.000019
  H     -2.594787    0.622013    0.882166
  H     -0.824979   -1.144979    0.882465
  H     -0.824533   -1.145544   -0.881413
  H     -0.109865    1.254043    0.887436
  H     -0.110030    1.253976   -0.887144

 Total Charge           Charge          ....    0
 Multiplicity           Mult            ....    1
 Number of Electrons    NEL             ....   38
 Basis Dimension        Dim             ....   84

ORBITAL ENERGIES
----------------

  NO   OCC          E(Eh)            E(eV)
   0   2.0000     -13.974464      -380.2645
   1   2.0000      -9.937256      -270.4065
   2   2.0000      -9.923882      -270.0426
   3   2.0000      -9.914817      -269.7959
   4   2.0000      -9.894525      -269.2437
   5   2.0000      -0.812509       -22.1095
   6   2.0000      -0.745456       -20.2849
   7   2.0000      -0.662108       -18.0169
   8   2.0000      -0.556870       -15.1532
   9   2.0000      -0.469461       -12.7747
  10   2.0000      -0.452998       -12.3267
  11   2.0000      -0.402058       -10.9405
  12   2.0000      -0.384012       -10.4495
  13   2.0000      -0.348301        -9.4777
  14   2.0000      -0.331434        -9.0188
  15   2.0000      -0.318823        -8.6756
  16   2.0000      -0.292586        -7.9617
  17   2.0000      -0.285947        -7.7810
  18   2.0000      -0.283613        -7.7175
  19   0.0000       0.001333         0.0363
  20   0.0000       0.008965         0.2440
  21   0.0000       0.029827         0.8116
  22   0.0000       0.063675         1.7327
  23   0.0000       0.064547         1.7564

MULLIKEN ATOMIC CHARGES
-----------------------
   0 C :   -0.244806
   1 C :   -0.241527
   2 C :   -0.149537
   3 C :   -0.235943
   4 N :    0.069899
   5 H :    0.102915
   6 H :    0.116947
   7 H :    0.102906
   8 H :    0.115049
   9 H :    0.115059
  10 H :    0.124514
  11 H :    0.124523
Sum of atomic charges:    0.0000000

LOEWDIN ATOMIC CHARGES
----------------------
   0 C :   -0.340031
   1 C :   -0.219917
   2 C :   -0.242398
   3 C :   -0.056719
   4 N :   -0.069529
   5 H :    0.120795
   6 H :    0.127090
   7 H :    0.120794
   8 H :    0.127524
   9 H :    0.127527
  10 H :    0.152431
  11 H :    0.152431

  Mayer bond orders larger than 0.100000
B(  0-C ,  1-C ) :   1.1653 B(  0-C ,  5-H ) :   0.9510 B(  0-C ,  6-H ) :   0.9513
B(  0-C ,  7-H ) :   0.9510 B(  1-C ,  2-C ) :   1.1376 B(  1-C ,  8-H ) :   0.9264
B(  1-C ,  9-H ) :   0.9264 B(  2-C ,  3-C ) :   1.2197 B(  2-C , 10-H ) :   0.8743
B(  2-C , 11-H ) :   0.8744 B(  3-C ,  4-N ) :   3.0580

Dispersion correction           -0.007304734
FINAL SINGLE POINT ENERGY      -210.882888529091

DIPOLE MOMENT
-------------

Method             : SCF
Type of density    : Electron Density
Multiplicity       :   1
Irrep              :   0
Energy             :  -210.9204795269398005 Eh
Relativity type    :
Basis              : AO
                                X                 Y                 Z
Electronic contribution:      8.077801393      -0.203119104       0.000093744
Nuclear contribution   :     -9.537384427       0.608065007       0.000103823
                        -----------------------------------------
Total Dipole Moment    :     -1.459583033       0.404945902       0.000197567
                        -----------------------------------------
Magnitude (a.u.)       :      1.514715767
Magnitude (Debye)      :      3.850101507

Rotational constants in cm-1:             0.791686             0.077455             0.073459
Rotational constants in MHz :         23734.140639          2322.047736          2202.236449

                             ****ORCA TERMINATED NORMALLY****
TOTAL RUN TIME: 0 days 0 hours 0 minutes 4 seconds 598 msec
