                         Program Version 6.0.0  -   RELEASE  -
|  1> ! pbe def2-sv(p) def2/J RI DEFGRID1 loosescf d4 GCP(DFT/SV(P)) printgap
|  2> %output
|  3>     printlevel normal
|  4> end
|  5> * xyz 0 1
|  6> C -1.7934042348 -1.0556993121 -0.6729126505
|  7> C -1.0345216964 -0.488070875 0.5371024062
|  8> H -1.6972452548 -0.5790854845 1.4062191314
|  9> C -0.7107302763 1.0096045101 0.3674289911
| 10> H -1.5646380085 1.4638031336 -0.1479843269
| 11> C 0.5780829666 1.2375038359 -0.4508598024
| 12> H 0.8802543498 2.2834680361 -0.2990563166
| 13> C 1.7158594379 0.3525086894 0.0870848247
| 14> H 2.5682831897 0.432350056 -0.6037283271
| 15> C 1.2646410802 -1.1203075163 0.1144168445
| 16> H 1.9957532466 -1.7351251396 0.656698749
| 17> O 0.0943126821 -1.2816173786 0.8820325671
| 18> O 1.1812860636 -1.6564041588 -1.166511599
| 19> O 2.0494149781 0.8229316589 1.3679744385
| 20> O 0.4184166679 0.9479633177 -1.8204637403
| 21> O -0.6271128965 1.6738024645 1.6037225586
| 22> O -3.0828375939 -0.4836473562 -0.6778620838
| 23> H -1.836895384 -2.1452018474 -0.5540756815
| 24> H -1.2676315409 -0.8201838663 -1.6039053063
| 25> H 0.8705594478 -0.9732843523 -1.7875664777
| 26> H 2.8001177599 0.3254141995 1.7224148176
| 27> H -0.1009774949 1.6456998338 -2.2446318111
| 28> H 0.1908442983 1.3962662921 2.0496674599
| 29> H -3.6073549228 -0.8915073665 -1.3811271686
| 30> *
| 31>
| 32>                          ****END OF INPUT****

CARTESIAN COORDINATES (ANGSTROEM)
---------------------------------
  C     -1.793404   -1.055699   -0.672913
  C     -1.034522   -0.488071    0.537102
  H     -1.697245   -0.579085    1.406219
  C     -0.710730    1.009605    0.367429
  H     -1.564638    1.463803   -0.147984
  C      0.578083    1.237504   -0.450860
  H      0.880254    2.283468   -0.299056
  C      1.715859    0.352509    0.087085
  H      2.568283    0.432350   -0.603728
  C      1.264641   -1.120308    0.114417
  H      1.995753   -1.735125    0.656699
  O      0.094313   -1.281617    0.882033
  O      1.181286   -1.656404   -1.166512
  O      2.049415    0.822932    1.367974
  O      0.418417    0.947963   -1.820464
  O     -0.627113    1.673802    1.603723
  O     -3.082838   -0.483647   -0.677862
  H     -1.836895   -2.145202   -0.554076
  H     -1.267632   -0.820184   -1.603905
  H      0.870559   -0.973284   -1.787566
  H      2.800118    0.325414    1.722415
  H     -0.100977    1.645700   -2.244632
  H      0.190844    1.396266    2.049667
  H     -3.607355   -0.891507   -1.381127

 Total Charge           Charge          ....    0
 Multiplicity           Mult            ....    1
 Number of Electrons    NEL             ....   96
 Basis Dimension        Dim             ....  192

ORBITAL ENERGIES
----------------

  NO   OCC          E(Eh)            E(eV)
   0   2.0000     -18.787200      -511.2257
   1   2.0000     -18.779345      -511.0119
   2   2.0000     -18.756118      -510.3799
   3   2.0000     -18.749853      -510.2094
   4   2.0000     -18.748272      -510.1664
   5   2.0000     -18.732387      -509.7342
   6   2.0000      -9.981894      -271.6211
   7   2.0000      -9.955588      -270.9053
   8   2.0000      -9.954542      -270.8769
   9   2.0000      -9.935083      -270.3474
  10   2.0000      -9.932237      -270.2699
  11   2.0000      -9.924310      -270.0542
  12   2.0000      -0.978089       -26.6151
  13   2.0000      -0.955183       -25.9918
  14   2.0000      -0.948299       -25.8045
  15   2.0000      -0.923286       -25.1239
  16   2.0000      -0.914377       -24.8815
  17   2.0000      -0.899751       -24.4835
  18   2.0000      -0.703423       -19.1411
  19   2.0000      -0.690954       -18.8018
  20   2.0000      -0.609977       -16.5983
  21   2.0000      -0.596297       -16.2261
  22   2.0000      -0.563021       -15.3206
  23   2.0000      -0.531035       -14.4502
  24   2.0000      -0.509759       -13.8712
  25   2.0000      -0.488435       -13.2910
  26   2.0000      -0.475182       -12.9304
  27   2.0000      -0.459237       -12.4965
  28   2.0000      -0.437874       -11.9152
  29   2.0000      -0.428540       -11.6612
  30   2.0000      -0.421381       -11.4663
  31   2.0000      -0.403492       -10.9796
  32   2.0000      -0.386484       -10.5168
  33   2.0000      -0.374754       -10.1976
  34   2.0000      -0.364309        -9.9133
  35   2.0000      -0.337721        -9.1899
  36   2.0000      -0.334502        -9.1023
  37   2.0000      -0.327878        -8.9220
  38   2.0000      -0.304429        -8.2839
  39   2.0000      -0.290146        -7.8953
  40   2.0000      -0.285713        -7.7747
  41   2.0000      -0.267341        -7.2747
  42   2.0000      -0.257276        -7.0008
  43   2.0000      -0.245086        -6.6691
  44   2.0000      -0.227512        -6.1909
  45   2.0000      -0.224458        -6.1078
  46   2.0000      -0.211888        -5.7658
  47   2.0000      -0.196168        -5.3380
  48   0.0000      -0.005171        -0.1407
  49   0.0000       0.013748         0.3741
  50   0.0000       0.025790         0.7018
  51   0.0000       0.066438         1.8079
  52   0.0000       0.074900         2.0381

MULLIKEN ATOMIC CHARGES
-----------------------
   0 C :    0.013026
   1 C :    0.046449
   2 H :    0.083397
   3 C :    0.081385
   4 H :    0.069429
   5 C :    0.000804
   6 H :    0.085609
   7 C :    0.002456
   8 H :    0.083395
   9 C :    0.204016
  10 H :    0.054436
  11 O :   -0.304702
  12 O :   -0.407523
  13 O :   -0.418952
  14 O :   -0.419828
  15 O :   -0.431030
  16 O :   -0.436645
  17 H :    0.083638
  18 H :    0.049489
  19 H :    0.317822
  20 H :    0.314859
  21 H :    0.322587
  22 H :    0.303252
  23 H :    0.302630
Sum of atomic charges:    0.0000000

LOEWDIN ATOMIC CHARGES
----------------------
   0 C :   -0.145288
   1 C :   -0.064148
   2 H :    0.125026
   3 C :   -0.074005
   4 H :    0.115949
   5 C :   -0.073130
   6 H :    0.111818
   7 C :   -0.089601
   8 H :    0.109220
   9 C :   -0.009866
  10 H :    0.100787
  11 O :   -0.142123
  12 O :   -0.309712
  13 O :   -0.303816
  14 O :   -0.308846
  15 O :   -0.320842
  16 O :   -0.343383
  17 H :    0.103685
  18 H :    0.087165
  19 H :    0.273002
  20 H :    0.295713
  21 H :    0.300805
  22 H :    0.273637
  23 H :    0.287951

  Mayer bond orders larger than 0.100000
B(  0-C ,  1-C ) :   1.0488 B(  0-C , 16-O ) :   1.0645 B(  0-C , 17-H ) :   0.9092
B(  0-C , 18-H ) :   0.8983 B(  1-C ,  2-H ) :   0.8899 B(  1-C ,  3-C ) :   0.9989
B(  1-C , 11-O ) :   1.0128 B(  3-C ,  4-H ) :   0.8855 B(  3-C ,  5-C ) :   0.9678
B(  3-C , 15-O ) :   1.0577 B(  5-C ,  6-H ) :   0.9021 B(  5-C ,  7-C ) :   1.0033
B(  5-C , 14-O ) :   1.0306 B(  7-C ,  8-H ) :   0.8962 B(  7-C ,  9-C ) :   0.9819
B(  7-C , 13-O ) :   1.0281 B(  9-C , 10-H ) :   0.9092 B(  9-C , 11-O ) :   1.0567
B(  9-C , 12-O ) :   1.1385 B( 12-O , 19-H ) :   0.7981 B( 13-O , 20-H ) :   0.8395
B( 14-O , 21-H ) :   0.8361 B( 15-O , 22-H ) :   0.8184 B( 16-O , 23-H ) :   0.8504

Dispersion correction           -0.025907639
FINAL SINGLE POINT ENERGY      -685.695478239464

DIPOLE MOMENT
-------------

Method             : SCF
Type of density    : Electron Density
Multiplicity       :   1
Irrep              :   0
Energy             :  -685.8279631571541586 Eh
Relativity type    :
Basis              : AO
                                X                 Y                 Z
Electronic contribution:      1.241224335      -0.063726459       1.678817050
Nuclear contribution   :     -0.720891455       0.378061106      -2.611952383
                        -----------------------------------------
Total Dipole Moment    :      0.520332879       0.314334647      -0.933135333
                        -----------------------------------------
Magnitude (a.u.)       :      1.113684931
Magnitude (Debye)      :      2.830762130

Rotational constants in cm-1:             0.040745             0.028701             0.024611
Rotational constants in MHz :          1221.505720           860.427221           737.825879

                             ****ORCA TERMINATED NORMALLY****
TOTAL RUN TIME: 0 days 0 hours 0 minutes 12 seconds 560 msec
