                         Program Version 6.0.0  -   RELEASE  -
|  1> ! pbe def2-sv(p) def2/J RI DEFGRID1 loosescf d4 GCP(DFT/SV(P)) printgap
|  2> %output
|  3>     printlevel normal
|  4> end
|  5> * xyz 0 1
|  6> C -2.6762108421 -1.683769931 0.8299933043
|  7> C -2.3237607481 -1.0065406673 -0.4971466628
|  8> C -1.2963250252 0.0726482911 -0.2937022333
|  9> C -1.7067821775 1.3780310046 -0.188433227
| 10> C -0.7997940793 2.4214794794 0.0402655033
| 11> C 0.5327648011 2.1535600675 0.1665780004
| 12> C 1.0062718532 0.8288874499 0.0671425198
| 13> C 0.08683788 -0.2311362765 -0.1652282959
| 14> C 0.6012361432 -1.5434363136 -0.2595792355
| 15> C 1.9388655903 -1.7934235922 -0.1270973629
| 16> C 2.8405800404 -0.7448765441 0.105665881
| 17> C 2.380761217 0.5377537597 0.198024476
| 18> H -3.0770619698 -0.9520857337 1.5278003576
| 19> H -1.794309008 -2.1332347269 1.279799437
| 20> H -3.4222256426 -2.4588083091 0.6722396823
| 21> H -3.2279435411 -0.5615185204 -0.9168068617
| 22> H -1.9620547444 -1.7516608674 -1.206905941
| 23> H -2.7573915385 1.6134460033 -0.2840990545
| 24> H -1.1660160464 3.4347061208 0.1155153358
| 25> H 1.2436754061 2.9473783071 0.3448121034
| 26> H -0.0704437622 -2.3674615395 -0.4402495281
| 27> H 2.3103442433 -2.8048533156 -0.2020663171
| 28> H 3.8939492692 -0.9595373257 0.2079465113
| 29> H 3.064734079 1.3558665629 0.3739526421
| 30> *
| 31>
| 32>                          ****END OF INPUT****

CARTESIAN COORDINATES (ANGSTROEM)
---------------------------------
  C     -2.676211   -1.683770    0.829993
  C     -2.323761   -1.006541   -0.497147
  C     -1.296325    0.072648   -0.293702
  C     -1.706782    1.378031   -0.188433
  C     -0.799794    2.421479    0.040266
  C      0.532765    2.153560    0.166578
  C      1.006272    0.828887    0.067143
  C      0.086838   -0.231136   -0.165228
  C      0.601236   -1.543436   -0.259579
  C      1.938866   -1.793424   -0.127097
  C      2.840580   -0.744877    0.105666
  C      2.380761    0.537754    0.198024
  H     -3.077062   -0.952086    1.527800
  H     -1.794309   -2.133235    1.279799
  H     -3.422226   -2.458808    0.672240
  H     -3.227944   -0.561519   -0.916807
  H     -1.962055   -1.751661   -1.206906
  H     -2.757392    1.613446   -0.284099
  H     -1.166016    3.434706    0.115515
  H      1.243675    2.947378    0.344812
  H     -0.070444   -2.367462   -0.440250
  H      2.310344   -2.804853   -0.202066
  H      3.893949   -0.959537    0.207947
  H      3.064734    1.355867    0.373953

 Total Charge           Charge          ....    0
 Multiplicity           Mult            ....    1
 Number of Electrons    NEL             ....   84
 Basis Dimension        Dim             ....  192

ORBITAL ENERGIES
----------------

  NO   OCC          E(Eh)            E(eV)
   0   2.0000      -9.902763      -269.4679
   1   2.0000      -9.902402      -269.4581
   2   2.0000      -9.901224      -269.4260
   3   2.0000      -9.892578      -269.1907
   4   2.0000      -9.892127      -269.1785
   5   2.0000      -9.891661      -269.1658
   6   2.0000      -9.891167      -269.1523
   7   2.0000      -9.890538      -269.1352
   8   2.0000      -9.889694      -269.1122
   9   2.0000      -9.888768      -269.0871
  10   2.0000      -9.888154      -269.0703
  11   2.0000      -9.879007      -268.8214
  12   2.0000      -0.795175       -21.6378
  13   2.0000      -0.746128       -20.3032
  14   2.0000      -0.717387       -19.5211
  15   2.0000      -0.673175       -18.3180
  16   2.0000      -0.664876       -18.0922
  17   2.0000      -0.637325       -17.3425
  18   2.0000      -0.568919       -15.4811
  19   2.0000      -0.554650       -15.0928
  20   2.0000      -0.548598       -14.9281
  21   2.0000      -0.512242       -13.9388
  22   2.0000      -0.461819       -12.5667
  23   2.0000      -0.450261       -12.2522
  24   2.0000      -0.444729       -12.1017
  25   2.0000      -0.409923       -11.1546
  26   2.0000      -0.397771       -10.8239
  27   2.0000      -0.385458       -10.4888
  28   2.0000      -0.375328       -10.2132
  29   2.0000      -0.366434        -9.9712
  30   2.0000      -0.359899        -9.7934
  31   2.0000      -0.351223        -9.5573
  32   2.0000      -0.340315        -9.2605
  33   2.0000      -0.328474        -8.9382
  34   2.0000      -0.318506        -8.6670
  35   2.0000      -0.306737        -8.3467
  36   2.0000      -0.293250        -7.9797
  37   2.0000      -0.289587        -7.8801
  38   2.0000      -0.279034        -7.5929
  39   2.0000      -0.251407        -6.8411
  40   2.0000      -0.223745        -6.0884
  41   2.0000      -0.192982        -5.2513
  42   0.0000      -0.067236        -1.8296
  43   0.0000      -0.038199        -1.0394
  44   0.0000      -0.003708        -0.1009
  45   0.0000       0.039878         1.0851
  46   0.0000       0.053485         1.4554

MULLIKEN ATOMIC CHARGES
-----------------------
   0 C :   -0.272438
   1 C :   -0.136562
   2 C :    0.013805
   3 C :   -0.151531
   4 C :   -0.028987
   5 C :   -0.125673
   6 C :    0.139787
   7 C :    0.123855
   8 C :   -0.157091
   9 C :   -0.038764
  10 C :   -0.037043
  11 C :   -0.130349
  12 H :    0.101075
  13 H :    0.111324
  14 H :    0.105116
  15 H :    0.085144
  16 H :    0.097103
  17 H :    0.035714
  18 H :    0.048211
  19 H :    0.036194
  20 H :    0.042175
  21 H :    0.049219
  22 H :    0.051248
  23 H :    0.038468
Sum of atomic charges:    0.0000000

LOEWDIN ATOMIC CHARGES
----------------------
   0 C :   -0.334229
   1 C :   -0.218380
   2 C :   -0.025942
   3 C :   -0.126269
   4 C :   -0.124207
   5 C :   -0.116399
   6 C :   -0.023163
   7 C :   -0.022332
   8 C :   -0.117053
   9 C :   -0.123869
  10 C :   -0.126201
  11 C :   -0.109572
  12 H :    0.121124
  13 H :    0.120185
  14 H :    0.119160
  15 H :    0.122615
  16 H :    0.122194
  17 H :    0.120866
  18 H :    0.123751
  19 H :    0.122717
  20 H :    0.124066
  21 H :    0.123619
  22 H :    0.123992
  23 H :    0.123325

  Mayer bond orders larger than 0.100000
B(  0-C ,  1-C ) :   1.1458 B(  0-C , 12-H ) :   0.9518 B(  0-C , 13-H ) :   0.9527
B(  0-C , 14-H ) :   0.9483 B(  1-C ,  2-C ) :   1.0992 B(  1-C , 15-H ) :   0.9058
B(  1-C , 16-H ) :   0.8880 B(  2-C ,  3-C ) :   1.4849 B(  2-C ,  7-C ) :   1.2568
B(  3-C ,  4-C ) :   1.2429 B(  3-C , 17-H ) :   0.9565 B(  4-C ,  5-C ) :   1.4429
B(  4-C , 18-H ) :   0.9627 B(  5-C ,  6-C ) :   1.2385 B(  5-C , 19-H ) :   0.9668
B(  6-C ,  7-C ) :   1.2496 B(  6-C , 11-C ) :   1.2388 B(  7-C ,  8-C ) :   1.2590
B(  8-C ,  9-C ) :   1.4692 B(  8-C , 20-H ) :   0.9416 B(  9-C , 10-C ) :   1.2592
B(  9-C , 21-H ) :   0.9597 B( 10-C , 11-C ) :   1.4560 B( 10-C , 22-H ) :   0.9632
B( 11-C , 23-H ) :   0.9645

Dispersion correction           -0.029596162
FINAL SINGLE POINT ENERGY      -463.481374352940

DIPOLE MOMENT
-------------

Method             : SCF
Type of density    : Electron Density
Multiplicity       :   1
Irrep              :   0
Energy             :  -463.5418130853769298 Eh
Relativity type    :
Basis              : AO
                                X                 Y                 Z
Electronic contribution:      6.427531728       4.259257435      -1.370249408
Nuclear contribution   :     -6.534107679      -4.351006773       1.380927255
                        -----------------------------------------
Total Dipole Moment    :     -0.106575950      -0.091749338       0.010677848
                        -----------------------------------------
Magnitude (a.u.)       :      0.141033296
Magnitude (Debye)      :      0.358478151

Rotational constants in cm-1:             0.047010             0.030872             0.019608
Rotational constants in MHz :          1409.317999           925.508530           587.830937

                             ****ORCA TERMINATED NORMALLY****
TOTAL RUN TIME: 0 days 0 hours 0 minutes 11 seconds 413 msec
