                         Program Version 6.0.0  -   RELEASE  -
|  1> ! pbe def2-sv(p) def2/J RI DEFGRID1 loosescf d4 GCP(DFT/SV(P)) printgap
|  2> %output
|  3>     printlevel normal
|  4> end
|  5> * xyz 0 1
|  6> C -3.524534208 8.56089e-05 0.0015289371
|  7> C -2.8281717661 1.1171253663 0.4324790566
|  8> C -1.4454373172 1.1191210046 0.4285739225
|  9> C -0.7356470789 0.0001988975 -0.0014826361
| 10> C -1.446226571 -1.118655501 -0.4302226145
| 11> C -2.8289456082 -1.116778065 -0.4312207073
| 12> C 0.7356492135 -8.04048e-05 -0.0014216786
| 13> C 1.4463129228 1.1187177331 -0.4301894487
| 14> C 2.8290219372 1.1167448451 -0.431146266
| 15> C 3.5245417979 -0.0001890011 0.0014283951
| 16> C 2.8280866638 -1.1172040364 0.4324919657
| 17> C 1.4453477338 -1.1190650844 0.4286687119
| 18> H -4.6041737298 -4.60746e-05 0.0027281818
| 19> H -3.3650331906 1.9894916418 0.7745270322
| 20> H -0.9074919197 1.9871162324 0.7811015293
| 21> H -0.9089801785 -1.986664072 -0.783201197
| 22> H -3.3664325433 -1.9892270513 -0.7721179305
| 23> H 0.9091424314 1.9867545762 -0.7831919552
| 24> H 3.3665952896 1.9891595034 -0.7720448525
| 25> H 4.6041512981 -0.0001528217 0.002772802
| 26> H 3.3648918969 -1.989627912 0.774675603
| 27> H 0.90735782 -1.9870585985 0.7808565356
| 28> *
| 29>
| 30>                          ****END OF INPUT****

CARTESIAN COORDINATES (ANGSTROEM)
---------------------------------
  C     -3.524534    0.000086    0.001529
  C     -2.828172    1.117125    0.432479
  C     -1.445437    1.119121    0.428574
  C     -0.735647    0.000199   -0.001483
  C     -1.446227   -1.118656   -0.430223
  C     -2.828946   -1.116778   -0.431221
  C      0.735649   -0.000080   -0.001422
  C      1.446313    1.118718   -0.430189
  C      2.829022    1.116745   -0.431146
  C      3.524542   -0.000189    0.001428
  C      2.828087   -1.117204    0.432492
  C      1.445348   -1.119065    0.428669
  H     -4.604174   -0.000046    0.002728
  H     -3.365033    1.989492    0.774527
  H     -0.907492    1.987116    0.781102
  H     -0.908980   -1.986664   -0.783201
  H     -3.366433   -1.989227   -0.772118
  H      0.909142    1.986755   -0.783192
  H      3.366595    1.989160   -0.772045
  H      4.604151   -0.000153    0.002773
  H      3.364892   -1.989628    0.774676
  H      0.907358   -1.987059    0.780857

 Total Charge           Charge          ....    0
 Multiplicity           Mult            ....    1
 Number of Electrons    NEL             ....   82
 Basis Dimension        Dim             ....  188

ORBITAL ENERGIES
----------------

  NO   OCC          E(Eh)            E(eV)
   0   2.0000      -9.903492      -269.4877
   1   2.0000      -9.903423      -269.4858
   2   2.0000      -9.893814      -269.2244
   3   2.0000      -9.893808      -269.2242
   4   2.0000      -9.893790      -269.2237
   5   2.0000      -9.893783      -269.2235
   6   2.0000      -9.893174      -269.2069
   7   2.0000      -9.893158      -269.2065
   8   2.0000      -9.893151      -269.2063
   9   2.0000      -9.893137      -269.2060
  10   2.0000      -9.892594      -269.1912
  11   2.0000      -9.892593      -269.1912
  12   2.0000      -0.790350       -21.5065
  13   2.0000      -0.769113       -20.9286
  14   2.0000      -0.701979       -19.1018
  15   2.0000      -0.675645       -18.3852
  16   2.0000      -0.668175       -18.1820
  17   2.0000      -0.646708       -17.5978
  18   2.0000      -0.560422       -15.2499
  19   2.0000      -0.556277       -15.1371
  20   2.0000      -0.529797       -14.4165
  21   2.0000      -0.517908       -14.0930
  22   2.0000      -0.483825       -13.1656
  23   2.0000      -0.449576       -12.2336
  24   2.0000      -0.418000       -11.3744
  25   2.0000      -0.415038       -11.2937
  26   2.0000      -0.393862       -10.7175
  27   2.0000      -0.390866       -10.6360
  28   2.0000      -0.379426       -10.3247
  29   2.0000      -0.374794       -10.1987
  30   2.0000      -0.373135       -10.1535
  31   2.0000      -0.341383        -9.2895
  32   2.0000      -0.326083        -8.8732
  33   2.0000      -0.322505        -8.7758
  34   2.0000      -0.309071        -8.4102
  35   2.0000      -0.294784        -8.0215
  36   2.0000      -0.294727        -8.0199
  37   2.0000      -0.250348        -6.8123
  38   2.0000      -0.231470        -6.2986
  39   2.0000      -0.231369        -6.2959
  40   2.0000      -0.208014        -5.6604
  41   0.0000      -0.057444        -1.5631
  42   0.0000      -0.037472        -1.0197
  43   0.0000      -0.035867        -0.9760
  44   0.0000      -0.008302        -0.2259
  45   0.0000       0.045045         1.2257

MULLIKEN ATOMIC CHARGES
-----------------------
   0 C :   -0.047050
   1 C :   -0.048216
   2 C :   -0.113787
   3 C :    0.116520
   4 C :   -0.113807
   5 C :   -0.048202
   6 C :    0.116509
   7 C :   -0.113787
   8 C :   -0.048192
   9 C :   -0.047054
  10 C :   -0.048224
  11 C :   -0.113774
  12 H :    0.053934
  13 H :    0.052599
  14 H :    0.047766
  15 H :    0.047648
  16 H :    0.052603
  17 H :    0.047638
  18 H :    0.052610
  19 H :    0.053923
  20 H :    0.052626
  21 H :    0.047719
Sum of atomic charges:   -0.0000000

LOEWDIN ATOMIC CHARGES
----------------------
   0 C :   -0.124722
   1 C :   -0.120126
   2 C :   -0.114826
   3 C :   -0.027100
   4 C :   -0.114871
   5 C :   -0.120111
   6 C :   -0.027092
   7 C :   -0.114872
   8 C :   -0.120112
   9 C :   -0.124726
  10 C :   -0.120114
  11 C :   -0.114839
  12 H :    0.123669
  13 H :    0.124097
  14 H :    0.124946
  15 H :    0.124948
  16 H :    0.124095
  17 H :    0.124949
  18 H :    0.124095
  19 H :    0.123670
  20 H :    0.124094
  21 H :    0.124946

  Mayer bond orders larger than 0.100000
B(  0-C ,  1-C ) :   1.3760 B(  0-C ,  5-C ) :   1.3759 B(  0-C , 12-H ) :   0.9655
B(  1-C ,  2-C ) :   1.3703 B(  1-C , 13-H ) :   0.9631 B(  2-C ,  3-C ) :   1.3763
B(  2-C , 14-H ) :   0.9576 B(  3-C ,  4-C ) :   1.3762 B(  3-C ,  6-C ) :   0.9861
B(  4-C ,  5-C ) :   1.3702 B(  4-C , 15-H ) :   0.9577 B(  5-C , 16-H ) :   0.9631
B(  6-C ,  7-C ) :   1.3762 B(  6-C , 11-C ) :   1.3763 B(  7-C ,  8-C ) :   1.3702
B(  7-C , 17-H ) :   0.9577 B(  8-C ,  9-C ) :   1.3760 B(  8-C , 18-H ) :   0.9631
B(  9-C , 10-C ) :   1.3759 B(  9-C , 19-H ) :   0.9656 B( 10-C , 11-C ) :   1.3704
B( 10-C , 20-H ) :   0.9631 B( 11-C , 21-H ) :   0.9576

Dispersion correction           -0.027108003
FINAL SINGLE POINT ENERGY      -462.290131184333

DIPOLE MOMENT
-------------

Method             : SCF
Type of density    : Electron Density
Multiplicity       :   1
Irrep              :   0
Energy             :  -462.3425879492539252 Eh
Relativity type    :
Basis              : AO
                                X                 Y                 Z
Electronic contribution:     -0.000049928       0.000216540      -0.004925984
Nuclear contribution   :      0.000025494      -0.000238836       0.005728232
                        -----------------------------------------
Total Dipole Moment    :     -0.000024434      -0.000022296       0.000802248
                        -----------------------------------------
Magnitude (a.u.)       :      0.000802930
Magnitude (Debye)      :      0.002040886

Rotational constants in cm-1:             0.096518             0.018511             0.016210
Rotational constants in MHz :          2893.542756           554.957568           485.975174

                             ****ORCA TERMINATED NORMALLY****
TOTAL RUN TIME: 0 days 0 hours 0 minutes 12 seconds 958 msec
