                         Program Version 6.0.0  -   RELEASE  -
|  1> ! pbe def2-sv(p) def2/J RI DEFGRID1 loosescf d4 GCP(DFT/SV(P)) printgap
|  2> %output
|  3>     printlevel normal
|  4> end
|  5> * xyz 0 1
|  6> C -2.4324135004 1.1632138087 0.0611261506
|  7> C -1.4288334317 0.0378140691 -0.191689722
|  8> C -2.1000084125 -1.3116432561 0.0624078263
|  9> C -0.1798031383 0.2197591818 0.6912846328
| 10> C 1.1854901297 0.021249721 0.0050419857
| 11> C 1.4207401183 1.1058569731 -1.0497599502
| 12> C 2.272912063 0.1432530579 1.0794584602
| 13> C 1.2930963832 -1.3598900452 -0.6440986384
| 14> H -3.3191776991 1.0294228134 -0.5549241597
| 15> H -2.7392648738 1.1696216146 1.1050835702
| 16> H -1.9939177378 2.1296932905 -0.1767009354
| 17> H -1.1406187599 0.0812159968 -1.2458353198
| 18> H -2.9533153482 -1.4425512539 -0.600108972
| 19> H -1.4070984815 -2.1307396076 -0.107385378
| 20> H -2.4550594815 -1.3679189172 1.0896619514
| 21> H -0.187051684 1.2294593155 1.107997891
| 22> H -0.2437253093 -0.4720700778 1.5340745556
| 23> H 2.4057430614 0.9888255973 -1.4961690215
| 24> H 1.364649054 2.093942063 -0.5983688975
| 25> H 0.6823052916 1.0516715094 -1.8452940961
| 26> H 3.2602421715 0.0357958853 0.6360204259
| 27> H 2.1528232171 -0.6285749889 1.8364677986
| 28> H 2.2218328174 1.1133871242 1.5687649638
| 29> H 1.1218392005 -2.1414852793 0.0927422853
| 30> H 2.2877121409 -1.4991879988 -1.0626731951
| 31> H 0.5705123054 -1.4742384789 -1.4474574627
| 32> *
| 33>
| 34>                          ****END OF INPUT****

CARTESIAN COORDINATES (ANGSTROEM)
---------------------------------
  C     -2.432414    1.163214    0.061126
  C     -1.428833    0.037814   -0.191690
  C     -2.100008   -1.311643    0.062408
  C     -0.179803    0.219759    0.691285
  C      1.185490    0.021250    0.005042
  C      1.420740    1.105857   -1.049760
  C      2.272912    0.143253    1.079458
  C      1.293096   -1.359890   -0.644099
  H     -3.319178    1.029423   -0.554924
  H     -2.739265    1.169622    1.105084
  H     -1.993918    2.129693   -0.176701
  H     -1.140619    0.081216   -1.245835
  H     -2.953315   -1.442551   -0.600109
  H     -1.407098   -2.130740   -0.107385
  H     -2.455059   -1.367919    1.089662
  H     -0.187052    1.229459    1.107998
  H     -0.243725   -0.472070    1.534075
  H      2.405743    0.988826   -1.496169
  H      1.364649    2.093942   -0.598369
  H      0.682305    1.051672   -1.845294
  H      3.260242    0.035796    0.636020
  H      2.152823   -0.628575    1.836468
  H      2.221833    1.113387    1.568765
  H      1.121839   -2.141485    0.092742
  H      2.287712   -1.499188   -1.062673
  H      0.570512   -1.474238   -1.447457

 Total Charge           Charge          ....    0
 Multiplicity           Mult            ....    1
 Number of Electrons    NEL             ....   66
 Basis Dimension        Dim             ....  148

ORBITAL ENERGIES
----------------

  NO   OCC          E(Eh)            E(eV)
   0   2.0000      -9.902697      -269.4661
   1   2.0000      -9.889291      -269.1013
   2   2.0000      -9.874711      -268.7045
   3   2.0000      -9.868820      -268.5442
   4   2.0000      -9.868606      -268.5384
   5   2.0000      -9.868089      -268.5243
   6   2.0000      -9.867662      -268.5127
   7   2.0000      -9.867661      -268.5127
   8   2.0000      -0.748881       -20.3781
   9   2.0000      -0.705882       -19.2080
  10   2.0000      -0.613275       -16.6881
  11   2.0000      -0.609586       -16.5877
  12   2.0000      -0.603067       -16.4103
  13   2.0000      -0.600707       -16.3461
  14   2.0000      -0.501896       -13.6573
  15   2.0000      -0.469168       -12.7667
  16   2.0000      -0.419834       -11.4243
  17   2.0000      -0.405997       -11.0477
  18   2.0000      -0.395085       -10.7508
  19   2.0000      -0.379462       -10.3257
  20   2.0000      -0.372666       -10.1408
  21   2.0000      -0.367524       -10.0008
  22   2.0000      -0.339386        -9.2352
  23   2.0000      -0.337260        -9.1773
  24   2.0000      -0.333983        -9.0882
  25   2.0000      -0.317686        -8.6447
  26   2.0000      -0.311625        -8.4798
  27   2.0000      -0.304940        -8.2978
  28   2.0000      -0.292537        -7.9603
  29   2.0000      -0.284430        -7.7397
  30   2.0000      -0.271394        -7.3850
  31   2.0000      -0.265164        -7.2155
  32   2.0000      -0.258950        -7.0464
  33   0.0000       0.027820         0.7570
  34   0.0000       0.056087         1.5262
  35   0.0000       0.062924         1.7122
  36   0.0000       0.072656         1.9771
  37   0.0000       0.081253         2.2110

MULLIKEN ATOMIC CHARGES
-----------------------
   0 C :   -0.252550
   1 C :   -0.172858
   2 C :   -0.254836
   3 C :   -0.061021
   4 C :   -0.276263
   5 C :   -0.212286
   6 C :   -0.203611
   7 C :   -0.214545
   8 H :    0.093710
   9 H :    0.095425
  10 H :    0.099570
  11 H :    0.082211
  12 H :    0.093919
  13 H :    0.102022
  14 H :    0.094151
  15 H :    0.068129
  16 H :    0.068126
  17 H :    0.092263
  18 H :    0.091655
  19 H :    0.099306
  20 H :    0.091360
  21 H :    0.091762
  22 H :    0.091418
  23 H :    0.097327
  24 H :    0.091562
  25 H :    0.104054
Sum of atomic charges:   -0.0000000

LOEWDIN ATOMIC CHARGES
----------------------
   0 C :   -0.328101
   1 C :   -0.159094
   2 C :   -0.329728
   3 C :   -0.196910
   4 C :   -0.105031
   5 C :   -0.317285
   6 C :   -0.315365
   7 C :   -0.317826
   8 H :    0.114639
   9 H :    0.115708
  10 H :    0.115231
  11 H :    0.111904
  12 H :    0.115401
  13 H :    0.115695
  14 H :    0.115174
  15 H :    0.112975
  16 H :    0.113784
  17 H :    0.116384
  18 H :    0.115445
  19 H :    0.114796
  20 H :    0.114419
  21 H :    0.114537
  22 H :    0.114801
  23 H :    0.115835
  24 H :    0.116470
  25 H :    0.116141

  Mayer bond orders larger than 0.100000
B(  0-C ,  1-C ) :   1.1158 B(  0-C ,  8-H ) :   0.9510 B(  0-C ,  9-H ) :   0.9492
B(  0-C , 10-H ) :   0.9490 B(  1-C ,  2-C ) :   1.1166 B(  1-C ,  3-C ) :   1.0420
B(  1-C , 11-H ) :   0.9012 B(  2-C , 12-H ) :   0.9495 B(  2-C , 13-H ) :   0.9445
B(  2-C , 14-H ) :   0.9463 B(  3-C ,  4-C ) :   1.0538 B(  3-C , 15-H ) :   0.9176
B(  3-C , 16-H ) :   0.9096 B(  4-C ,  5-C ) :   1.0759 B(  4-C ,  6-C ) :   1.0745
B(  4-C ,  7-C ) :   1.0774 B(  5-C , 17-H ) :   0.9470 B(  5-C , 18-H ) :   0.9477
B(  5-C , 19-H ) :   0.9398 B(  6-C , 20-H ) :   0.9473 B(  6-C , 21-H ) :   0.9462
B(  6-C , 22-H ) :   0.9470 B(  7-C , 23-H ) :   0.9431 B(  7-C , 24-H ) :   0.9446
B(  7-C , 25-H ) :   0.9376

Dispersion correction           -0.023243870
FINAL SINGLE POINT ENERGY      -314.873010446728

DIPOLE MOMENT
-------------

Method             : SCF
Type of density    : Electron Density
Multiplicity       :   1
Irrep              :   0
Energy             :  -314.9597243873587900 Eh
Relativity type    :
Basis              : AO
                                X                 Y                 Z
Electronic contribution:      0.376673191       0.219620429       0.116912427
Nuclear contribution   :     -0.348592826      -0.219277825      -0.153956073
                        -----------------------------------------
Total Dipole Moment    :      0.028080365       0.000342604      -0.037043646
                        -----------------------------------------
Magnitude (a.u.)       :      0.046485008
Magnitude (Debye)      :      0.118155500

Rotational constants in cm-1:             0.098209             0.041020             0.036822
Rotational constants in MHz :          2944.240101          1229.739440          1103.908417

                             ****ORCA TERMINATED NORMALLY****
TOTAL RUN TIME: 0 days 0 hours 0 minutes 11 seconds 599 msec
