                         Program Version 6.0.0  -   RELEASE  -
|  1> ! pbe def2-sv(p) def2/J RI DEFGRID1 loosescf d4 GCP(DFT/SV(P)) printgap
|  2> %output
|  3>     printlevel normal
|  4> end
|  5> * xyz 0 1
|  6> C -2.571371883 -0.7014583838 -0.2966272977
|  7> C -1.1949386727 -0.2830879034 0.2361453734
|  8> H -1.2236855043 -0.2395865068 1.3359621228
|  9> C -0.7336762128 1.0822089726 -0.3048867061
| 10> H -0.737398485 1.050783903 -1.403731611
| 11> C 0.7041145233 1.343790761 0.1675551861
| 12> H 0.6912021454 1.4508974851 1.2636829136
| 13> C 1.6248286798 0.1751561658 -0.2018186457
| 14> H 1.6984362194 0.1266774138 -1.3001101728
| 15> C 1.021293065 -1.1435596961 0.3155556864
| 16> H 1.0206985534 -1.1208500634 1.4170758382
| 17> O -0.292669096 -1.2958910717 -0.1781846649
| 18> O 1.7417312743 -2.2577780849 -0.0428506334
| 19> O 2.8955233072 0.3257095094 0.3701210523
| 20> O 1.2386452904 2.5017847868 -0.4252634674
| 21> O -1.5093090336 2.1528811276 0.1743718592
| 22> O -2.9946217835 -1.9213732653 0.2517299781
| 23> H -2.5183850907 -0.769005526 -1.3911743912
| 24> H -3.3238213634 0.0321791222 -0.0052460547
| 25> H 1.7515186482 -2.3516413724 -1.0090894515
| 26> H 3.2382750045 1.1987140743 0.12137881
| 27> H 0.64469748 3.2443120826 -0.2387633916
| 28> H -2.370212441 2.1737662478 -0.2643924348
| 29> H -2.3027156801 -2.5811733152 0.0964394291
| 30> *
| 31>
| 32>                          ****END OF INPUT****

CARTESIAN COORDINATES (ANGSTROEM)
---------------------------------
  C     -2.571372   -0.701458   -0.296627
  C     -1.194939   -0.283088    0.236145
  H     -1.223686   -0.239587    1.335962
  C     -0.733676    1.082209   -0.304887
  H     -0.737398    1.050784   -1.403732
  C      0.704115    1.343791    0.167555
  H      0.691202    1.450897    1.263683
  C      1.624829    0.175156   -0.201819
  H      1.698436    0.126677   -1.300110
  C      1.021293   -1.143560    0.315556
  H      1.020699   -1.120850    1.417076
  O     -0.292669   -1.295891   -0.178185
  O      1.741731   -2.257778   -0.042851
  O      2.895523    0.325710    0.370121
  O      1.238645    2.501785   -0.425263
  O     -1.509309    2.152881    0.174372
  O     -2.994622   -1.921373    0.251730
  H     -2.518385   -0.769006   -1.391174
  H     -3.323821    0.032179   -0.005246
  H      1.751519   -2.351641   -1.009089
  H      3.238275    1.198714    0.121379
  H      0.644697    3.244312   -0.238763
  H     -2.370212    2.173766   -0.264392
  H     -2.302716   -2.581173    0.096439

 Total Charge           Charge          ....    0
 Multiplicity           Mult            ....    1
 Number of Electrons    NEL             ....   96
 Basis Dimension        Dim             ....  192

ORBITAL ENERGIES
----------------

  NO   OCC          E(Eh)            E(eV)
   0   2.0000     -18.780446      -511.0419
   1   2.0000     -18.775520      -510.9079
   2   2.0000     -18.760258      -510.4926
   3   2.0000     -18.759590      -510.4744
   4   2.0000     -18.749310      -510.1947
   5   2.0000     -18.747649      -510.1495
   6   2.0000      -9.989270      -271.8219
   7   2.0000      -9.952060      -270.8093
   8   2.0000      -9.948305      -270.7071
   9   2.0000      -9.946959      -270.6705
  10   2.0000      -9.943365      -270.5727
  11   2.0000      -9.941508      -270.5222
  12   2.0000      -0.988410       -26.8960
  13   2.0000      -0.957235       -26.0477
  14   2.0000      -0.940021       -25.5793
  15   2.0000      -0.930033       -25.3075
  16   2.0000      -0.919272       -25.0147
  17   2.0000      -0.913162       -24.8484
  18   2.0000      -0.711066       -19.3491
  19   2.0000      -0.694191       -18.8899
  20   2.0000      -0.624665       -16.9980
  21   2.0000      -0.587623       -15.9900
  22   2.0000      -0.565675       -15.3928
  23   2.0000      -0.540217       -14.7001
  24   2.0000      -0.508646       -13.8410
  25   2.0000      -0.500745       -13.6260
  26   2.0000      -0.478743       -13.0273
  27   2.0000      -0.461424       -12.5560
  28   2.0000      -0.450793       -12.2667
  29   2.0000      -0.435265       -11.8442
  30   2.0000      -0.414773       -11.2866
  31   2.0000      -0.413026       -11.2390
  32   2.0000      -0.400594       -10.9007
  33   2.0000      -0.382878       -10.4186
  34   2.0000      -0.367296        -9.9946
  35   2.0000      -0.348568        -9.4850
  36   2.0000      -0.331859        -9.0303
  37   2.0000      -0.316244        -8.6054
  38   2.0000      -0.309564        -8.4237
  39   2.0000      -0.301177        -8.1954
  40   2.0000      -0.288818        -7.8591
  41   2.0000      -0.279538        -7.6066
  42   2.0000      -0.257781        -7.0146
  43   2.0000      -0.240896        -6.5551
  44   2.0000      -0.236771        -6.4429
  45   2.0000      -0.225043        -6.1237
  46   2.0000      -0.220883        -6.0105
  47   2.0000      -0.213222        -5.8021
  48   0.0000       0.000029         0.0008
  49   0.0000       0.026565         0.7229
  50   0.0000       0.030245         0.8230
  51   0.0000       0.041525         1.1300
  52   0.0000       0.053612         1.4589

MULLIKEN ATOMIC CHARGES
-----------------------
   0 C :    0.092665
   1 C :   -0.009820
   2 H :    0.062248
   3 C :    0.033931
   4 H :    0.053314
   5 C :    0.052241
   6 H :    0.060640
   7 C :    0.046625
   8 H :    0.039769
   9 C :    0.207817
  10 H :    0.059014
  11 O :   -0.322344
  12 O :   -0.365040
  13 O :   -0.408534
  14 O :   -0.424715
  15 O :   -0.416944
  16 O :   -0.433369
  17 H :    0.067840
  18 H :    0.069347
  19 H :    0.301278
  20 H :    0.309360
  21 H :    0.309181
  22 H :    0.312355
  23 H :    0.303138
Sum of atomic charges:   -0.0000000

LOEWDIN ATOMIC CHARGES
----------------------
   0 C :   -0.126926
   1 C :   -0.080230
   2 H :    0.109180
   3 C :   -0.082262
   4 H :    0.103307
   5 C :   -0.077826
   6 H :    0.107745
   7 C :   -0.086316
   8 H :    0.098860
   9 C :    0.007921
  10 H :    0.103674
  11 O :   -0.160642
  12 O :   -0.276900
  13 O :   -0.313976
  14 O :   -0.324901
  15 O :   -0.316421
  16 O :   -0.333575
  17 H :    0.099027
  18 H :    0.109505
  19 H :    0.287881
  20 H :    0.289359
  21 H :    0.288752
  22 H :    0.291113
  23 H :    0.283649

  Mayer bond orders larger than 0.100000
B(  0-C ,  1-C ) :   1.0456 B(  0-C , 16-O ) :   1.0946 B(  0-C , 17-H ) :   0.9040
B(  0-C , 18-H ) :   0.9139 B(  1-C ,  2-H ) :   0.8669 B(  1-C ,  3-C ) :   0.9812
B(  1-C , 11-O ) :   0.9726 B(  3-C ,  4-H ) :   0.8725 B(  3-C ,  5-C ) :   1.0022
B(  3-C , 15-O ) :   1.0673 B(  5-C ,  6-H ) :   0.8764 B(  5-C ,  7-C ) :   1.0193
B(  5-C , 14-O ) :   1.0786 B(  7-C ,  8-H ) :   0.8596 B(  7-C ,  9-C ) :   0.9890
B(  7-C , 13-O ) :   1.0913 B(  9-C , 10-H ) :   0.8782 B(  9-C , 11-O ) :   0.9868
B(  9-C , 12-O ) :   1.1698 B( 12-O , 19-H ) :   0.8425 B( 13-O , 20-H ) :   0.8372
B( 14-O , 21-H ) :   0.8352 B( 15-O , 22-H ) :   0.8403 B( 16-O , 23-H ) :   0.8402

Dispersion correction           -0.023619356
FINAL SINGLE POINT ENERGY      -685.701542310853

DIPOLE MOMENT
-------------

Method             : SCF
Type of density    : Electron Density
Multiplicity       :   1
Irrep              :   0
Energy             :  -685.8310215503000791 Eh
Relativity type    :
Basis              : AO
                                X                 Y                 Z
Electronic contribution:      2.735429772      -1.161709747       0.409236387
Nuclear contribution   :     -3.203238763       2.070787569      -1.290547721
                        -----------------------------------------
Total Dipole Moment    :     -0.467808991       0.909077823      -0.881311335
                        -----------------------------------------
Magnitude (a.u.)       :      1.349806433
Magnitude (Debye)      :      3.430935293

Rotational constants in cm-1:             0.038807             0.026310             0.016399
Rotational constants in MHz :          1163.404427           788.755701           491.625060

                             ****ORCA TERMINATED NORMALLY****
TOTAL RUN TIME: 0 days 0 hours 0 minutes 11 seconds 962 msec
