                         Program Version 6.0.0  -   RELEASE  -
|  1> ! r2scan-3c def2/J RI DEFGRID2 scfconv6 printgap
|  2> %output
|  3>     printlevel normal
|  4> end
|  5> * xyz 0 1
|  6> C -2.412182131 -1.0188273407 0.7934319581
|  7> C -1.720598044 0.0169378523 -0.0483814839
|  8> C -2.4531689161 0.8686815748 -0.7644459282
|  9> C -0.2471530634 0.0324817626 -0.0323040658
| 10> C 0.471057309 -0.8697766474 0.7565588283
| 11> C 1.8537516567 -0.8633957947 0.7794892589
| 12> C 2.5638886287 0.044966469 0.0147946616
| 13> C 1.8707900732 0.9473511927 -0.7748506952
| 14> C 0.4897916114 0.9403800201 -0.7979453506
| 15> H -2.1591512896 -0.8898005718 1.8443730207
| 16> H -3.4897655683 -0.9293217838 0.6868879974
| 17> H -2.1178932661 -2.0212132361 0.4874203572
| 18> H -2.0351248376 1.6377078919 -1.3880436628
| 19> H -3.5288179708 0.8227247577 -0.7482577473
| 20> H -0.0460514502 -1.5921596487 1.3665924792
| 21> H 2.3794042106 -1.574269585 1.4002126688
| 22> H 3.6433002558 0.0505793962 0.0325797169
| 23> H 2.4107356819 1.6624593906 -1.378179633
| 24> H -0.0161589765 1.6559187956 -1.4258751268
| 25> *
| 26>
| 27>                          ****END OF INPUT****

CARTESIAN COORDINATES (ANGSTROEM)
---------------------------------
  C     -2.412182   -1.018827    0.793432
  C     -1.720598    0.016938   -0.048381
  C     -2.453169    0.868682   -0.764446
  C     -0.247153    0.032482   -0.032304
  C      0.471057   -0.869777    0.756559
  C      1.853752   -0.863396    0.779489
  C      2.563889    0.044966    0.014795
  C      1.870790    0.947351   -0.774851
  C      0.489792    0.940380   -0.797945
  H     -2.159151   -0.889801    1.844373
  H     -3.489766   -0.929322    0.686888
  H     -2.117893   -2.021213    0.487420
  H     -2.035125    1.637708   -1.388044
  H     -3.528818    0.822725   -0.748258
  H     -0.046051   -1.592160    1.366592
  H      2.379404   -1.574270    1.400213
  H      3.643300    0.050579    0.032580
  H      2.410736    1.662459   -1.378180
  H     -0.016159    1.655919   -1.425875

 Total Charge           Charge          ....    0
 Multiplicity           Mult            ....    1
 Number of Electrons    NEL             ....   64
 Basis Dimension        Dim             ....  221

ORBITAL ENERGIES
----------------

  NO   OCC          E(Eh)            E(eV)
   0   2.0000     -10.048851      -273.4431
   1   2.0000     -10.046839      -273.3884
   2   2.0000     -10.035663      -273.0843
   3   2.0000     -10.035466      -273.0789
   4   2.0000     -10.034898      -273.0635
   5   2.0000     -10.034750      -273.0594
   6   2.0000     -10.034664      -273.0571
   7   2.0000     -10.027575      -272.8642
   8   2.0000     -10.020425      -272.6696
   9   2.0000      -0.833451       -22.6793
  10   2.0000      -0.777663       -21.1613
  11   2.0000      -0.718602       -19.5542
  12   2.0000      -0.704960       -19.1829
  13   2.0000      -0.657627       -17.8949
  14   2.0000      -0.588702       -16.0194
  15   2.0000      -0.571335       -15.5468
  16   2.0000      -0.518467       -14.1082
  17   2.0000      -0.483152       -13.1472
  18   2.0000      -0.432651       -11.7730
  19   2.0000      -0.429644       -11.6912
  20   2.0000      -0.416662       -11.3380
  21   2.0000      -0.395991       -10.7755
  22   2.0000      -0.392524       -10.6811
  23   2.0000      -0.375285       -10.2120
  24   2.0000      -0.349898        -9.5212
  25   2.0000      -0.347727        -9.4621
  26   2.0000      -0.337844        -9.1932
  27   2.0000      -0.312044        -8.4911
  28   2.0000      -0.301254        -8.1975
  29   2.0000      -0.271413        -7.3855
  30   2.0000      -0.238604        -6.4928
  31   2.0000      -0.209207        -5.6928
  32   0.0000      -0.061984        -1.6867
  33   0.0000      -0.031200        -0.8490
  34   0.0000       0.025029         0.6811
  35   0.0000       0.080067         2.1787
  36   0.0000       0.109838         2.9888

MULLIKEN ATOMIC CHARGES
-----------------------
   0 C :   -0.559327
   1 C :    0.024227
   2 C :   -0.290743
   3 C :    0.301324
   4 C :   -0.207318
   5 C :   -0.171476
   6 C :   -0.152930
   7 C :   -0.152865
   8 C :   -0.246542
   9 H :    0.166176
  10 H :    0.149289
  11 H :    0.167595
  12 H :    0.124971
  13 H :    0.139054
  14 H :    0.143927
  15 H :    0.144953
  16 H :    0.146379
  17 H :    0.145296
  18 H :    0.128010
Sum of atomic charges:   -0.0000000

LOEWDIN ATOMIC CHARGES
----------------------
   0 C :   -0.392894
   1 C :   -0.099333
   2 C :   -0.296786
   3 C :   -0.071274
   4 C :   -0.154430
   5 C :   -0.162154
   6 C :   -0.165191
   7 C :   -0.162105
   8 C :   -0.138315
   9 H :    0.163296
  10 H :    0.160082
  11 H :    0.163390
  12 H :    0.155510
  13 H :    0.158649
  14 H :    0.171829
  15 H :    0.167047
  16 H :    0.166894
  17 H :    0.167160
  18 H :    0.168627

  Mayer bond orders larger than 0.100000
B(  0-C ,  1-C ) :   0.8263 B(  0-C ,  9-H ) :   0.9802 B(  0-C , 10-H ) :   0.9781
B(  0-C , 11-H ) :   0.9821 B(  1-C ,  2-C ) :   1.7900 B(  1-C ,  3-C ) :   1.0077
B(  2-C , 12-H ) :   0.9704 B(  2-C , 13-H ) :   0.9560 B(  3-C ,  4-C ) :   1.3861
B(  3-C ,  8-C ) :   1.3830 B(  4-C ,  5-C ) :   1.4246 B(  4-C , 14-H ) :   0.9394
B(  5-C ,  6-C ) :   1.4215 B(  5-C , 15-H ) :   0.9464 B(  6-C ,  7-C ) :   1.3942
B(  6-C , 16-H ) :   0.9497 B(  7-C ,  8-C ) :   1.4532 B(  7-C , 17-H ) :   0.9458
B(  8-C , 18-H ) :   0.9468

Dispersion correction           -0.006466088
FINAL SINGLE POINT ENERGY      -348.855386972002

DIPOLE MOMENT
-------------

Method             : SCF
Type of density    : Electron Density
Multiplicity       :   1
Irrep              :   0
Energy             :  -348.8545241053411701 Eh
Relativity type    :
Basis              : AO
                                X                 Y                 Z
Electronic contribution:      4.661975337       1.007700766      -0.742993924
Nuclear contribution   :     -4.652868341      -1.104575730       0.823439921
                        -----------------------------------------
Total Dipole Moment    :      0.009106996      -0.096874964       0.080445997
                        -----------------------------------------
Magnitude (a.u.)       :      0.126250760
Magnitude (Debye)      :      0.320903930

Rotational constants in cm-1:             0.121718             0.040971             0.030831
Rotational constants in MHz :          3649.008525          1228.276035           924.284305

                             ****ORCA TERMINATED NORMALLY****
TOTAL RUN TIME: 0 days 0 hours 0 minutes 20 seconds 48 msec
