                         Program Version 6.0.0  -   RELEASE  -
|  1> ! r2scan-3c def2/J RI DEFGRID2 scfconv6 printgap
|  2> %output
|  3>     printlevel normal
|  4> end
|  5> %cpcm
|  6>     smd true
|  7>     smdsolvent "water"
|  8> end
|  9> * xyz 0 1
| 10> C -2.412182131 -1.0188273407 0.7934319581
| 11> C -1.720598044 0.0169378523 -0.0483814839
| 12> C -2.4531689161 0.8686815748 -0.7644459282
| 13> C -0.2471530634 0.0324817626 -0.0323040658
| 14> C 0.471057309 -0.8697766474 0.7565588283
| 15> C 1.8537516567 -0.8633957947 0.7794892589
| 16> C 2.5638886287 0.044966469 0.0147946616
| 17> C 1.8707900732 0.9473511927 -0.7748506952
| 18> C 0.4897916114 0.9403800201 -0.7979453506
| 19> H -2.1591512896 -0.8898005718 1.8443730207
| 20> H -3.4897655683 -0.9293217838 0.6868879974
| 21> H -2.1178932661 -2.0212132361 0.4874203572
| 22> H -2.0351248376 1.6377078919 -1.3880436628
| 23> H -3.5288179708 0.8227247577 -0.7482577473
| 24> H -0.0460514502 -1.5921596487 1.3665924792
| 25> H 2.3794042106 -1.574269585 1.4002126688
| 26> H 3.6433002558 0.0505793962 0.0325797169
| 27> H 2.4107356819 1.6624593906 -1.378179633
| 28> H -0.0161589765 1.6559187956 -1.4258751268
| 29> *
| 30>
| 31>                          ****END OF INPUT****

CARTESIAN COORDINATES (ANGSTROEM)
---------------------------------
  C     -2.412182   -1.018827    0.793432
  C     -1.720598    0.016938   -0.048381
  C     -2.453169    0.868682   -0.764446
  C     -0.247153    0.032482   -0.032304
  C      0.471057   -0.869777    0.756559
  C      1.853752   -0.863396    0.779489
  C      2.563889    0.044966    0.014795
  C      1.870790    0.947351   -0.774851
  C      0.489792    0.940380   -0.797945
  H     -2.159151   -0.889801    1.844373
  H     -3.489766   -0.929322    0.686888
  H     -2.117893   -2.021213    0.487420
  H     -2.035125    1.637708   -1.388044
  H     -3.528818    0.822725   -0.748258
  H     -0.046051   -1.592160    1.366592
  H      2.379404   -1.574270    1.400213
  H      3.643300    0.050579    0.032580
  H      2.410736    1.662459   -1.378180
  H     -0.016159    1.655919   -1.425875

 Total Charge           Charge          ....    0
 Multiplicity           Mult            ....    1
 Number of Electrons    NEL             ....   64
 Basis Dimension        Dim             ....  221

ORBITAL ENERGIES
----------------

  NO   OCC          E(Eh)            E(eV)
   0   2.0000     -10.048343      -273.4293
   1   2.0000     -10.047130      -273.3963
   2   2.0000     -10.033521      -273.0260
   3   2.0000     -10.033307      -273.0202
   4   2.0000     -10.033045      -273.0130
   5   2.0000     -10.032864      -273.0081
   6   2.0000     -10.032497      -272.9981
   7   2.0000     -10.017866      -272.6000
   8   2.0000     -10.015427      -272.5336
   9   2.0000      -0.833749       -22.6875
  10   2.0000      -0.775728       -21.1086
  11   2.0000      -0.717308       -19.5189
  12   2.0000      -0.703211       -19.1353
  13   2.0000      -0.651624       -17.7316
  14   2.0000      -0.586184       -15.9509
  15   2.0000      -0.568566       -15.4715
  16   2.0000      -0.514958       -14.0127
  17   2.0000      -0.478092       -13.0096
  18   2.0000      -0.430239       -11.7074
  19   2.0000      -0.424514       -11.5516
  20   2.0000      -0.411239       -11.1904
  21   2.0000      -0.389891       -10.6095
  22   2.0000      -0.387957       -10.5568
  23   2.0000      -0.371204       -10.1010
  24   2.0000      -0.349183        -9.5017
  25   2.0000      -0.342680        -9.3248
  26   2.0000      -0.331144        -9.0109
  27   2.0000      -0.308204        -8.3867
  28   2.0000      -0.296399        -8.0654
  29   2.0000      -0.272440        -7.4135
  30   2.0000      -0.240745        -6.5510
  31   2.0000      -0.210838        -5.7372
  32   0.0000      -0.063213        -1.7201
  33   0.0000      -0.032416        -0.8821
  34   0.0000       0.024758         0.6737
  35   0.0000       0.089433         2.4336
  36   0.0000       0.117900         3.2082

MULLIKEN ATOMIC CHARGES
-----------------------
   0 C :   -0.571555
   1 C :   -0.008680
   2 C :   -0.350048
   3 C :    0.259031
   4 C :   -0.212842
   5 C :   -0.218937
   6 C :   -0.178418
   7 C :   -0.196748
   8 C :   -0.259386
   9 H :    0.182307
  10 H :    0.168826
  11 H :    0.183113
  12 H :    0.157732
  13 H :    0.169182
  14 H :    0.176129
  15 H :    0.177673
  16 H :    0.179613
  17 H :    0.178141
  18 H :    0.164866
Sum of atomic charges:   -0.0000000

LOEWDIN ATOMIC CHARGES
----------------------
   0 C :   -0.397932
   1 C :   -0.108545
   2 C :   -0.313551
   3 C :   -0.086562
   4 C :   -0.160218
   5 C :   -0.171903
   6 C :   -0.174081
   7 C :   -0.171770
   8 C :   -0.150020
   9 H :    0.169939
  10 H :    0.165511
  11 H :    0.169766
  12 H :    0.164629
  13 H :    0.167152
  14 H :    0.183269
  15 H :    0.178076
  16 H :    0.177697
  17 H :    0.178119
  18 H :    0.180422

  Mayer bond orders larger than 0.100000
B(  0-C ,  1-C ) :   0.8431 B(  0-C ,  9-H ) :   0.9713 B(  0-C , 10-H ) :   0.9742
B(  0-C , 11-H ) :   0.9736 B(  1-C ,  2-C ) :   1.7714 B(  1-C ,  3-C ) :   0.9785
B(  2-C , 12-H ) :   0.9723 B(  2-C , 13-H ) :   0.9554 B(  3-C ,  4-C ) :   1.3545
B(  3-C ,  8-C ) :   1.3423 B(  4-C ,  5-C ) :   1.3942 B(  4-C , 14-H ) :   0.9482
B(  5-C ,  6-C ) :   1.3823 B(  5-C , 15-H ) :   0.9587 B(  6-C ,  7-C ) :   1.3567
B(  6-C , 16-H ) :   0.9560 B(  7-C ,  8-C ) :   1.4258 B(  7-C , 17-H ) :   0.9568
B(  8-C , 18-H ) :   0.9569

Dispersion correction           -0.006466088
FINAL SINGLE POINT ENERGY      -348.857245006325

DIPOLE MOMENT
-------------

Method             : SCF
Type of density    : Electron Density
Multiplicity       :   1
Irrep              :   0
Energy             :  -348.8563821396637650 Eh
Relativity type    :
Basis              : AO
                                X                 Y                 Z
Electronic contribution:      4.674205133       0.958811424      -0.701117075
Nuclear contribution   :     -4.652868341      -1.104575730       0.823439921
                        -----------------------------------------
Total Dipole Moment    :      0.021336792      -0.145764306       0.122322846
                        -----------------------------------------
Magnitude (a.u.)       :      0.191482036
Magnitude (Debye)      :      0.486708657

Rotational constants in cm-1:             0.121718             0.040971             0.030831
Rotational constants in MHz :          3649.008525          1228.276035           924.284305

                             ****ORCA TERMINATED NORMALLY****
TOTAL RUN TIME: 0 days 0 hours 0 minutes 22 seconds 36 msec
