                         Program Version 6.0.0  -   RELEASE  -
|  1> ! wb97x-v def2-tzvp def2/J RIJCOSX DEFGRID2 scfconv7 GCP(DFT/TZ) printgap
|  2> %output
|  3>     printlevel normal
|  4> end
|  5> * xyz 0 1
|  6> C -2.5872808013921804 -0.6200287249766594 -0.342255911622334
|  7> C -1.2198062973372654 -0.28642354629057015 0.20428923677827157
|  8> H -1.2620126050357139 -0.23095422970717128 1.3045438451446518
|  9> C -0.6923921450519309 1.0393112803284255 -0.34776564464831283
| 10> H -0.6931842062204494 0.995202128974334 -1.4486415476410113
| 11> C 0.7328018407080882 1.2686802828312556 0.13876179790370466
| 12> H 0.7106361392059978 1.410272444601885 1.2308198908560075
| 13> C 1.6158854534850082 0.0710552190042083 -0.17865814411291756
| 14> H 1.711284829893954 -0.0371328379379999 -1.2710376398546817
| 15> C 0.9747035443274581 -1.2009428304267766 0.37667058957105737
| 16> H 0.904197377438248 -1.1556461680668793 1.473604946235091
| 17> O -0.33173748568554673 -1.346721321779082 -0.18966142615654302
| 18> O 1.7130941392955699 -2.353643624173739 0.06771008117856253
| 19> O 2.8913629632671256 0.3097032827233095 0.4210106967562294
| 20> O 1.206517029827686 2.4612299883489994 -0.49971173472070607
| 21> O -1.5539477135773467 2.0850243540312845 0.11019482843909971
| 22> O -3.0667307725706254 -1.796556726713177 0.3262017385732156
| 23> H -2.5118420510020987 -0.7901871261365347 -1.4256878334150511
| 24> H -3.259284331445197 0.2278160328168715 -0.16400122036757345
| 25> H 1.9100594967502293 -2.342105863731136 -0.8814804963369777
| 26> H 3.4974694198958436 -0.3708287963531721 0.09888935774506248
| 27> H 2.022721063868745 2.727107676496039 -0.05620154587115069
| 28> H -1.1502343535464856 2.921016250745275 -0.1616558202692358
| 29> H -3.9319064406193744 -2.0053106283193616 -0.04753265629359292
| 30> *
| 31>
| 32>                          ****END OF INPUT****

CARTESIAN COORDINATES (ANGSTROEM)
---------------------------------
  C     -2.587281   -0.620029   -0.342256
  C     -1.219806   -0.286424    0.204289
  H     -1.262013   -0.230954    1.304544
  C     -0.692392    1.039311   -0.347766
  H     -0.693184    0.995202   -1.448642
  C      0.732802    1.268680    0.138762
  H      0.710636    1.410272    1.230820
  C      1.615885    0.071055   -0.178658
  H      1.711285   -0.037133   -1.271038
  C      0.974704   -1.200943    0.376671
  H      0.904197   -1.155646    1.473605
  O     -0.331737   -1.346721   -0.189661
  O      1.713094   -2.353644    0.067710
  O      2.891363    0.309703    0.421011
  O      1.206517    2.461230   -0.499712
  O     -1.553948    2.085024    0.110195
  O     -3.066731   -1.796557    0.326202
  H     -2.511842   -0.790187   -1.425688
  H     -3.259284    0.227816   -0.164001
  H      1.910059   -2.342106   -0.881480
  H      3.497469   -0.370829    0.098889
  H      2.022721    2.727108   -0.056202
  H     -1.150234    2.921016   -0.161656
  H     -3.931906   -2.005311   -0.047533

 Total Charge           Charge          ....    0
 Multiplicity           Mult            ....    1
 Number of Electrons    NEL             ....   96
 Basis Dimension        Dim             ....  444

ORBITAL ENERGIES
----------------

  NO   OCC          E(Eh)            E(eV)
   0   2.0000     -21.695526      -590.3653
   1   2.0000     -21.693463      -590.3091
   2   2.0000     -21.689966      -590.2140
   3   2.0000     -21.685138      -590.0826
   4   2.0000     -21.681452      -589.9823
   5   2.0000     -21.669619      -589.6603
   6   2.0000     -12.155961      -330.7805
   7   2.0000     -12.114909      -329.6634
   8   2.0000     -12.113657      -329.6294
   9   2.0000     -12.110576      -329.5455
  10   2.0000     -12.108016      -329.4759
  11   2.0000     -12.094146      -329.0984
  12   2.0000      -1.722777       -46.8792
  13   2.0000      -1.698207       -46.2106
  14   2.0000      -1.691662       -46.0325
  15   2.0000      -1.682858       -45.7929
  16   2.0000      -1.678654       -45.6785
  17   2.0000      -1.668523       -45.4028
  18   2.0000      -1.341878       -36.5144
  19   2.0000      -1.323930       -36.0260
  20   2.0000      -1.236194       -33.6385
  21   2.0000      -1.205097       -32.7924
  22   2.0000      -1.166359       -31.7382
  23   2.0000      -1.124032       -30.5865
  24   2.0000      -1.093075       -29.7441
  25   2.0000      -1.065345       -28.9895
  26   2.0000      -1.051446       -28.6113
  27   2.0000      -1.043749       -28.4019
  28   2.0000      -1.038924       -28.2706
  29   2.0000      -1.013311       -27.5736
  30   2.0000      -1.003733       -27.3130
  31   2.0000      -0.991683       -26.9851
  32   2.0000      -0.976759       -26.5790
  33   2.0000      -0.967304       -26.3217
  34   2.0000      -0.963137       -26.2083
  35   2.0000      -0.945774       -25.7358
  36   2.0000      -0.938864       -25.5478
  37   2.0000      -0.929989       -25.3063
  38   2.0000      -0.924612       -25.1600
  39   2.0000      -0.914966       -24.8975
  40   2.0000      -0.902578       -24.5604
  41   2.0000      -0.890574       -24.2337
  42   2.0000      -0.844807       -22.9884
  43   2.0000      -0.839923       -22.8555
  44   2.0000      -0.819857       -22.3094
  45   2.0000      -0.806230       -21.9386
  46   2.0000      -0.795139       -21.6368
  47   2.0000      -0.772875       -21.0310
  48   0.0000      -0.240209        -6.5364
  49   0.0000      -0.199485        -5.4283
  50   0.0000      -0.179981        -4.8975
  51   0.0000      -0.152247        -4.1429
  52   0.0000      -0.124775        -3.3953

MULLIKEN ATOMIC CHARGES
-----------------------
   0 C :   -0.080965
   1 C :    0.086831
   2 H :    0.080350
   3 C :    0.085827
   4 H :    0.076100
   5 C :    0.039269
   6 H :    0.097602
   7 C :    0.002097
   8 H :    0.078223
   9 C :    0.100669
  10 H :    0.087264
  11 O :   -0.231868
  12 O :   -0.403886
  13 O :   -0.434331
  14 O :   -0.459080
  15 O :   -0.448418
  16 O :   -0.428280
  17 H :    0.080667
  18 H :    0.117365
  19 H :    0.303753
  20 H :    0.312879
  21 H :    0.321668
  22 H :    0.316923
  23 H :    0.299340
Sum of atomic charges:   -0.0000000

LOEWDIN ATOMIC CHARGES
----------------------
   0 C :   -0.309897
   1 C :   -0.289499
   2 H :    0.147624
   3 C :   -0.300018
   4 H :    0.143034
   5 C :   -0.311000
   6 H :    0.147366
   7 C :   -0.327747
   8 H :    0.139098
   9 C :   -0.406526
  10 H :    0.135510
  11 O :    0.195139
  12 O :    0.011503
  13 O :   -0.013801
  14 O :   -0.018516
  15 O :   -0.011800
  16 O :   -0.047836
  17 H :    0.119367
  18 H :    0.126043
  19 H :    0.175209
  20 H :    0.174302
  21 H :    0.177879
  22 H :    0.176940
  23 H :    0.167626

  Mayer bond orders larger than 0.100000
B(  0-C ,  1-C ) :   0.9849 B(  0-C , 16-O ) :   1.1298 B(  0-C , 17-H ) :   0.9581
B(  0-C , 18-H ) :   0.9745 B(  1-C ,  2-H ) :   0.9540 B(  1-C ,  3-C ) :   0.9375
B(  1-C , 11-O ) :   0.9955 B(  3-C ,  4-H ) :   0.9546 B(  3-C ,  5-C ) :   0.9574
B(  3-C , 15-O ) :   1.0743 B(  5-C ,  6-H ) :   0.9772 B(  5-C ,  7-C ) :   0.9600
B(  5-C , 14-O ) :   1.0803 B(  7-C ,  8-H ) :   0.9490 B(  7-C ,  9-C ) :   0.9591
B(  7-C , 13-O ) :   1.0987 B(  9-C , 10-H ) :   0.9743 B(  9-C , 11-O ) :   1.0422
B(  9-C , 12-O ) :   1.1195 B( 12-O , 19-H ) :   0.8906 B( 13-O , 20-H ) :   0.8905
B( 14-O , 21-H ) :   0.8883 B( 15-O , 22-H ) :   0.8832 B( 16-O , 23-H ) :   0.9069

FINAL SINGLE POINT ENERGY      -687.245174060908

DIPOLE MOMENT
-------------

Method             : SCF
Type of density    : Electron Density
Multiplicity       :   1
Irrep              :   0
Energy             :  -687.2638907660076484 Eh
Relativity type    :
Basis              : AO
                                X                 Y                 Z
Electronic contribution:      2.126649716      -1.090436217       0.503965438
Nuclear contribution   :     -1.757689271       1.611072817      -1.300794389
                        -----------------------------------------
Total Dipole Moment    :      0.368960445       0.520636600      -0.796828951
                        -----------------------------------------
Magnitude (a.u.)       :      1.020848008
Magnitude (Debye)      :      2.594789426

Rotational constants in cm-1:             0.038914             0.025902             0.016304
Rotational constants in MHz :          1166.597424           776.512902           488.774180

                             ****ORCA TERMINATED NORMALLY****
TOTAL RUN TIME: 0 days 0 hours 4 minutes 46 seconds 657 msec
