                         Program Version 6.0.0  -   RELEASE  -
|  1> ! wb97x-v def2-tzvp def2/J RIJCOSX DEFGRID2 scfconv7 GCP(DFT/TZ) printgap
|  2> %output
|  3>     printlevel normal
|  4> end
|  5> %cpcm
|  6>     smd true
|  7>     smdsolvent "water"
|  8> end
|  9> * xyz 0 1
| 10> C -2.5872808013921804 -0.6200287249766594 -0.342255911622334
| 11> C -1.2198062973372654 -0.28642354629057015 0.20428923677827157
| 12> H -1.2620126050357139 -0.23095422970717128 1.3045438451446518
| 13> C -0.6923921450519309 1.0393112803284255 -0.34776564464831283
| 14> H -0.6931842062204494 0.995202128974334 -1.4486415476410113
| 15> C 0.7328018407080882 1.2686802828312556 0.13876179790370466
| 16> H 0.7106361392059978 1.410272444601885 1.2308198908560075
| 17> C 1.6158854534850082 0.0710552190042083 -0.17865814411291756
| 18> H 1.711284829893954 -0.0371328379379999 -1.2710376398546817
| 19> C 0.9747035443274581 -1.2009428304267766 0.37667058957105737
| 20> H 0.904197377438248 -1.1556461680668793 1.473604946235091
| 21> O -0.33173748568554673 -1.346721321779082 -0.18966142615654302
| 22> O 1.7130941392955699 -2.353643624173739 0.06771008117856253
| 23> O 2.8913629632671256 0.3097032827233095 0.4210106967562294
| 24> O 1.206517029827686 2.4612299883489994 -0.49971173472070607
| 25> O -1.5539477135773467 2.0850243540312845 0.11019482843909971
| 26> O -3.0667307725706254 -1.796556726713177 0.3262017385732156
| 27> H -2.5118420510020987 -0.7901871261365347 -1.4256878334150511
| 28> H -3.259284331445197 0.2278160328168715 -0.16400122036757345
| 29> H 1.9100594967502293 -2.342105863731136 -0.8814804963369777
| 30> H 3.4974694198958436 -0.3708287963531721 0.09888935774506248
| 31> H 2.022721063868745 2.727107676496039 -0.05620154587115069
| 32> H -1.1502343535464856 2.921016250745275 -0.1616558202692358
| 33> H -3.9319064406193744 -2.0053106283193616 -0.04753265629359292
| 34> *
| 35>
| 36>                          ****END OF INPUT****

CARTESIAN COORDINATES (ANGSTROEM)
---------------------------------
  C     -2.587281   -0.620029   -0.342256
  C     -1.219806   -0.286424    0.204289
  H     -1.262013   -0.230954    1.304544
  C     -0.692392    1.039311   -0.347766
  H     -0.693184    0.995202   -1.448642
  C      0.732802    1.268680    0.138762
  H      0.710636    1.410272    1.230820
  C      1.615885    0.071055   -0.178658
  H      1.711285   -0.037133   -1.271038
  C      0.974704   -1.200943    0.376671
  H      0.904197   -1.155646    1.473605
  O     -0.331737   -1.346721   -0.189661
  O      1.713094   -2.353644    0.067710
  O      2.891363    0.309703    0.421011
  O      1.206517    2.461230   -0.499712
  O     -1.553948    2.085024    0.110195
  O     -3.066731   -1.796557    0.326202
  H     -2.511842   -0.790187   -1.425688
  H     -3.259284    0.227816   -0.164001
  H      1.910059   -2.342106   -0.881480
  H      3.497469   -0.370829    0.098889
  H      2.022721    2.727108   -0.056202
  H     -1.150234    2.921016   -0.161656
  H     -3.931906   -2.005311   -0.047533

 Total Charge           Charge          ....    0
 Multiplicity           Mult            ....    1
 Number of Electrons    NEL             ....   96
 Basis Dimension        Dim             ....  444

ORBITAL ENERGIES
----------------

  NO   OCC          E(Eh)            E(eV)
   0   2.0000     -21.692191      -590.2745
   1   2.0000     -21.690897      -590.2393
   2   2.0000     -21.684189      -590.0568
   3   2.0000     -21.682722      -590.0169
   4   2.0000     -21.681780      -589.9912
   5   2.0000     -21.676337      -589.8431
   6   2.0000     -12.151155      -330.6497
   7   2.0000     -12.105645      -329.4114
   8   2.0000     -12.104329      -329.3755
   9   2.0000     -12.103273      -329.3468
  10   2.0000     -12.101967      -329.3113
  11   2.0000     -12.091240      -329.0194
  12   2.0000      -1.723146       -46.8892
  13   2.0000      -1.691204       -46.0200
  14   2.0000      -1.687003       -45.9057
  15   2.0000      -1.681028       -45.7431
  16   2.0000      -1.678972       -45.6872
  17   2.0000      -1.674807       -45.5738
  18   2.0000      -1.335332       -36.3362
  19   2.0000      -1.320035       -35.9200
  20   2.0000      -1.232648       -33.5421
  21   2.0000      -1.200839       -32.6765
  22   2.0000      -1.162896       -31.6440
  23   2.0000      -1.122978       -30.5578
  24   2.0000      -1.088734       -29.6259
  25   2.0000      -1.059407       -28.8279
  26   2.0000      -1.048937       -28.5430
  27   2.0000      -1.045477       -28.4489
  28   2.0000      -1.036373       -28.2011
  29   2.0000      -1.011326       -27.5196
  30   2.0000      -1.002547       -27.2807
  31   2.0000      -0.990005       -26.9394
  32   2.0000      -0.974758       -26.5245
  33   2.0000      -0.967624       -26.3304
  34   2.0000      -0.965023       -26.2596
  35   2.0000      -0.946099       -25.7447
  36   2.0000      -0.943740       -25.6805
  37   2.0000      -0.926250       -25.2045
  38   2.0000      -0.924298       -25.1514
  39   2.0000      -0.917312       -24.9613
  40   2.0000      -0.899393       -24.4737
  41   2.0000      -0.888442       -24.1757
  42   2.0000      -0.840547       -22.8724
  43   2.0000      -0.838276       -22.8107
  44   2.0000      -0.814869       -22.1737
  45   2.0000      -0.801228       -21.8025
  46   2.0000      -0.789543       -21.4846
  47   2.0000      -0.766839       -20.8668
  48   0.0000      -0.234769        -6.3884
  49   0.0000      -0.193848        -5.2749
  50   0.0000      -0.174551        -4.7498
  51   0.0000      -0.149651        -4.0722
  52   0.0000      -0.120058        -3.2669

MULLIKEN ATOMIC CHARGES
-----------------------
   0 C :   -0.077221
   1 C :    0.111098
   2 H :    0.103637
   3 C :    0.068031
   4 H :    0.104416
   5 C :    0.097493
   6 H :    0.109853
   7 C :    0.010896
   8 H :    0.113824
   9 C :    0.111989
  10 H :    0.119414
  11 O :   -0.323607
  12 O :   -0.494787
  13 O :   -0.521244
  14 O :   -0.531969
  15 O :   -0.528035
  16 O :   -0.542168
  17 H :    0.117862
  18 H :    0.123715
  19 H :    0.370439
  20 H :    0.365313
  21 H :    0.365881
  22 H :    0.359840
  23 H :    0.365330
Sum of atomic charges:   -0.0000000

LOEWDIN ATOMIC CHARGES
----------------------
   0 C :   -0.305085
   1 C :   -0.292752
   2 H :    0.154052
   3 C :   -0.295028
   4 H :    0.152067
   5 C :   -0.305546
   6 H :    0.154620
   7 C :   -0.315137
   8 H :    0.152815
   9 C :   -0.405447
  10 H :    0.143224
  11 O :    0.162849
  12 O :   -0.019622
  13 O :   -0.039016
  14 O :   -0.042264
  15 O :   -0.039988
  16 O :   -0.089550
  17 H :    0.129250
  18 H :    0.129891
  19 H :    0.201203
  20 H :    0.193911
  21 H :    0.193039
  22 H :    0.191191
  23 H :    0.191323

  Mayer bond orders larger than 0.100000
B(  0-C ,  1-C ) :   0.9608 B(  0-C , 16-O ) :   1.0716 B(  0-C , 17-H ) :   0.9648
B(  0-C , 18-H ) :   0.9841 B(  1-C ,  2-H ) :   0.9478 B(  1-C ,  3-C ) :   0.9590
B(  1-C , 11-O ) :   0.9460 B(  3-C ,  4-H ) :   0.9520 B(  3-C ,  5-C ) :   0.9746
B(  3-C , 15-O ) :   1.0368 B(  5-C ,  6-H ) :   0.9579 B(  5-C ,  7-C ) :   0.9709
B(  5-C , 14-O ) :   1.0490 B(  7-C ,  8-H ) :   0.9564 B(  7-C ,  9-C ) :   0.9711
B(  7-C , 13-O ) :   1.0703 B(  9-C , 10-H ) :   0.9727 B(  9-C , 11-O ) :   1.0058
B(  9-C , 12-O ) :   1.1174 B( 12-O , 19-H ) :   0.8491 B( 13-O , 20-H ) :   0.8589
B( 14-O , 21-H ) :   0.8597 B( 15-O , 22-H ) :   0.8560 B( 16-O , 23-H ) :   0.8672

FINAL SINGLE POINT ENERGY      -687.286709363847

DIPOLE MOMENT
-------------

Method             : SCF
Type of density    : Electron Density
Multiplicity       :   1
Irrep              :   0
Energy             :  -687.3054260689470993 Eh
Relativity type    :
Basis              : AO
                                X                 Y                 Z
Electronic contribution:      2.308440138      -0.860202133       0.177668084
Nuclear contribution   :     -1.757689271       1.611072817      -1.300794389
                        -----------------------------------------
Total Dipole Moment    :      0.550750867       0.750870685      -1.123126305
                        -----------------------------------------
Magnitude (a.u.)       :      1.458953734
Magnitude (Debye)      :      3.708365684

Rotational constants in cm-1:             0.038914             0.025902             0.016304
Rotational constants in MHz :          1166.597424           776.512902           488.774180

                             ****ORCA TERMINATED NORMALLY****
TOTAL RUN TIME: 0 days 0 hours 5 minutes 22 seconds 460 msec
