                         Program Version 6.0.0  -   RELEASE  -
|  1> ! wb97x-v def2-tzvp def2/J RIJCOSX DEFGRID2 scfconv7 GCP(DFT/TZ) printgap
|  2> %output
|  3>     printlevel normal
|  4> end
|  5> * xyz 0 1
|  6> C 1.6735754790912944 1.3715174541034727 -1.128060668919234
|  7> C 3.0495030160320673 1.5321929285686036 -1.2069293820339304
|  8> C 3.8833983856119736 0.7818868956658893 -0.3856686734894085
|  9> C 3.3315616773665058 -0.12926393167487132 0.5180015723288444
| 10> C 1.955156700219358 -0.29301479428344124 0.5943304074296634
| 11> C 1.1163477732074136 0.454424402862548 -0.23375469861593332
| 12> C -0.35529904030963433 0.3305958161573566 -0.13204257602547945
| 13> C -1.0982442090121567 1.483693778307263 0.11985568260555572
| 14> C -2.4777125070847728 1.4369112428882156 0.2316973610928898
| 15> C -3.162822379513693 0.2275403982260422 0.09662148408701497
| 16> C -2.432678462183652 -0.9378139996173479 -0.17092188298615343
| 17> C -1.039088447426468 -0.8816523822800644 -0.28940270393488016
| 18> Cl -0.16500062202833654 -2.329022254909154 -0.7040057803477296
| 19> Cl -3.2661280219655184 -2.4424556576503247 -0.3713824586618924
| 20> Cl -4.884676209185174 0.16876225237654788 0.2497514882726653
| 21> Cl -3.341315714616287 2.9124476598609914 0.5567477602664328
| 22> Cl 4.348942026458163 -1.075367960614619 1.5748614129888499
| 23> Cl 5.609747039923904 1.0006856093503538 -0.5015123555920535
| 24> H 1.0293661645166636 1.9558048454048955 -1.776079713045482
| 25> H 3.479891467366843 2.2376840025526636 -1.9084331868868858
| 26> H 1.5421742043926228 -0.9888526930982845 1.3151913842529632
| 27> H -0.5816637950076855 2.428078635045826 0.24591225601201572
| 28> *
| 29>
| 30>                          ****END OF INPUT****

CARTESIAN COORDINATES (ANGSTROEM)
---------------------------------
  C      1.673575    1.371517   -1.128061
  C      3.049503    1.532193   -1.206929
  C      3.883398    0.781887   -0.385669
  C      3.331562   -0.129264    0.518002
  C      1.955157   -0.293015    0.594330
  C      1.116348    0.454424   -0.233755
  C     -0.355299    0.330596   -0.132043
  C     -1.098244    1.483694    0.119856
  C     -2.477713    1.436911    0.231697
  C     -3.162822    0.227540    0.096621
  C     -2.432678   -0.937814   -0.170922
  C     -1.039088   -0.881652   -0.289403
  Cl    -0.165001   -2.329022   -0.704006
  Cl    -3.266128   -2.442456   -0.371382
  Cl    -4.884676    0.168762    0.249751
  Cl    -3.341316    2.912448    0.556748
  Cl     4.348942   -1.075368    1.574861
  Cl     5.609747    1.000686   -0.501512
  H      1.029366    1.955805   -1.776080
  H      3.479891    2.237684   -1.908433
  H      1.542174   -0.988853    1.315191
  H     -0.581664    2.428079    0.245912

 Total Charge           Charge          ....    0
 Multiplicity           Mult            ....    1
 Number of Electrons    NEL             ....  178
 Basis Dimension        Dim             ....  618

ORBITAL ENERGIES
----------------

  NO   OCC          E(Eh)            E(eV)
   0   2.0000    -107.169714     -2916.2362
   1   2.0000    -107.169339     -2916.2260
   2   2.0000    -107.168302     -2916.1978
   3   2.0000    -107.168108     -2916.1925
   4   2.0000    -107.159966     -2915.9709
   5   2.0000    -107.159334     -2915.9537
   6   2.0000     -12.159074      -330.8652
   7   2.0000     -12.156601      -330.7979
   8   2.0000     -12.153799      -330.7217
   9   2.0000     -12.151736      -330.6655
  10   2.0000     -12.142665      -330.4187
  11   2.0000     -12.140513      -330.3602
  12   2.0000     -12.111861      -329.5805
  13   2.0000     -12.099331      -329.2395
  14   2.0000     -12.097263      -329.1833
  15   2.0000     -12.089058      -328.9600
  16   2.0000     -12.088237      -328.9376
  17   2.0000     -12.085417      -328.8609
  18   2.0000     -11.322715      -308.1067
  19   2.0000     -11.322376      -308.0975
  20   2.0000     -11.321355      -308.0697
  21   2.0000     -11.321235      -308.0665
  22   2.0000     -11.312977      -307.8417
  23   2.0000     -11.312337      -307.8243
  24   2.0000      -9.114646      -248.0221
  25   2.0000      -9.114107      -248.0075
  26   2.0000      -9.112905      -247.9748
  27   2.0000      -9.112721      -247.9698
  28   2.0000      -9.111912      -247.9477
  29   2.0000      -9.111519      -247.9370
  30   2.0000      -9.111168      -247.9275
  31   2.0000      -9.110911      -247.9205
  32   2.0000      -9.110313      -247.9042
  33   2.0000      -9.109991      -247.8955
  34   2.0000      -9.109924      -247.8936
  35   2.0000      -9.109778      -247.8897
  36   2.0000      -9.104736      -247.7525
  37   2.0000      -9.103827      -247.7277
  38   2.0000      -9.101988      -247.6777
  39   2.0000      -9.101817      -247.6730
  40   2.0000      -9.101157      -247.6551
  41   2.0000      -9.100922      -247.6487
  42   2.0000      -1.497233       -40.7418
  43   2.0000      -1.469755       -39.9941
  44   2.0000      -1.461243       -39.7624
  45   2.0000      -1.446164       -39.3521
  46   2.0000      -1.428975       -38.8844
  47   2.0000      -1.426554       -38.8185
  48   2.0000      -1.409941       -38.3665
  49   2.0000      -1.385933       -37.7131
  50   2.0000      -1.329184       -36.1689
  51   2.0000      -1.305534       -35.5254
  52   2.0000      -1.297000       -35.2932
  53   2.0000      -1.280742       -34.8508
  54   2.0000      -1.178840       -32.0779
  55   2.0000      -1.158259       -31.5178
  56   2.0000      -1.144503       -31.1435
  57   2.0000      -1.122364       -30.5411
  58   2.0000      -1.043627       -28.3985
  59   2.0000      -1.026669       -27.9371
  60   2.0000      -1.007721       -27.4215
  61   2.0000      -1.001222       -27.2446
  62   2.0000      -0.985211       -26.8090
  63   2.0000      -0.967136       -26.3171
  64   2.0000      -0.955248       -25.9936
  65   2.0000      -0.947128       -25.7727
  66   2.0000      -0.925168       -25.1751
  67   2.0000      -0.920813       -25.0566
  68   2.0000      -0.899476       -24.4760
  69   2.0000      -0.888642       -24.1812
  70   2.0000      -0.888091       -24.1662
  71   2.0000      -0.862614       -23.4729
  72   2.0000      -0.860278       -23.4093
  73   2.0000      -0.848292       -23.0832
  74   2.0000      -0.833804       -22.6890
  75   2.0000      -0.825814       -22.4716
  76   2.0000      -0.823625       -22.4120
  77   2.0000      -0.822855       -22.3910
  78   2.0000      -0.820024       -22.3140
  79   2.0000      -0.815560       -22.1925
  80   2.0000      -0.809706       -22.0332
  81   2.0000      -0.807939       -21.9851
  82   2.0000      -0.802891       -21.8478
  83   2.0000      -0.793225       -21.5847
  84   2.0000      -0.778753       -21.1909
  85   2.0000      -0.704164       -19.1613
  86   2.0000      -0.689361       -18.7585
  87   2.0000      -0.677660       -18.4401
  88   2.0000      -0.668494       -18.1906
  89   0.0000      -0.344609        -9.3773
  90   0.0000      -0.329001        -8.9526
  91   0.0000      -0.310966        -8.4618
  92   0.0000      -0.304316        -8.2809
  93   0.0000      -0.289735        -7.8841

MULLIKEN ATOMIC CHARGES
-----------------------
   0 C :   -0.238912
   1 C :   -0.167698
   2 C :    0.064391
   3 C :    0.125385
   4 C :   -0.295707
   5 C :    0.211953
   6 C :    0.147989
   7 C :   -0.306973
   8 C :    0.109069
   9 C :    0.007025
  10 C :    0.020610
  11 C :   -0.052540
  12 Cl:   -0.028277
  13 Cl:   -0.020590
  14 Cl:   -0.020251
  15 Cl:   -0.047443
  16 Cl:   -0.057091
  17 Cl:   -0.058170
  18 H :    0.149881
  19 H :    0.141064
  20 H :    0.155526
  21 H :    0.160760
Sum of atomic charges:   -0.0000000

LOEWDIN ATOMIC CHARGES
----------------------
   0 C :   -0.091867
   1 C :   -0.129987
   2 C :   -0.422024
   3 C :   -0.419714
   4 C :   -0.099221
   5 C :   -0.111602
   6 C :   -0.104211
   7 C :   -0.095304
   8 C :   -0.426784
   9 C :   -0.443771
  10 C :   -0.437695
  11 C :   -0.387657
  12 Cl:    0.442874
  13 Cl:    0.437619
  14 Cl:    0.438741
  15 Cl:    0.417126
  16 Cl:    0.404614
  17 Cl:    0.404828
  18 H :    0.154508
  19 H :    0.152120
  20 H :    0.156207
  21 H :    0.161198

  Mayer bond orders larger than 0.100000
B(  0-C ,  1-C ) :   1.4417 B(  0-C ,  5-C ) :   1.3871 B(  0-C , 18-H ) :   0.9634
B(  1-C ,  2-C ) :   1.3864 B(  1-C , 19-H ) :   0.9605 B(  2-C ,  3-C ) :   1.3041
B(  2-C , 17-Cl) :   1.0897 B(  3-C ,  4-C ) :   1.4138 B(  3-C , 16-Cl) :   1.0836
B(  4-C ,  5-C ) :   1.3580 B(  4-C , 20-H ) :   0.9539 B(  5-C ,  6-C ) :   0.8221
B(  6-C ,  7-C ) :   1.3844 B(  6-C , 11-C ) :   1.3107 B(  7-C ,  8-C ) :   1.4052
B(  7-C , 21-H ) :   0.9571 B(  8-C ,  9-C ) :   1.3218 B(  8-C , 15-Cl) :   1.0791
B(  9-C , 10-C ) :   1.3161 B(  9-C , 14-Cl) :   1.2133 B( 10-C , 11-C ) :   1.3422
B( 10-C , 13-Cl) :   1.2099 B( 11-C , 12-Cl) :   1.2301

FINAL SINGLE POINT ENERGY     -3220.587598027961

DIPOLE MOMENT
-------------

Method             : SCF
Type of density    : Electron Density
Multiplicity       :   1
Irrep              :   0
Energy             : -3220.5985307510609346 Eh
Relativity type    :
Basis              : AO
                                X                 Y                 Z
Electronic contribution:     -7.486339800      -7.157418673       2.752371485
Nuclear contribution   :      7.395432815       7.745029824      -3.041818973
                        -----------------------------------------
Total Dipole Moment    :     -0.090906985       0.587611151      -0.289447488
                        -----------------------------------------
Magnitude (a.u.)       :      0.661309907
Magnitude (Debye)      :      1.680916199

Rotational constants in cm-1:             0.015074             0.003811             0.003260
Rotational constants in MHz :           451.906097           114.241993            97.728544

                             ****ORCA TERMINATED NORMALLY****
TOTAL RUN TIME: 0 days 0 hours 11 minutes 20 seconds 301 msec
