                         Program Version 6.0.0  -   RELEASE  -
|  1> ! wb97x-v def2-tzvp def2/J RIJCOSX DEFGRID2 scfconv7 GCP(DFT/TZ) printgap
|  2> %output
|  3>     printlevel normal
|  4> end
|  5> %cpcm
|  6>     smd true
|  7>     smdsolvent "water"
|  8> end
|  9> * xyz 0 1
| 10> C 1.6735754790912944 1.3715174541034727 -1.128060668919234
| 11> C 3.0495030160320673 1.5321929285686036 -1.2069293820339304
| 12> C 3.8833983856119736 0.7818868956658893 -0.3856686734894085
| 13> C 3.3315616773665058 -0.12926393167487132 0.5180015723288444
| 14> C 1.955156700219358 -0.29301479428344124 0.5943304074296634
| 15> C 1.1163477732074136 0.454424402862548 -0.23375469861593332
| 16> C -0.35529904030963433 0.3305958161573566 -0.13204257602547945
| 17> C -1.0982442090121567 1.483693778307263 0.11985568260555572
| 18> C -2.4777125070847728 1.4369112428882156 0.2316973610928898
| 19> C -3.162822379513693 0.2275403982260422 0.09662148408701497
| 20> C -2.432678462183652 -0.9378139996173479 -0.17092188298615343
| 21> C -1.039088447426468 -0.8816523822800644 -0.28940270393488016
| 22> Cl -0.16500062202833654 -2.329022254909154 -0.7040057803477296
| 23> Cl -3.2661280219655184 -2.4424556576503247 -0.3713824586618924
| 24> Cl -4.884676209185174 0.16876225237654788 0.2497514882726653
| 25> Cl -3.341315714616287 2.9124476598609914 0.5567477602664328
| 26> Cl 4.348942026458163 -1.075367960614619 1.5748614129888499
| 27> Cl 5.609747039923904 1.0006856093503538 -0.5015123555920535
| 28> H 1.0293661645166636 1.9558048454048955 -1.776079713045482
| 29> H 3.479891467366843 2.2376840025526636 -1.9084331868868858
| 30> H 1.5421742043926228 -0.9888526930982845 1.3151913842529632
| 31> H -0.5816637950076855 2.428078635045826 0.24591225601201572
| 32> *
| 33>
| 34>                          ****END OF INPUT****

CARTESIAN COORDINATES (ANGSTROEM)
---------------------------------
  C      1.673575    1.371517   -1.128061
  C      3.049503    1.532193   -1.206929
  C      3.883398    0.781887   -0.385669
  C      3.331562   -0.129264    0.518002
  C      1.955157   -0.293015    0.594330
  C      1.116348    0.454424   -0.233755
  C     -0.355299    0.330596   -0.132043
  C     -1.098244    1.483694    0.119856
  C     -2.477713    1.436911    0.231697
  C     -3.162822    0.227540    0.096621
  C     -2.432678   -0.937814   -0.170922
  C     -1.039088   -0.881652   -0.289403
  Cl    -0.165001   -2.329022   -0.704006
  Cl    -3.266128   -2.442456   -0.371382
  Cl    -4.884676    0.168762    0.249751
  Cl    -3.341316    2.912448    0.556748
  Cl     4.348942   -1.075368    1.574861
  Cl     5.609747    1.000686   -0.501512
  H      1.029366    1.955805   -1.776080
  H      3.479891    2.237684   -1.908433
  H      1.542174   -0.988853    1.315191
  H     -0.581664    2.428079    0.245912

 Total Charge           Charge          ....    0
 Multiplicity           Mult            ....    1
 Number of Electrons    NEL             ....  178
 Basis Dimension        Dim             ....  618

ORBITAL ENERGIES
----------------

  NO   OCC          E(Eh)            E(eV)
   0   2.0000    -107.166580     -2916.1509
   1   2.0000    -107.166078     -2916.1372
   2   2.0000    -107.162464     -2916.0389
   3   2.0000    -107.162322     -2916.0350
   4   2.0000    -107.156934     -2915.8884
   5   2.0000    -107.156749     -2915.8834
   6   2.0000     -12.150643      -330.6358
   7   2.0000     -12.148259      -330.5709
   8   2.0000     -12.144523      -330.4693
   9   2.0000     -12.141748      -330.3938
  10   2.0000     -12.133369      -330.1657
  11   2.0000     -12.131214      -330.1071
  12   2.0000     -12.099772      -329.2515
  13   2.0000     -12.085922      -328.8747
  14   2.0000     -12.082977      -328.7945
  15   2.0000     -12.075902      -328.6020
  16   2.0000     -12.073003      -328.5231
  17   2.0000     -12.069092      -328.4167
  18   2.0000     -11.319649      -308.0233
  19   2.0000     -11.319179      -308.0105
  20   2.0000     -11.315648      -307.9144
  21   2.0000     -11.315415      -307.9081
  22   2.0000     -11.310057      -307.7623
  23   2.0000     -11.309861      -307.7570
  24   2.0000      -9.111519      -247.9370
  25   2.0000      -9.110744      -247.9159
  26   2.0000      -9.108785      -247.8626
  27   2.0000      -9.108477      -247.8543
  28   2.0000      -9.108004      -247.8414
  29   2.0000      -9.107698      -247.8331
  30   2.0000      -9.107256      -247.8210
  31   2.0000      -9.106973      -247.8133
  32   2.0000      -9.104606      -247.7489
  33   2.0000      -9.104351      -247.7420
  34   2.0000      -9.104194      -247.7377
  35   2.0000      -9.104171      -247.7371
  36   2.0000      -9.101894      -247.6751
  37   2.0000      -9.101231      -247.6571
  38   2.0000      -9.099258      -247.6034
  39   2.0000      -9.098944      -247.5949
  40   2.0000      -9.098724      -247.5889
  41   2.0000      -9.098364      -247.5791
  42   2.0000      -1.489984       -40.5445
  43   2.0000      -1.463214       -39.8161
  44   2.0000      -1.455169       -39.5972
  45   2.0000      -1.440223       -39.1905
  46   2.0000      -1.424795       -38.7706
  47   2.0000      -1.423123       -38.7252
  48   2.0000      -1.399950       -38.0946
  49   2.0000      -1.376746       -37.4632
  50   2.0000      -1.319430       -35.9035
  51   2.0000      -1.293550       -35.1993
  52   2.0000      -1.287056       -35.0226
  53   2.0000      -1.270664       -34.5765
  54   2.0000      -1.168239       -31.7894
  55   2.0000      -1.147225       -31.2176
  56   2.0000      -1.132865       -30.8268
  57   2.0000      -1.111396       -30.2426
  58   2.0000      -1.033154       -28.1135
  59   2.0000      -1.016766       -27.6676
  60   2.0000      -0.995249       -27.0821
  61   2.0000      -0.993019       -27.0214
  62   2.0000      -0.977219       -26.5915
  63   2.0000      -0.959347       -26.1052
  64   2.0000      -0.948152       -25.8005
  65   2.0000      -0.938525       -25.5386
  66   2.0000      -0.916042       -24.9268
  67   2.0000      -0.905910       -24.6511
  68   2.0000      -0.886004       -24.1094
  69   2.0000      -0.881013       -23.9736
  70   2.0000      -0.875285       -23.8177
  71   2.0000      -0.854774       -23.2596
  72   2.0000      -0.847274       -23.0555
  73   2.0000      -0.842528       -22.9263
  74   2.0000      -0.828881       -22.5550
  75   2.0000      -0.822402       -22.3787
  76   2.0000      -0.820317       -22.3220
  77   2.0000      -0.818337       -22.2681
  78   2.0000      -0.817698       -22.2507
  79   2.0000      -0.810228       -22.0474
  80   2.0000      -0.806267       -21.9396
  81   2.0000      -0.804180       -21.8829
  82   2.0000      -0.800414       -21.7804
  83   2.0000      -0.784321       -21.3425
  84   2.0000      -0.770625       -20.9698
  85   2.0000      -0.694594       -18.9009
  86   2.0000      -0.679613       -18.4932
  87   2.0000      -0.665422       -18.1070
  88   2.0000      -0.657952       -17.9038
  89   0.0000      -0.338017        -9.1979
  90   0.0000      -0.318261        -8.6603
  91   0.0000      -0.299631        -8.1534
  92   0.0000      -0.297901        -8.1063
  93   0.0000      -0.281452        -7.6587

MULLIKEN ATOMIC CHARGES
-----------------------
   0 C :   -0.256575
   1 C :   -0.192303
   2 C :    0.075706
   3 C :    0.128877
   4 C :   -0.314880
   5 C :    0.189757
   6 C :    0.171003
   7 C :   -0.302319
   8 C :    0.112517
   9 C :    0.020114
  10 C :    0.025735
  11 C :   -0.034932
  12 Cl:   -0.050164
  13 Cl:   -0.042048
  14 Cl:   -0.041569
  15 Cl:   -0.064097
  16 Cl:   -0.081179
  17 Cl:   -0.081728
  18 H :    0.183445
  19 H :    0.176961
  20 H :    0.186273
  21 H :    0.191407
Sum of atomic charges:   -0.0000000

LOEWDIN ATOMIC CHARGES
----------------------
   0 C :   -0.077986
   1 C :   -0.125970
   2 C :   -0.428389
   3 C :   -0.427293
   4 C :   -0.097816
   5 C :   -0.109489
   6 C :   -0.093764
   7 C :   -0.076689
   8 C :   -0.424978
   9 C :   -0.442864
  10 C :   -0.437110
  11 C :   -0.382273
  12 Cl:    0.431034
  13 Cl:    0.422931
  14 Cl:    0.424393
  15 Cl:    0.405498
  16 Cl:    0.385938
  17 Cl:    0.387024
  18 H :    0.167104
  19 H :    0.162595
  20 H :    0.164674
  21 H :    0.173429

  Mayer bond orders larger than 0.100000
B(  0-C ,  1-C ) :   1.4395 B(  0-C ,  5-C ) :   1.3747 B(  0-C , 18-H ) :   0.9698
B(  1-C ,  2-C ) :   1.3593 B(  1-C , 19-H ) :   0.9623 B(  2-C ,  3-C ) :   1.2987
B(  2-C , 17-Cl) :   1.0679 B(  3-C ,  4-C ) :   1.3979 B(  3-C , 16-Cl) :   1.0661
B(  4-C ,  5-C ) :   1.3537 B(  4-C , 20-H ) :   0.9544 B(  5-C ,  6-C ) :   0.8215
B(  6-C ,  7-C ) :   1.3959 B(  6-C , 11-C ) :   1.3039 B(  7-C ,  8-C ) :   1.3885
B(  7-C , 21-H ) :   0.9548 B(  8-C ,  9-C ) :   1.3199 B(  8-C , 15-Cl) :   1.0731
B(  9-C , 10-C ) :   1.3224 B(  9-C , 14-Cl) :   1.1833 B( 10-C , 11-C ) :   1.3488
B( 10-C , 13-Cl) :   1.1811 B( 11-C , 12-Cl) :   1.1854

FINAL SINGLE POINT ENERGY     -3220.589744665369

DIPOLE MOMENT
-------------

Method             : SCF
Type of density    : Electron Density
Multiplicity       :   1
Irrep              :   0
Energy             : -3220.6006773884691938 Eh
Relativity type    :
Basis              : AO
                                X                 Y                 Z
Electronic contribution:     -7.527406719      -6.717413415       2.614732415
Nuclear contribution   :      7.395432815       7.745029824      -3.041818973
                        -----------------------------------------
Total Dipole Moment    :     -0.131973905       1.027616410      -0.427086558
                        -----------------------------------------
Magnitude (a.u.)       :      1.120631753
Magnitude (Debye)      :      2.848419548

Rotational constants in cm-1:             0.015074             0.003811             0.003260
Rotational constants in MHz :           451.906097           114.241993            97.728544

                             ****ORCA TERMINATED NORMALLY****
TOTAL RUN TIME: 0 days 0 hours 12 minutes 31 seconds 561 msec
