                         Program Version 6.0.0  -   RELEASE  -
|  1> ! wb97x-v def2-tzvp def2/J RIJCOSX DEFGRID2 scfconv7 GCP(DFT/TZ) printgap
|  2> %output
|  3>     printlevel normal
|  4> end
|  5> * xyz 0 1
|  6> C -1.0245876962477751 -0.7319966913286344 -0.23566026707641463
|  7> C -1.0288875403048505 0.7229110388074098 0.2404603011543329
|  8> C 0.3699478782657447 1.1731064264490703 -0.15464807482434406
|  9> O 1.2205177627203214 0.0072721605934461 0.004236794567297563
| 10> C 0.38324664009954823 -1.1719792251614953 0.1420758935098035
| 11> H -1.1614818360324997 -0.7758820297511626 -1.3214947569085085
| 12> H -1.791731429548975 -1.3471358760681647 0.24081096773422125
| 13> H -1.8073451534976352 1.3304263201149815 -0.22741339337397568
| 14> H -1.1521877751873362 0.7668062791521891 1.3279974846741853
| 15> H 0.39935698235547923 1.4963723507609328 -1.2047525019124083
| 16> H 0.7668819131914525 1.9769071190376946 0.47348538240512233
| 17> H 0.7840362829410247 -1.9585861840457988 -0.5053890327900656
| 18> H 0.42518542897373984 -1.5160376716316104 1.1847837867625461
| 19> *
| 20>
| 21>                          ****END OF INPUT****

CARTESIAN COORDINATES (ANGSTROEM)
---------------------------------
  C     -1.024588   -0.731997   -0.235660
  C     -1.028888    0.722911    0.240460
  C      0.369948    1.173106   -0.154648
  O      1.220518    0.007272    0.004237
  C      0.383247   -1.171979    0.142076
  H     -1.161482   -0.775882   -1.321495
  H     -1.791731   -1.347136    0.240811
  H     -1.807345    1.330426   -0.227413
  H     -1.152188    0.766806    1.327997
  H      0.399357    1.496372   -1.204753
  H      0.766882    1.976907    0.473485
  H      0.784036   -1.958586   -0.505389
  H      0.425185   -1.516038    1.184784

 Total Charge           Charge          ....    0
 Multiplicity           Mult            ....    1
 Number of Electrons    NEL             ....   40
 Basis Dimension        Dim             ....  203

ORBITAL ENERGIES
----------------

  NO   OCC          E(Eh)            E(eV)
   0   2.0000     -21.661163      -589.4302
   1   2.0000     -12.086816      -328.8990
   2   2.0000     -12.086559      -328.8920
   3   2.0000     -12.049526      -327.8843
   4   2.0000     -12.048403      -327.8537
   5   2.0000      -1.659878       -45.1676
   6   2.0000      -1.310646       -35.6645
   7   2.0000      -1.256371       -34.1876
   8   2.0000      -1.093383       -29.7525
   9   2.0000      -1.090712       -29.6798
  10   2.0000      -0.972770       -26.4704
  11   2.0000      -0.968069       -26.3425
  12   2.0000      -0.929115       -25.2825
  13   2.0000      -0.867724       -23.6120
  14   2.0000      -0.861887       -23.4531
  15   2.0000      -0.851901       -23.1814
  16   2.0000      -0.804045       -21.8792
  17   2.0000      -0.799936       -21.7674
  18   2.0000      -0.763527       -20.7766
  19   2.0000      -0.760932       -20.7060
  20   0.0000      -0.159575        -4.3423
  21   0.0000      -0.127642        -3.4733
  22   0.0000      -0.022346        -0.6081
  23   0.0000      -0.017936        -0.4881
  24   0.0000      -0.013929        -0.3790

MULLIKEN ATOMIC CHARGES
-----------------------
   0 C :   -0.197303
   1 C :   -0.195042
   2 C :   -0.014362
   3 O :   -0.315608
   4 C :   -0.013624
   5 H :    0.096682
   6 H :    0.103866
   7 H :    0.103496
   8 H :    0.096334
   9 H :    0.076943
  10 H :    0.090945
  11 H :    0.089977
  12 H :    0.077697
Sum of atomic charges:    0.0000000

LOEWDIN ATOMIC CHARGES
----------------------
   0 C :   -0.262586
   1 C :   -0.262601
   2 C :   -0.289324
   3 O :    0.104056
   4 C :   -0.287911
   5 H :    0.133966
   6 H :    0.131953
   7 H :    0.131937
   8 H :    0.134112
   9 H :    0.115225
  10 H :    0.118084
  11 H :    0.117750
  12 H :    0.115339

  Mayer bond orders larger than 0.100000
B(  0-C ,  1-C ) :   0.9750 B(  0-C ,  4-C ) :   1.0116 B(  0-C ,  5-H ) :   0.9718
B(  0-C ,  6-H ) :   0.9672 B(  1-C ,  2-C ) :   1.0115 B(  1-C ,  7-H ) :   0.9671
B(  1-C ,  8-H ) :   0.9713 B(  2-C ,  3-O ) :   1.0194 B(  2-C ,  9-H ) :   0.9711
B(  2-C , 10-H ) :   0.9631 B(  3-O ,  4-C ) :   1.0188 B(  4-C , 11-H ) :   0.9633
B(  4-C , 12-H ) :   0.9708

FINAL SINGLE POINT ENERGY      -232.462688190287

DIPOLE MOMENT
-------------

Method             : SCF
Type of density    : Electron Density
Multiplicity       :   1
Irrep              :   0
Energy             :  -232.4714708891874295 Eh
Relativity type    :
Basis              : AO
                                X                 Y                 Z
Electronic contribution:      2.580841118       0.019931900       0.018231765
Nuclear contribution   :     -3.336403833      -0.024657769      -0.023905246
                        -----------------------------------------
Total Dipole Moment    :     -0.755562715      -0.004725869      -0.005673480
                        -----------------------------------------
Magnitude (a.u.)       :      0.755598794
Magnitude (Debye)      :      1.920579505

Rotational constants in cm-1:             0.234673             0.233338             0.133494
Rotational constants in MHz :          7035.313291          6995.304710          4002.049913

                             ****ORCA TERMINATED NORMALLY****
TOTAL RUN TIME: 0 days 0 hours 1 minutes 4 seconds 367 msec
