                         Program Version 6.0.0  -   RELEASE  -
|  1> ! wb97x-v def2-tzvp def2/J RIJCOSX DEFGRID2 scfconv7 GCP(DFT/TZ) printgap
|  2> %output
|  3>     printlevel normal
|  4> end
|  5> %cpcm
|  6>     smd true
|  7>     smdsolvent "water"
|  8> end
|  9> * xyz 0 1
| 10> C -1.0245876962477751 -0.7319966913286344 -0.23566026707641463
| 11> C -1.0288875403048505 0.7229110388074098 0.2404603011543329
| 12> C 0.3699478782657447 1.1731064264490703 -0.15464807482434406
| 13> O 1.2205177627203214 0.0072721605934461 0.004236794567297563
| 14> C 0.38324664009954823 -1.1719792251614953 0.1420758935098035
| 15> H -1.1614818360324997 -0.7758820297511626 -1.3214947569085085
| 16> H -1.791731429548975 -1.3471358760681647 0.24081096773422125
| 17> H -1.8073451534976352 1.3304263201149815 -0.22741339337397568
| 18> H -1.1521877751873362 0.7668062791521891 1.3279974846741853
| 19> H 0.39935698235547923 1.4963723507609328 -1.2047525019124083
| 20> H 0.7668819131914525 1.9769071190376946 0.47348538240512233
| 21> H 0.7840362829410247 -1.9585861840457988 -0.5053890327900656
| 22> H 0.42518542897373984 -1.5160376716316104 1.1847837867625461
| 23> *
| 24>
| 25>                          ****END OF INPUT****

CARTESIAN COORDINATES (ANGSTROEM)
---------------------------------
  C     -1.024588   -0.731997   -0.235660
  C     -1.028888    0.722911    0.240460
  C      0.369948    1.173106   -0.154648
  O      1.220518    0.007272    0.004237
  C      0.383247   -1.171979    0.142076
  H     -1.161482   -0.775882   -1.321495
  H     -1.791731   -1.347136    0.240811
  H     -1.807345    1.330426   -0.227413
  H     -1.152188    0.766806    1.327997
  H      0.399357    1.496372   -1.204753
  H      0.766882    1.976907    0.473485
  H      0.784036   -1.958586   -0.505389
  H      0.425185   -1.516038    1.184784

 Total Charge           Charge          ....    0
 Multiplicity           Mult            ....    1
 Number of Electrons    NEL             ....   40
 Basis Dimension        Dim             ....  203

ORBITAL ENERGIES
----------------

  NO   OCC          E(Eh)            E(eV)
   0   2.0000     -21.669448      -589.6557
   1   2.0000     -12.082094      -328.7705
   2   2.0000     -12.081841      -328.7636
   3   2.0000     -12.037688      -327.5621
   4   2.0000     -12.036577      -327.5319
   5   2.0000      -1.668205       -45.3942
   6   2.0000      -1.301953       -35.4279
   7   2.0000      -1.253939       -34.1214
   8   2.0000      -1.087727       -29.5986
   9   2.0000      -1.086102       -29.5543
  10   2.0000      -0.975532       -26.5456
  11   2.0000      -0.969330       -26.3768
  12   2.0000      -0.929392       -25.2900
  13   2.0000      -0.860690       -23.4206
  14   2.0000      -0.854915       -23.2634
  15   2.0000      -0.848740       -23.0954
  16   2.0000      -0.795692       -21.6519
  17   2.0000      -0.790605       -21.5135
  18   2.0000      -0.759302       -20.6617
  19   2.0000      -0.752530       -20.4774
  20   0.0000      -0.157856        -4.2955
  21   0.0000      -0.125789        -3.4229
  22   0.0000      -0.012696        -0.3455
  23   0.0000      -0.006835        -0.1860
  24   0.0000      -0.000934        -0.0254

MULLIKEN ATOMIC CHARGES
-----------------------
   0 C :   -0.212994
   1 C :   -0.211322
   2 C :   -0.035977
   3 O :   -0.411059
   4 C :   -0.035231
   5 H :    0.112954
   6 H :    0.125303
   7 H :    0.125038
   8 H :    0.112489
   9 H :    0.100410
  10 H :    0.115180
  11 H :    0.114197
  12 H :    0.101014
Sum of atomic charges:    0.0000000

LOEWDIN ATOMIC CHARGES
----------------------
   0 C :   -0.259246
   1 C :   -0.259336
   2 C :   -0.291047
   3 O :    0.059756
   4 C :   -0.289572
   5 H :    0.138232
   6 H :    0.138314
   7 H :    0.138352
   8 H :    0.138254
   9 H :    0.120751
  10 H :    0.122535
  11 H :    0.122247
  12 H :    0.120758

  Mayer bond orders larger than 0.100000
B(  0-C ,  1-C ) :   0.9734 B(  0-C ,  4-C ) :   1.0133 B(  0-C ,  5-H ) :   0.9704
B(  0-C ,  6-H ) :   0.9624 B(  1-C ,  2-C ) :   1.0130 B(  1-C ,  7-H ) :   0.9622
B(  1-C ,  8-H ) :   0.9700 B(  2-C ,  3-O ) :   0.9714 B(  2-C ,  9-H ) :   0.9735
B(  2-C , 10-H ) :   0.9607 B(  3-O ,  4-C ) :   0.9703 B(  4-C , 11-H ) :   0.9611
B(  4-C , 12-H ) :   0.9730

FINAL SINGLE POINT ENERGY      -232.467888942560

DIPOLE MOMENT
-------------

Method             : SCF
Type of density    : Electron Density
Multiplicity       :   1
Irrep              :   0
Energy             :  -232.4766716414599728 Eh
Relativity type    :
Basis              : AO
                                X                 Y                 Z
Electronic contribution:      2.269735572       0.017693703       0.014530833
Nuclear contribution   :     -3.336403833      -0.024657769      -0.023905246
                        -----------------------------------------
Total Dipole Moment    :     -1.066668261      -0.006964067      -0.009374413
                        -----------------------------------------
Magnitude (a.u.)       :      1.066732186
Magnitude (Debye)      :      2.711417737

Rotational constants in cm-1:             0.234673             0.233338             0.133494
Rotational constants in MHz :          7035.313291          6995.304710          4002.049913

                             ****ORCA TERMINATED NORMALLY****
TOTAL RUN TIME: 0 days 0 hours 1 minutes 11 seconds 626 msec
