                         Program Version 6.0.0  -   RELEASE  -
|  1> ! r2scan-3c def2/J RI DEFGRID2 scfconv6 printgap
|  2> %output
|  3>     printlevel normal
|  4> end
|  5> * xyz 0 1
|  6> C -2.5250410678 -0.9773070748 0.3509169231
|  7> C -1.0899839753 -0.4929360616 0.6087130659
|  8> H -0.9156073108 -0.4503388804 1.6944840515
|  9> C -0.8254546673 0.8995858465 0.0087155534
| 10> H -1.0349913565 0.8643188613 -1.0691197896
| 11> C 0.6500372905 1.2902013214 0.1981703106
| 12> H 0.8356011082 1.4569336712 1.2701030955
| 13> C 1.5829756241 0.1766053549 -0.2822229254
| 14> H 1.537155397 0.1453664053 -1.3817469809
| 15> C 1.1377909753 -1.1858127853 0.2935233455
| 16> H 1.3132295836 -1.1710669317 1.3831125065
| 17> O -0.2158430673 -1.4410607619 0.0195207601
| 18> O 1.8955106753 -2.2249517424 -0.2126908246
| 19> O 2.8866772694 0.4706775302 0.1487200585
| 20> O 0.945667828 2.4525835201 -0.5335726926
| 21> O -1.5910081318 1.9003275635 0.635773694
| 22> O -2.894818166 -0.8941844367 -1.0003859146
| 23> H -3.2218319007 -0.3463619137 0.9043718465
| 24> H -2.6071347355 -2.0057146016 0.7195815823
| 25> H 1.5798201247 -2.452660904 -1.1017763115
| 26> H 3.4689126501 -0.2693631654 -0.0845570525
| 27> H 0.3699947225 3.1650417246 -0.2164353034
| 28> H -2.5032993785 1.8588336029 0.3170214826
| 29> H -2.3643536449 -1.5241888264 -1.5075246214
| 30> *
| 31>
| 32>                          ****END OF INPUT****

CARTESIAN COORDINATES (ANGSTROEM)
---------------------------------
  C     -2.525041   -0.977307    0.350917
  C     -1.089984   -0.492936    0.608713
  H     -0.915607   -0.450339    1.694484
  C     -0.825455    0.899586    0.008716
  H     -1.034991    0.864319   -1.069120
  C      0.650037    1.290201    0.198170
  H      0.835601    1.456934    1.270103
  C      1.582976    0.176605   -0.282223
  H      1.537155    0.145366   -1.381747
  C      1.137791   -1.185813    0.293523
  H      1.313230   -1.171067    1.383113
  O     -0.215843   -1.441061    0.019521
  O      1.895511   -2.224952   -0.212691
  O      2.886677    0.470678    0.148720
  O      0.945668    2.452584   -0.533573
  O     -1.591008    1.900328    0.635774
  O     -2.894818   -0.894184   -1.000386
  H     -3.221832   -0.346362    0.904372
  H     -2.607135   -2.005715    0.719582
  H      1.579820   -2.452661   -1.101776
  H      3.468913   -0.269363   -0.084557
  H      0.369995    3.165042   -0.216435
  H     -2.503299    1.858834    0.317021
  H     -2.364354   -1.524189   -1.507525

 Total Charge           Charge          ....    0
 Multiplicity           Mult            ....    1
 Number of Electrons    NEL             ....   96
 Basis Dimension        Dim             ....  318

ORBITAL ENERGIES
----------------

  NO   OCC          E(Eh)            E(eV)
   0   2.0000     -18.980759      -516.4927
   1   2.0000     -18.977671      -516.4087
   2   2.0000     -18.971622      -516.2441
   3   2.0000     -18.966454      -516.1034
   4   2.0000     -18.954085      -515.7669
   5   2.0000     -18.949077      -515.6306
   6   2.0000     -10.144104      -276.0351
   7   2.0000     -10.098984      -274.8073
   8   2.0000     -10.094014      -274.6721
   9   2.0000     -10.091748      -274.6104
  10   2.0000     -10.089477      -274.5486
  11   2.0000     -10.089304      -274.5439
  12   2.0000      -1.061492       -28.8847
  13   2.0000      -1.016520       -27.6609
  14   2.0000      -1.008233       -27.4354
  15   2.0000      -0.997911       -27.1545
  16   2.0000      -0.990268       -26.9466
  17   2.0000      -0.979894       -26.6643
  18   2.0000      -0.753001       -20.4902
  19   2.0000      -0.739527       -20.1235
  20   2.0000      -0.666302       -18.1310
  21   2.0000      -0.626009       -17.0346
  22   2.0000      -0.595170       -16.1954
  23   2.0000      -0.562029       -15.2936
  24   2.0000      -0.523792       -14.2531
  25   2.0000      -0.515746       -14.0342
  26   2.0000      -0.501843       -13.6558
  27   2.0000      -0.498477       -13.5643
  28   2.0000      -0.473778       -12.8921
  29   2.0000      -0.463820       -12.6212
  30   2.0000      -0.442436       -12.0393
  31   2.0000      -0.415361       -11.3025
  32   2.0000      -0.409203       -11.1350
  33   2.0000      -0.403849       -10.9893
  34   2.0000      -0.386133       -10.5072
  35   2.0000      -0.377444       -10.2708
  36   2.0000      -0.359486        -9.7821
  37   2.0000      -0.347161        -9.4467
  38   2.0000      -0.328596        -8.9416
  39   2.0000      -0.320312        -8.7161
  40   2.0000      -0.310500        -8.4491
  41   2.0000      -0.301599        -8.2069
  42   2.0000      -0.287126        -7.8131
  43   2.0000      -0.269820        -7.3422
  44   2.0000      -0.257701        -7.0124
  45   2.0000      -0.249764        -6.7964
  46   2.0000      -0.243606        -6.6289
  47   2.0000      -0.222596        -6.0571
  48   0.0000       0.033487         0.9112
  49   0.0000       0.039304         1.0695
  50   0.0000       0.049531         1.3478
  51   0.0000       0.077088         2.0977
  52   0.0000       0.081971         2.2305

MULLIKEN ATOMIC CHARGES
-----------------------
   0 C :   -0.268203
   1 C :    0.045580
   2 H :    0.168482
   3 C :   -0.063682
   4 H :    0.193312
   5 C :   -0.069793
   6 H :    0.168063
   7 C :    0.069639
   8 H :    0.163741
   9 C :   -0.145223
  10 H :    0.157695
  11 O :   -0.202497
  12 O :   -0.382952
  13 O :   -0.416135
  14 O :   -0.415518
  15 O :   -0.445371
  16 O :   -0.417560
  17 H :    0.145966
  18 H :    0.149927
  19 H :    0.318515
  20 H :    0.307220
  21 H :    0.309992
  22 H :    0.315904
  23 H :    0.312899
Sum of atomic charges:    0.0000000

LOEWDIN ATOMIC CHARGES
----------------------
   0 C :    0.037092
   1 C :    0.105262
   2 H :    0.187460
   3 C :    0.106255
   4 H :    0.193030
   5 C :    0.119529
   6 H :    0.189157
   7 C :    0.118773
   8 H :    0.184297
   9 C :    0.292713
  10 H :    0.197805
  11 O :   -0.690058
  12 O :   -0.493546
  13 O :   -0.560170
  14 O :   -0.559517
  15 O :   -0.581583
  16 O :   -0.597152
  17 H :    0.182527
  18 H :    0.174102
  19 H :    0.282318
  20 H :    0.280554
  21 H :    0.280402
  22 H :    0.277416
  23 H :    0.273332

  Mayer bond orders larger than 0.100000
B(  0-C ,  1-C ) :   0.8958 B(  0-C , 16-O ) :   1.0194 B(  0-C , 17-H ) :   0.9782
B(  0-C , 18-H ) :   0.9843 B(  1-C ,  2-H ) :   0.9405 B(  1-C ,  3-C ) :   0.7321
B(  1-C , 11-O ) :   0.7568 B(  1-C , 16-O ) :  -0.1210 B(  3-C ,  4-H ) :   1.0256
B(  3-C ,  5-C ) :   0.8050 B(  3-C , 15-O ) :   0.9068 B(  5-C ,  6-H ) :   0.9960
B(  5-C ,  7-C ) :   0.9481 B(  5-C , 14-O ) :   0.9288 B(  7-C ,  8-H ) :   0.9593
B(  7-C ,  9-C ) :   0.7587 B(  7-C , 13-O ) :   0.9109 B(  9-C , 10-H ) :   1.0165
B(  9-C , 11-O ) :   0.9792 B(  9-C , 12-O ) :   1.1073 B( 12-O , 19-H ) :   0.8734
B( 13-O , 20-H ) :   0.8790 B( 14-O , 21-H ) :   0.8783 B( 15-O , 22-H ) :   0.8858
B( 16-O , 23-H ) :   0.8818

Dispersion correction           -0.008042291
FINAL SINGLE POINT ENERGY      -687.075525486322

DIPOLE MOMENT
-------------

Method             : SCF
Type of density    : Electron Density
Multiplicity       :   1
Irrep              :   0
Energy             :  -687.0867673569609906 Eh
Relativity type    :
Basis              : AO
                                X                 Y                 Z
Electronic contribution:      2.572074669       0.047444915      -0.999652552
Nuclear contribution   :     -3.308269661      -0.680212535       0.856201736
                        -----------------------------------------
Total Dipole Moment    :     -0.736194992      -0.632767620      -0.143450815
                        -----------------------------------------
Magnitude (a.u.)       :      0.981303247
Magnitude (Debye)      :      2.494274631

Rotational constants in cm-1:             0.039678             0.026650             0.017626
Rotational constants in MHz :          1189.514581           798.932286           528.423755

                             ****ORCA TERMINATED NORMALLY****
TOTAL RUN TIME: 0 days 0 hours 0 minutes 48 seconds 582 msec
