                         Program Version 6.0.0  -   RELEASE  -
|  1> ! r2scan-3c def2/J RI DEFGRID2 scfconv6 printgap
|  2> %output
|  3>     printlevel normal
|  4> end
|  5> %cpcm
|  6>     smd true
|  7>     smdsolvent "water"
|  8> end
|  9> * xyz 0 1
| 10> C -2.5250410678 -0.9773070748 0.3509169231
| 11> C -1.0899839753 -0.4929360616 0.6087130659
| 12> H -0.9156073108 -0.4503388804 1.6944840515
| 13> C -0.8254546673 0.8995858465 0.0087155534
| 14> H -1.0349913565 0.8643188613 -1.0691197896
| 15> C 0.6500372905 1.2902013214 0.1981703106
| 16> H 0.8356011082 1.4569336712 1.2701030955
| 17> C 1.5829756241 0.1766053549 -0.2822229254
| 18> H 1.537155397 0.1453664053 -1.3817469809
| 19> C 1.1377909753 -1.1858127853 0.2935233455
| 20> H 1.3132295836 -1.1710669317 1.3831125065
| 21> O -0.2158430673 -1.4410607619 0.0195207601
| 22> O 1.8955106753 -2.2249517424 -0.2126908246
| 23> O 2.8866772694 0.4706775302 0.1487200585
| 24> O 0.945667828 2.4525835201 -0.5335726926
| 25> O -1.5910081318 1.9003275635 0.635773694
| 26> O -2.894818166 -0.8941844367 -1.0003859146
| 27> H -3.2218319007 -0.3463619137 0.9043718465
| 28> H -2.6071347355 -2.0057146016 0.7195815823
| 29> H 1.5798201247 -2.452660904 -1.1017763115
| 30> H 3.4689126501 -0.2693631654 -0.0845570525
| 31> H 0.3699947225 3.1650417246 -0.2164353034
| 32> H -2.5032993785 1.8588336029 0.3170214826
| 33> H -2.3643536449 -1.5241888264 -1.5075246214
| 34> *
| 35>
| 36>                          ****END OF INPUT****

CARTESIAN COORDINATES (ANGSTROEM)
---------------------------------
  C     -2.525041   -0.977307    0.350917
  C     -1.089984   -0.492936    0.608713
  H     -0.915607   -0.450339    1.694484
  C     -0.825455    0.899586    0.008716
  H     -1.034991    0.864319   -1.069120
  C      0.650037    1.290201    0.198170
  H      0.835601    1.456934    1.270103
  C      1.582976    0.176605   -0.282223
  H      1.537155    0.145366   -1.381747
  C      1.137791   -1.185813    0.293523
  H      1.313230   -1.171067    1.383113
  O     -0.215843   -1.441061    0.019521
  O      1.895511   -2.224952   -0.212691
  O      2.886677    0.470678    0.148720
  O      0.945668    2.452584   -0.533573
  O     -1.591008    1.900328    0.635774
  O     -2.894818   -0.894184   -1.000386
  H     -3.221832   -0.346362    0.904372
  H     -2.607135   -2.005715    0.719582
  H      1.579820   -2.452661   -1.101776
  H      3.468913   -0.269363   -0.084557
  H      0.369995    3.165042   -0.216435
  H     -2.503299    1.858834    0.317021
  H     -2.364354   -1.524189   -1.507525

 Total Charge           Charge          ....    0
 Multiplicity           Mult            ....    1
 Number of Electrons    NEL             ....   96
 Basis Dimension        Dim             ....  318

ORBITAL ENERGIES
----------------

  NO   OCC          E(Eh)            E(eV)
   0   2.0000     -18.974161      -516.3132
   1   2.0000     -18.969868      -516.1963
   2   2.0000     -18.962936      -516.0077
   3   2.0000     -18.960781      -515.9491
   4   2.0000     -18.958148      -515.8774
   5   2.0000     -18.957296      -515.8543
   6   2.0000     -10.136305      -275.8229
   7   2.0000     -10.087269      -274.4885
   8   2.0000     -10.086292      -274.4620
   9   2.0000     -10.086014      -274.4544
  10   2.0000     -10.084342      -274.4089
  11   2.0000     -10.077323      -274.2179
  12   2.0000      -1.054252       -28.6877
  13   2.0000      -1.012414       -27.5492
  14   2.0000      -1.004661       -27.3382
  15   2.0000      -0.994438       -27.0600
  16   2.0000      -0.985772       -26.8242
  17   2.0000      -0.981664       -26.7124
  18   2.0000      -0.746852       -20.3229
  19   2.0000      -0.731157       -19.8958
  20   2.0000      -0.655612       -17.8401
  21   2.0000      -0.620323       -16.8798
  22   2.0000      -0.586706       -15.9651
  23   2.0000      -0.555312       -15.1108
  24   2.0000      -0.516388       -14.0516
  25   2.0000      -0.508584       -13.8393
  26   2.0000      -0.498974       -13.5778
  27   2.0000      -0.490598       -13.3499
  28   2.0000      -0.464814       -12.6482
  29   2.0000      -0.456834       -12.4311
  30   2.0000      -0.437356       -11.9011
  31   2.0000      -0.411150       -11.1880
  32   2.0000      -0.400847       -10.9076
  33   2.0000      -0.396885       -10.7998
  34   2.0000      -0.383381       -10.4323
  35   2.0000      -0.374227       -10.1832
  36   2.0000      -0.360441        -9.8081
  37   2.0000      -0.342278        -9.3139
  38   2.0000      -0.331550        -9.0219
  39   2.0000      -0.316541        -8.6135
  40   2.0000      -0.308674        -8.3994
  41   2.0000      -0.298790        -8.1305
  42   2.0000      -0.282602        -7.6900
  43   2.0000      -0.269422        -7.3314
  44   2.0000      -0.253700        -6.9035
  45   2.0000      -0.251255        -6.8370
  46   2.0000      -0.244016        -6.6400
  47   2.0000      -0.221345        -6.0231
  48   0.0000       0.048754         1.3267
  49   0.0000       0.055465         1.5093
  50   0.0000       0.071067         1.9338
  51   0.0000       0.088070         2.3965
  52   0.0000       0.099820         2.7163

MULLIKEN ATOMIC CHARGES
-----------------------
   0 C :   -0.248778
   1 C :    0.013974
   2 H :    0.197369
   3 C :   -0.074920
   4 H :    0.197049
   5 C :   -0.032764
   6 H :    0.177106
   7 C :    0.059484
   8 H :    0.183638
   9 C :   -0.125056
  10 H :    0.179047
  11 O :   -0.240218
  12 O :   -0.438617
  13 O :   -0.493760
  14 O :   -0.492486
  15 O :   -0.497307
  16 O :   -0.485226
  17 H :    0.168143
  18 H :    0.161024
  19 H :    0.370803
  20 H :    0.349674
  21 H :    0.351747
  22 H :    0.363306
  23 H :    0.356768
Sum of atomic charges:    0.0000000

LOEWDIN ATOMIC CHARGES
----------------------
   0 C :    0.039391
   1 C :    0.110164
   2 H :    0.198147
   3 C :    0.109284
   4 H :    0.196104
   5 C :    0.115889
   6 H :    0.195552
   7 C :    0.118647
   8 H :    0.194151
   9 C :    0.294854
  10 H :    0.205710
  11 O :   -0.698096
  12 O :   -0.511261
  13 O :   -0.595601
  14 O :   -0.597308
  15 O :   -0.596936
  16 O :   -0.624758
  17 H :    0.193144
  18 H :    0.180101
  19 H :    0.300507
  20 H :    0.295740
  21 H :    0.294408
  22 H :    0.294542
  23 H :    0.287627

  Mayer bond orders larger than 0.100000
B(  0-C ,  1-C ) :   0.9226 B(  0-C , 16-O ) :   0.9996 B(  0-C , 17-H ) :   0.9643
B(  0-C , 18-H ) :   0.9750 B(  1-C ,  2-H ) :   0.9349 B(  1-C ,  3-C ) :   0.7643
B(  1-C , 11-O ) :   0.7589 B(  3-C ,  4-H ) :   1.0181 B(  3-C ,  5-C ) :   0.8483
B(  3-C , 15-O ) :   0.9006 B(  5-C ,  6-H ) :   0.9661 B(  5-C ,  7-C ) :   0.9479
B(  5-C , 14-O ) :   0.9061 B(  7-C ,  8-H ) :   0.9494 B(  7-C ,  9-C ) :   0.7823
B(  7-C , 13-O ) :   0.8883 B(  9-C , 10-H ) :   1.0088 B(  9-C , 11-O ) :   0.9747
B(  9-C , 12-O ) :   1.0989 B( 12-O , 19-H ) :   0.8449 B( 13-O , 20-H ) :   0.8597
B( 14-O , 21-H ) :   0.8582 B( 15-O , 22-H ) :   0.8594 B( 16-O , 23-H ) :   0.8583

Dispersion correction           -0.008042291
FINAL SINGLE POINT ENERGY      -687.111580312609

DIPOLE MOMENT
-------------

Method             : SCF
Type of density    : Electron Density
Multiplicity       :   1
Irrep              :   0
Energy             :  -687.1228221832481040 Eh
Relativity type    :
Basis              : AO
                                X                 Y                 Z
Electronic contribution:      2.259487287      -0.239488710      -1.007998928
Nuclear contribution   :     -3.308269661      -0.680212535       0.856201736
                        -----------------------------------------
Total Dipole Moment    :     -1.048782374      -0.919701245      -0.151797191
                        -----------------------------------------
Magnitude (a.u.)       :      1.403152606
Magnitude (Debye)      :      3.566530487

Rotational constants in cm-1:             0.039678             0.026650             0.017626
Rotational constants in MHz :          1189.514581           798.932286           528.423755

                             ****ORCA TERMINATED NORMALLY****
TOTAL RUN TIME: 0 days 0 hours 0 minutes 57 seconds 737 msec
