                         Program Version 6.0.0  -   RELEASE  -
|  1> ! pbe def2-sv(p) def2/J RI DEFGRID1 loosescf d4 GCP(DFT/SV(P)) printgap
|  2> %output
|  3>     printlevel normal
|  4> end
|  5> * xyz 0 1
|  6> C -2.5554643956 -0.8909634717 0.3131637437
|  7> C -1.1209171758 -0.4453888424 0.6368829819
|  8> H -0.9821933877 -0.4095333102 1.7300070718
|  9> C -0.8241193839 0.9398347178 0.0414561414
| 10> H -1.0844225717 0.9248226478 -1.0228717115
| 11> C 0.6650755913 1.3000193431 0.1840114804
| 12> H 0.8985357511 1.4833645647 1.2474605521
| 13> C 1.5670360621 0.1585173864 -0.2900254992
| 14> H 1.4982242068 0.0856450319 -1.3838554818
| 15> C 1.1046063646 -1.1776871901 0.3197940883
| 16> H 1.284893786 -1.1370463228 1.4159098775
| 17> O -0.2598702572 -1.4252614375 0.0860999116
| 18> O 1.8364698131 -2.186305132 -0.2723902286
| 19> O 2.8803712712 0.4383050242 0.1173744276
| 20> O 0.9682885762 2.445194853 -0.5722013409
| 21> O -1.6267237233 1.942132154 0.6112426545
| 22> O -2.7520991424 -1.0717331257 -1.0632746211
| 23> H -3.2512123974 -0.1100521352 0.6240412896
| 24> H -2.7708437177 -1.8170349383 0.8599857208
| 25> H 1.4789617038 -3.0511141134 -0.0162698903
| 26> H 3.4728523688 -0.2356833678 -0.247921455
| 27> H 0.2854687121 3.1140157552 -0.4035714691
| 28> H -1.4692785333 1.9893752722 1.5664427451
| 29> H -2.1034800968 -1.7177422615 -1.3798960814
| 30> *
| 31>
| 32>                          ****END OF INPUT****

CARTESIAN COORDINATES (ANGSTROEM)
---------------------------------
  C     -2.555464   -0.890963    0.313164
  C     -1.120917   -0.445389    0.636883
  H     -0.982193   -0.409533    1.730007
  C     -0.824119    0.939835    0.041456
  H     -1.084423    0.924823   -1.022872
  C      0.665076    1.300019    0.184011
  H      0.898536    1.483365    1.247461
  C      1.567036    0.158517   -0.290025
  H      1.498224    0.085645   -1.383855
  C      1.104606   -1.177687    0.319794
  H      1.284894   -1.137046    1.415910
  O     -0.259870   -1.425261    0.086100
  O      1.836470   -2.186305   -0.272390
  O      2.880371    0.438305    0.117374
  O      0.968289    2.445195   -0.572201
  O     -1.626724    1.942132    0.611243
  O     -2.752099   -1.071733   -1.063275
  H     -3.251212   -0.110052    0.624041
  H     -2.770844   -1.817035    0.859986
  H      1.478962   -3.051114   -0.016270
  H      3.472852   -0.235683   -0.247921
  H      0.285469    3.114016   -0.403571
  H     -1.469279    1.989375    1.566443
  H     -2.103480   -1.717742   -1.379896

 Total Charge           Charge          ....    0
 Multiplicity           Mult            ....    1
 Number of Electrons    NEL             ....   96
 Basis Dimension        Dim             ....  192

ORBITAL ENERGIES
----------------

  NO   OCC          E(Eh)            E(eV)
   0   2.0000     -18.785330      -511.1748
   1   2.0000     -18.773780      -510.8605
   2   2.0000     -18.769638      -510.7478
   3   2.0000     -18.750053      -510.2149
   4   2.0000     -18.748390      -510.1696
   5   2.0000     -18.743220      -510.0290
   6   2.0000      -9.992891      -271.9204
   7   2.0000      -9.953096      -270.8375
   8   2.0000      -9.944776      -270.6111
   9   2.0000      -9.943068      -270.5646
  10   2.0000      -9.941071      -270.5103
  11   2.0000      -9.936164      -270.3768
  12   2.0000      -0.995907       -27.1000
  13   2.0000      -0.952424       -25.9168
  14   2.0000      -0.938836       -25.5470
  15   2.0000      -0.928006       -25.2523
  16   2.0000      -0.919545       -25.0221
  17   2.0000      -0.912027       -24.8175
  18   2.0000      -0.704764       -19.1776
  19   2.0000      -0.695554       -18.9270
  20   2.0000      -0.621390       -16.9089
  21   2.0000      -0.593480       -16.1494
  22   2.0000      -0.561843       -15.2885
  23   2.0000      -0.534937       -14.5564
  24   2.0000      -0.505937       -13.7673
  25   2.0000      -0.495165       -13.4741
  26   2.0000      -0.481356       -13.0984
  27   2.0000      -0.462352       -12.5813
  28   2.0000      -0.459520       -12.5042
  29   2.0000      -0.437487       -11.9046
  30   2.0000      -0.422688       -11.5019
  31   2.0000      -0.394061       -10.7229
  32   2.0000      -0.381585       -10.3835
  33   2.0000      -0.380600       -10.3566
  34   2.0000      -0.369441       -10.0530
  35   2.0000      -0.352318        -9.5871
  36   2.0000      -0.332131        -9.0378
  37   2.0000      -0.324990        -8.8434
  38   2.0000      -0.303595        -8.2612
  39   2.0000      -0.294926        -8.0254
  40   2.0000      -0.280885        -7.6433
  41   2.0000      -0.278220        -7.5708
  42   2.0000      -0.262974        -7.1559
  43   2.0000      -0.245613        -6.6835
  44   2.0000      -0.238754        -6.4968
  45   2.0000      -0.223986        -6.0950
  46   2.0000      -0.221188        -6.0188
  47   2.0000      -0.201323        -5.4783
  48   0.0000       0.009139         0.2487
  49   0.0000       0.020703         0.5634
  50   0.0000       0.028117         0.7651
  51   0.0000       0.043566         1.1855
  52   0.0000       0.058471         1.5911

MULLIKEN ATOMIC CHARGES
-----------------------
   0 C :    0.113532
   1 C :   -0.029652
   2 H :    0.035955
   3 C :    0.035167
   4 H :    0.073125
   5 C :    0.095674
   6 H :    0.036466
   7 C :    0.057851
   8 H :    0.065127
   9 C :    0.174516
  10 H :    0.036399
  11 O :   -0.322775
  12 O :   -0.385225
  13 O :   -0.407497
  14 O :   -0.404273
  15 O :   -0.415678
  16 O :   -0.436357
  17 H :    0.085285
  18 H :    0.077630
  19 H :    0.309971
  20 H :    0.305643
  21 H :    0.300031
  22 H :    0.298568
  23 H :    0.300518
Sum of atomic charges:    0.0000000

LOEWDIN ATOMIC CHARGES
----------------------
   0 C :   -0.121768
   1 C :   -0.083296
   2 H :    0.096021
   3 C :   -0.084592
   4 H :    0.123613
   5 C :   -0.070016
   6 H :    0.096074
   7 C :   -0.075576
   8 H :    0.113356
   9 C :   -0.006519
  10 H :    0.079415
  11 O :   -0.158011
  12 O :   -0.297937
  13 O :   -0.310876
  14 O :   -0.315513
  15 O :   -0.303582
  16 O :   -0.328433
  17 H :    0.119932
  18 H :    0.099239
  19 H :    0.292240
  20 H :    0.289106
  21 H :    0.282320
  22 H :    0.283639
  23 H :    0.281164

  Mayer bond orders larger than 0.100000
B(  0-C ,  1-C ) :   1.0341 B(  0-C , 16-O ) :   1.0722 B(  0-C , 17-H ) :   0.9121
B(  0-C , 18-H ) :   0.9169 B(  1-C ,  2-H ) :   0.8683 B(  1-C ,  3-C ) :   0.9835
B(  1-C , 11-O ) :   0.9824 B(  3-C ,  4-H ) :   0.8545 B(  3-C ,  5-C ) :   1.0142
B(  3-C , 15-O ) :   1.0052 B(  5-C ,  6-H ) :   0.8671 B(  5-C ,  7-C ) :   1.0013
B(  5-C , 14-O ) :   1.1096 B(  7-C ,  8-H ) :   0.8680 B(  7-C ,  9-C ) :   0.9905
B(  7-C , 13-O ) :   1.0861 B(  9-C , 10-H ) :   0.8838 B(  9-C , 11-O ) :   0.9970
B(  9-C , 12-O ) :   1.1719 B( 12-O , 19-H ) :   0.8381 B( 13-O , 20-H ) :   0.8421
B( 14-O , 21-H ) :   0.8356 B( 15-O , 22-H ) :   0.8448 B( 16-O , 23-H ) :   0.8395

Dispersion correction           -0.023890339
FINAL SINGLE POINT ENERGY      -685.700016587889

DIPOLE MOMENT
-------------

Method             : SCF
Type of density    : Electron Density
Multiplicity       :   1
Irrep              :   0
Energy             :  -685.8297473562541882 Eh
Relativity type    :
Basis              : AO
                                X                 Y                 Z
Electronic contribution:      2.505743595      -0.070440024      -1.775846096
Nuclear contribution   :     -2.557423660      -0.824403510       2.788428687
                        -----------------------------------------
Total Dipole Moment    :     -0.051680065      -0.894843534       1.012582591
                        -----------------------------------------
Magnitude (a.u.)       :      1.352308871
Magnitude (Debye)      :      3.437295985

Rotational constants in cm-1:             0.038916             0.027195             0.017840
Rotational constants in MHz :          1166.670935           815.275234           534.836307

                             ****ORCA TERMINATED NORMALLY****
TOTAL RUN TIME: 0 days 0 hours 0 minutes 12 seconds 16 msec
