                         Program Version 6.0.0  -   RELEASE  -
|  1> ! r2scan-3c def2/J RI DEFGRID2 scfconv6 printgap
|  2> %output
|  3>     printlevel normal
|  4> end
|  5> * xyz 0 1
|  6> C -3.0949823347 0.0111913695 -0.6892117899
|  7> O -2.3266613551 -0.1865328663 0.4844847181
|  8> C -0.9490588626 -0.0899695499 0.2744841368
|  9> C -0.2038114249 -1.231598267 0.0099253782
| 10> C 1.1615291153 -1.144849982 -0.1655720887
| 11> C 1.8173299706 0.0876772714 -0.0848956379
| 12> C 1.0537917912 1.2291792917 0.1793296714
| 13> C -0.3114193304 1.1412884496 0.3551841707
| 14> N 3.1824613171 0.1652617137 -0.1936637723
| 15> H -4.1354314361 -0.0803808398 -0.3858862231
| 16> H -2.8593397429 -0.7470157864 -1.4432368356
| 17> H -2.9170259413 1.0047723379 -1.1129037897
| 18> H -0.7056905276 -2.1859423293 -0.0493597761
| 19> H 1.7341461329 -2.0381702515 -0.3655683705
| 20> H 1.5424167213 2.189546728 0.2494188615
| 21> H -0.8952479218 2.025665349 0.5636399581
| 22> H 3.5714248803 1.0727532152 -0.3849983412
| 23> H 3.6474350993 -0.6116147781 -0.6314509633
| 24> *
| 25>
| 26>                          ****END OF INPUT****

CARTESIAN COORDINATES (ANGSTROEM)
---------------------------------
  C     -3.094982    0.011191   -0.689212
  O     -2.326661   -0.186533    0.484485
  C     -0.949059   -0.089970    0.274484
  C     -0.203811   -1.231598    0.009925
  C      1.161529   -1.144850   -0.165572
  C      1.817330    0.087677   -0.084896
  C      1.053792    1.229179    0.179330
  C     -0.311419    1.141288    0.355184
  N      3.182461    0.165262   -0.193664
  H     -4.135431   -0.080381   -0.385886
  H     -2.859340   -0.747016   -1.443237
  H     -2.917026    1.004772   -1.112904
  H     -0.705691   -2.185942   -0.049360
  H      1.734146   -2.038170   -0.365568
  H      1.542417    2.189547    0.249419
  H     -0.895248    2.025665    0.563640
  H      3.571425    1.072753   -0.384998
  H      3.647435   -0.611615   -0.631451

 Total Charge           Charge          ....    0
 Multiplicity           Mult            ....    1
 Number of Electrons    NEL             ....   66
 Basis Dimension        Dim             ....  226

ORBITAL ENERGIES
----------------

  NO   OCC          E(Eh)            E(eV)
   0   2.0000     -18.955540      -515.8065
   1   2.0000     -14.168632      -385.5481
   2   2.0000     -10.071914      -274.0707
   3   2.0000     -10.071079      -274.0480
   4   2.0000     -10.069947      -274.0172
   5   2.0000     -10.028864      -272.8993
   6   2.0000     -10.028544      -272.8906
   7   2.0000     -10.027495      -272.8620
   8   2.0000     -10.027324      -272.8574
   9   2.0000      -1.000520       -27.2255
  10   2.0000      -0.893316       -24.3084
  11   2.0000      -0.803248       -21.8575
  12   2.0000      -0.715420       -19.4676
  13   2.0000      -0.697587       -18.9823
  14   2.0000      -0.640790       -17.4368
  15   2.0000      -0.587278       -15.9806
  16   2.0000      -0.557287       -15.1646
  17   2.0000      -0.496840       -13.5197
  18   2.0000      -0.490655       -13.3514
  19   2.0000      -0.468748       -12.7553
  20   2.0000      -0.420865       -11.4523
  21   2.0000      -0.416524       -11.3342
  22   2.0000      -0.407219       -11.0810
  23   2.0000      -0.391506       -10.6534
  24   2.0000      -0.382523       -10.4090
  25   2.0000      -0.371412       -10.1066
  26   2.0000      -0.352279        -9.5860
  27   2.0000      -0.314688        -8.5631
  28   2.0000      -0.310103        -8.4383
  29   2.0000      -0.273654        -7.4465
  30   2.0000      -0.235203        -6.4002
  31   2.0000      -0.226680        -6.1683
  32   2.0000      -0.177223        -4.8225
  33   0.0000      -0.028829        -0.7845
  34   0.0000      -0.004407        -0.1199
  35   0.0000       0.070685         1.9234
  36   0.0000       0.080193         2.1822
  37   0.0000       0.089046         2.4231

MULLIKEN ATOMIC CHARGES
-----------------------
   0 C :   -0.270445
   1 O :   -0.243623
   2 C :    0.174677
   3 C :   -0.236793
   4 C :   -0.357728
   5 C :    0.535641
   6 C :   -0.357496
   7 C :   -0.231388
   8 N :   -0.530227
   9 H :    0.144877
  10 H :    0.136896
  11 H :    0.136549
  12 H :    0.159108
  13 H :    0.137866
  14 H :    0.137796
  15 H :    0.158115
  16 H :    0.253069
  17 H :    0.253106
Sum of atomic charges:   -0.0000000

LOEWDIN ATOMIC CHARGES
----------------------
   0 C :   -0.054077
   1 O :   -0.720171
   2 C :    0.141365
   3 C :   -0.123805
   4 C :   -0.159841
   5 C :    0.122587
   6 C :   -0.159749
   7 C :   -0.125052
   8 N :   -0.606877
   9 H :    0.172750
  10 H :    0.158618
  11 H :    0.158433
  12 H :    0.178729
  13 H :    0.168168
  14 H :    0.168138
  15 H :    0.178338
  16 H :    0.251218
  17 H :    0.251230

  Mayer bond orders larger than 0.100000
B(  0-C ,  1-O ) :   0.8727 B(  0-C ,  9-H ) :   0.9737 B(  0-C , 10-H ) :   0.9668
B(  0-C , 11-H ) :   0.9669 B(  1-O ,  2-C ) :   0.9986 B(  2-C ,  3-C ) :   1.4639
B(  2-C ,  7-C ) :   1.4531 B(  3-C ,  4-C ) :   1.3684 B(  3-C , 12-H ) :   0.9265
B(  4-C ,  5-C ) :   1.3294 B(  4-C , 13-H ) :   0.9407 B(  5-C ,  6-C ) :   1.3294
B(  5-C ,  8-N ) :   0.9422 B(  6-C ,  7-C ) :   1.3728 B(  6-C , 14-H ) :   0.9406
B(  7-C , 15-H ) :   0.9255 B(  8-N , 16-H ) :   0.9292 B(  8-N , 17-H ) :   0.9292

Dispersion correction           -0.005721663
FINAL SINGLE POINT ENERGY      -402.022578506102

DIPOLE MOMENT
-------------

Method             : SCF
Type of density    : Electron Density
Multiplicity       :   1
Irrep              :   0
Energy             :  -402.0265537369349431 Eh
Relativity type    :
Basis              : AO
                                X                 Y                 Z
Electronic contribution:      1.681168288      -0.411566075       2.495301980
Nuclear contribution   :     -0.971426377       0.588827160      -3.334091634
                        -----------------------------------------
Total Dipole Moment    :      0.709741911       0.177261085      -0.838789653
                        -----------------------------------------
Magnitude (a.u.)       :      1.112979405
Magnitude (Debye)      :      2.828968825

Rotational constants in cm-1:             0.157371             0.033097             0.028885
Rotational constants in MHz :          4717.851010           992.220174           865.942499

                             ****ORCA TERMINATED NORMALLY****
TOTAL RUN TIME: 0 days 0 hours 0 minutes 30 seconds 136 msec
