                         Program Version 6.0.0  -   RELEASE  -
|  1> ! r2scan-3c def2/J RI DEFGRID2 scfconv6 printgap
|  2> %output
|  3>     printlevel normal
|  4> end
|  5> %cpcm
|  6>     smd true
|  7>     smdsolvent "water"
|  8> end
|  9> * xyz 0 1
| 10> C -3.0949823347 0.0111913695 -0.6892117899
| 11> O -2.3266613551 -0.1865328663 0.4844847181
| 12> C -0.9490588626 -0.0899695499 0.2744841368
| 13> C -0.2038114249 -1.231598267 0.0099253782
| 14> C 1.1615291153 -1.144849982 -0.1655720887
| 15> C 1.8173299706 0.0876772714 -0.0848956379
| 16> C 1.0537917912 1.2291792917 0.1793296714
| 17> C -0.3114193304 1.1412884496 0.3551841707
| 18> N 3.1824613171 0.1652617137 -0.1936637723
| 19> H -4.1354314361 -0.0803808398 -0.3858862231
| 20> H -2.8593397429 -0.7470157864 -1.4432368356
| 21> H -2.9170259413 1.0047723379 -1.1129037897
| 22> H -0.7056905276 -2.1859423293 -0.0493597761
| 23> H 1.7341461329 -2.0381702515 -0.3655683705
| 24> H 1.5424167213 2.189546728 0.2494188615
| 25> H -0.8952479218 2.025665349 0.5636399581
| 26> H 3.5714248803 1.0727532152 -0.3849983412
| 27> H 3.6474350993 -0.6116147781 -0.6314509633
| 28> *
| 29>
| 30>                          ****END OF INPUT****

CARTESIAN COORDINATES (ANGSTROEM)
---------------------------------
  C     -3.094982    0.011191   -0.689212
  O     -2.326661   -0.186533    0.484485
  C     -0.949059   -0.089970    0.274484
  C     -0.203811   -1.231598    0.009925
  C      1.161529   -1.144850   -0.165572
  C      1.817330    0.087677   -0.084896
  C      1.053792    1.229179    0.179330
  C     -0.311419    1.141288    0.355184
  N      3.182461    0.165262   -0.193664
  H     -4.135431   -0.080381   -0.385886
  H     -2.859340   -0.747016   -1.443237
  H     -2.917026    1.004772   -1.112904
  H     -0.705691   -2.185942   -0.049360
  H      1.734146   -2.038170   -0.365568
  H      1.542417    2.189547    0.249419
  H     -0.895248    2.025665    0.563640
  H      3.571425    1.072753   -0.384998
  H      3.647435   -0.611615   -0.631451

 Total Charge           Charge          ....    0
 Multiplicity           Mult            ....    1
 Number of Electrons    NEL             ....   66
 Basis Dimension        Dim             ....  226

ORBITAL ENERGIES
----------------

  NO   OCC          E(Eh)            E(eV)
   0   2.0000     -18.967526      -516.1326
   1   2.0000     -14.157016      -385.2320
   2   2.0000     -10.076547      -274.1968
   3   2.0000     -10.071808      -274.0678
   4   2.0000     -10.067221      -273.9430
   5   2.0000     -10.031808      -272.9794
   6   2.0000     -10.031683      -272.9760
   7   2.0000     -10.026944      -272.8470
   8   2.0000     -10.026813      -272.8435
   9   2.0000      -1.011360       -27.5205
  10   2.0000      -0.885613       -24.0988
  11   2.0000      -0.805372       -21.9153
  12   2.0000      -0.717434       -19.5224
  13   2.0000      -0.699048       -19.0221
  14   2.0000      -0.640844       -17.4382
  15   2.0000      -0.586804       -15.9677
  16   2.0000      -0.556337       -15.1387
  17   2.0000      -0.495296       -13.4777
  18   2.0000      -0.481999       -13.1159
  19   2.0000      -0.468501       -12.7486
  20   2.0000      -0.422879       -11.5071
  21   2.0000      -0.418765       -11.3952
  22   2.0000      -0.405187       -11.0257
  23   2.0000      -0.390352       -10.6220
  24   2.0000      -0.380582       -10.3562
  25   2.0000      -0.371192       -10.1006
  26   2.0000      -0.354532        -9.6473
  27   2.0000      -0.314495        -8.5578
  28   2.0000      -0.312894        -8.5143
  29   2.0000      -0.278205        -7.5704
  30   2.0000      -0.241805        -6.5798
  31   2.0000      -0.235611        -6.4113
  32   2.0000      -0.179127        -4.8743
  33   0.0000      -0.033161        -0.9024
  34   0.0000      -0.008673        -0.2360
  35   0.0000       0.074332         2.0227
  36   0.0000       0.088779         2.4158
  37   0.0000       0.094642         2.5754

MULLIKEN ATOMIC CHARGES
-----------------------
   0 C :   -0.289031
   1 O :   -0.294934
   2 C :    0.160343
   3 C :   -0.256260
   4 C :   -0.383472
   5 C :    0.456475
   6 C :   -0.383189
   7 C :   -0.249666
   8 N :   -0.588068
   9 H :    0.164098
  10 H :    0.156365
  11 H :    0.157222
  12 H :    0.187143
  13 H :    0.179092
  14 H :    0.178742
  15 H :    0.187213
  16 H :    0.308983
  17 H :    0.308944
Sum of atomic charges:   -0.0000000

LOEWDIN ATOMIC CHARGES
----------------------
   0 C :   -0.053730
   1 O :   -0.758921
   2 C :    0.119142
   3 C :   -0.136804
   4 C :   -0.167168
   5 C :    0.113092
   6 C :   -0.167036
   7 C :   -0.137050
   8 N :   -0.598891
   9 H :    0.180389
  10 H :    0.167203
  11 H :    0.167511
  12 H :    0.187961
  13 H :    0.183154
  14 H :    0.183096
  15 H :    0.188079
  16 H :    0.264960
  17 H :    0.265013

  Mayer bond orders larger than 0.100000
B(  0-C ,  1-O ) :   0.8599 B(  0-C ,  9-H ) :   0.9659 B(  0-C , 10-H ) :   0.9599
B(  0-C , 11-H ) :   0.9599 B(  1-O ,  2-C ) :   0.9705 B(  2-C ,  3-C ) :   1.4111
B(  2-C ,  7-C ) :   1.4034 B(  3-C ,  4-C ) :   1.3491 B(  3-C , 12-H ) :   0.9401
B(  4-C ,  5-C ) :   1.3079 B(  4-C , 13-H ) :   0.9561 B(  5-C ,  6-C ) :   1.3060
B(  5-C ,  8-N ) :   0.9577 B(  6-C ,  7-C ) :   1.3528 B(  6-C , 14-H ) :   0.9567
B(  7-C , 15-H ) :   0.9392 B(  8-N , 16-H ) :   0.9041 B(  8-N , 17-H ) :   0.9040

Dispersion correction           -0.005721663
FINAL SINGLE POINT ENERGY      -402.033405305636

DIPOLE MOMENT
-------------

Method             : SCF
Type of density    : Electron Density
Multiplicity       :   1
Irrep              :   0
Energy             :  -402.0373805364683335 Eh
Relativity type    :
Basis              : AO
                                X                 Y                 Z
Electronic contribution:      2.037367500      -0.327233556       2.129273135
Nuclear contribution   :     -0.971426377       0.588827160      -3.334091634
                        -----------------------------------------
Total Dipole Moment    :      1.065941123       0.261593604      -1.204818499
                        -----------------------------------------
Magnitude (a.u.)       :      1.629800389
Magnitude (Debye)      :      4.142623368

Rotational constants in cm-1:             0.157371             0.033097             0.028885
Rotational constants in MHz :          4717.851010           992.220174           865.942499

                             ****ORCA TERMINATED NORMALLY****
TOTAL RUN TIME: 0 days 0 hours 0 minutes 36 seconds 139 msec
