                         Program Version 6.0.0  -   RELEASE  -
|  1> ! pbe def2-sv(p) def2/J RI DEFGRID1 loosescf d4 GCP(DFT/SV(P)) printgap
|  2> %output
|  3>     printlevel normal
|  4> end
|  5> * xyz 0 1
|  6> C -1.9581315255 -0.1074328709 -0.0286166279
|  7> C -0.5770195771 0.5309770227 0.0256657765
|  8> C 0.5329699424 -0.5144797072 -0.0251946004
|  9> O 1.7824649995 0.1485207823 0.0294006442
| 10> H -2.7265235001 0.6593859418 0.009793446
| 11> H -2.0804298195 -0.6740979991 -0.9486077898
| 12> H -2.0998902721 -0.7816879653 0.8126253297
| 13> H -0.462213605 1.1084486826 0.944491016
| 14> H -0.4423914838 1.2153491685 -0.8136549066
| 15> H 0.4308909388 -1.2027447167 0.8252410246
| 16> H 0.4510653258 -1.0946276368 -0.9547151745
| 17> H 2.494003381 -0.5039507466 -0.0064755272
| 18> *
| 19>
| 20>                          ****END OF INPUT****

CARTESIAN COORDINATES (ANGSTROEM)
---------------------------------
  C     -1.958132   -0.107433   -0.028617
  C     -0.577020    0.530977    0.025666
  C      0.532970   -0.514480   -0.025195
  O      1.782465    0.148521    0.029401
  H     -2.726524    0.659386    0.009793
  H     -2.080430   -0.674098   -0.948608
  H     -2.099890   -0.781688    0.812625
  H     -0.462214    1.108449    0.944491
  H     -0.442391    1.215349   -0.813655
  H      0.430891   -1.202745    0.825241
  H      0.451065   -1.094628   -0.954715
  H      2.494003   -0.503951   -0.006476

 Total Charge           Charge          ....    0
 Multiplicity           Mult            ....    1
 Number of Electrons    NEL             ....   34
 Basis Dimension        Dim             ....   72

ORBITAL ENERGIES
----------------

  NO   OCC          E(Eh)            E(eV)
   0   2.0000     -18.735463      -509.8179
   1   2.0000      -9.925659      -270.0909
   2   2.0000      -9.880102      -268.8512
   3   2.0000      -9.875388      -268.7230
   4   2.0000      -0.911220       -24.7956
   5   2.0000      -0.698993       -19.0206
   6   2.0000      -0.599282       -16.3073
   7   2.0000      -0.517830       -14.0909
   8   2.0000      -0.455551       -12.3962
   9   2.0000      -0.423541       -11.5251
  10   2.0000      -0.380971       -10.3667
  11   2.0000      -0.357810        -9.7365
  12   2.0000      -0.319056        -8.6820
  13   2.0000      -0.313187        -8.5222
  14   2.0000      -0.292106        -7.9486
  15   2.0000      -0.268021        -7.2932
  16   2.0000      -0.208281        -5.6676
  17   0.0000       0.031995         0.8706
  18   0.0000       0.045283         1.2322
  19   0.0000       0.082757         2.2519
  20   0.0000       0.093228         2.5369
  21   0.0000       0.109463         2.9786

MULLIKEN ATOMIC CHARGES
-----------------------
   0 C :   -0.290993
   1 C :   -0.190376
   2 C :   -0.008573
   3 O :   -0.435677
   4 H :    0.108801
   5 H :    0.100132
   6 H :    0.100228
   7 H :    0.094903
   8 H :    0.094944
   9 H :    0.065728
  10 H :    0.065709
  11 H :    0.295174
Sum of atomic charges:    0.0000000

LOEWDIN ATOMIC CHARGES
----------------------
   0 C :   -0.340568
   1 C :   -0.245714
   2 C :   -0.122057
   3 O :   -0.353371
   4 H :    0.122489
   5 H :    0.116898
   6 H :    0.116919
   7 H :    0.119671
   8 H :    0.119674
   9 H :    0.091455
  10 H :    0.091463
  11 H :    0.283142

  Mayer bond orders larger than 0.100000
B(  0-C ,  1-C ) :   1.1343 B(  0-C ,  4-H ) :   0.9539 B(  0-C ,  5-H ) :   0.9555
B(  0-C ,  6-H ) :   0.9555 B(  1-C ,  2-C ) :   1.1243 B(  1-C ,  7-H ) :   0.9251
B(  1-C ,  8-H ) :   0.9250 B(  2-C ,  3-O ) :   1.0899 B(  2-C ,  9-H ) :   0.9251
B(  2-C , 10-H ) :   0.9252 B(  3-O , 11-H ) :   0.8544

Dispersion correction           -0.006194452
FINAL SINGLE POINT ENERGY      -193.874273348474

DIPOLE MOMENT
-------------

Method             : SCF
Type of density    : Electron Density
Multiplicity       :   1
Irrep              :   0
Energy             :  -193.9235340088987698 Eh
Relativity type    :
Basis              : AO
                                X                 Y                 Z
Electronic contribution:      4.142586366       0.625184096       0.085403746
Nuclear contribution   :     -4.134720428      -1.192950152      -0.122746777
                        -----------------------------------------
Total Dipole Moment    :      0.007865938      -0.567766056      -0.037343031
                        -----------------------------------------
Magnitude (a.u.)       :      0.569047159
Magnitude (Debye)      :      1.446402930

Rotational constants in cm-1:             0.889894             0.127259             0.118768
Rotational constants in MHz :         26678.345540          3815.133621          3560.561673

                             ****ORCA TERMINATED NORMALLY****
TOTAL RUN TIME: 0 days 0 hours 0 minutes 4 seconds 406 msec
