                         Program Version 6.0.0  -   RELEASE  -
|  1> ! pbe def2-sv(p) def2/J RI DEFGRID1 loosescf d4 GCP(DFT/SV(P)) printgap
|  2> %output
|  3>     printlevel normal
|  4> end
|  5> * xyz 0 1
|  6> C -2.1789088333 0.2737187247 0.1235344801
|  7> C -0.9218394034 -0.3995385913 -0.390559428
|  8> S 0.5647081467 0.3715950919 0.3587714574
|  9> C 1.8392486628 -0.6269590196 -0.4652876903
| 10> H -3.0543437382 -0.1880655597 -0.3262537236
| 11> H -2.244035322 0.1767933912 1.2045890271
| 12> H -2.1695176641 1.3319646811 -0.1262447518
| 13> H -0.8287966303 -0.289984849 -1.4714198005
| 14> H -0.9028455011 -1.4568878063 -0.1248061499
| 15> H 2.7959835753 -0.2676935276 -0.1029115069
| 16> H 1.7668218362 -0.4858052548 -1.5395205705
| 17> H 1.7043106286 -1.6713708335 -0.2004127014
| 18> *
| 19>
| 20>                          ****END OF INPUT****

CARTESIAN COORDINATES (ANGSTROEM)
---------------------------------
  C     -2.178909    0.273719    0.123534
  C     -0.921839   -0.399539   -0.390559
  S      0.564708    0.371595    0.358771
  C      1.839249   -0.626959   -0.465288
  H     -3.054344   -0.188066   -0.326254
  H     -2.244035    0.176793    1.204589
  H     -2.169518    1.331965   -0.126245
  H     -0.828797   -0.289985   -1.471420
  H     -0.902846   -1.456888   -0.124806
  H      2.795984   -0.267694   -0.102912
  H      1.766822   -0.485805   -1.539521
  H      1.704311   -1.671371   -0.200413

 Total Charge           Charge          ....    0
 Multiplicity           Mult            ....    1
 Number of Electrons    NEL             ....   42
 Basis Dimension        Dim             ....   76

ORBITAL ENERGIES
----------------

  NO   OCC          E(Eh)            E(eV)
   0   2.0000     -88.007145     -2394.7962
   1   2.0000      -9.912097      -269.7219
   2   2.0000      -9.903613      -269.4910
   3   2.0000      -9.882810      -268.9249
   4   2.0000      -7.651454      -208.2066
   5   2.0000      -5.680289      -154.5685
   6   2.0000      -5.676250      -154.4586
   7   2.0000      -5.667419      -154.2183
   8   2.0000      -0.728876       -19.8337
   9   2.0000      -0.667771       -18.1710
  10   2.0000      -0.577138       -15.7047
  11   2.0000      -0.516366       -14.0510
  12   2.0000      -0.413744       -11.2585
  13   2.0000      -0.395795       -10.7701
  14   2.0000      -0.384016       -10.4496
  15   2.0000      -0.376388       -10.2420
  16   2.0000      -0.337210        -9.1760
  17   2.0000      -0.315121        -8.5749
  18   2.0000      -0.307127        -8.3573
  19   2.0000      -0.265861        -7.2344
  20   2.0000      -0.174784        -4.7561
  21   0.0000       0.014043         0.3821
  22   0.0000       0.039355         1.0709
  23   0.0000       0.064469         1.7543
  24   0.0000       0.080621         2.1938
  25   0.0000       0.081217         2.2100

MULLIKEN ATOMIC CHARGES
-----------------------
   0 C :   -0.262192
   1 C :   -0.289455
   2 S :   -0.101168
   3 C :   -0.361434
   4 H :    0.113812
   5 H :    0.115481
   6 H :    0.115388
   7 H :    0.123748
   8 H :    0.124094
   9 H :    0.145873
  10 H :    0.137982
  11 H :    0.137871
Sum of atomic charges:    0.0000000

LOEWDIN ATOMIC CHARGES
----------------------
   0 C :   -0.355945
   1 C :   -0.332626
   2 S :    0.166400
   3 C :   -0.454689
   4 H :    0.126519
   5 H :    0.123517
   6 H :    0.123466
   7 H :    0.116083
   8 H :    0.116076
   9 H :    0.130693
  10 H :    0.120235
  11 H :    0.120270

  Mayer bond orders larger than 0.100000
B(  0-C ,  1-C ) :   1.1466 B(  0-C ,  4-H ) :   0.9491 B(  0-C ,  5-H ) :   0.9520
B(  0-C ,  6-H ) :   0.9521 B(  1-C ,  2-S ) :   1.0272 B(  1-C ,  7-H ) :   0.9249
B(  1-C ,  8-H ) :   0.9249 B(  2-S ,  3-C ) :   1.0460 B(  3-C ,  9-H ) :   0.9513
B(  3-C , 10-H ) :   0.9450 B(  3-C , 11-H ) :   0.9450

Dispersion correction           -0.007869805
FINAL SINGLE POINT ENERGY      -516.702035610862

DIPOLE MOMENT
-------------

Method             : SCF
Type of density    : Electron Density
Multiplicity       :   1
Irrep              :   0
Energy             :  -516.7410885713326252 Eh
Relativity type    :
Basis              : AO
                                X                 Y                 Z
Electronic contribution:      2.671621016       2.247243870       2.138880603
Nuclear contribution   :     -2.767162643      -2.685334303      -2.531044369
                        -----------------------------------------
Total Dipole Moment    :     -0.095541627      -0.438090433      -0.392163766
                        -----------------------------------------
Magnitude (a.u.)       :      0.595687711
Magnitude (Debye)      :      1.514117833

Rotational constants in cm-1:             0.527523             0.105527             0.092558
Rotational constants in MHz :         15814.749535          3163.628451          2774.832749

                             ****ORCA TERMINATED NORMALLY****
TOTAL RUN TIME: 0 days 0 hours 0 minutes 4 seconds 546 msec
