                         Program Version 6.0.0  -   RELEASE  -
|  1> ! wb97x-v def2-tzvp def2/J RIJCOSX DEFGRID2 scfconv7 GCP(DFT/TZ) printgap
|  2> %output
|  3>     printlevel normal
|  4> end
|  5> * xyz 0 1
|  6> C -1.2040449342127313 1.0305843641842332 0.9095673243244676
|  7> C -0.5172778394289361 0.213929557540179 0.01925935152163519
|  8> C -1.2247721848140531 -0.7024139960185474 -0.7601701549204294
|  9> C -2.6147937599847197 -0.8014489929071463 -0.6533757139481183
| 10> C -3.302336990123427 0.024073013829820817 0.24637913198574776
| 11> C -2.5823250005086473 0.9364290514057408 1.0230275853770077
| 12> Cl -3.4009277535825935 1.9759679783255026 2.1517981316834556
| 13> Cl -5.021832198422284 -0.0868573224067399 0.38980460157785374
| 14> Cl -3.4845279848825954 -1.9379499607495145 -1.6251973308032819
| 15> Cl -0.3541183101830191 -1.7228204851895212 -1.863190386079707
| 16> C 0.9558426891100944 0.32735136736871295 -0.08901607445126787
| 17> C 1.554754565954471 1.1639322435416555 -1.0317334679762198
| 18> C 2.929957113868965 1.2869018245673722 -1.1462343393613357
| 19> C 3.7385064419956078 0.5526775495535199 -0.2906030354068126
| 20> C 3.1893987127796697 -0.30079742886784533 0.6713044672841934
| 21> C 1.7968783695968846 -0.40228409740123217 0.756016232633427
| 22> Cl 1.0778113278336867 -1.4722288998345208 1.920760124614196
| 23> Cl 4.208248478867241 -1.2134879003309915 1.7294404235980934
| 24> Cl 5.462561443003178 0.7166625142824026 -0.440746740719851
| 25> Cl 0.5426164752624536 2.0859426829263246 -2.1151043021532794
| 26> H -0.6552154325227016 1.7409016856906214 1.5168878930417473
| 27> H 3.370463788400617 1.942347904490069 -1.8869589286003638
| 28> *
| 29>
| 30>                          ****END OF INPUT****

CARTESIAN COORDINATES (ANGSTROEM)
---------------------------------
  C     -1.204045    1.030584    0.909567
  C     -0.517278    0.213930    0.019259
  C     -1.224772   -0.702414   -0.760170
  C     -2.614794   -0.801449   -0.653376
  C     -3.302337    0.024073    0.246379
  C     -2.582325    0.936429    1.023028
  Cl    -3.400928    1.975968    2.151798
  Cl    -5.021832   -0.086857    0.389805
  Cl    -3.484528   -1.937950   -1.625197
  Cl    -0.354118   -1.722820   -1.863190
  C      0.955843    0.327351   -0.089016
  C      1.554755    1.163932   -1.031733
  C      2.929957    1.286902   -1.146234
  C      3.738506    0.552678   -0.290603
  C      3.189399   -0.300797    0.671304
  C      1.796878   -0.402284    0.756016
  Cl     1.077811   -1.472229    1.920760
  Cl     4.208248   -1.213488    1.729440
  Cl     5.462561    0.716663   -0.440747
  Cl     0.542616    2.085943   -2.115104
  H     -0.655215    1.740902    1.516888
  H      3.370464    1.942348   -1.886959

 Total Charge           Charge          ....    0
 Multiplicity           Mult            ....    1
 Number of Electrons    NEL             ....  210
 Basis Dimension        Dim             ....  680

ORBITAL ENERGIES
----------------

  NO   OCC          E(Eh)            E(eV)
   0   2.0000    -107.172701     -2916.3175
   1   2.0000    -107.171508     -2916.2850
   2   2.0000    -107.171455     -2916.2836
   3   2.0000    -107.170888     -2916.2681
   4   2.0000    -107.169362     -2916.2266
   5   2.0000    -107.169285     -2916.2245
   6   2.0000    -107.169251     -2916.2236
   7   2.0000    -107.167328     -2916.1713
   8   2.0000     -12.161402      -330.9286
   9   2.0000     -12.159388      -330.8738
  10   2.0000     -12.158976      -330.8626
  11   2.0000     -12.157028      -330.8095
  12   2.0000     -12.156747      -330.8019
  13   2.0000     -12.155260      -330.7614
  14   2.0000     -12.153365      -330.7099
  15   2.0000     -12.151751      -330.6660
  16   2.0000     -12.117838      -329.7431
  17   2.0000     -12.113573      -329.6271
  18   2.0000     -12.102195      -329.3175
  19   2.0000     -12.098801      -329.2251
  20   2.0000     -11.325747      -308.1892
  21   2.0000     -11.324534      -308.1562
  22   2.0000     -11.324459      -308.1542
  23   2.0000     -11.323956      -308.1405
  24   2.0000     -11.322393      -308.0980
  25   2.0000     -11.322313      -308.0958
  26   2.0000     -11.322247      -308.0940
  27   2.0000     -11.320362      -308.0427
  28   2.0000      -9.117551      -248.1012
  29   2.0000      -9.116536      -248.0736
  30   2.0000      -9.115837      -248.0545
  31   2.0000      -9.115426      -248.0434
  32   2.0000      -9.114682      -248.0231
  33   2.0000      -9.114607      -248.0211
  34   2.0000      -9.114399      -248.0154
  35   2.0000      -9.114277      -248.0121
  36   2.0000      -9.113555      -247.9924
  37   2.0000      -9.113468      -247.9901
  38   2.0000      -9.113367      -247.9873
  39   2.0000      -9.113306      -247.9857
  40   2.0000      -9.112802      -247.9720
  41   2.0000      -9.112753      -247.9706
  42   2.0000      -9.112701      -247.9692
  43   2.0000      -9.111943      -247.9486
  44   2.0000      -9.111731      -247.9428
  45   2.0000      -9.111260      -247.9300
  46   2.0000      -9.111111      -247.9259
  47   2.0000      -9.111033      -247.9238
  48   2.0000      -9.111020      -247.9235
  49   2.0000      -9.110418      -247.9071
  50   2.0000      -9.109158      -247.8728
  51   2.0000      -9.109050      -247.8698
  52   2.0000      -1.501852       -40.8675
  53   2.0000      -1.495119       -40.6842
  54   2.0000      -1.463671       -39.8285
  55   2.0000      -1.459204       -39.7070
  56   2.0000      -1.456895       -39.6441
  57   2.0000      -1.445271       -39.3278
  58   2.0000      -1.434663       -39.0392
  59   2.0000      -1.429094       -38.8876
  60   2.0000      -1.400537       -38.1105
  61   2.0000      -1.385864       -37.7113
  62   2.0000      -1.337455       -36.3940
  63   2.0000      -1.304009       -35.4839
  64   2.0000      -1.299522       -35.3618
  65   2.0000      -1.286913       -35.0187
  66   2.0000      -1.186623       -32.2897
  67   2.0000      -1.157702       -31.5027
  68   2.0000      -1.154983       -31.4287
  69   2.0000      -1.135589       -30.9010
  70   2.0000      -1.047223       -28.4964
  71   2.0000      -1.044161       -28.4131
  72   2.0000      -1.035462       -28.1763
  73   2.0000      -1.008492       -27.4425
  74   2.0000      -0.995016       -27.0757
  75   2.0000      -0.977206       -26.5911
  76   2.0000      -0.963226       -26.2107
  77   2.0000      -0.956001       -26.0141
  78   2.0000      -0.955328       -25.9958
  79   2.0000      -0.935481       -25.4557
  80   2.0000      -0.918308       -24.9884
  81   2.0000      -0.906717       -24.6730
  82   2.0000      -0.901247       -24.5242
  83   2.0000      -0.887896       -24.1609
  84   2.0000      -0.887437       -24.1484
  85   2.0000      -0.849041       -23.1036
  86   2.0000      -0.846799       -23.0426
  87   2.0000      -0.843550       -22.9542
  88   2.0000      -0.833926       -22.6923
  89   2.0000      -0.828019       -22.5315
  90   2.0000      -0.827535       -22.5184
  91   2.0000      -0.824910       -22.4470
  92   2.0000      -0.823526       -22.4093
  93   2.0000      -0.823131       -22.3985
  94   2.0000      -0.822315       -22.3763
  95   2.0000      -0.819161       -22.2905
  96   2.0000      -0.815493       -22.1907
  97   2.0000      -0.811848       -22.0915
  98   2.0000      -0.807865       -21.9831
  99   2.0000      -0.784738       -21.3538
 100   2.0000      -0.783513       -21.3205
 101   2.0000      -0.698991       -19.0205
 102   2.0000      -0.694828       -18.9072
 103   2.0000      -0.692391       -18.8409
 104   2.0000      -0.688771       -18.7424
 105   0.0000      -0.349512        -9.5107
 106   0.0000      -0.340578        -9.2676
 107   0.0000      -0.323812        -8.8114
 108   0.0000      -0.320649        -8.7253
 109   0.0000      -0.314768        -8.5653

MULLIKEN ATOMIC CHARGES
-----------------------
   0 C :   -0.193208
   1 C :    0.033589
   2 C :    0.072753
   3 C :   -0.014727
   4 C :    0.023230
   5 C :    0.070229
   6 Cl:   -0.046368
   7 Cl:   -0.020270
   8 Cl:   -0.018539
   9 Cl:   -0.029417
  10 C :   -0.048358
  11 C :    0.175313
  12 C :   -0.335113
  13 C :    0.132744
  14 C :   -0.062142
  15 C :    0.095154
  16 Cl:   -0.026000
  17 Cl:   -0.016446
  18 Cl:   -0.043794
  19 Cl:   -0.053423
  20 H :    0.150179
  21 H :    0.154615
Sum of atomic charges:    0.0000000

LOEWDIN ATOMIC CHARGES
----------------------
   0 C :   -0.091647
   1 C :   -0.138948
   2 C :   -0.394222
   3 C :   -0.437115
   4 C :   -0.439563
   5 C :   -0.424315
   6 Cl:    0.419455
   7 Cl:    0.440576
   8 Cl:    0.440803
   9 Cl:    0.449431
  10 C :   -0.133909
  11 C :   -0.373325
  12 C :   -0.137046
  13 C :   -0.421514
  14 C :   -0.443831
  15 C :   -0.383577
  16 Cl:    0.453938
  17 Cl:    0.439208
  18 Cl:    0.424446
  19 Cl:    0.432125
  20 H :    0.161593
  21 H :    0.157436

  Mayer bond orders larger than 0.100000
B(  0-C ,  1-C ) :   1.3642 B(  0-C ,  5-C ) :   1.4127 B(  0-C , 20-H ) :   0.9633
B(  1-C ,  2-C ) :   1.3133 B(  1-C , 10-C ) :   0.7919 B(  2-C ,  3-C ) :   1.3409
B(  2-C ,  9-Cl) :   1.2082 B(  3-C ,  4-C ) :   1.3171 B(  3-C ,  8-Cl) :   1.2159
B(  4-C ,  5-C ) :   1.3245 B(  4-C ,  7-Cl) :   1.2124 B(  5-C ,  6-Cl) :   1.0783
B( 10-C , 11-C ) :   1.3174 B( 10-C , 15-C ) :   1.3188 B( 11-C , 12-C ) :   1.4141
B( 11-C , 19-Cl) :   1.0717 B( 12-C , 13-C ) :   1.3889 B( 12-C , 19-Cl) :   0.1026
B( 12-C , 21-H ) :   0.9543 B( 13-C , 14-C ) :   1.3176 B( 13-C , 18-Cl) :   1.0796
B( 14-C , 15-C ) :   1.3334 B( 14-C , 17-Cl) :   1.2283 B( 15-C , 16-Cl) :   1.2043

FINAL SINGLE POINT ENERGY     -4139.675164517874

DIPOLE MOMENT
-------------

Method             : SCF
Type of density    : Electron Density
Multiplicity       :   1
Irrep              :   0
Energy             : -4139.6862486327736406 Eh
Relativity type    :
Basis              : AO
                                X                 Y                 Z
Electronic contribution:     -3.470130678      -4.928524895       0.474668377
Nuclear contribution   :      3.870352539       5.367922309      -0.530659686
                        -----------------------------------------
Total Dipole Moment    :      0.400221860       0.439397414      -0.055991309
                        -----------------------------------------
Magnitude (a.u.)       :      0.596977932
Magnitude (Debye)      :      1.517397314

Rotational constants in cm-1:             0.010297             0.003336             0.003260
Rotational constants in MHz :           308.691776           100.017055            97.738158

                             ****ORCA TERMINATED NORMALLY****
TOTAL RUN TIME: 0 days 0 hours 13 minutes 32 seconds 4 msec
