                         Program Version 6.0.0  -   RELEASE  -
|  1> ! wb97x-v def2-tzvp def2/J RIJCOSX DEFGRID2 scfconv7 GCP(DFT/TZ) printgap
|  2> %output
|  3>     printlevel normal
|  4> end
|  5> %cpcm
|  6>     smd true
|  7>     smdsolvent "water"
|  8> end
|  9> * xyz 0 1
| 10> C -1.2040449342127313 1.0305843641842332 0.9095673243244676
| 11> C -0.5172778394289361 0.213929557540179 0.01925935152163519
| 12> C -1.2247721848140531 -0.7024139960185474 -0.7601701549204294
| 13> C -2.6147937599847197 -0.8014489929071463 -0.6533757139481183
| 14> C -3.302336990123427 0.024073013829820817 0.24637913198574776
| 15> C -2.5823250005086473 0.9364290514057408 1.0230275853770077
| 16> Cl -3.4009277535825935 1.9759679783255026 2.1517981316834556
| 17> Cl -5.021832198422284 -0.0868573224067399 0.38980460157785374
| 18> Cl -3.4845279848825954 -1.9379499607495145 -1.6251973308032819
| 19> Cl -0.3541183101830191 -1.7228204851895212 -1.863190386079707
| 20> C 0.9558426891100944 0.32735136736871295 -0.08901607445126787
| 21> C 1.554754565954471 1.1639322435416555 -1.0317334679762198
| 22> C 2.929957113868965 1.2869018245673722 -1.1462343393613357
| 23> C 3.7385064419956078 0.5526775495535199 -0.2906030354068126
| 24> C 3.1893987127796697 -0.30079742886784533 0.6713044672841934
| 25> C 1.7968783695968846 -0.40228409740123217 0.756016232633427
| 26> Cl 1.0778113278336867 -1.4722288998345208 1.920760124614196
| 27> Cl 4.208248478867241 -1.2134879003309915 1.7294404235980934
| 28> Cl 5.462561443003178 0.7166625142824026 -0.440746740719851
| 29> Cl 0.5426164752624536 2.0859426829263246 -2.1151043021532794
| 30> H -0.6552154325227016 1.7409016856906214 1.5168878930417473
| 31> H 3.370463788400617 1.942347904490069 -1.8869589286003638
| 32> *
| 33>
| 34>                          ****END OF INPUT****

CARTESIAN COORDINATES (ANGSTROEM)
---------------------------------
  C     -1.204045    1.030584    0.909567
  C     -0.517278    0.213930    0.019259
  C     -1.224772   -0.702414   -0.760170
  C     -2.614794   -0.801449   -0.653376
  C     -3.302337    0.024073    0.246379
  C     -2.582325    0.936429    1.023028
  Cl    -3.400928    1.975968    2.151798
  Cl    -5.021832   -0.086857    0.389805
  Cl    -3.484528   -1.937950   -1.625197
  Cl    -0.354118   -1.722820   -1.863190
  C      0.955843    0.327351   -0.089016
  C      1.554755    1.163932   -1.031733
  C      2.929957    1.286902   -1.146234
  C      3.738506    0.552678   -0.290603
  C      3.189399   -0.300797    0.671304
  C      1.796878   -0.402284    0.756016
  Cl     1.077811   -1.472229    1.920760
  Cl     4.208248   -1.213488    1.729440
  Cl     5.462561    0.716663   -0.440747
  Cl     0.542616    2.085943   -2.115104
  H     -0.655215    1.740902    1.516888
  H      3.370464    1.942348   -1.886959

 Total Charge           Charge          ....    0
 Multiplicity           Mult            ....    1
 Number of Electrons    NEL             ....  210
 Basis Dimension        Dim             ....  680

ORBITAL ENERGIES
----------------

  NO   OCC          E(Eh)            E(eV)
   0   2.0000    -107.168280     -2916.1971
   1   2.0000    -107.168237     -2916.1960
   2   2.0000    -107.167699     -2916.1813
   3   2.0000    -107.167118     -2916.1655
   4   2.0000    -107.166865     -2916.1587
   5   2.0000    -107.164888     -2916.1048
   6   2.0000    -107.163814     -2916.0756
   7   2.0000    -107.162980     -2916.0529
   8   2.0000     -12.153608      -330.7165
   9   2.0000     -12.152177      -330.6775
  10   2.0000     -12.151655      -330.6633
  11   2.0000     -12.149739      -330.6112
  12   2.0000     -12.147698      -330.5557
  13   2.0000     -12.147523      -330.5509
  14   2.0000     -12.144813      -330.4772
  15   2.0000     -12.144427      -330.4667
  16   2.0000     -12.108558      -329.4906
  17   2.0000     -12.105405      -329.4048
  18   2.0000     -12.088851      -328.9544
  19   2.0000     -12.087749      -328.9244
  20   2.0000     -11.321354      -308.0697
  21   2.0000     -11.321289      -308.0679
  22   2.0000     -11.320724      -308.0526
  23   2.0000     -11.320208      -308.0385
  24   2.0000     -11.319924      -308.0308
  25   2.0000     -11.317992      -307.9782
  26   2.0000     -11.316891      -307.9483
  27   2.0000     -11.316087      -307.9264
  28   2.0000      -9.113351      -247.9869
  29   2.0000      -9.112826      -247.9726
  30   2.0000      -9.112612      -247.9668
  31   2.0000      -9.111787      -247.9443
  32   2.0000      -9.111494      -247.9364
  33   2.0000      -9.110663      -247.9137
  34   2.0000      -9.110202      -247.9012
  35   2.0000      -9.110095      -247.8983
  36   2.0000      -9.109836      -247.8912
  37   2.0000      -9.109671      -247.8867
  38   2.0000      -9.109555      -247.8836
  39   2.0000      -9.109552      -247.8835
  40   2.0000      -9.109129      -247.8720
  41   2.0000      -9.108763      -247.8621
  42   2.0000      -9.108720      -247.8609
  43   2.0000      -9.108565      -247.8567
  44   2.0000      -9.108458      -247.8538
  45   2.0000      -9.107656      -247.8319
  46   2.0000      -9.106832      -247.8095
  47   2.0000      -9.106712      -247.8062
  48   2.0000      -9.105727      -247.7794
  49   2.0000      -9.105668      -247.7778
  50   2.0000      -9.104964      -247.7587
  51   2.0000      -9.104938      -247.7579
  52   2.0000      -1.495471       -40.6938
  53   2.0000      -1.488911       -40.5153
  54   2.0000      -1.459364       -39.7113
  55   2.0000      -1.452631       -39.5281
  56   2.0000      -1.449905       -39.4539
  57   2.0000      -1.441710       -39.2309
  58   2.0000      -1.429339       -38.8943
  59   2.0000      -1.427268       -38.8379
  60   2.0000      -1.394020       -37.9332
  61   2.0000      -1.378004       -37.4974
  62   2.0000      -1.329668       -36.1821
  63   2.0000      -1.295030       -35.2396
  64   2.0000      -1.292103       -35.1599
  65   2.0000      -1.279529       -34.8178
  66   2.0000      -1.178497       -32.0685
  67   2.0000      -1.148640       -31.2561
  68   2.0000      -1.147303       -31.2197
  69   2.0000      -1.127692       -30.6861
  70   2.0000      -1.037501       -28.2318
  71   2.0000      -1.036868       -28.2146
  72   2.0000      -1.027848       -27.9692
  73   2.0000      -1.002148       -27.2698
  74   2.0000      -0.989092       -26.9146
  75   2.0000      -0.971514       -26.4362
  76   2.0000      -0.957629       -26.0584
  77   2.0000      -0.951006       -25.8782
  78   2.0000      -0.946281       -25.7496
  79   2.0000      -0.928978       -25.2788
  80   2.0000      -0.911305       -24.7979
  81   2.0000      -0.895133       -24.3578
  82   2.0000      -0.890254       -24.2251
  83   2.0000      -0.882759       -24.0211
  84   2.0000      -0.879226       -23.9250
  85   2.0000      -0.845618       -23.0104
  86   2.0000      -0.839813       -22.8525
  87   2.0000      -0.837285       -22.7837
  88   2.0000      -0.831572       -22.6282
  89   2.0000      -0.824336       -22.4313
  90   2.0000      -0.822945       -22.3935
  91   2.0000      -0.822713       -22.3872
  92   2.0000      -0.822356       -22.3774
  93   2.0000      -0.819858       -22.3095
  94   2.0000      -0.817345       -22.2411
  95   2.0000      -0.812924       -22.1208
  96   2.0000      -0.812300       -22.1038
  97   2.0000      -0.806442       -21.9444
  98   2.0000      -0.806306       -21.9407
  99   2.0000      -0.778925       -21.1956
 100   2.0000      -0.776413       -21.1273
 101   2.0000      -0.690058       -18.7774
 102   2.0000      -0.687246       -18.7009
 103   2.0000      -0.682937       -18.5837
 104   2.0000      -0.682168       -18.5627
 105   0.0000      -0.343512        -9.3474
 106   0.0000      -0.334956        -9.1146
 107   0.0000      -0.314630        -8.5615
 108   0.0000      -0.313102        -8.5199
 109   0.0000      -0.304799        -8.2940

MULLIKEN ATOMIC CHARGES
-----------------------
   0 C :   -0.207976
   1 C :    0.004070
   2 C :    0.070473
   3 C :   -0.003276
   4 C :    0.039262
   5 C :    0.081565
   6 Cl:   -0.060018
   7 Cl:   -0.037930
   8 Cl:   -0.035837
   9 Cl:   -0.042148
  10 C :    0.018558
  11 C :    0.159765
  12 C :   -0.331098
  13 C :    0.133584
  14 C :   -0.048515
  15 C :    0.091589
  16 Cl:   -0.044370
  17 Cl:   -0.035861
  18 Cl:   -0.059619
  19 Cl:   -0.067620
  20 H :    0.188870
  21 H :    0.186531
Sum of atomic charges:    0.0000000

LOEWDIN ATOMIC CHARGES
----------------------
   0 C :   -0.076465
   1 C :   -0.136290
   2 C :   -0.393766
   3 C :   -0.435705
   4 C :   -0.436876
   5 C :   -0.421733
   6 Cl:    0.409881
   7 Cl:    0.429013
   8 Cl:    0.429001
   9 Cl:    0.440384
  10 C :   -0.126201
  11 C :   -0.369486
  12 C :   -0.122355
  13 C :   -0.418775
  14 C :   -0.440940
  15 C :   -0.380704
  16 Cl:    0.442924
  17 Cl:    0.426429
  18 Cl:    0.413786
  19 Cl:    0.423296
  20 H :    0.175408
  21 H :    0.169174

  Mayer bond orders larger than 0.100000
B(  0-C ,  1-C ) :   1.3852 B(  0-C ,  5-C ) :   1.3865 B(  0-C , 20-H ) :   0.9656
B(  1-C ,  2-C ) :   1.3018 B(  1-C , 10-C ) :   0.7899 B(  2-C ,  3-C ) :   1.3422
B(  2-C ,  9-Cl) :   1.1962 B(  3-C ,  4-C ) :   1.3224 B(  3-C ,  8-Cl) :   1.1931
B(  4-C ,  5-C ) :   1.3230 B(  4-C ,  7-Cl) :   1.1878 B(  5-C ,  6-Cl) :   1.0765
B( 10-C , 11-C ) :   1.3129 B( 10-C , 15-C ) :   1.3247 B( 11-C , 12-C ) :   1.4103
B( 11-C , 19-Cl) :   1.0628 B( 12-C , 13-C ) :   1.3839 B( 12-C , 21-H ) :   0.9491
B( 13-C , 14-C ) :   1.3145 B( 13-C , 18-Cl) :   1.0703 B( 14-C , 15-C ) :   1.3375
B( 14-C , 17-Cl) :   1.1990 B( 15-C , 16-Cl) :   1.1780

FINAL SINGLE POINT ENERGY     -4139.674838186388

DIPOLE MOMENT
-------------

Method             : SCF
Type of density    : Electron Density
Multiplicity       :   1
Irrep              :   0
Energy             : -4139.6859223012879738 Eh
Relativity type    :
Basis              : AO
                                X                 Y                 Z
Electronic contribution:     -3.248473569      -4.549787883       0.481929777
Nuclear contribution   :      3.870352539       5.367922309      -0.530659686
                        -----------------------------------------
Total Dipole Moment    :      0.621878970       0.818134426      -0.048729909
                        -----------------------------------------
Magnitude (a.u.)       :      1.028810962
Magnitude (Debye)      :      2.615029647

Rotational constants in cm-1:             0.010297             0.003336             0.003260
Rotational constants in MHz :           308.691776           100.017055            97.738158

                             ****ORCA TERMINATED NORMALLY****
TOTAL RUN TIME: 0 days 0 hours 13 minutes 35 seconds 914 msec
