                         Program Version 6.0.0  -   RELEASE  -
|  1> ! r2scan-3c def2/J RI DEFGRID2 scfconv6 printgap
|  2> %output
|  3>     printlevel normal
|  4> end
|  5> * xyz 0 1
|  6> C -3.5588559615 0.3680370423 -0.2498570724
|  7> O -2.1789369326 0.4483069031 -0.6193100388
|  8> C -1.3070258322 -0.2433278717 0.1077181271
|  9> O -1.6333221773 -0.9380197241 1.0472205898
| 10> C 0.1089988022 -0.0141201829 -0.3591849441
| 11> C 0.9545782021 -1.2768657666 -0.189734872
| 12> C 2.4032792117 -1.0081694167 -0.5837407092
| 13> C 2.9837772921 0.131457084 0.2476669613
| 14> C 2.1453507701 1.393763802 0.0735584246
| 15> C 0.6971943981 1.1345682393 0.4767586432
| 16> H -3.698269057 0.7659583758 0.7558210813
| 17> H -3.8890183941 -0.6711378872 -0.2690743248
| 18> H -4.093391664 0.9629160431 -0.9834240245
| 19> H 0.0758444394 0.2898384112 -1.4087443643
| 20> H 0.9001691753 -1.5946859547 0.853556454
| 21> H 0.5398330257 -2.0799099073 -0.8023999905
| 22> H 2.9929898043 -1.9144099284 -0.4390816933
| 23> H 2.4458603253 -0.7436224276 -1.6423014606
| 24> H 2.9904537116 -0.15643706 1.300894623
| 25> H 4.0137523384 0.3251632668 -0.0555894276
| 26> H 2.5517085244 2.2001946403 0.6856726419
| 27> H 2.1783165297 1.7114194597 -0.9702965351
| 28> H 0.6505330819 0.8593896452 1.5330543079
| 29> H 0.0975387718 2.0352602034 0.3314039298
| 30> *
| 31>
| 32>                          ****END OF INPUT****

CARTESIAN COORDINATES (ANGSTROEM)
---------------------------------
  C     -3.558856    0.368037   -0.249857
  O     -2.178937    0.448307   -0.619310
  C     -1.307026   -0.243328    0.107718
  O     -1.633322   -0.938020    1.047221
  C      0.108999   -0.014120   -0.359185
  C      0.954578   -1.276866   -0.189735
  C      2.403279   -1.008169   -0.583741
  C      2.983777    0.131457    0.247667
  C      2.145351    1.393764    0.073558
  C      0.697194    1.134568    0.476759
  H     -3.698269    0.765958    0.755821
  H     -3.889018   -0.671138   -0.269074
  H     -4.093392    0.962916   -0.983424
  H      0.075844    0.289838   -1.408744
  H      0.900169   -1.594686    0.853556
  H      0.539833   -2.079910   -0.802400
  H      2.992990   -1.914410   -0.439082
  H      2.445860   -0.743622   -1.642301
  H      2.990454   -0.156437    1.300895
  H      4.013752    0.325163   -0.055589
  H      2.551709    2.200195    0.685673
  H      2.178317    1.711419   -0.970297
  H      0.650533    0.859390    1.533054
  H      0.097539    2.035260    0.331404

 Total Charge           Charge          ....    0
 Multiplicity           Mult            ....    1
 Number of Electrons    NEL             ....   78
 Basis Dimension        Dim             ....  270

ORBITAL ENERGIES
----------------

  NO   OCC          E(Eh)            E(eV)
   0   2.0000     -18.997685      -516.9533
   1   2.0000     -18.927902      -515.0544
   2   2.0000     -10.147916      -276.1388
   3   2.0000     -10.085467      -274.4395
   4   2.0000     -10.044451      -273.3234
   5   2.0000     -10.033253      -273.0187
   6   2.0000     -10.027622      -272.8655
   7   2.0000     -10.025551      -272.8091
   8   2.0000     -10.025113      -272.7972
   9   2.0000     -10.024466      -272.7796
  10   2.0000      -1.071360       -29.1532
  11   2.0000      -0.974553       -26.5189
  12   2.0000      -0.809280       -22.0216
  13   2.0000      -0.736764       -20.0484
  14   2.0000      -0.712756       -19.3951
  15   2.0000      -0.690434       -18.7877
  16   2.0000      -0.595051       -16.1921
  17   2.0000      -0.579816       -15.7776
  18   2.0000      -0.537141       -14.6163
  19   2.0000      -0.518152       -14.0996
  20   2.0000      -0.476406       -12.9637
  21   2.0000      -0.451397       -12.2831
  22   2.0000      -0.443899       -12.0791
  23   2.0000      -0.434249       -11.8165
  24   2.0000      -0.412050       -11.2125
  25   2.0000      -0.409183       -11.1344
  26   2.0000      -0.398078       -10.8322
  27   2.0000      -0.374949       -10.2029
  28   2.0000      -0.359553        -9.7839
  29   2.0000      -0.351335        -9.5603
  30   2.0000      -0.333631        -9.0786
  31   2.0000      -0.323623        -8.8062
  32   2.0000      -0.319420        -8.6919
  33   2.0000      -0.315383        -8.5820
  34   2.0000      -0.294530        -8.0146
  35   2.0000      -0.280617        -7.6360
  36   2.0000      -0.272875        -7.4253
  37   2.0000      -0.270388        -7.3576
  38   2.0000      -0.232580        -6.3288
  39   0.0000      -0.013545        -0.3686
  40   0.0000       0.063512         1.7283
  41   0.0000       0.091077         2.4783
  42   0.0000       0.097748         2.6599
  43   0.0000       0.108107         2.9417

MULLIKEN ATOMIC CHARGES
-----------------------
   0 C :   -0.297503
   1 O :   -0.187823
   2 C :    0.348207
   3 O :   -0.424790
   4 C :   -0.095478
   5 C :   -0.343890
   6 C :   -0.272423
   7 C :   -0.292229
   8 C :   -0.280775
   9 C :   -0.330760
  10 H :    0.159971
  11 H :    0.162688
  12 H :    0.150232
  13 H :    0.179987
  14 H :    0.177632
  15 H :    0.146484
  16 H :    0.148247
  17 H :    0.144416
  18 H :    0.145391
  19 H :    0.148565
  20 H :    0.148214
  21 H :    0.146940
  22 H :    0.170240
  23 H :    0.148456
Sum of atomic charges:    0.0000000

LOEWDIN ATOMIC CHARGES
----------------------
   0 C :   -0.045179
   1 O :   -0.602265
   2 C :    0.359815
   3 O :   -0.426491
   4 C :   -0.156160
   5 C :   -0.274230
   6 C :   -0.300445
   7 C :   -0.303347
   8 C :   -0.299191
   9 C :   -0.266978
  10 H :    0.175644
  11 H :    0.177572
  12 H :    0.175713
  13 H :    0.182056
  14 H :    0.173398
  15 H :    0.162916
  16 H :    0.156918
  17 H :    0.154912
  18 H :    0.156169
  19 H :    0.155274
  20 H :    0.157066
  21 H :    0.155799
  22 H :    0.167477
  23 H :    0.163559

  Mayer bond orders larger than 0.100000
B(  0-C ,  1-O ) :   0.8482 B(  0-C , 10-H ) :   0.9627 B(  0-C , 11-H ) :   0.9641
B(  0-C , 12-H ) :   0.9697 B(  1-O ,  2-C ) :   1.0577 B(  2-C ,  3-O ) :   1.8306
B(  2-C ,  4-C ) :   0.9389 B(  4-C ,  5-C ) :   0.9026 B(  4-C ,  9-C ) :   0.9257
B(  4-C , 13-H ) :   0.9625 B(  5-C ,  6-C ) :   0.8878 B(  5-C , 14-H ) :   0.9944
B(  5-C , 15-H ) :   0.9448 B(  6-C ,  7-C ) :   0.9154 B(  6-C , 16-H ) :   0.9457
B(  6-C , 17-H ) :   0.9918 B(  7-C ,  8-C ) :   0.9210 B(  7-C , 18-H ) :   0.9929
B(  7-C , 19-H ) :   0.9511 B(  8-C ,  9-C ) :   0.8937 B(  8-C , 20-H ) :   0.9437
B(  8-C , 21-H ) :   0.9966 B(  9-C , 22-H ) :   0.9939 B(  9-C , 23-H ) :   0.9313

Dispersion correction           -0.007536374
FINAL SINGLE POINT ENERGY      -463.637227324633

DIPOLE MOMENT
-------------

Method             : SCF
Type of density    : Electron Density
Multiplicity       :   1
Irrep              :   0
Energy             :  -463.6426990054021644 Eh
Relativity type    :
Basis              : AO
                                X                 Y                 Z
Electronic contribution:     -7.173765173      -1.352015863       0.510137290
Nuclear contribution   :      7.220203468       1.859632786      -1.035498527
                        -----------------------------------------
Total Dipole Moment    :      0.046438295       0.507616923      -0.525361237
                        -----------------------------------------
Magnitude (a.u.)       :      0.732008119
Magnitude (Debye)      :      1.860616772

Rotational constants in cm-1:             0.102629             0.024551             0.022314
Rotational constants in MHz :          3076.738569           736.017794           668.952791

                             ****ORCA TERMINATED NORMALLY****
TOTAL RUN TIME: 0 days 0 hours 0 minutes 31 seconds 735 msec
