                         Program Version 6.0.0  -   RELEASE  -
|  1> ! r2scan-3c def2/J RI DEFGRID2 scfconv6 printgap
|  2> %output
|  3>     printlevel normal
|  4> end
|  5> %cpcm
|  6>     smd true
|  7>     smdsolvent "water"
|  8> end
|  9> * xyz 0 1
| 10> C -3.5588559615 0.3680370423 -0.2498570724
| 11> O -2.1789369326 0.4483069031 -0.6193100388
| 12> C -1.3070258322 -0.2433278717 0.1077181271
| 13> O -1.6333221773 -0.9380197241 1.0472205898
| 14> C 0.1089988022 -0.0141201829 -0.3591849441
| 15> C 0.9545782021 -1.2768657666 -0.189734872
| 16> C 2.4032792117 -1.0081694167 -0.5837407092
| 17> C 2.9837772921 0.131457084 0.2476669613
| 18> C 2.1453507701 1.393763802 0.0735584246
| 19> C 0.6971943981 1.1345682393 0.4767586432
| 20> H -3.698269057 0.7659583758 0.7558210813
| 21> H -3.8890183941 -0.6711378872 -0.2690743248
| 22> H -4.093391664 0.9629160431 -0.9834240245
| 23> H 0.0758444394 0.2898384112 -1.4087443643
| 24> H 0.9001691753 -1.5946859547 0.853556454
| 25> H 0.5398330257 -2.0799099073 -0.8023999905
| 26> H 2.9929898043 -1.9144099284 -0.4390816933
| 27> H 2.4458603253 -0.7436224276 -1.6423014606
| 28> H 2.9904537116 -0.15643706 1.300894623
| 29> H 4.0137523384 0.3251632668 -0.0555894276
| 30> H 2.5517085244 2.2001946403 0.6856726419
| 31> H 2.1783165297 1.7114194597 -0.9702965351
| 32> H 0.6505330819 0.8593896452 1.5330543079
| 33> H 0.0975387718 2.0352602034 0.3314039298
| 34> *
| 35>
| 36>                          ****END OF INPUT****

CARTESIAN COORDINATES (ANGSTROEM)
---------------------------------
  C     -3.558856    0.368037   -0.249857
  O     -2.178937    0.448307   -0.619310
  C     -1.307026   -0.243328    0.107718
  O     -1.633322   -0.938020    1.047221
  C      0.108999   -0.014120   -0.359185
  C      0.954578   -1.276866   -0.189735
  C      2.403279   -1.008169   -0.583741
  C      2.983777    0.131457    0.247667
  C      2.145351    1.393764    0.073558
  C      0.697194    1.134568    0.476759
  H     -3.698269    0.765958    0.755821
  H     -3.889018   -0.671138   -0.269074
  H     -4.093392    0.962916   -0.983424
  H      0.075844    0.289838   -1.408744
  H      0.900169   -1.594686    0.853556
  H      0.539833   -2.079910   -0.802400
  H      2.992990   -1.914410   -0.439082
  H      2.445860   -0.743622   -1.642301
  H      2.990454   -0.156437    1.300895
  H      4.013752    0.325163   -0.055589
  H      2.551709    2.200195    0.685673
  H      2.178317    1.711419   -0.970297
  H      0.650533    0.859390    1.533054
  H      0.097539    2.035260    0.331404

 Total Charge           Charge          ....    0
 Multiplicity           Mult            ....    1
 Number of Electrons    NEL             ....   78
 Basis Dimension        Dim             ....  270

ORBITAL ENERGIES
----------------

  NO   OCC          E(Eh)            E(eV)
   0   2.0000     -19.004013      -517.1255
   1   2.0000     -18.944262      -515.4996
   2   2.0000     -10.159093      -276.4430
   3   2.0000     -10.076170      -274.1865
   4   2.0000     -10.040671      -273.2205
   5   2.0000     -10.025884      -272.8182
   6   2.0000     -10.020971      -272.6845
   7   2.0000     -10.017401      -272.5873
   8   2.0000     -10.016362      -272.5591
   9   2.0000     -10.014519      -272.5089
  10   2.0000      -1.079256       -29.3680
  11   2.0000      -0.988749       -26.9052
  12   2.0000      -0.803006       -21.8509
  13   2.0000      -0.732202       -19.9242
  14   2.0000      -0.705109       -19.1870
  15   2.0000      -0.685200       -18.6452
  16   2.0000      -0.589243       -16.0341
  17   2.0000      -0.572678       -15.5834
  18   2.0000      -0.532889       -14.5007
  19   2.0000      -0.513888       -13.9836
  20   2.0000      -0.475969       -12.9518
  21   2.0000      -0.455243       -12.3878
  22   2.0000      -0.451051       -12.2737
  23   2.0000      -0.429329       -11.6826
  24   2.0000      -0.404475       -11.0063
  25   2.0000      -0.402481       -10.9521
  26   2.0000      -0.397024       -10.8036
  27   2.0000      -0.373862       -10.1733
  28   2.0000      -0.353637        -9.6230
  29   2.0000      -0.343347        -9.3430
  30   2.0000      -0.331215        -9.0128
  31   2.0000      -0.325048        -8.8450
  32   2.0000      -0.313976        -8.5437
  33   2.0000      -0.307992        -8.3809
  34   2.0000      -0.286101        -7.7852
  35   2.0000      -0.282678        -7.6921
  36   2.0000      -0.273988        -7.4556
  37   2.0000      -0.264251        -7.1906
  38   2.0000      -0.246379        -6.7043
  39   0.0000      -0.022580        -0.6144
  40   0.0000       0.067245         1.8298
  41   0.0000       0.098853         2.6899
  42   0.0000       0.105716         2.8767
  43   0.0000       0.116380         3.1669

MULLIKEN ATOMIC CHARGES
-----------------------
   0 C :   -0.332187
   1 O :   -0.203968
   2 C :    0.390509
   3 O :   -0.509388
   4 C :   -0.088497
   5 C :   -0.355687
   6 C :   -0.295748
   7 C :   -0.308026
   8 C :   -0.297386
   9 C :   -0.334975
  10 H :    0.178756
  11 H :    0.177750
  12 H :    0.178436
  13 H :    0.195918
  14 H :    0.168138
  15 H :    0.161411
  16 H :    0.156577
  17 H :    0.157314
  18 H :    0.152856
  19 H :    0.156725
  20 H :    0.157870
  21 H :    0.159171
  22 H :    0.174755
  23 H :    0.159676
Sum of atomic charges:    0.0000000

LOEWDIN ATOMIC CHARGES
----------------------
   0 C :   -0.042667
   1 O :   -0.604508
   2 C :    0.369417
   3 O :   -0.487196
   4 C :   -0.153377
   5 C :   -0.277522
   6 C :   -0.300961
   7 C :   -0.305809
   8 C :   -0.299527
   9 C :   -0.266191
  10 H :    0.181822
  11 H :    0.182543
  12 H :    0.188109
  13 H :    0.190448
  14 H :    0.169279
  15 H :    0.166166
  16 H :    0.159158
  17 H :    0.159596
  18 H :    0.158066
  19 H :    0.157550
  20 H :    0.160150
  21 H :    0.159996
  22 H :    0.168238
  23 H :    0.167220

  Mayer bond orders larger than 0.100000
B(  0-C ,  1-O ) :   0.8284 B(  0-C , 10-H ) :   0.9572 B(  0-C , 11-H ) :   0.9585
B(  0-C , 12-H ) :   0.9594 B(  1-O ,  2-C ) :   1.0803 B(  2-C ,  3-O ) :   1.7667
B(  2-C ,  4-C ) :   0.9455 B(  4-C ,  5-C ) :   0.9036 B(  4-C ,  9-C ) :   0.9237
B(  4-C , 13-H ) :   0.9509 B(  5-C ,  6-C ) :   0.8968 B(  5-C , 14-H ) :   0.9921
B(  5-C , 15-H ) :   0.9427 B(  6-C ,  7-C ) :   0.9134 B(  6-C , 16-H ) :   0.9453
B(  6-C , 17-H ) :   0.9898 B(  7-C ,  8-C ) :   0.9173 B(  7-C , 18-H ) :   0.9916
B(  7-C , 19-H ) :   0.9501 B(  8-C ,  9-C ) :   0.8906 B(  8-C , 20-H ) :   0.9427
B(  8-C , 21-H ) :   0.9943 B(  9-C , 22-H ) :   0.9925 B(  9-C , 23-H ) :   0.9274

Dispersion correction           -0.007536374
FINAL SINGLE POINT ENERGY      -463.642576489802

DIPOLE MOMENT
-------------

Method             : SCF
Type of density    : Electron Density
Multiplicity       :   1
Irrep              :   0
Energy             :  -463.6480481705705756 Eh
Relativity type    :
Basis              : AO
                                X                 Y                 Z
Electronic contribution:     -7.123468269      -1.100840441       0.221805184
Nuclear contribution   :      7.220203468       1.859632786      -1.035498527
                        -----------------------------------------
Total Dipole Moment    :      0.096735199       0.758792345      -0.813693344
                        -----------------------------------------
Magnitude (a.u.)       :      1.116790212
Magnitude (Debye)      :      2.838655128

Rotational constants in cm-1:             0.102629             0.024551             0.022314
Rotational constants in MHz :          3076.738569           736.017794           668.952791

                             ****ORCA TERMINATED NORMALLY****
TOTAL RUN TIME: 0 days 0 hours 0 minutes 42 seconds 854 msec
