                         Program Version 6.0.0  -   RELEASE  -
|  1> ! pbe def2-sv(p) def2/J RI DEFGRID1 loosescf d4 GCP(DFT/SV(P)) printgap
|  2> %output
|  3>     printlevel normal
|  4> end
|  5> * xyz 0 1
|  6> C -2.4217014898 -1.0834481788 -0.3777919297
|  7> C -1.0803672662 -0.5970185081 0.1889294997
|  8> H -1.1467725989 -0.5972815397 1.2886988267
|  9> C -0.749129593 0.8287149978 -0.2801086826
| 10> H -0.7273923544 0.8443212687 -1.3814379937
| 11> C 0.6434255818 1.2267189051 0.2249627955
| 12> H 0.6169242987 1.2819029165 1.3267747436
| 13> C 1.6709550775 0.1674368185 -0.2046961775
| 14> H 1.7267155408 0.156616941 -1.299394944
| 15> C 1.1992098259 -1.215643616 0.290856808
| 16> H 1.1560034342 -1.2072860726 1.3949226657
| 17> O -0.0801081001 -1.4996040717 -0.2370760903
| 18> O 2.0563491663 -2.237693885 -0.0486564888
| 19> O 2.9605918867 0.4987262663 0.240392208
| 20> O 0.9527711643 2.4932449056 -0.305388299
| 21> O -1.74089099 1.6994450932 0.1993072253
| 22> O -3.5189803166 -0.5095730873 0.277454661
| 23> H -2.4909634916 -2.1624685514 -0.2250109921
| 24> H -2.4525295097 -0.8785486591 -1.4560369245
| 25> H 1.9998371769 -2.4145219365 -1.0007221796
| 26> H 3.0791356904 0.2351330493 1.1642359447
| 27> H 1.906271091 2.6432211026 -0.2145641599
| 28> H -1.4700980618 2.6095741221 0.0028523443
| 29> H -3.403539668 0.4555282543 0.2800802507
| 30> *
| 31>
| 32>                          ****END OF INPUT****

CARTESIAN COORDINATES (ANGSTROEM)
---------------------------------
  C     -2.421701   -1.083448   -0.377792
  C     -1.080367   -0.597019    0.188929
  H     -1.146773   -0.597282    1.288699
  C     -0.749130    0.828715   -0.280109
  H     -0.727392    0.844321   -1.381438
  C      0.643426    1.226719    0.224963
  H      0.616924    1.281903    1.326775
  C      1.670955    0.167437   -0.204696
  H      1.726716    0.156617   -1.299395
  C      1.199210   -1.215644    0.290857
  H      1.156003   -1.207286    1.394923
  O     -0.080108   -1.499604   -0.237076
  O      2.056349   -2.237694   -0.048656
  O      2.960592    0.498726    0.240392
  O      0.952771    2.493245   -0.305388
  O     -1.740891    1.699445    0.199307
  O     -3.518980   -0.509573    0.277455
  H     -2.490963   -2.162469   -0.225011
  H     -2.452530   -0.878549   -1.456037
  H      1.999837   -2.414522   -1.000722
  H      3.079136    0.235133    1.164236
  H      1.906271    2.643221   -0.214564
  H     -1.470098    2.609574    0.002852
  H     -3.403540    0.455528    0.280080

 Total Charge           Charge          ....    0
 Multiplicity           Mult            ....    1
 Number of Electrons    NEL             ....   96
 Basis Dimension        Dim             ....  192

ORBITAL ENERGIES
----------------

  NO   OCC          E(Eh)            E(eV)
   0   2.0000     -18.781427      -511.0686
   1   2.0000     -18.772947      -510.8379
   2   2.0000     -18.771892      -510.8091
   3   2.0000     -18.768513      -510.7172
   4   2.0000     -18.763622      -510.5841
   5   2.0000     -18.733375      -509.7610
   6   2.0000      -9.999267      -272.0939
   7   2.0000      -9.952639      -270.8251
   8   2.0000      -9.951976      -270.8070
   9   2.0000      -9.950718      -270.7728
  10   2.0000      -9.948529      -270.7132
  11   2.0000      -9.927089      -270.1298
  12   2.0000      -0.993500       -27.0345
  13   2.0000      -0.958976       -26.0951
  14   2.0000      -0.950433       -25.8626
  15   2.0000      -0.928839       -25.2750
  16   2.0000      -0.926046       -25.1990
  17   2.0000      -0.909539       -24.7498
  18   2.0000      -0.713067       -19.4035
  19   2.0000      -0.696210       -18.9448
  20   2.0000      -0.617037       -16.7904
  21   2.0000      -0.596287       -16.2258
  22   2.0000      -0.572216       -15.5708
  23   2.0000      -0.545558       -14.8454
  24   2.0000      -0.510797       -13.8995
  25   2.0000      -0.502221       -13.6661
  26   2.0000      -0.472540       -12.8585
  27   2.0000      -0.463828       -12.6214
  28   2.0000      -0.456410       -12.4196
  29   2.0000      -0.442141       -12.0313
  30   2.0000      -0.432968       -11.7816
  31   2.0000      -0.405911       -11.0454
  32   2.0000      -0.401784       -10.9331
  33   2.0000      -0.366638        -9.9767
  34   2.0000      -0.361697        -9.8423
  35   2.0000      -0.352764        -9.5992
  36   2.0000      -0.332051        -9.0356
  37   2.0000      -0.325084        -8.8460
  38   2.0000      -0.321113        -8.7379
  39   2.0000      -0.312701        -8.5090
  40   2.0000      -0.295378        -8.0376
  41   2.0000      -0.265808        -7.2330
  42   2.0000      -0.261212        -7.1079
  43   2.0000      -0.254122        -6.9150
  44   2.0000      -0.242699        -6.6042
  45   2.0000      -0.231847        -6.3089
  46   2.0000      -0.215319        -5.8591
  47   2.0000      -0.205500        -5.5919
  48   0.0000       0.005582         0.1519
  49   0.0000       0.016391         0.4460
  50   0.0000       0.024582         0.6689
  51   0.0000       0.049755         1.3539
  52   0.0000       0.055661         1.5146

MULLIKEN ATOMIC CHARGES
-----------------------
   0 C :    0.113734
   1 C :   -0.033658
   2 H :    0.065880
   3 C :    0.069738
   4 H :    0.057785
   5 C :    0.067568
   6 H :    0.041102
   7 C :    0.025932
   8 H :    0.057612
   9 C :    0.174366
  10 H :    0.042362
  11 O :   -0.302327
  12 O :   -0.365541
  13 O :   -0.408642
  14 O :   -0.425859
  15 O :   -0.429806
  16 O :   -0.447855
  17 H :    0.092555
  18 H :    0.060362
  19 H :    0.307904
  20 H :    0.304323
  21 H :    0.309546
  22 H :    0.321089
  23 H :    0.301830
Sum of atomic charges:   -0.0000000

LOEWDIN ATOMIC CHARGES
----------------------
   0 C :   -0.116658
   1 C :   -0.067819
   2 H :    0.107664
   3 C :   -0.069742
   4 H :    0.105794
   5 C :   -0.087094
   6 H :    0.097405
   7 C :   -0.103389
   8 H :    0.116019
   9 C :   -0.004355
  10 H :    0.092979
  11 O :   -0.148585
  12 O :   -0.283686
  13 O :   -0.308062
  14 O :   -0.329202
  15 O :   -0.312381
  16 O :   -0.340869
  17 H :    0.116785
  18 H :    0.095884
  19 H :    0.292886
  20 H :    0.289073
  21 H :    0.288077
  22 H :    0.295909
  23 H :    0.273367

  Mayer bond orders larger than 0.100000
B(  0-C ,  1-C ) :   1.0372 B(  0-C , 16-O ) :   1.0912 B(  0-C , 17-H ) :   0.9210
B(  0-C , 18-H ) :   0.9043 B(  1-C ,  2-H ) :   0.8771 B(  1-C ,  3-C ) :   1.0214
B(  1-C , 11-O ) :   0.9822 B(  3-C ,  4-H ) :   0.8665 B(  3-C ,  5-C ) :   1.0155
B(  3-C , 15-O ) :   1.0345 B(  5-C ,  6-H ) :   0.8708 B(  5-C ,  7-C ) :   0.9892
B(  5-C , 14-O ) :   1.0860 B(  7-C ,  8-H ) :   0.8565 B(  7-C ,  9-C ) :   0.9782
B(  7-C , 13-O ) :   1.0469 B(  9-C , 10-H ) :   0.8740 B(  9-C , 11-O ) :   1.0096
B(  9-C , 12-O ) :   1.1667 B( 12-O , 19-H ) :   0.8412 B( 13-O , 20-H ) :   0.8433
B( 14-O , 21-H ) :   0.8289 B( 15-O , 22-H ) :   0.8289 B( 16-O , 23-H ) :   0.8207

Dispersion correction           -0.023859655
FINAL SINGLE POINT ENERGY      -685.701811583106

DIPOLE MOMENT
-------------

Method             : SCF
Type of density    : Electron Density
Multiplicity       :   1
Irrep              :   0
Energy             :  -685.8328071177523952 Eh
Relativity type    :
Basis              : AO
                                X                 Y                 Z
Electronic contribution:      2.055428475      -0.233985084       0.025215315
Nuclear contribution   :     -1.122487189       0.913037137      -0.110340297
                        -----------------------------------------
Total Dipole Moment    :      0.932941286       0.679052053      -0.085124982
                        -----------------------------------------
Magnitude (a.u.)       :      1.157038200
Magnitude (Debye)      :      2.940957383

Rotational constants in cm-1:             0.043606             0.024422             0.016389
Rotational constants in MHz :          1307.261015           732.142332           491.340018

                             ****ORCA TERMINATED NORMALLY****
TOTAL RUN TIME: 0 days 0 hours 0 minutes 12 seconds 101 msec
