                         Program Version 6.0.0  -   RELEASE  -
|  1> ! r2scan-3c def2/J RI DEFGRID2 scfconv6 printgap
|  2> %output
|  3>     printlevel normal
|  4> end
|  5> * xyz 0 1
|  6> C -2.5617652369 -0.8667814577 0.2868655596
|  7> C -1.1306048495 -0.4299544056 0.6325117413
|  8> H -1.0183468119 -0.3787403939 1.7276164244
|  9> C -0.8237693821 0.9599016126 0.0353762441
| 10> H -1.0685368895 0.9520634017 -1.0320986248
| 11> C 0.6652999961 1.2891345176 0.2035960827
| 12> H 0.886794998 1.4144036827 1.2787256522
| 13> C 1.5314549044 0.1357670301 -0.3151077539
| 14> H 1.3852077652 0.0320066504 -1.4000939276
| 15> C 1.0965480314 -1.1789150813 0.3485159537
| 16> H 1.2760922508 -1.1020018499 1.4426413447
| 17> O -0.2680348734 -1.4291395471 0.1183154478
| 18> O 1.8320843965 -2.2049972213 -0.2089028446
| 19> O 2.8689358764 0.4426272776 -0.0148661991
| 20> O 0.945001613 2.4816177453 -0.4815501563
| 21> O -1.6536175225 1.9364008434 0.6024421712
| 22> O -2.7304730138 -1.081832199 -1.0885127058
| 23> H -3.2501324081 -0.0668474159 0.5637619539
| 24> H -2.8029300722 -1.7758029938 0.8516226967
| 25> H 1.465322175 -3.061642008 0.0602149782
| 26> H 3.4347103289 -0.2853905718 -0.3119276653
| 27> H 1.9034220689 2.6270754386 -0.4629404128
| 28> H -1.3376968988 2.1704747983 1.4876255113
| 29> H -2.0786466986 -1.7395791331 -1.3731790085
| 30> *
| 31>
| 32>                          ****END OF INPUT****

CARTESIAN COORDINATES (ANGSTROEM)
---------------------------------
  C     -2.561765   -0.866781    0.286866
  C     -1.130605   -0.429954    0.632512
  H     -1.018347   -0.378740    1.727616
  C     -0.823769    0.959902    0.035376
  H     -1.068537    0.952063   -1.032099
  C      0.665300    1.289135    0.203596
  H      0.886795    1.414404    1.278726
  C      1.531455    0.135767   -0.315108
  H      1.385208    0.032007   -1.400094
  C      1.096548   -1.178915    0.348516
  H      1.276092   -1.102002    1.442641
  O     -0.268035   -1.429140    0.118315
  O      1.832084   -2.204997   -0.208903
  O      2.868936    0.442627   -0.014866
  O      0.945002    2.481618   -0.481550
  O     -1.653618    1.936401    0.602442
  O     -2.730473   -1.081832   -1.088513
  H     -3.250132   -0.066847    0.563762
  H     -2.802930   -1.775803    0.851623
  H      1.465322   -3.061642    0.060215
  H      3.434710   -0.285391   -0.311928
  H      1.903422    2.627075   -0.462940
  H     -1.337697    2.170475    1.487626
  H     -2.078647   -1.739579   -1.373179

 Total Charge           Charge          ....    0
 Multiplicity           Mult            ....    1
 Number of Electrons    NEL             ....   96
 Basis Dimension        Dim             ....  318

ORBITAL ENERGIES
----------------

  NO   OCC          E(Eh)            E(eV)
   0   2.0000     -18.983021      -516.5543
   1   2.0000     -18.982623      -516.5434
   2   2.0000     -18.971161      -516.2315
   3   2.0000     -18.960116      -515.9310
   4   2.0000     -18.954955      -515.7905
   5   2.0000     -18.950329      -515.6647
   6   2.0000     -10.149556      -276.1835
   7   2.0000     -10.097834      -274.7760
   8   2.0000     -10.096319      -274.7348
   9   2.0000     -10.096024      -274.7268
  10   2.0000     -10.090425      -274.5744
  11   2.0000     -10.080500      -274.3043
  12   2.0000      -1.064908       -28.9776
  13   2.0000      -1.016332       -27.6558
  14   2.0000      -1.010456       -27.4959
  15   2.0000      -0.997230       -27.1360
  16   2.0000      -0.986248       -26.8372
  17   2.0000      -0.983837       -26.7716
  18   2.0000      -0.754222       -20.5234
  19   2.0000      -0.741976       -20.1902
  20   2.0000      -0.662753       -18.0344
  21   2.0000      -0.622709       -16.9448
  22   2.0000      -0.596127       -16.2214
  23   2.0000      -0.569425       -15.4948
  24   2.0000      -0.539853       -14.6902
  25   2.0000      -0.516182       -14.0460
  26   2.0000      -0.493889       -13.4394
  27   2.0000      -0.488944       -13.3049
  28   2.0000      -0.469755       -12.7827
  29   2.0000      -0.456268       -12.4157
  30   2.0000      -0.443371       -12.0647
  31   2.0000      -0.435845       -11.8600
  32   2.0000      -0.413810       -11.2603
  33   2.0000      -0.393879       -10.7180
  34   2.0000      -0.380076       -10.3424
  35   2.0000      -0.373325       -10.1587
  36   2.0000      -0.356879        -9.7112
  37   2.0000      -0.356074        -9.6893
  38   2.0000      -0.334028        -9.0894
  39   2.0000      -0.325875        -8.8675
  40   2.0000      -0.301029        -8.1914
  41   2.0000      -0.294556        -8.0153
  42   2.0000      -0.287568        -7.8251
  43   2.0000      -0.271732        -7.3942
  44   2.0000      -0.256699        -6.9851
  45   2.0000      -0.251141        -6.8339
  46   2.0000      -0.241849        -6.5810
  47   2.0000      -0.226731        -6.1697
  48   0.0000       0.032045         0.8720
  49   0.0000       0.039915         1.0861
  50   0.0000       0.052634         1.4323
  51   0.0000       0.067184         1.8282
  52   0.0000       0.083582         2.2744

MULLIKEN ATOMIC CHARGES
-----------------------
   0 C :   -0.242549
   1 C :    0.098776
   2 H :    0.160869
   3 C :   -0.227921
   4 H :    0.205804
   5 C :   -0.030625
   6 H :    0.154721
   7 C :    0.066697
   8 H :    0.172329
   9 C :   -0.050901
  10 H :    0.140811
  11 O :   -0.227041
  12 O :   -0.403118
  13 O :   -0.443218
  14 O :   -0.410671
  15 O :   -0.384431
  16 O :   -0.421885
  17 H :    0.160299
  18 H :    0.137617
  19 H :    0.310283
  20 H :    0.314097
  21 H :    0.314181
  22 H :    0.297411
  23 H :    0.308467
Sum of atomic charges:   -0.0000000

LOEWDIN ATOMIC CHARGES
----------------------
   0 C :    0.041514
   1 C :    0.103750
   2 H :    0.180359
   3 C :    0.107647
   4 H :    0.211647
   5 C :    0.107522
   6 H :    0.177209
   7 C :    0.118606
   8 H :    0.190251
   9 C :    0.296580
  10 H :    0.178890
  11 O :   -0.694044
  12 O :   -0.502614
  13 O :   -0.573141
  14 O :   -0.557598
  15 O :   -0.557072
  16 O :   -0.588145
  17 H :    0.196894
  18 H :    0.163342
  19 H :    0.285467
  20 H :    0.283551
  21 H :    0.282724
  22 H :    0.271719
  23 H :    0.274943

  Mayer bond orders larger than 0.100000
B(  0-C ,  1-C ) :   0.9448 B(  0-C , 16-O ) :   1.0345 B(  0-C , 17-H ) :   0.9615
B(  0-C , 18-H ) :   0.9804 B(  1-C ,  2-H ) :   0.9182 B(  1-C ,  3-C ) :   0.8067
B(  1-C , 11-O ) :   0.7479 B(  1-C , 16-O ) :  -0.1170 B(  3-C ,  4-H ) :   0.9890
B(  3-C ,  5-C ) :   0.9252 B(  3-C , 15-O ) :   1.0164 B(  5-C ,  6-H ) :   0.9695
B(  5-C ,  7-C ) :   0.8610 B(  5-C , 14-O ) :   0.9044 B(  7-C ,  8-H ) :   0.9725
B(  7-C ,  9-C ) :   0.7929 B(  7-C , 13-O ) :   0.9133 B(  9-C , 10-H ) :   1.0100
B(  9-C , 11-O ) :   0.9410 B(  9-C , 12-O ) :   1.0436 B( 12-O , 19-H ) :   0.8787
B( 13-O , 20-H ) :   0.8812 B( 14-O , 21-H ) :   0.8758 B( 15-O , 22-H ) :   0.8877
B( 16-O , 23-H ) :   0.8754

Dispersion correction           -0.008061699
FINAL SINGLE POINT ENERGY      -687.075777778716

DIPOLE MOMENT
-------------

Method             : SCF
Type of density    : Electron Density
Multiplicity       :   1
Irrep              :   0
Energy             :  -687.0871508702172150 Eh
Relativity type    :
Basis              : AO
                                X                 Y                 Z
Electronic contribution:      1.992195047       0.103700466      -1.628111508
Nuclear contribution   :     -1.115527178      -1.136776815       2.640971568
                        -----------------------------------------
Total Dipole Moment    :      0.876667870      -1.033076349       1.012860061
                        -----------------------------------------
Magnitude (a.u.)       :      1.691649727
Magnitude (Debye)      :      4.299831893

Rotational constants in cm-1:             0.038916             0.027269             0.017824
Rotational constants in MHz :          1166.687177           817.513820           534.357824

                             ****ORCA TERMINATED NORMALLY****
TOTAL RUN TIME: 0 days 0 hours 0 minutes 48 seconds 393 msec
