                         Program Version 6.0.0  -   RELEASE  -
|  1> ! r2scan-3c def2/J RI DEFGRID2 scfconv6 printgap
|  2> %output
|  3>     printlevel normal
|  4> end
|  5> %cpcm
|  6>     smd true
|  7>     smdsolvent "water"
|  8> end
|  9> * xyz 0 1
| 10> C -2.5617652369 -0.8667814577 0.2868655596
| 11> C -1.1306048495 -0.4299544056 0.6325117413
| 12> H -1.0183468119 -0.3787403939 1.7276164244
| 13> C -0.8237693821 0.9599016126 0.0353762441
| 14> H -1.0685368895 0.9520634017 -1.0320986248
| 15> C 0.6652999961 1.2891345176 0.2035960827
| 16> H 0.886794998 1.4144036827 1.2787256522
| 17> C 1.5314549044 0.1357670301 -0.3151077539
| 18> H 1.3852077652 0.0320066504 -1.4000939276
| 19> C 1.0965480314 -1.1789150813 0.3485159537
| 20> H 1.2760922508 -1.1020018499 1.4426413447
| 21> O -0.2680348734 -1.4291395471 0.1183154478
| 22> O 1.8320843965 -2.2049972213 -0.2089028446
| 23> O 2.8689358764 0.4426272776 -0.0148661991
| 24> O 0.945001613 2.4816177453 -0.4815501563
| 25> O -1.6536175225 1.9364008434 0.6024421712
| 26> O -2.7304730138 -1.081832199 -1.0885127058
| 27> H -3.2501324081 -0.0668474159 0.5637619539
| 28> H -2.8029300722 -1.7758029938 0.8516226967
| 29> H 1.465322175 -3.061642008 0.0602149782
| 30> H 3.4347103289 -0.2853905718 -0.3119276653
| 31> H 1.9034220689 2.6270754386 -0.4629404128
| 32> H -1.3376968988 2.1704747983 1.4876255113
| 33> H -2.0786466986 -1.7395791331 -1.3731790085
| 34> *
| 35>
| 36>                          ****END OF INPUT****

CARTESIAN COORDINATES (ANGSTROEM)
---------------------------------
  C     -2.561765   -0.866781    0.286866
  C     -1.130605   -0.429954    0.632512
  H     -1.018347   -0.378740    1.727616
  C     -0.823769    0.959902    0.035376
  H     -1.068537    0.952063   -1.032099
  C      0.665300    1.289135    0.203596
  H      0.886795    1.414404    1.278726
  C      1.531455    0.135767   -0.315108
  H      1.385208    0.032007   -1.400094
  C      1.096548   -1.178915    0.348516
  H      1.276092   -1.102002    1.442641
  O     -0.268035   -1.429140    0.118315
  O      1.832084   -2.204997   -0.208903
  O      2.868936    0.442627   -0.014866
  O      0.945002    2.481618   -0.481550
  O     -1.653618    1.936401    0.602442
  O     -2.730473   -1.081832   -1.088513
  H     -3.250132   -0.066847    0.563762
  H     -2.802930   -1.775803    0.851623
  H      1.465322   -3.061642    0.060215
  H      3.434710   -0.285391   -0.311928
  H      1.903422    2.627075   -0.462940
  H     -1.337697    2.170475    1.487626
  H     -2.078647   -1.739579   -1.373179

 Total Charge           Charge          ....    0
 Multiplicity           Mult            ....    1
 Number of Electrons    NEL             ....   96
 Basis Dimension        Dim             ....  318

ORBITAL ENERGIES
----------------

  NO   OCC          E(Eh)            E(eV)
   0   2.0000     -18.974826      -516.3313
   1   2.0000     -18.969824      -516.1952
   2   2.0000     -18.964215      -516.0425
   3   2.0000     -18.961319      -515.9637
   4   2.0000     -18.959511      -515.9145
   5   2.0000     -18.955963      -515.8180
   6   2.0000     -10.136558      -275.8298
   7   2.0000     -10.088983      -274.5352
   8   2.0000     -10.087721      -274.5009
   9   2.0000     -10.087390      -274.4918
  10   2.0000     -10.086977      -274.4806
  11   2.0000     -10.075627      -274.1717
  12   2.0000      -1.054694       -28.6997
  13   2.0000      -1.013939       -27.5907
  14   2.0000      -1.006544       -27.3895
  15   2.0000      -0.995290       -27.0832
  16   2.0000      -0.986861       -26.8538
  17   2.0000      -0.980931       -26.6925
  18   2.0000      -0.747944       -20.3526
  19   2.0000      -0.733448       -19.9581
  20   2.0000      -0.656449       -17.8629
  21   2.0000      -0.615084       -16.7373
  22   2.0000      -0.591416       -16.0933
  23   2.0000      -0.560629       -15.2555
  24   2.0000      -0.530253       -14.4289
  25   2.0000      -0.508982       -13.8501
  26   2.0000      -0.486339       -13.2339
  27   2.0000      -0.479928       -13.0595
  28   2.0000      -0.465597       -12.6695
  29   2.0000      -0.451346       -12.2817
  30   2.0000      -0.440185       -11.9781
  31   2.0000      -0.430341       -11.7102
  32   2.0000      -0.408639       -11.1196
  33   2.0000      -0.393242       -10.7006
  34   2.0000      -0.376440       -10.2435
  35   2.0000      -0.371604       -10.1119
  36   2.0000      -0.352954        -9.6044
  37   2.0000      -0.351346        -9.5606
  38   2.0000      -0.338362        -9.2073
  39   2.0000      -0.323391        -8.7999
  40   2.0000      -0.301896        -8.2150
  41   2.0000      -0.293560        -7.9882
  42   2.0000      -0.280838        -7.6420
  43   2.0000      -0.267726        -7.2852
  44   2.0000      -0.257444        -7.0054
  45   2.0000      -0.251327        -6.8390
  46   2.0000      -0.244257        -6.6466
  47   2.0000      -0.223218        -6.0741
  48   0.0000       0.043495         1.1836
  49   0.0000       0.061540         1.6746
  50   0.0000       0.070214         1.9106
  51   0.0000       0.083268         2.2658
  52   0.0000       0.099895         2.7183

MULLIKEN ATOMIC CHARGES
-----------------------
   0 C :   -0.245381
   1 C :    0.087915
   2 H :    0.194345
   3 C :   -0.187837
   4 H :    0.198546
   5 C :   -0.015276
   6 H :    0.184171
   7 C :    0.055245
   8 H :    0.185553
   9 C :   -0.060248
  10 H :    0.167926
  11 O :   -0.259917
  12 O :   -0.454008
  13 O :   -0.494790
  14 O :   -0.488554
  15 O :   -0.470928
  16 O :   -0.494817
  17 H :    0.165704
  18 H :    0.157790
  19 H :    0.358768
  20 H :    0.353463
  21 H :    0.352816
  22 H :    0.358481
  23 H :    0.351032
Sum of atomic charges:   -0.0000000

LOEWDIN ATOMIC CHARGES
----------------------
   0 C :    0.040507
   1 C :    0.112480
   2 H :    0.197933
   3 C :    0.105273
   4 H :    0.207563
   5 C :    0.110175
   6 H :    0.193341
   7 C :    0.118418
   8 H :    0.194088
   9 C :    0.300238
  10 H :    0.191139
  11 O :   -0.701303
  12 O :   -0.517777
  13 O :   -0.589917
  14 O :   -0.594828
  15 O :   -0.589222
  16 O :   -0.625322
  17 H :    0.196999
  18 H :    0.173924
  19 H :    0.302526
  20 H :    0.296869
  21 H :    0.295840
  22 H :    0.292527
  23 H :    0.288530

  Mayer bond orders larger than 0.100000
B(  0-C ,  1-C ) :   0.9409 B(  0-C , 16-O ) :   1.0089 B(  0-C , 17-H ) :   0.9638
B(  0-C , 18-H ) :   0.9693 B(  1-C ,  2-H ) :   0.9136 B(  1-C ,  3-C ) :   0.8363
B(  1-C , 11-O ) :   0.7554 B(  1-C , 16-O ) :  -0.1023 B(  3-C ,  4-H ) :   0.9864
B(  3-C ,  5-C ) :   0.9203 B(  3-C , 15-O ) :   0.9908 B(  5-C ,  6-H ) :   0.9569
B(  5-C ,  7-C ) :   0.8904 B(  5-C , 14-O ) :   0.8858 B(  7-C ,  8-H ) :   0.9596
B(  7-C ,  9-C ) :   0.8118 B(  7-C , 13-O ) :   0.8962 B(  9-C , 10-H ) :   1.0048
B(  9-C , 11-O ) :   0.9512 B(  9-C , 12-O ) :   1.0426 B( 12-O , 19-H ) :   0.8541
B( 13-O , 20-H ) :   0.8611 B( 14-O , 21-H ) :   0.8574 B( 15-O , 22-H ) :   0.8585
B( 16-O , 23-H ) :   0.8540

Dispersion correction           -0.008061699
FINAL SINGLE POINT ENERGY      -687.110715499657

DIPOLE MOMENT
-------------

Method             : SCF
Type of density    : Electron Density
Multiplicity       :   1
Irrep              :   0
Energy             :  -687.1220885911584446 Eh
Relativity type    :
Basis              : AO
                                X                 Y                 Z
Electronic contribution:      2.330853212      -0.341751409      -1.004069991
Nuclear contribution   :     -1.115527178      -1.136776815       2.640971568
                        -----------------------------------------
Total Dipole Moment    :      1.215326034      -1.478528225       1.636901577
                        -----------------------------------------
Magnitude (a.u.)       :      2.518434008
Magnitude (Debye)      :      6.401350526

Rotational constants in cm-1:             0.038916             0.027269             0.017824
Rotational constants in MHz :          1166.687177           817.513820           534.357824

                             ****ORCA TERMINATED NORMALLY****
TOTAL RUN TIME: 0 days 0 hours 0 minutes 58 seconds 97 msec
