                         Program Version 6.0.0  -   RELEASE  -
|  1> ! wb97x-v def2-tzvp def2/J RIJCOSX DEFGRID2 scfconv7 GCP(DFT/TZ) printgap
|  2> %output
|  3>     printlevel normal
|  4> end
|  5> * xyz 0 1
|  6> C -1.8605367386237326 -2.1821618744794486 -6.159940236408493e-05
|  7> C -1.3983851762266237 -0.7540471354486227 -2.396312478827005e-05
|  8> C -2.312695323862125 0.27969916317087795 4.569693694586492e-06
|  9> C -1.9063625515147724 1.6312764673963884 4.781195890918338e-05
| 10> C -0.5725282526026678 1.955840737002094 2.514759760676258e-05
| 11> C 0.40823832986839137 0.9333306068796742 -4.015637640698611e-06
| 12> C -0.0036760909077483287 -0.43968124592258656 6.878639383180865e-06
| 13> C 0.9987657770513105 -1.442574754254656 5.463475924321397e-05
| 14> C 2.3345446660694917 -1.11082931985893 4.668671909196657e-05
| 15> C 2.736388938544491 0.241364747819024 -1.4186208926706327e-05
| 16> C 1.791586454815023 1.2399466052569588 -3.403328065563924e-05
| 17> H -2.951700228878631 -2.231055702621357 -0.0005261771420761309
| 18> H -1.4935092514467192 -2.721933127371064 -0.8803695031350492
| 19> H -1.4942817091730558 -2.7217184878787877 0.8807072096379931
| 20> H -3.373937313952214 0.04698955558981165 -1.761594056489796e-05
| 21> H -2.659595243222868 2.413241387467351 8.016614845354783e-05
| 22> H -0.24913712421257236 2.9929634927057363 3.370440960304191e-05
| 23> H 0.7078545584872539 -2.4874005864445397 0.0001087452797321164
| 24> H 3.0864459018952646 -1.8939140936079415 8.996107227380015e-05
| 25> H 3.793299886109121 0.4889582433245882 -4.901940637961892e-05
| 26> H 2.091380349052383 2.284441089759125 -7.255051117885367e-05
| 27> *
| 28>
| 29>                          ****END OF INPUT****

CARTESIAN COORDINATES (ANGSTROEM)
---------------------------------
  C     -1.860537   -2.182162   -0.000062
  C     -1.398385   -0.754047   -0.000024
  C     -2.312695    0.279699    0.000005
  C     -1.906363    1.631276    0.000048
  C     -0.572528    1.955841    0.000025
  C      0.408238    0.933331   -0.000004
  C     -0.003676   -0.439681    0.000007
  C      0.998766   -1.442575    0.000055
  C      2.334545   -1.110829    0.000047
  C      2.736389    0.241365   -0.000014
  C      1.791586    1.239947   -0.000034
  H     -2.951700   -2.231056   -0.000526
  H     -1.493509   -2.721933   -0.880370
  H     -1.494282   -2.721718    0.880707
  H     -3.373937    0.046990   -0.000018
  H     -2.659595    2.413241    0.000080
  H     -0.249137    2.992963    0.000034
  H      0.707855   -2.487401    0.000109
  H      3.086446   -1.893914    0.000090
  H      3.793300    0.488958   -0.000049
  H      2.091380    2.284441   -0.000073

 Total Charge           Charge          ....    0
 Multiplicity           Mult            ....    1
 Number of Electrons    NEL             ....   76
 Basis Dimension        Dim             ....  401

ORBITAL ENERGIES
----------------

  NO   OCC          E(Eh)            E(eV)
   0   2.0000     -12.062450      -328.2359
   1   2.0000     -12.060870      -328.1930
   2   2.0000     -12.058852      -328.1381
   3   2.0000     -12.053674      -327.9971
   4   2.0000     -12.053086      -327.9812
   5   2.0000     -12.051576      -327.9401
   6   2.0000     -12.051435      -327.9362
   7   2.0000     -12.050400      -327.9081
   8   2.0000     -12.049045      -327.8712
   9   2.0000     -12.047526      -327.8298
  10   2.0000     -12.045277      -327.7687
  11   2.0000      -1.401759       -38.1438
  12   2.0000      -1.349840       -36.7310
  13   2.0000      -1.311799       -35.6959
  14   2.0000      -1.268773       -34.5251
  15   2.0000      -1.259044       -34.2603
  16   2.0000      -1.193955       -32.4892
  17   2.0000      -1.126912       -30.6648
  18   2.0000      -1.123131       -30.5620
  19   2.0000      -1.070498       -29.1297
  20   2.0000      -0.999623       -27.2011
  21   2.0000      -0.978786       -26.6341
  22   2.0000      -0.970235       -26.4014
  23   2.0000      -0.913994       -24.8710
  24   2.0000      -0.905296       -24.6344
  25   2.0000      -0.895364       -24.3641
  26   2.0000      -0.876339       -23.8464
  27   2.0000      -0.859907       -23.3993
  28   2.0000      -0.841774       -22.9058
  29   2.0000      -0.833652       -22.6848
  30   2.0000      -0.828354       -22.5406
  31   2.0000      -0.806813       -21.9545
  32   2.0000      -0.796089       -21.6627
  33   2.0000      -0.788511       -21.4565
  34   2.0000      -0.723563       -19.6892
  35   2.0000      -0.674955       -18.3665
  36   2.0000      -0.627476       -17.0745
  37   2.0000      -0.595131       -16.1943
  38   0.0000      -0.282344        -7.6830
  39   0.0000      -0.255348        -6.9484
  40   0.0000      -0.197429        -5.3723
  41   0.0000      -0.128649        -3.5007
  42   0.0000      -0.047538        -1.2936

MULLIKEN ATOMIC CHARGES
-----------------------
   0 C :   -0.379868
   1 C :    0.104691
   2 C :   -0.175945
   3 C :   -0.102907
   4 C :   -0.234936
   5 C :    0.189504
   6 C :    0.076251
   7 C :   -0.228357
   8 C :   -0.136627
   9 C :   -0.101566
  10 C :   -0.198189
  11 H :    0.118518
  12 H :    0.130349
  13 H :    0.130368
  14 H :    0.108096
  15 H :    0.114955
  16 H :    0.110733
  17 H :    0.129125
  18 H :    0.116090
  19 H :    0.117051
  20 H :    0.112665
Sum of atomic charges:   -0.0000000

LOEWDIN ATOMIC CHARGES
----------------------
   0 C :   -0.251096
   1 C :   -0.129993
   2 C :   -0.119982
   3 C :   -0.140191
   4 C :   -0.106808
   5 C :   -0.089770
   6 C :   -0.064270
   7 C :   -0.101854
   8 C :   -0.140183
   9 C :   -0.141745
  10 C :   -0.099812
  11 H :    0.125629
  12 H :    0.127604
  13 H :    0.127611
  14 H :    0.142932
  15 H :    0.142004
  16 H :    0.144368
  17 H :    0.147034
  18 H :    0.141683
  19 H :    0.141657
  20 H :    0.145181

  Mayer bond orders larger than 0.100000
B(  0-C ,  1-C ) :   0.9236 B(  0-C , 11-H ) :   0.9872 B(  0-C , 12-H ) :   0.9812
B(  0-C , 13-H ) :   0.9812 B(  1-C ,  2-C ) :   1.5769 B(  1-C ,  6-C ) :   1.1735
B(  2-C ,  3-C ) :   1.2615 B(  2-C , 14-H ) :   0.9697 B(  3-C ,  4-C ) :   1.5736
B(  3-C , 15-H ) :   0.9812 B(  4-C ,  5-C ) :   1.2058 B(  4-C , 16-H ) :   0.9833
B(  5-C ,  6-C ) :   1.2855 B(  5-C , 10-C ) :   1.2277 B(  6-C ,  7-C ) :   1.2147
B(  7-C ,  8-C ) :   1.5986 B(  7-C , 17-H ) :   0.9663 B(  8-C ,  9-C ) :   1.2785
B(  8-C , 18-H ) :   0.9752 B(  9-C , 10-C ) :   1.5647 B(  9-C , 19-H ) :   0.9762
B( 10-C , 20-H ) :   0.9795

FINAL SINGLE POINT ENERGY      -425.221836729613

DIPOLE MOMENT
-------------

Method             : SCF
Type of density    : Electron Density
Multiplicity       :   1
Irrep              :   0
Energy             :  -425.2329516060133869 Eh
Relativity type    :
Basis              : AO
                                X                 Y                 Z
Electronic contribution:      2.339440951       3.489893785       0.000060645
Nuclear contribution   :     -2.387464050      -3.617075502      -0.000051127
                        -----------------------------------------
Total Dipole Moment    :     -0.048023099      -0.127181717       0.000009518
                        -----------------------------------------
Magnitude (a.u.)       :      0.135946340
Magnitude (Debye)      :      0.345548134

Rotational constants in cm-1:             0.063277             0.037683             0.023722
Rotational constants in MHz :          1897.008233          1129.694887           711.159279

                             ****ORCA TERMINATED NORMALLY****
TOTAL RUN TIME: 0 days 0 hours 5 minutes 30 seconds 305 msec
