                         Program Version 6.0.0  -   RELEASE  -
|  1> ! wb97x-v def2-tzvp def2/J RIJCOSX DEFGRID2 scfconv7 GCP(DFT/TZ) printgap
|  2> %output
|  3>     printlevel normal
|  4> end
|  5> %cpcm
|  6>     smd true
|  7>     smdsolvent "water"
|  8> end
|  9> * xyz 0 1
| 10> C -1.8605367386237326 -2.1821618744794486 -6.159940236408493e-05
| 11> C -1.3983851762266237 -0.7540471354486227 -2.396312478827005e-05
| 12> C -2.312695323862125 0.27969916317087795 4.569693694586492e-06
| 13> C -1.9063625515147724 1.6312764673963884 4.781195890918338e-05
| 14> C -0.5725282526026678 1.955840737002094 2.514759760676258e-05
| 15> C 0.40823832986839137 0.9333306068796742 -4.015637640698611e-06
| 16> C -0.0036760909077483287 -0.43968124592258656 6.878639383180865e-06
| 17> C 0.9987657770513105 -1.442574754254656 5.463475924321397e-05
| 18> C 2.3345446660694917 -1.11082931985893 4.668671909196657e-05
| 19> C 2.736388938544491 0.241364747819024 -1.4186208926706327e-05
| 20> C 1.791586454815023 1.2399466052569588 -3.403328065563924e-05
| 21> H -2.951700228878631 -2.231055702621357 -0.0005261771420761309
| 22> H -1.4935092514467192 -2.721933127371064 -0.8803695031350492
| 23> H -1.4942817091730558 -2.7217184878787877 0.8807072096379931
| 24> H -3.373937313952214 0.04698955558981165 -1.761594056489796e-05
| 25> H -2.659595243222868 2.413241387467351 8.016614845354783e-05
| 26> H -0.24913712421257236 2.9929634927057363 3.370440960304191e-05
| 27> H 0.7078545584872539 -2.4874005864445397 0.0001087452797321164
| 28> H 3.0864459018952646 -1.8939140936079415 8.996107227380015e-05
| 29> H 3.793299886109121 0.4889582433245882 -4.901940637961892e-05
| 30> H 2.091380349052383 2.284441089759125 -7.255051117885367e-05
| 31> *
| 32>
| 33>                          ****END OF INPUT****

CARTESIAN COORDINATES (ANGSTROEM)
---------------------------------
  C     -1.860537   -2.182162   -0.000062
  C     -1.398385   -0.754047   -0.000024
  C     -2.312695    0.279699    0.000005
  C     -1.906363    1.631276    0.000048
  C     -0.572528    1.955841    0.000025
  C      0.408238    0.933331   -0.000004
  C     -0.003676   -0.439681    0.000007
  C      0.998766   -1.442575    0.000055
  C      2.334545   -1.110829    0.000047
  C      2.736389    0.241365   -0.000014
  C      1.791586    1.239947   -0.000034
  H     -2.951700   -2.231056   -0.000526
  H     -1.493509   -2.721933   -0.880370
  H     -1.494282   -2.721718    0.880707
  H     -3.373937    0.046990   -0.000018
  H     -2.659595    2.413241    0.000080
  H     -0.249137    2.992963    0.000034
  H      0.707855   -2.487401    0.000109
  H      3.086446   -1.893914    0.000090
  H      3.793300    0.488958   -0.000049
  H      2.091380    2.284441   -0.000073

 Total Charge           Charge          ....    0
 Multiplicity           Mult            ....    1
 Number of Electrons    NEL             ....   76
 Basis Dimension        Dim             ....  401

ORBITAL ENERGIES
----------------

  NO   OCC          E(Eh)            E(eV)
   0   2.0000     -12.061973      -328.2230
   1   2.0000     -12.061350      -328.2060
   2   2.0000     -12.059303      -328.1503
   3   2.0000     -12.051531      -327.9388
   4   2.0000     -12.051003      -327.9245
   5   2.0000     -12.049593      -327.8861
   6   2.0000     -12.049445      -327.8821
   7   2.0000     -12.048252      -327.8496
   8   2.0000     -12.047026      -327.8162
   9   2.0000     -12.044798      -327.7556
  10   2.0000     -12.034269      -327.4691
  11   2.0000      -1.402425       -38.1619
  12   2.0000      -1.349391       -36.7188
  13   2.0000      -1.310705       -35.6661
  14   2.0000      -1.268629       -34.5211
  15   2.0000      -1.257213       -34.2105
  16   2.0000      -1.188393       -32.3378
  17   2.0000      -1.125227       -30.6190
  18   2.0000      -1.122034       -30.5321
  19   2.0000      -1.068130       -29.0653
  20   2.0000      -0.997335       -27.1389
  21   2.0000      -0.977074       -26.5875
  22   2.0000      -0.968415       -26.3519
  23   2.0000      -0.911287       -24.7974
  24   2.0000      -0.902862       -24.5681
  25   2.0000      -0.890700       -24.2372
  26   2.0000      -0.871845       -23.7241
  27   2.0000      -0.855856       -23.2890
  28   2.0000      -0.833859       -22.6905
  29   2.0000      -0.829705       -22.5774
  30   2.0000      -0.821888       -22.3647
  31   2.0000      -0.799982       -21.7686
  32   2.0000      -0.792646       -21.5690
  33   2.0000      -0.788978       -21.4692
  34   2.0000      -0.724336       -19.7102
  35   2.0000      -0.675712       -18.3871
  36   2.0000      -0.629227       -17.1221
  37   2.0000      -0.595440       -16.2028
  38   0.0000      -0.282418        -7.6850
  39   0.0000      -0.256781        -6.9874
  40   0.0000      -0.198139        -5.3916
  41   0.0000      -0.128264        -3.4903
  42   0.0000      -0.041279        -1.1233

MULLIKEN ATOMIC CHARGES
-----------------------
   0 C :   -0.402657
   1 C :    0.079066
   2 C :   -0.221593
   3 C :   -0.137989
   4 C :   -0.282543
   5 C :    0.167004
   6 C :    0.059617
   7 C :   -0.263099
   8 C :   -0.180005
   9 C :   -0.140332
  10 C :   -0.240461
  11 H :    0.145105
  12 H :    0.146955
  13 H :    0.146962
  14 H :    0.154916
  15 H :    0.159449
  16 H :    0.157287
  17 H :    0.170719
  18 H :    0.160545
  19 H :    0.161757
  20 H :    0.159298
Sum of atomic charges:   -0.0000000

LOEWDIN ATOMIC CHARGES
----------------------
   0 C :   -0.251194
   1 C :   -0.136471
   2 C :   -0.127530
   3 C :   -0.149179
   4 C :   -0.116776
   5 C :   -0.104079
   6 C :   -0.076457
   7 C :   -0.107154
   8 C :   -0.148113
   9 C :   -0.149372
  10 C :   -0.107675
  11 H :    0.131180
  12 H :    0.133063
  13 H :    0.133068
  14 H :    0.153339
  15 H :    0.151649
  16 H :    0.154949
  17 H :    0.157515
  18 H :    0.151593
  19 H :    0.151563
  20 H :    0.156079

  Mayer bond orders larger than 0.100000
B(  0-C ,  1-C ) :   0.9463 B(  0-C , 11-H ) :   0.9807 B(  0-C , 12-H ) :   0.9733
B(  0-C , 13-H ) :   0.9732 B(  1-C ,  2-C ) :   1.5584 B(  1-C ,  6-C ) :   1.1640
B(  2-C ,  3-C ) :   1.2410 B(  2-C , 14-H ) :   0.9770 B(  3-C ,  4-C ) :   1.5499
B(  3-C , 15-H ) :   0.9847 B(  4-C ,  5-C ) :   1.1918 B(  4-C , 16-H ) :   0.9904
B(  5-C ,  6-C ) :   1.2552 B(  5-C , 10-C ) :   1.2159 B(  6-C ,  7-C ) :   1.2047
B(  7-C ,  8-C ) :   1.5735 B(  7-C , 17-H ) :   0.9739 B(  8-C ,  9-C ) :   1.2581
B(  8-C , 18-H ) :   0.9798 B(  9-C , 10-C ) :   1.5433 B(  9-C , 19-H ) :   0.9788
B( 10-C , 20-H ) :   0.9853

FINAL SINGLE POINT ENERGY      -425.225192135464

DIPOLE MOMENT
-------------

Method             : SCF
Type of density    : Electron Density
Multiplicity       :   1
Irrep              :   0
Energy             :  -425.2363070118637438 Eh
Relativity type    :
Basis              : AO
                                X                 Y                 Z
Electronic contribution:      2.322656232       3.407444970       0.000060329
Nuclear contribution   :     -2.387464050      -3.617075502      -0.000051127
                        -----------------------------------------
Total Dipole Moment    :     -0.064807818      -0.209630532       0.000009202
                        -----------------------------------------
Magnitude (a.u.)       :      0.219419720
Magnitude (Debye)      :      0.557720605

Rotational constants in cm-1:             0.063277             0.037683             0.023722
Rotational constants in MHz :          1897.008233          1129.694887           711.159279

                             ****ORCA TERMINATED NORMALLY****
TOTAL RUN TIME: 0 days 0 hours 5 minutes 13 seconds 209 msec
