                         Program Version 6.0.0  -   RELEASE  -
|  1> ! r2scan-3c def2/J RI DEFGRID2 scfconv6 printgap
|  2> %output
|  3>     printlevel normal
|  4> end
|  5> * xyz 0 1
|  6> C 1.532285783 1.1922974527 4.4309e-05
|  7> C 0.1501596806 1.2398715011 -4.64709e-05
|  8> C -0.5525549563 0.0322182735 -0.0001358528
|  9> C 0.1757268684 -1.1640116636 -3.6842e-05
| 10> N 1.4921677052 -1.1981198646 4.81239e-05
| 11> C 2.1540952119 -0.0497288975 0.000194529
| 12> C -1.9620390176 0.0056796811 -0.0003206489
| 13> N -3.1098924842 -0.0244240059 0.0002910492
| 14> H 2.1164490194 2.0974313671 -9.67287e-05
| 15> H -0.3833351245 2.1783323373 2.19907e-05
| 16> H -0.3302048669 -2.1195470935 -0.0003255575
| 17> H 3.2311224286 -0.1378388523 -0.0007265028
| 18> *
| 19>
| 20>                          ****END OF INPUT****

CARTESIAN COORDINATES (ANGSTROEM)
---------------------------------
  C      1.532286    1.192297    0.000044
  C      0.150160    1.239872   -0.000046
  C     -0.552555    0.032218   -0.000136
  C      0.175727   -1.164012   -0.000037
  N      1.492168   -1.198120    0.000048
  C      2.154095   -0.049729    0.000195
  C     -1.962039    0.005680   -0.000321
  N     -3.109892   -0.024424    0.000291
  H      2.116449    2.097431   -0.000097
  H     -0.383335    2.178332    0.000022
  H     -0.330205   -2.119547   -0.000326
  H      3.231122   -0.137839   -0.000727

 Total Charge           Charge          ....    0
 Multiplicity           Mult            ....    1
 Number of Electrons    NEL             ....   54
 Basis Dimension        Dim             ....  182

ORBITAL ENERGIES
----------------

  NO   OCC          E(Eh)            E(eV)
   0   2.0000     -14.185708      -386.0127
   1   2.0000     -14.168440      -385.5429
   2   2.0000     -10.104237      -274.9503
   3   2.0000     -10.103575      -274.9322
   4   2.0000     -10.099192      -274.8130
   5   2.0000     -10.091497      -274.6036
   6   2.0000     -10.080826      -274.3132
   7   2.0000     -10.076177      -274.1867
   8   2.0000      -0.949412       -25.8348
   9   2.0000      -0.890180       -24.2230
  10   2.0000      -0.816977       -22.2311
  11   2.0000      -0.774918       -21.0866
  12   2.0000      -0.660520       -17.9737
  13   2.0000      -0.635248       -17.2860
  14   2.0000      -0.554358       -15.0849
  15   2.0000      -0.505181       -13.7467
  16   2.0000      -0.492956       -13.4140
  17   2.0000      -0.440476       -11.9860
  18   2.0000      -0.417831       -11.3698
  19   2.0000      -0.407700       -11.0941
  20   2.0000      -0.378838       -10.3087
  21   2.0000      -0.355619        -9.6769
  22   2.0000      -0.340434        -9.2637
  23   2.0000      -0.327847        -8.9212
  24   2.0000      -0.300362        -8.1733
  25   2.0000      -0.270885        -7.3712
  26   2.0000      -0.252896        -6.8816
  27   0.0000      -0.100064        -2.7229
  28   0.0000      -0.080538        -2.1915
  29   0.0000      -0.006755        -0.1838
  30   0.0000       0.028492         0.7753
  31   0.0000       0.050580         1.3764

MULLIKEN ATOMIC CHARGES
-----------------------
   0 C :   -0.107461
   1 C :   -0.168078
   2 C :    0.129426
   3 C :   -0.147379
   4 N :   -0.178948
   5 C :   -0.060175
   6 C :    0.151901
   7 N :   -0.232838
   8 H :    0.155736
   9 H :    0.166069
  10 H :    0.150344
  11 H :    0.141404
Sum of atomic charges:    0.0000000

LOEWDIN ATOMIC CHARGES
----------------------
   0 C :   -0.131989
   1 C :   -0.075366
   2 C :   -0.053537
   3 C :    0.129827
   4 N :   -0.593802
   5 C :    0.102824
   6 C :    0.159220
   7 N :   -0.286404
   8 H :    0.176334
   9 H :    0.183994
  10 H :    0.198766
  11 H :    0.190134

  Mayer bond orders larger than 0.100000
B(  0-C ,  1-C ) :   1.4169 B(  0-C ,  5-C ) :   1.3434 B(  0-C ,  8-H ) :   0.9423
B(  1-C ,  2-C ) :   1.3328 B(  1-C ,  9-H ) :   0.9493 B(  2-C ,  3-C ) :   1.2518
B(  2-C ,  6-C ) :   1.0585 B(  3-C ,  4-N ) :   1.4931 B(  3-C , 10-H ) :   0.9950
B(  4-N ,  5-C ) :   1.4478 B(  5-C , 11-H ) :   0.9787 B(  6-C ,  7-N ) :   2.8264

Dispersion correction           -0.003887265
FINAL SINGLE POINT ENERGY      -340.437364993941

DIPOLE MOMENT
-------------

Method             : SCF
Type of density    : Electron Density
Multiplicity       :   1
Irrep              :   0
Energy             :  -340.4383593856616130 Eh
Relativity type    :
Basis              : AO
                                X                 Y                 Z
Electronic contribution:     -2.961219187      -1.108110204       0.000527418
Nuclear contribution   :      4.338623908       1.886859086      -0.001055266
                        -----------------------------------------
Total Dipole Moment    :      1.377404720       0.778748882      -0.000527848
                        -----------------------------------------
Magnitude (a.u.)       :      1.582306501
Magnitude (Debye)      :      4.021903499

Rotational constants in cm-1:             0.196623             0.053274             0.041917
Rotational constants in MHz :          5894.621056          1597.120273          1256.639619

                             ****ORCA TERMINATED NORMALLY****
TOTAL RUN TIME: 0 days 0 hours 0 minutes 10 seconds 772 msec
