                         Program Version 6.0.0  -   RELEASE  -
|  1> ! r2scan-3c def2/J RI DEFGRID2 scfconv6 printgap
|  2> %output
|  3>     printlevel normal
|  4> end
|  5> %cpcm
|  6>     smd true
|  7>     smdsolvent "water"
|  8> end
|  9> * xyz 0 1
| 10> C 1.532285783 1.1922974527 4.4309e-05
| 11> C 0.1501596806 1.2398715011 -4.64709e-05
| 12> C -0.5525549563 0.0322182735 -0.0001358528
| 13> C 0.1757268684 -1.1640116636 -3.6842e-05
| 14> N 1.4921677052 -1.1981198646 4.81239e-05
| 15> C 2.1540952119 -0.0497288975 0.000194529
| 16> C -1.9620390176 0.0056796811 -0.0003206489
| 17> N -3.1098924842 -0.0244240059 0.0002910492
| 18> H 2.1164490194 2.0974313671 -9.67287e-05
| 19> H -0.3833351245 2.1783323373 2.19907e-05
| 20> H -0.3302048669 -2.1195470935 -0.0003255575
| 21> H 3.2311224286 -0.1378388523 -0.0007265028
| 22> *
| 23>
| 24>                          ****END OF INPUT****

CARTESIAN COORDINATES (ANGSTROEM)
---------------------------------
  C      1.532286    1.192297    0.000044
  C      0.150160    1.239872   -0.000046
  C     -0.552555    0.032218   -0.000136
  C      0.175727   -1.164012   -0.000037
  N      1.492168   -1.198120    0.000048
  C      2.154095   -0.049729    0.000195
  C     -1.962039    0.005680   -0.000321
  N     -3.109892   -0.024424    0.000291
  H      2.116449    2.097431   -0.000097
  H     -0.383335    2.178332    0.000022
  H     -0.330205   -2.119547   -0.000326
  H      3.231122   -0.137839   -0.000727

 Total Charge           Charge          ....    0
 Multiplicity           Mult            ....    1
 Number of Electrons    NEL             ....   54
 Basis Dimension        Dim             ....  182

ORBITAL ENERGIES
----------------

  NO   OCC          E(Eh)            E(eV)
   0   2.0000     -14.174148      -385.6982
   1   2.0000     -14.169892      -385.5824
   2   2.0000     -10.090613      -274.5795
   3   2.0000     -10.089882      -274.5596
   4   2.0000     -10.086810      -274.4761
   5   2.0000     -10.082633      -274.3624
   6   2.0000     -10.073510      -274.1142
   7   2.0000     -10.055182      -273.6154
   8   2.0000      -0.936934       -25.4953
   9   2.0000      -0.893219       -24.3057
  10   2.0000      -0.803185       -21.8558
  11   2.0000      -0.758813       -20.6483
  12   2.0000      -0.647456       -17.6182
  13   2.0000      -0.617116       -16.7926
  14   2.0000      -0.539593       -14.6831
  15   2.0000      -0.487700       -13.2710
  16   2.0000      -0.476467       -12.9653
  17   2.0000      -0.419082       -11.4038
  18   2.0000      -0.405948       -11.0464
  19   2.0000      -0.387619       -10.5476
  20   2.0000      -0.364123        -9.9083
  21   2.0000      -0.353674        -9.6240
  22   2.0000      -0.349928        -9.5220
  23   2.0000      -0.329866        -8.9761
  24   2.0000      -0.286430        -7.7942
  25   2.0000      -0.260434        -7.0868
  26   2.0000      -0.245004        -6.6669
  27   0.0000      -0.089025        -2.4225
  28   0.0000      -0.065169        -1.7733
  29   0.0000      -0.007510        -0.2044
  30   0.0000       0.035107         0.9553
  31   0.0000       0.063055         1.7158

MULLIKEN ATOMIC CHARGES
-----------------------
   0 C :   -0.139028
   1 C :   -0.159877
   2 C :    0.103779
   3 C :   -0.147748
   4 N :   -0.230215
   5 C :   -0.065082
   6 C :    0.214922
   7 N :   -0.332542
   8 H :    0.195810
   9 H :    0.206332
  10 H :    0.180880
  11 H :    0.172769
Sum of atomic charges:    0.0000000

LOEWDIN ATOMIC CHARGES
----------------------
   0 C :   -0.122960
   1 C :   -0.057754
   2 C :   -0.060988
   3 C :    0.132751
   4 N :   -0.629866
   5 C :    0.108487
   6 C :    0.185830
   7 N :   -0.355064
   8 H :    0.191380
   9 H :    0.198348
  10 H :    0.208591
  11 H :    0.201246

  Mayer bond orders larger than 0.100000
B(  0-C ,  1-C ) :   1.4128 B(  0-C ,  5-C ) :   1.3487 B(  0-C ,  8-H ) :   0.9399
B(  1-C ,  2-C ) :   1.3067 B(  1-C ,  9-H ) :   0.9398 B(  2-C ,  3-C ) :   1.2488
B(  2-C ,  6-C ) :   1.0742 B(  3-C ,  4-N ) :   1.5111 B(  3-C , 10-H ) :   0.9766
B(  4-N ,  5-C ) :   1.4366 B(  5-C , 11-H ) :   0.9636 B(  6-C ,  7-N ) :   2.8277

Dispersion correction           -0.003887265
FINAL SINGLE POINT ENERGY      -340.447428641163

DIPOLE MOMENT
-------------

Method             : SCF
Type of density    : Electron Density
Multiplicity       :   1
Irrep              :   0
Energy             :  -340.4484230328827152 Eh
Relativity type    :
Basis              : AO
                                X                 Y                 Z
Electronic contribution:     -2.512023887      -0.771932403       0.000315533
Nuclear contribution   :      4.338623908       1.886859086      -0.001055266
                        -----------------------------------------
Total Dipole Moment    :      1.826600021       1.114926683      -0.000739733
                        -----------------------------------------
Magnitude (a.u.)       :      2.139983573
Magnitude (Debye)      :      5.439405965

Rotational constants in cm-1:             0.196623             0.053274             0.041917
Rotational constants in MHz :          5894.621056          1597.120273          1256.639619

                             ****ORCA TERMINATED NORMALLY****
TOTAL RUN TIME: 0 days 0 hours 0 minutes 14 seconds 746 msec
