                         Program Version 6.0.0  -   RELEASE  -
|  1> ! r2scan-3c def2/J RI DEFGRID2 scfconv6 printgap
|  2> %output
|  3>     printlevel normal
|  4> end
|  5> * xyz 0 1
|  6> C -0.5874779026 -1.1350757206 -0.1380894587
|  7> C -1.2721927913 0.2380011365 -0.0071413307
|  8> C -0.1390809246 1.2672935237 0.1512075912
|  9> C 1.1327546634 0.522595593 -0.2538900775
| 10> C 0.8724103387 -0.893697301 0.2479889979
| 11> H -0.6380043401 -1.4806017729 -1.1713535233
| 12> H -1.0582367439 -1.8895546389 0.4904241581
| 13> H -1.8715636919 0.452615814 -0.8915438433
| 14> H -1.9379267253 0.2639897796 0.8549245216
| 15> H -0.3055135656 2.1572198749 -0.4538655432
| 16> H -0.0609854638 1.5792588132 1.1935611595
| 17> H 1.234960431 0.5157011005 -1.3402746472
| 18> H 2.0300163031 0.9659298222 0.1752344976
| 19> H 1.5456878971 -1.6286161364 -0.1907922082
| 20> H 0.9851432963 -0.9254234892 1.3327831154
| 21> *
| 22>
| 23>                          ****END OF INPUT****

CARTESIAN COORDINATES (ANGSTROEM)
---------------------------------
  C     -0.587478   -1.135076   -0.138089
  C     -1.272193    0.238001   -0.007141
  C     -0.139081    1.267294    0.151208
  C      1.132755    0.522596   -0.253890
  C      0.872410   -0.893697    0.247989
  H     -0.638004   -1.480602   -1.171354
  H     -1.058237   -1.889555    0.490424
  H     -1.871564    0.452616   -0.891544
  H     -1.937927    0.263990    0.854925
  H     -0.305514    2.157220   -0.453866
  H     -0.060985    1.579259    1.193561
  H      1.234960    0.515701   -1.340275
  H      2.030016    0.965930    0.175234
  H      1.545688   -1.628616   -0.190792
  H      0.985143   -0.925423    1.332783

 Total Charge           Charge          ....    0
 Multiplicity           Mult            ....    1
 Number of Electrons    NEL             ....   40
 Basis Dimension        Dim             ....  145

ORBITAL ENERGIES
----------------

  NO   OCC          E(Eh)            E(eV)
   0   2.0000     -10.018271      -272.6110
   1   2.0000     -10.018144      -272.6076
   2   2.0000     -10.017962      -272.6026
   3   2.0000     -10.017926      -272.6016
   4   2.0000     -10.017671      -272.5947
   5   2.0000      -0.797606       -21.7040
   6   2.0000      -0.670554       -18.2467
   7   2.0000      -0.670381       -18.2420
   8   2.0000      -0.532078       -14.4786
   9   2.0000      -0.523086       -14.2339
  10   2.0000      -0.447767       -12.1844
  11   2.0000      -0.442625       -12.0444
  12   2.0000      -0.381057       -10.3691
  13   2.0000      -0.379827       -10.3356
  14   2.0000      -0.302976        -8.2444
  15   2.0000      -0.302027        -8.2186
  16   2.0000      -0.301971        -8.2170
  17   2.0000      -0.298028        -8.1098
  18   2.0000      -0.289896        -7.8885
  19   2.0000      -0.278861        -7.5882
  20   0.0000       0.091189         2.4814
  21   0.0000       0.104805         2.8519
  22   0.0000       0.126016         3.4291
  23   0.0000       0.126436         3.4405
  24   0.0000       0.144574         3.9341

MULLIKEN ATOMIC CHARGES
-----------------------
   0 C :   -0.306509
   1 C :   -0.325985
   2 C :   -0.303506
   3 C :   -0.277492
   4 C :   -0.279199
   5 H :    0.148632
   6 H :    0.149658
   7 H :    0.150790
   8 H :    0.150682
   9 H :    0.149608
  10 H :    0.148350
  11 H :    0.147980
  12 H :    0.149581
  13 H :    0.149596
  14 H :    0.147813
Sum of atomic charges:    0.0000000

LOEWDIN ATOMIC CHARGES
----------------------
   0 C :   -0.310015
   1 C :   -0.312236
   2 C :   -0.309705
   3 C :   -0.307803
   4 C :   -0.307855
   5 H :    0.154097
   6 H :    0.155081
   7 H :    0.155120
   8 H :    0.155151
   9 H :    0.155037
  10 H :    0.153968
  11 H :    0.154241
  12 H :    0.155424
  13 H :    0.155356
  14 H :    0.154140

  Mayer bond orders larger than 0.100000
B(  0-C ,  1-C ) :   0.9327 B(  0-C ,  4-C ) :   0.9190 B(  0-C ,  5-H ) :   0.9874
B(  0-C ,  6-H ) :   0.9626 B(  1-C ,  2-C ) :   0.9327 B(  1-C ,  7-H ) :   0.9828
B(  1-C ,  8-H ) :   0.9813 B(  2-C ,  3-C ) :   0.9156 B(  2-C ,  9-H ) :   0.9609
B(  2-C , 10-H ) :   0.9876 B(  3-C ,  4-C ) :   0.8956 B(  3-C , 11-H ) :   0.9909
B(  3-C , 12-H ) :   0.9545 B(  4-C , 13-H ) :   0.9545 B(  4-C , 14-H ) :   0.9906

Dispersion correction           -0.003458132
FINAL SINGLE POINT ENERGY      -196.482942155642

DIPOLE MOMENT
-------------

Method             : SCF
Type of density    : Electron Density
Multiplicity       :   1
Irrep              :   0
Energy             :  -196.4855181104451560 Eh
Relativity type    :
Basis              : AO
                                X                 Y                 Z
Electronic contribution:      0.077385949      -0.010460758       0.000816675
Nuclear contribution   :     -0.071697505       0.009868782      -0.000846524
                        -----------------------------------------
Total Dipole Moment    :      0.005688444      -0.000591975      -0.000029849
                        -----------------------------------------
Magnitude (a.u.)       :      0.005719241
Magnitude (Debye)      :      0.014537156

Rotational constants in cm-1:             0.219365             0.219230             0.126982
Rotational constants in MHz :          6576.389318          6572.357406          3806.827319

                             ****ORCA TERMINATED NORMALLY****
TOTAL RUN TIME: 0 days 0 hours 0 minutes 9 seconds 639 msec
