                         Program Version 6.0.0  -   RELEASE  -
|  1> ! r2scan-3c def2/J RI DEFGRID2 scfconv6 printgap
|  2> %output
|  3>     printlevel normal
|  4> end
|  5> %cpcm
|  6>     smd true
|  7>     smdsolvent "water"
|  8> end
|  9> * xyz 0 1
| 10> C -0.5874779026 -1.1350757206 -0.1380894587
| 11> C -1.2721927913 0.2380011365 -0.0071413307
| 12> C -0.1390809246 1.2672935237 0.1512075912
| 13> C 1.1327546634 0.522595593 -0.2538900775
| 14> C 0.8724103387 -0.893697301 0.2479889979
| 15> H -0.6380043401 -1.4806017729 -1.1713535233
| 16> H -1.0582367439 -1.8895546389 0.4904241581
| 17> H -1.8715636919 0.452615814 -0.8915438433
| 18> H -1.9379267253 0.2639897796 0.8549245216
| 19> H -0.3055135656 2.1572198749 -0.4538655432
| 20> H -0.0609854638 1.5792588132 1.1935611595
| 21> H 1.234960431 0.5157011005 -1.3402746472
| 22> H 2.0300163031 0.9659298222 0.1752344976
| 23> H 1.5456878971 -1.6286161364 -0.1907922082
| 24> H 0.9851432963 -0.9254234892 1.3327831154
| 25> *
| 26>
| 27>                          ****END OF INPUT****

CARTESIAN COORDINATES (ANGSTROEM)
---------------------------------
  C     -0.587478   -1.135076   -0.138089
  C     -1.272193    0.238001   -0.007141
  C     -0.139081    1.267294    0.151208
  C      1.132755    0.522596   -0.253890
  C      0.872410   -0.893697    0.247989
  H     -0.638004   -1.480602   -1.171354
  H     -1.058237   -1.889555    0.490424
  H     -1.871564    0.452616   -0.891544
  H     -1.937927    0.263990    0.854925
  H     -0.305514    2.157220   -0.453866
  H     -0.060985    1.579259    1.193561
  H      1.234960    0.515701   -1.340275
  H      2.030016    0.965930    0.175234
  H      1.545688   -1.628616   -0.190792
  H      0.985143   -0.925423    1.332783

 Total Charge           Charge          ....    0
 Multiplicity           Mult            ....    1
 Number of Electrons    NEL             ....   40
 Basis Dimension        Dim             ....  145

ORBITAL ENERGIES
----------------

  NO   OCC          E(Eh)            E(eV)
   0   2.0000     -10.012006      -272.4405
   1   2.0000     -10.011880      -272.4371
   2   2.0000     -10.011736      -272.4332
   3   2.0000     -10.011686      -272.4318
   4   2.0000     -10.011463      -272.4258
   5   2.0000      -0.791567       -21.5396
   6   2.0000      -0.664747       -18.0887
   7   2.0000      -0.664571       -18.0839
   8   2.0000      -0.526176       -14.3180
   9   2.0000      -0.517404       -14.0793
  10   2.0000      -0.441371       -12.0103
  11   2.0000      -0.436949       -11.8900
  12   2.0000      -0.374575       -10.1927
  13   2.0000      -0.373347       -10.1593
  14   2.0000      -0.297238        -8.0883
  15   2.0000      -0.296211        -8.0603
  16   2.0000      -0.296078        -8.0567
  17   2.0000      -0.292388        -7.9563
  18   2.0000      -0.283120        -7.7041
  19   2.0000      -0.272207        -7.4071
  20   0.0000       0.098350         2.6762
  21   0.0000       0.111808         3.0424
  22   0.0000       0.130026         3.5382
  23   0.0000       0.130482         3.5506
  24   0.0000       0.148298         4.0354

MULLIKEN ATOMIC CHARGES
-----------------------
   0 C :   -0.322469
   1 C :   -0.343757
   2 C :   -0.319933
   3 C :   -0.296318
   4 C :   -0.298135
   5 H :    0.157762
   6 H :    0.157922
   7 H :    0.159702
   8 H :    0.159567
   9 H :    0.157742
  10 H :    0.157616
  11 H :    0.157694
  12 H :    0.157557
  13 H :    0.157598
  14 H :    0.157451
Sum of atomic charges:    0.0000000

LOEWDIN ATOMIC CHARGES
----------------------
   0 C :   -0.314043
   1 C :   -0.316374
   2 C :   -0.313789
   3 C :   -0.311891
   4 C :   -0.311919
   5 H :    0.156318
   6 H :    0.156888
   7 H :    0.157127
   8 H :    0.157152
   9 H :    0.156779
  10 H :    0.156254
  11 H :    0.156654
  12 H :    0.157190
  13 H :    0.157122
  14 H :    0.156531

  Mayer bond orders larger than 0.100000
B(  0-C ,  1-C ) :   0.9286 B(  0-C ,  4-C ) :   0.9156 B(  0-C ,  5-H ) :   0.9862
B(  0-C ,  6-H ) :   0.9615 B(  1-C ,  2-C ) :   0.9288 B(  1-C ,  7-H ) :   0.9819
B(  1-C ,  8-H ) :   0.9804 B(  2-C ,  3-C ) :   0.9123 B(  2-C ,  9-H ) :   0.9599
B(  2-C , 10-H ) :   0.9862 B(  3-C ,  4-C ) :   0.8943 B(  3-C , 11-H ) :   0.9895
B(  3-C , 12-H ) :   0.9533 B(  4-C , 13-H ) :   0.9533 B(  4-C , 14-H ) :   0.9892

Dispersion correction           -0.003458132
FINAL SINGLE POINT ENERGY      -196.481335312130

DIPOLE MOMENT
-------------

Method             : SCF
Type of density    : Electron Density
Multiplicity       :   1
Irrep              :   0
Energy             :  -196.4839112669334327 Eh
Relativity type    :
Basis              : AO
                                X                 Y                 Z
Electronic contribution:      0.078300367      -0.010977222       0.001252246
Nuclear contribution   :     -0.071697505       0.009868782      -0.000846524
                        -----------------------------------------
Total Dipole Moment    :      0.006602862      -0.001108440       0.000405721
                        -----------------------------------------
Magnitude (a.u.)       :      0.006707536
Magnitude (Debye)      :      0.017049201

Rotational constants in cm-1:             0.219365             0.219230             0.126982
Rotational constants in MHz :          6576.389318          6572.357406          3806.827319

                             ****ORCA TERMINATED NORMALLY****
TOTAL RUN TIME: 0 days 0 hours 0 minutes 11 seconds 674 msec
