                         Program Version 6.0.0  -   RELEASE  -
|  1> ! r2scan-3c def2/J RI DEFGRID2 scfconv6 printgap
|  2> %output
|  3>     printlevel normal
|  4> end
|  5> * xyz 0 1
|  6> C -3.0404406648 -0.9833077712 1.7610878934
|  7> N -2.1624063655 -0.2708708791 0.8594065275
|  8> C -2.3245490432 -0.2820514825 -0.4688254517
|  9> O -3.2380110864 -0.8398654486 -1.0510430762
| 10> O -1.4175436874 0.4041478196 -1.2026102293
| 11> C -0.2313799975 0.8766593407 -0.6293580304
| 12> C -0.0532244214 2.2300249464 -0.510374367
| 13> C 1.1499711481 2.7377684141 0.0022972526
| 14> C 2.1480832854 1.8897398019 0.3916055702
| 15> C 1.9968713853 0.4918378044 0.2713028425
| 16> C 0.7883872794 -0.0382727408 -0.2559183976
| 17> C 0.6525291961 -1.435445215 -0.3967785348
| 18> C 1.6651485699 -2.2732964977 -0.0199086523
| 19> C 2.8543522007 -1.7541451933 0.5149025387
| 20> C 3.0172451984 -0.4041477344 0.6544037216
| 21> H -3.4872090083 -0.2901020514 2.4720239572
| 22> H -2.4829568831 -1.7510568507 2.2967133016
| 23> H -3.8229916553 -1.449266153 1.1659237122
| 24> H -1.3797200181 0.2239807056 1.2617304344
| 25> H -0.8443383125 2.8943865934 -0.8200687474
| 26> H 1.2709901113 3.8057490957 0.0870406571
| 27> H 3.0725062807 2.2764536324 0.7916563891
| 28> H -0.2594612573 -1.8340647951 -0.8192389842
| 29> H 1.5536768869 -3.3403757663 -0.1353071837
| 30> H 3.6406177693 -2.4319502157 0.8091431224
| 31> H 3.9329308472 0.0004770825 1.057816483
| 32> *
| 33>
| 34>                          ****END OF INPUT****

CARTESIAN COORDINATES (ANGSTROEM)
---------------------------------
  C     -3.040441   -0.983308    1.761088
  N     -2.162406   -0.270871    0.859407
  C     -2.324549   -0.282051   -0.468825
  O     -3.238011   -0.839865   -1.051043
  O     -1.417544    0.404148   -1.202610
  C     -0.231380    0.876659   -0.629358
  C     -0.053224    2.230025   -0.510374
  C      1.149971    2.737768    0.002297
  C      2.148083    1.889740    0.391606
  C      1.996871    0.491838    0.271303
  C      0.788387   -0.038273   -0.255918
  C      0.652529   -1.435445   -0.396779
  C      1.665149   -2.273296   -0.019909
  C      2.854352   -1.754145    0.514903
  C      3.017245   -0.404148    0.654404
  H     -3.487209   -0.290102    2.472024
  H     -2.482957   -1.751057    2.296713
  H     -3.822992   -1.449266    1.165924
  H     -1.379720    0.223981    1.261730
  H     -0.844338    2.894387   -0.820069
  H      1.270990    3.805749    0.087041
  H      3.072506    2.276454    0.791656
  H     -0.259461   -1.834065   -0.819239
  H      1.553677   -3.340376   -0.135307
  H      3.640618   -2.431950    0.809143
  H      3.932931    0.000477    1.057816

 Total Charge           Charge          ....    0
 Multiplicity           Mult            ....    1
 Number of Electrons    NEL             ....  106
 Basis Dimension        Dim             ....  355

ORBITAL ENERGIES
----------------

  NO   OCC          E(Eh)            E(eV)
   0   2.0000     -19.005240      -517.1589
   1   2.0000     -18.908809      -514.5348
   2   2.0000     -14.195320      -386.2743
   3   2.0000     -10.172985      -276.8210
   4   2.0000     -10.113649      -275.2064
   5   2.0000     -10.068614      -273.9809
   6   2.0000     -10.064208      -273.8610
   7   2.0000     -10.063152      -273.8323
   8   2.0000     -10.053777      -273.5772
   9   2.0000     -10.052695      -273.5477
  10   2.0000     -10.050875      -273.4982
  11   2.0000     -10.050665      -273.4925
  12   2.0000     -10.050441      -273.4864
  13   2.0000     -10.049768      -273.4681
  14   2.0000     -10.049217      -273.4531
  15   2.0000      -1.080036       -29.3893
  16   2.0000      -0.979356       -26.6496
  17   2.0000      -0.900127       -24.4937
  18   2.0000      -0.861606       -23.4455
  19   2.0000      -0.809552       -22.0290
  20   2.0000      -0.758502       -20.6399
  21   2.0000      -0.730968       -19.8906
  22   2.0000      -0.710497       -19.3336
  23   2.0000      -0.685062       -18.6415
  24   2.0000      -0.623068       -16.9545
  25   2.0000      -0.604910       -16.4604
  26   2.0000      -0.598598       -16.2887
  27   2.0000      -0.562463       -15.3054
  28   2.0000      -0.543322       -14.7845
  29   2.0000      -0.502931       -13.6854
  30   2.0000      -0.486134       -13.2284
  31   2.0000      -0.481490       -13.1020
  32   2.0000      -0.459751       -12.5105
  33   2.0000      -0.446424       -12.1478
  34   2.0000      -0.428343       -11.6558
  35   2.0000      -0.413739       -11.2584
  36   2.0000      -0.409660       -11.1474
  37   2.0000      -0.401368       -10.9218
  38   2.0000      -0.390675       -10.6308
  39   2.0000      -0.389397       -10.5960
  40   2.0000      -0.378234       -10.2923
  41   2.0000      -0.373656       -10.1677
  42   2.0000      -0.365829        -9.9547
  43   2.0000      -0.355500        -9.6737
  44   2.0000      -0.329900        -8.9770
  45   2.0000      -0.324165        -8.8210
  46   2.0000      -0.318428        -8.6649
  47   2.0000      -0.288000        -7.8369
  48   2.0000      -0.269052        -7.3213
  49   2.0000      -0.250432        -6.8146
  50   2.0000      -0.239353        -6.5131
  51   2.0000      -0.233290        -6.3482
  52   2.0000      -0.214762        -5.8440
  53   0.0000      -0.082965        -2.2576
  54   0.0000      -0.053351        -1.4518
  55   0.0000      -0.015191        -0.4134
  56   0.0000       0.026737         0.7276
  57   0.0000       0.047727         1.2987

MULLIKEN ATOMIC CHARGES
-----------------------
   0 C :   -0.397967
   1 N :   -0.151853
   2 C :    0.272298
   3 O :   -0.439871
   4 O :   -0.136314
   5 C :    0.182126
   6 C :   -0.218336
   7 C :   -0.130268
   8 C :   -0.263844
   9 C :    0.178673
  10 C :    0.002401
  11 C :   -0.198698
  12 C :   -0.151678
  13 C :   -0.138349
  14 C :   -0.213109
  15 H :    0.145633
  16 H :    0.146650
  17 H :    0.199030
  18 H :    0.248114
  19 H :    0.165010
  20 H :    0.150003
  21 H :    0.146487
  22 H :    0.161710
  23 H :    0.149191
  24 H :    0.147512
  25 H :    0.145448
Sum of atomic charges:    0.0000000

LOEWDIN ATOMIC CHARGES
----------------------
   0 C :   -0.108640
   1 N :   -0.621638
   2 C :    0.442980
   3 O :   -0.396918
   4 O :   -0.485485
   5 C :    0.196527
   6 C :   -0.122046
   7 C :   -0.154152
   8 C :   -0.145782
   9 C :   -0.055155
  10 C :   -0.036370
  11 C :   -0.121523
  12 C :   -0.154973
  13 C :   -0.156382
  14 C :   -0.140556
  15 H :    0.170723
  16 H :    0.170046
  17 H :    0.206991
  18 H :    0.280385
  19 H :    0.185178
  20 H :    0.171494
  21 H :    0.172615
  22 H :    0.189869
  23 H :    0.170893
  24 H :    0.169577
  25 H :    0.172342

  Mayer bond orders larger than 0.100000
B(  0-C ,  1-N ) :   0.8934 B(  0-C , 15-H ) :   0.9644 B(  0-C , 16-H ) :   0.9596
B(  0-C , 17-H ) :   0.9542 B(  1-N ,  2-C ) :   1.1587 B(  1-N , 18-H ) :   0.9178
B(  2-C ,  3-O ) :   1.9434 B(  2-C ,  4-O ) :   1.0370 B(  4-O ,  5-C ) :   0.8962
B(  5-C ,  6-C ) :   1.5598 B(  5-C , 10-C ) :   1.2266 B(  6-C ,  7-C ) :   1.2143
B(  6-C , 19-H ) :   0.9380 B(  7-C ,  8-C ) :   1.4979 B(  7-C , 20-H ) :   0.9559
B(  8-C ,  9-C ) :   1.1795 B(  8-C , 21-H ) :   0.9482 B(  9-C , 10-C ) :   1.3744
B(  9-C , 14-C ) :   1.1827 B( 10-C , 11-C ) :   1.2832 B( 11-C , 12-C ) :   1.4948
B( 11-C , 22-H ) :   0.9560 B( 12-C , 13-C ) :   1.2486 B( 12-C , 23-H ) :   0.9512
B( 13-C , 14-C ) :   1.5074 B( 13-C , 24-H ) :   0.9504 B( 14-C , 25-H ) :   0.9498

Dispersion correction           -0.011247010
FINAL SINGLE POINT ENERGY      -668.974573641000

DIPOLE MOMENT
-------------

Method             : SCF
Type of density    : Electron Density
Multiplicity       :   1
Irrep              :   0
Energy             :  -668.9780577117081748 Eh
Relativity type    :
Basis              : AO
                                X                 Y                 Z
Electronic contribution:      0.242911160       2.166145757      -6.067038001
Nuclear contribution   :      1.039396035      -1.786496088       7.633793973
                        -----------------------------------------
Total Dipole Moment    :      1.282307194       0.379649670       1.566755973
                        -----------------------------------------
Magnitude (a.u.)       :      2.059895602
Magnitude (Debye)      :      5.235838521

Rotational constants in cm-1:             0.031547             0.016476             0.012827
Rotational constants in MHz :           945.740606           493.933819           384.536767

                             ****ORCA TERMINATED NORMALLY****
TOTAL RUN TIME: 0 days 0 hours 0 minutes 46 seconds 210 msec
