                         Program Version 6.0.0  -   RELEASE  -
|  1> ! r2scan-3c def2/J RI DEFGRID2 scfconv6 printgap
|  2> %output
|  3>     printlevel normal
|  4> end
|  5> %cpcm
|  6>     smd true
|  7>     smdsolvent "water"
|  8> end
|  9> * xyz 0 1
| 10> C -3.0404406648 -0.9833077712 1.7610878934
| 11> N -2.1624063655 -0.2708708791 0.8594065275
| 12> C -2.3245490432 -0.2820514825 -0.4688254517
| 13> O -3.2380110864 -0.8398654486 -1.0510430762
| 14> O -1.4175436874 0.4041478196 -1.2026102293
| 15> C -0.2313799975 0.8766593407 -0.6293580304
| 16> C -0.0532244214 2.2300249464 -0.510374367
| 17> C 1.1499711481 2.7377684141 0.0022972526
| 18> C 2.1480832854 1.8897398019 0.3916055702
| 19> C 1.9968713853 0.4918378044 0.2713028425
| 20> C 0.7883872794 -0.0382727408 -0.2559183976
| 21> C 0.6525291961 -1.435445215 -0.3967785348
| 22> C 1.6651485699 -2.2732964977 -0.0199086523
| 23> C 2.8543522007 -1.7541451933 0.5149025387
| 24> C 3.0172451984 -0.4041477344 0.6544037216
| 25> H -3.4872090083 -0.2901020514 2.4720239572
| 26> H -2.4829568831 -1.7510568507 2.2967133016
| 27> H -3.8229916553 -1.449266153 1.1659237122
| 28> H -1.3797200181 0.2239807056 1.2617304344
| 29> H -0.8443383125 2.8943865934 -0.8200687474
| 30> H 1.2709901113 3.8057490957 0.0870406571
| 31> H 3.0725062807 2.2764536324 0.7916563891
| 32> H -0.2594612573 -1.8340647951 -0.8192389842
| 33> H 1.5536768869 -3.3403757663 -0.1353071837
| 34> H 3.6406177693 -2.4319502157 0.8091431224
| 35> H 3.9329308472 0.0004770825 1.057816483
| 36> *
| 37>
| 38>                          ****END OF INPUT****

CARTESIAN COORDINATES (ANGSTROEM)
---------------------------------
  C     -3.040441   -0.983308    1.761088
  N     -2.162406   -0.270871    0.859407
  C     -2.324549   -0.282051   -0.468825
  O     -3.238011   -0.839865   -1.051043
  O     -1.417544    0.404148   -1.202610
  C     -0.231380    0.876659   -0.629358
  C     -0.053224    2.230025   -0.510374
  C      1.149971    2.737768    0.002297
  C      2.148083    1.889740    0.391606
  C      1.996871    0.491838    0.271303
  C      0.788387   -0.038273   -0.255918
  C      0.652529   -1.435445   -0.396779
  C      1.665149   -2.273296   -0.019909
  C      2.854352   -1.754145    0.514903
  C      3.017245   -0.404148    0.654404
  H     -3.487209   -0.290102    2.472024
  H     -2.482957   -1.751057    2.296713
  H     -3.822992   -1.449266    1.165924
  H     -1.379720    0.223981    1.261730
  H     -0.844338    2.894387   -0.820069
  H      1.270990    3.805749    0.087041
  H      3.072506    2.276454    0.791656
  H     -0.259461   -1.834065   -0.819239
  H      1.553677   -3.340376   -0.135307
  H      3.640618   -2.431950    0.809143
  H      3.932931    0.000477    1.057816

 Total Charge           Charge          ....    0
 Multiplicity           Mult            ....    1
 Number of Electrons    NEL             ....  106
 Basis Dimension        Dim             ....  355

ORBITAL ENERGIES
----------------

  NO   OCC          E(Eh)            E(eV)
   0   2.0000     -19.015044      -517.4257
   1   2.0000     -18.932566      -515.1813
   2   2.0000     -14.194885      -386.2625
   3   2.0000     -10.188056      -277.2311
   4   2.0000     -10.109605      -275.0963
   5   2.0000     -10.058557      -273.7073
   6   2.0000     -10.056940      -273.6633
   7   2.0000     -10.055120      -273.6137
   8   2.0000     -10.044765      -273.3319
   9   2.0000     -10.042950      -273.2826
  10   2.0000     -10.042600      -273.2730
  11   2.0000     -10.040213      -273.2081
  12   2.0000     -10.040209      -273.2080
  13   2.0000     -10.039968      -273.2014
  14   2.0000     -10.038707      -273.1671
  15   2.0000      -1.091394       -29.6984
  16   2.0000      -0.998657       -27.1748
  17   2.0000      -0.901495       -24.5309
  18   2.0000      -0.854959       -23.2646
  19   2.0000      -0.801798       -21.8180
  20   2.0000      -0.752321       -20.4717
  21   2.0000      -0.722548       -19.6615
  22   2.0000      -0.704428       -19.1685
  23   2.0000      -0.678199       -18.4547
  24   2.0000      -0.619633       -16.8611
  25   2.0000      -0.596925       -16.2432
  26   2.0000      -0.591796       -16.1036
  27   2.0000      -0.560187       -15.2435
  28   2.0000      -0.537929       -14.6378
  29   2.0000      -0.493882       -13.4392
  30   2.0000      -0.477265       -12.9870
  31   2.0000      -0.475364       -12.9353
  32   2.0000      -0.456185       -12.4134
  33   2.0000      -0.445519       -12.1232
  34   2.0000      -0.420598       -11.4450
  35   2.0000      -0.415933       -11.3181
  36   2.0000      -0.402614       -10.9557
  37   2.0000      -0.400366       -10.8945
  38   2.0000      -0.394815       -10.7435
  39   2.0000      -0.383798       -10.4437
  40   2.0000      -0.371621       -10.1123
  41   2.0000      -0.371154       -10.0996
  42   2.0000      -0.357746        -9.7348
  43   2.0000      -0.350350        -9.5335
  44   2.0000      -0.323189        -8.7944
  45   2.0000      -0.316214        -8.6046
  46   2.0000      -0.310917        -8.4605
  47   2.0000      -0.292799        -7.9675
  48   2.0000      -0.271826        -7.3968
  49   2.0000      -0.265079        -7.2132
  50   2.0000      -0.245268        -6.6741
  51   2.0000      -0.237125        -6.4525
  52   2.0000      -0.210105        -5.7172
  53   0.0000      -0.076614        -2.0848
  54   0.0000      -0.046325        -1.2606
  55   0.0000      -0.009758        -0.2655
  56   0.0000       0.014612         0.3976
  57   0.0000       0.054766         1.4903

MULLIKEN ATOMIC CHARGES
-----------------------
   0 C :   -0.408738
   1 N :   -0.181178
   2 C :    0.309978
   3 O :   -0.543511
   4 O :   -0.160216
   5 C :    0.193283
   6 C :   -0.234667
   7 C :   -0.170552
   8 C :   -0.272013
   9 C :    0.117819
  10 C :    0.047062
  11 C :   -0.237834
  12 C :   -0.184824
  13 C :   -0.173204
  14 C :   -0.225351
  15 H :    0.173133
  16 H :    0.172556
  17 H :    0.186847
  18 H :    0.305087
  19 H :    0.194014
  20 H :    0.184663
  21 H :    0.182323
  22 H :    0.181812
  23 H :    0.181105
  24 H :    0.180775
  25 H :    0.181633
Sum of atomic charges:    0.0000000

LOEWDIN ATOMIC CHARGES
----------------------
   0 C :   -0.103398
   1 N :   -0.592627
   2 C :    0.442837
   3 O :   -0.479073
   4 O :   -0.505222
   5 C :    0.190174
   6 C :   -0.116495
   7 C :   -0.157160
   8 C :   -0.143710
   9 C :   -0.063223
  10 C :   -0.038213
  11 C :   -0.135884
  12 C :   -0.159044
  13 C :   -0.163447
  14 C :   -0.142453
  15 H :    0.183121
  16 H :    0.182106
  17 H :    0.201086
  18 H :    0.295434
  19 H :    0.195089
  20 H :    0.183560
  21 H :    0.185591
  22 H :    0.193359
  23 H :    0.181540
  24 H :    0.180765
  25 H :    0.185287

  Mayer bond orders larger than 0.100000
B(  0-C ,  1-N ) :   0.8865 B(  0-C , 15-H ) :   0.9556 B(  0-C , 16-H ) :   0.9508
B(  0-C , 17-H ) :   0.9554 B(  1-N ,  2-C ) :   1.2164 B(  1-N , 18-H ) :   0.8979
B(  2-C ,  3-O ) :   1.8550 B(  2-C ,  4-O ) :   1.0599 B(  4-O ,  5-C ) :   0.8891
B(  5-C ,  6-C ) :   1.5126 B(  5-C , 10-C ) :   1.2219 B(  6-C ,  7-C ) :   1.1998
B(  6-C , 19-H ) :   0.9484 B(  7-C ,  8-C ) :   1.4679 B(  7-C , 20-H ) :   0.9639
B(  8-C ,  9-C ) :   1.1848 B(  8-C , 21-H ) :   0.9555 B(  9-C , 10-C ) :   1.3161
B(  9-C , 14-C ) :   1.1888 B( 10-C , 11-C ) :   1.2243 B( 11-C , 12-C ) :   1.4795
B( 11-C , 22-H ) :   0.9625 B( 12-C , 13-C ) :   1.2269 B( 12-C , 23-H ) :   0.9588
B( 13-C , 14-C ) :   1.4724 B( 13-C , 24-H ) :   0.9607 B( 14-C , 25-H ) :   0.9558

Dispersion correction           -0.011247010
FINAL SINGLE POINT ENERGY      -668.989954384711

DIPOLE MOMENT
-------------

Method             : SCF
Type of density    : Electron Density
Multiplicity       :   1
Irrep              :   0
Energy             :  -668.9934384554194367 Eh
Relativity type    :
Basis              : AO
                                X                 Y                 Z
Electronic contribution:      0.805434155       2.439789235      -5.279825584
Nuclear contribution   :      1.039396035      -1.786496088       7.633793973
                        -----------------------------------------
Total Dipole Moment    :      1.844830190       0.653293147       2.353968389
                        -----------------------------------------
Magnitude (a.u.)       :      3.061267310
Magnitude (Debye)      :      7.781123126

Rotational constants in cm-1:             0.031547             0.016476             0.012827
Rotational constants in MHz :           945.740606           493.933819           384.536767

                             ****ORCA TERMINATED NORMALLY****
TOTAL RUN TIME: 0 days 0 hours 0 minutes 58 seconds 346 msec
