                         Program Version 6.0.0  -   RELEASE  -
|  1> ! wb97x-v def2-tzvp def2/J RIJCOSX DEFGRID2 scfconv7 GCP(DFT/TZ) printgap
|  2> %output
|  3>     printlevel normal
|  4> end
|  5> * xyz 0 1
|  6> C -1.3660903710073784 -0.876454749849677 0.22881848626351634
|  7> S 0.00011750407843157871 0.13864125042855407 -0.42864818797637294
|  8> O 0.001713249764468185 1.4380455544033515 0.40487528878919776
|  9> C 1.364068922252668 -0.8796501073438149 0.22854632531271962
| 10> H -1.2524047686423205 -0.9650685454340028 1.3128680586130077
| 11> H -1.338640554385881 -1.8601339546303295 -0.24908515807095688
| 12> H -2.300073346522831 -0.3678468204692674 -0.021550133006270282
| 13> H 1.2512989771294718 -0.9663386180845085 1.312850362111843
| 14> H 2.2993265236076175 -0.37426724133945066 -0.023576242517219858
| 15> H 1.333058822545049 -1.863942756684424 -0.2478731726191999
| 16> *
| 17>
| 18>                          ****END OF INPUT****

CARTESIAN COORDINATES (ANGSTROEM)
---------------------------------
  C     -1.366090   -0.876455    0.228818
  S      0.000118    0.138641   -0.428648
  O      0.001713    1.438046    0.404875
  C      1.364069   -0.879650    0.228546
  H     -1.252405   -0.965069    1.312868
  H     -1.338641   -1.860134   -0.249085
  H     -2.300073   -0.367847   -0.021550
  H      1.251299   -0.966339    1.312850
  H      2.299327   -0.374267   -0.023576
  H      1.333059   -1.863943   -0.247873

 Total Charge           Charge          ....    0
 Multiplicity           Mult            ....    1
 Number of Electrons    NEL             ....   42
 Basis Dimension        Dim             ....  166

ORBITAL ENERGIES
----------------

  NO   OCC          E(Eh)            E(eV)
   0   2.0000     -94.229888     -2564.1256
   1   2.0000     -21.622941      -588.3901
   2   2.0000     -12.082503      -328.7816
   3   2.0000     -12.082285      -328.7757
   4   2.0000      -9.727404      -264.6961
   5   2.0000      -7.705846      -209.6867
   6   2.0000      -7.705791      -209.6852
   7   2.0000      -7.703156      -209.6135
   8   2.0000      -1.624227       -44.1975
   9   2.0000      -1.316453       -35.8225
  10   2.0000      -1.217273       -33.1237
  11   2.0000      -1.119728       -30.4693
  12   2.0000      -0.950011       -25.8511
  13   2.0000      -0.916092       -24.9281
  14   2.0000      -0.908947       -24.7337
  15   2.0000      -0.869997       -23.6738
  16   2.0000      -0.858758       -23.3680
  17   2.0000      -0.849035       -23.1034
  18   2.0000      -0.843967       -22.9655
  19   2.0000      -0.791899       -21.5487
  20   2.0000      -0.723049       -19.6752
  21   0.0000      -0.252554        -6.8723
  22   0.0000      -0.231908        -6.3105
  23   0.0000      -0.197984        -5.3874
  24   0.0000      -0.030474        -0.8292
  25   0.0000      -0.006301        -0.1715

MULLIKEN ATOMIC CHARGES
-----------------------
   0 C :   -0.360318
   1 S :    0.471254
   2 O :   -0.574169
   3 C :   -0.360335
   4 H :    0.137862
   5 H :    0.123751
   6 H :    0.150161
   7 H :    0.137933
   8 H :    0.150133
   9 H :    0.123729
Sum of atomic charges:   -0.0000000

LOEWDIN ATOMIC CHARGES
----------------------
   0 C :   -0.461117
   1 S :    0.713529
   2 O :   -0.465399
   3 C :   -0.461120
   4 H :    0.111161
   5 H :    0.110019
   6 H :    0.115873
   7 H :    0.111173
   8 H :    0.115854
   9 H :    0.110027

  Mayer bond orders larger than 0.100000
B(  0-C ,  1-S ) :   0.9656 B(  0-C ,  4-H ) :   0.9620 B(  0-C ,  5-H ) :   0.9495
B(  0-C ,  6-H ) :   0.9597 B(  1-S ,  2-O ) :   1.6318 B(  1-S ,  3-C ) :   0.9656
B(  3-C ,  7-H ) :   0.9620 B(  3-C ,  8-H ) :   0.9598 B(  3-C ,  9-H ) :   0.9494

FINAL SINGLE POINT ENERGY      -553.165245552917

DIPOLE MOMENT
-------------

Method             : SCF
Type of density    : Electron Density
Multiplicity       :   1
Irrep              :   0
Energy             :  -553.1721693812174863 Eh
Relativity type    :
Basis              : AO
                                X                 Y                 Z
Electronic contribution:      0.004878657       4.266947436      -2.169894568
Nuclear contribution   :     -0.006909961      -5.978409059       1.949579385
                        -----------------------------------------
Total Dipole Moment    :     -0.002031304      -1.711461623      -0.220315183
                        -----------------------------------------
Magnitude (a.u.)       :      1.725585058
Magnitude (Debye)      :      4.386088651

Rotational constants in cm-1:             0.225556             0.223189             0.136419
Rotational constants in MHz :          6762.006819          6691.032342          4089.753623

                             ****ORCA TERMINATED NORMALLY****
TOTAL RUN TIME: 0 days 0 hours 0 minutes 46 seconds 596 msec
