                         Program Version 6.0.0  -   RELEASE  -
|  1> ! wb97x-v def2-tzvp def2/J RIJCOSX DEFGRID2 scfconv7 GCP(DFT/TZ) printgap
|  2> %output
|  3>     printlevel normal
|  4> end
|  5> %cpcm
|  6>     smd true
|  7>     smdsolvent "water"
|  8> end
|  9> * xyz 0 1
| 10> C -1.3660903710073784 -0.876454749849677 0.22881848626351634
| 11> S 0.00011750407843157871 0.13864125042855407 -0.42864818797637294
| 12> O 0.001713249764468185 1.4380455544033515 0.40487528878919776
| 13> C 1.364068922252668 -0.8796501073438149 0.22854632531271962
| 14> H -1.2524047686423205 -0.9650685454340028 1.3128680586130077
| 15> H -1.338640554385881 -1.8601339546303295 -0.24908515807095688
| 16> H -2.300073346522831 -0.3678468204692674 -0.021550133006270282
| 17> H 1.2512989771294718 -0.9663386180845085 1.312850362111843
| 18> H 2.2993265236076175 -0.37426724133945066 -0.023576242517219858
| 19> H 1.333058822545049 -1.863942756684424 -0.2478731726191999
| 20> *
| 21>
| 22>                          ****END OF INPUT****

CARTESIAN COORDINATES (ANGSTROEM)
---------------------------------
  C     -1.366090   -0.876455    0.228818
  S      0.000118    0.138641   -0.428648
  O      0.001713    1.438046    0.404875
  C      1.364069   -0.879650    0.228546
  H     -1.252405   -0.965069    1.312868
  H     -1.338641   -1.860134   -0.249085
  H     -2.300073   -0.367847   -0.021550
  H      1.251299   -0.966339    1.312850
  H      2.299327   -0.374267   -0.023576
  H      1.333059   -1.863943   -0.247873

 Total Charge           Charge          ....    0
 Multiplicity           Mult            ....    1
 Number of Electrons    NEL             ....   42
 Basis Dimension        Dim             ....  166

ORBITAL ENERGIES
----------------

  NO   OCC          E(Eh)            E(eV)
   0   2.0000     -94.230367     -2564.1386
   1   2.0000     -21.638711      -588.8193
   2   2.0000     -12.066939      -328.3581
   3   2.0000     -12.066726      -328.3523
   4   2.0000      -9.728462      -264.7249
   5   2.0000      -7.706981      -209.7176
   6   2.0000      -7.706573      -209.7065
   7   2.0000      -7.704372      -209.6466
   8   2.0000      -1.642925       -44.7063
   9   2.0000      -1.311300       -35.6823
  10   2.0000      -1.201535       -32.6954
  11   2.0000      -1.116457       -30.3803
  12   2.0000      -0.959700       -26.1148
  13   2.0000      -0.919801       -25.0290
  14   2.0000      -0.914100       -24.8739
  15   2.0000      -0.857529       -23.3345
  16   2.0000      -0.843185       -22.9442
  17   2.0000      -0.841948       -22.9106
  18   2.0000      -0.832172       -22.6446
  19   2.0000      -0.794960       -21.6320
  20   2.0000      -0.725843       -19.7512
  21   0.0000      -0.256341        -6.9754
  22   0.0000      -0.225270        -6.1299
  23   0.0000      -0.187935        -5.1140
  24   0.0000      -0.005369        -0.1461
  25   0.0000       0.011369         0.3094

MULLIKEN ATOMIC CHARGES
-----------------------
   0 C :   -0.395854
   1 S :    0.499042
   2 O :   -0.720360
   3 C :   -0.395864
   4 H :    0.165367
   5 H :    0.169584
   6 H :    0.171563
   7 H :    0.165369
   8 H :    0.171577
   9 H :    0.169576
Sum of atomic charges:   -0.0000000

LOEWDIN ATOMIC CHARGES
----------------------
   0 C :   -0.447636
   1 S :    0.726715
   2 O :   -0.568760
   3 C :   -0.447636
   4 H :    0.120020
   5 H :    0.127070
   6 H :    0.121569
   7 H :    0.120017
   8 H :    0.121563
   9 H :    0.127079

  Mayer bond orders larger than 0.100000
B(  0-C ,  1-S ) :   0.9793 B(  0-C ,  4-H ) :   0.9547 B(  0-C ,  5-H ) :   0.9398
B(  0-C ,  6-H ) :   0.9484 B(  1-S ,  2-O ) :   1.4918 B(  1-S ,  3-C ) :   0.9793
B(  3-C ,  7-H ) :   0.9547 B(  3-C ,  8-H ) :   0.9484 B(  3-C ,  9-H ) :   0.9398

FINAL SINGLE POINT ENERGY      -553.182578282430

DIPOLE MOMENT
-------------

Method             : SCF
Type of density    : Electron Density
Multiplicity       :   1
Irrep              :   0
Energy             :  -553.1895021107300181 Eh
Relativity type    :
Basis              : AO
                                X                 Y                 Z
Electronic contribution:      0.003976914       3.497583619      -2.265875659
Nuclear contribution   :     -0.006909961      -5.978409059       1.949579385
                        -----------------------------------------
Total Dipole Moment    :     -0.002933047      -2.480825440      -0.316296274
                        -----------------------------------------
Magnitude (a.u.)       :      2.500909195
Magnitude (Debye)      :      6.356805990

Rotational constants in cm-1:             0.225556             0.223189             0.136419
Rotational constants in MHz :          6762.006819          6691.032342          4089.753623

                             ****ORCA TERMINATED NORMALLY****
TOTAL RUN TIME: 0 days 0 hours 0 minutes 48 seconds 852 msec
