                         Program Version 6.0.0  -   RELEASE  -
|  1> ! wb97x-v def2-tzvp def2/J RIJCOSX DEFGRID2 scfconv7 GCP(DFT/TZ) printgap
|  2> %output
|  3>     printlevel normal
|  4> end
|  5> * xyz 0 1
|  6> C 2.8983551441625917 -0.07455241557757888 0.015482052992669443
|  7> C 1.4005146511062045 0.0038418530581732268 -0.004651498612562396
|  8> C 0.7131232132375595 1.2160256555491284 -0.005715270038473638
|  9> C -0.6764785371005754 1.2196331140685095 -0.004737628376128303
| 10> C -1.3687852940464755 0.009125914781937992 -0.0016660801485861986
| 11> N -0.7180467558910728 -1.1704355809511984 -0.005776825944010911
| 12> C 0.6197673768826597 -1.1533708647236194 -0.008589821251429933
| 13> C -2.8662914710835894 -0.03768465192613925 0.011140358954940961
| 14> H 3.2625718685270986 -0.33261844772178717 1.0166003632586185
| 15> H 3.263056252066717 -0.8449243877590726 -0.6705229389902866
| 16> H 3.344848476005037 0.8824191349207832 -0.2657874292398138
| 17> H 1.2630722995832373 2.153247640162218 -0.010200209263704843
| 18> H -1.2251338499825943 2.156055828531442 -0.008760039892214227
| 19> H 1.1098022463583663 -2.126851605559963 -0.01634607157125285
| 20> H -3.2278104762579694 -0.49142488629390774 0.9407541286529105
| 21> H -3.2943613874772875 0.9635543655356026 -0.07237344313227685
| 22> H -3.2421807356327568 -0.650658487179215 -0.814329239516386
| 23> *
| 24>
| 25>                          ****END OF INPUT****

CARTESIAN COORDINATES (ANGSTROEM)
---------------------------------
  C      2.898355   -0.074552    0.015482
  C      1.400515    0.003842   -0.004651
  C      0.713123    1.216026   -0.005715
  C     -0.676479    1.219633   -0.004738
  C     -1.368785    0.009126   -0.001666
  N     -0.718047   -1.170436   -0.005777
  C      0.619767   -1.153371   -0.008590
  C     -2.866291   -0.037685    0.011140
  H      3.262572   -0.332618    1.016600
  H      3.263056   -0.844924   -0.670523
  H      3.344848    0.882419   -0.265787
  H      1.263072    2.153248   -0.010200
  H     -1.225134    2.156056   -0.008760
  H      1.109802   -2.126852   -0.016346
  H     -3.227810   -0.491425    0.940754
  H     -3.294361    0.963554   -0.072373
  H     -3.242181   -0.650658   -0.814329

 Total Charge           Charge          ....    0
 Multiplicity           Mult            ....    1
 Number of Electrons    NEL             ....   58
 Basis Dimension        Dim             ....  302

ORBITAL ENERGIES
----------------

  NO   OCC          E(Eh)            E(eV)
   0   2.0000     -16.518287      -449.4854
   1   2.0000     -12.086865      -328.9003
   2   2.0000     -12.078017      -328.6596
   3   2.0000     -12.064789      -328.2996
   4   2.0000     -12.061834      -328.2192
   5   2.0000     -12.052669      -327.9698
   6   2.0000     -12.050163      -327.9016
   7   2.0000     -12.039091      -327.6003
   8   2.0000      -1.512393       -41.1543
   9   2.0000      -1.349124       -36.7115
  10   2.0000      -1.315323       -35.7917
  11   2.0000      -1.236622       -33.6502
  12   2.0000      -1.181053       -32.1381
  13   2.0000      -1.141170       -31.0528
  14   2.0000      -1.105266       -30.0758
  15   2.0000      -0.998744       -27.1772
  16   2.0000      -0.956440       -26.0261
  17   2.0000      -0.913563       -24.8593
  18   2.0000      -0.874771       -23.8037
  19   2.0000      -0.868887       -23.6436
  20   2.0000      -0.856382       -23.3033
  21   2.0000      -0.841117       -22.8880
  22   2.0000      -0.839882       -22.8544
  23   2.0000      -0.823111       -22.3980
  24   2.0000      -0.817601       -22.2481
  25   2.0000      -0.796207       -21.6659
  26   2.0000      -0.755264       -20.5518
  27   2.0000      -0.690757       -18.7964
  28   2.0000      -0.638390       -17.3715
  29   0.0000      -0.287135        -7.8133
  30   0.0000      -0.243251        -6.6192
  31   0.0000      -0.095758        -2.6057
  32   0.0000      -0.051771        -1.4088
  33   0.0000      -0.037260        -1.0139

MULLIKEN ATOMIC CHARGES
-----------------------
   0 C :   -0.354079
   1 C :    0.136005
   2 C :   -0.181185
   3 C :   -0.171069
   4 C :    0.180431
   5 N :   -0.235593
   6 C :   -0.108865
   7 C :   -0.350507
   8 H :    0.127821
   9 H :    0.125613
  10 H :    0.117449
  11 H :    0.122193
  12 H :    0.117034
  13 H :    0.116526
  14 H :    0.123512
  15 H :    0.108657
  16 H :    0.126056
Sum of atomic charges:    0.0000000

LOEWDIN ATOMIC CHARGES
----------------------
   0 C :   -0.252473
   1 C :   -0.187740
   2 C :   -0.097101
   3 C :   -0.129466
   4 C :   -0.239937
   5 N :    0.145157
   6 C :   -0.174419
   7 C :   -0.253920
   8 H :    0.128874
   9 H :    0.127962
  10 H :    0.125117
  11 H :    0.145278
  12 H :    0.144120
  13 H :    0.136995
  14 H :    0.130228
  15 H :    0.121349
  16 H :    0.129977

  Mayer bond orders larger than 0.100000
B(  0-C ,  1-C ) :   0.9208 B(  0-C ,  8-H ) :   0.9648 B(  0-C ,  9-H ) :   0.9843
B(  0-C , 10-H ) :   0.9933 B(  1-C ,  2-C ) :   1.4275 B(  1-C ,  6-C ) :   1.3506
B(  2-C ,  3-C ) :   1.4595 B(  2-C , 11-H ) :   0.9649 B(  3-C ,  4-C ) :   1.4374
B(  3-C , 12-H ) :   0.9584 B(  4-C ,  5-N ) :   1.4114 B(  4-C ,  7-C ) :   0.9434
B(  5-N ,  6-C ) :   1.5620 B(  6-C , 13-H ) :   0.9981 B(  7-C , 14-H ) :   0.9657
B(  7-C , 15-H ) :   0.9983 B(  7-C , 16-H ) :   0.9730

FINAL SINGLE POINT ENERGY      -326.931908049425

DIPOLE MOMENT
-------------

Method             : SCF
Type of density    : Electron Density
Multiplicity       :   1
Irrep              :   0
Energy             :  -326.9416478284253458 Eh
Relativity type    :
Basis              : AO
                                X                 Y                 Z
Electronic contribution:     -0.752412142      -0.956306357      -0.072866147
Nuclear contribution   :      1.183699292       1.633184050       0.090194183
                        -----------------------------------------
Total Dipole Moment    :      0.431287150       0.676877693       0.017328035
                        -----------------------------------------
Magnitude (a.u.)       :      0.802790307
Magnitude (Debye)      :      2.040530798

Rotational constants in cm-1:             0.184932             0.049384             0.039550
Rotational constants in MHz :          5544.108234          1480.498489          1185.680605

                             ****ORCA TERMINATED NORMALLY****
TOTAL RUN TIME: 0 days 0 hours 2 minutes 26 seconds 718 msec
