                         Program Version 6.0.0  -   RELEASE  -
|  1> ! r2scan-3c def2/J RI DEFGRID2 scfconv6 printgap
|  2> %output
|  3>     printlevel normal
|  4> end
|  5> * xyz 0 1
|  6> C -2.0419888183 0.033336155 1.71162e-05
|  7> C -0.703747366 0.7055507651 -7.418e-07
|  8> C 0.4542165689 0.0546339729 5.258e-07
|  9> C 1.7738446679 0.764822257 9.854e-06
| 10> C 0.5137803019 -1.4464904195 -1.0537e-06
| 11> H -2.1514577808 -0.6068825764 0.8756316199
| 12> H -2.843471598 0.7661651853 0.0051917111
| 13> H -2.155497566 -0.598686492 -0.8810732562
| 14> H -0.7074320777 1.7870299109 -0.0002077745
| 15> H 2.3509993204 0.4838564734 -0.8804109902
| 16> H 1.6397533622 1.8434839853 0.0003463025
| 17> H 2.3512678463 0.4833517869 0.8800975182
| 18> H 0.0104052945 -1.8485153563 0.8785319643
| 19> H 0.0090437819 -1.8486830324 -0.8776990241
| 20> H 1.5427984533 -1.7939696646 -0.0007143212
| 21> *
| 22>
| 23>                          ****END OF INPUT****

CARTESIAN COORDINATES (ANGSTROEM)
---------------------------------
  C     -2.041989    0.033336    0.000017
  C     -0.703747    0.705551   -0.000001
  C      0.454217    0.054634    0.000001
  C      1.773845    0.764822    0.000010
  C      0.513780   -1.446490   -0.000001
  H     -2.151458   -0.606883    0.875632
  H     -2.843472    0.766165    0.005192
  H     -2.155498   -0.598686   -0.881073
  H     -0.707432    1.787030   -0.000208
  H      2.350999    0.483856   -0.880411
  H      1.639753    1.843484    0.000346
  H      2.351268    0.483352    0.880098
  H      0.010405   -1.848515    0.878532
  H      0.009044   -1.848683   -0.877699
  H      1.542798   -1.793970   -0.000714

 Total Charge           Charge          ....    0
 Multiplicity           Mult            ....    1
 Number of Electrons    NEL             ....   40
 Basis Dimension        Dim             ....  145

ORBITAL ENERGIES
----------------

  NO   OCC          E(Eh)            E(eV)
   0   2.0000     -10.029099      -272.9057
   1   2.0000     -10.021000      -272.6853
   2   2.0000     -10.019341      -272.6401
   3   2.0000     -10.017912      -272.6013
   4   2.0000     -10.011714      -272.4326
   5   2.0000      -0.778860       -21.1939
   6   2.0000      -0.697521       -18.9805
   7   2.0000      -0.658320       -17.9138
   8   2.0000      -0.599526       -16.3139
   9   2.0000      -0.477820       -13.0021
  10   2.0000      -0.427759       -11.6399
  11   2.0000      -0.404238       -10.9999
  12   2.0000      -0.400611       -10.9012
  13   2.0000      -0.370189       -10.0733
  14   2.0000      -0.356026        -9.6880
  15   2.0000      -0.355551        -9.6750
  16   2.0000      -0.333093        -9.0639
  17   2.0000      -0.318905        -8.6778
  18   2.0000      -0.295512        -8.0413
  19   2.0000      -0.204359        -5.5609
  20   0.0000       0.003125         0.0850
  21   0.0000       0.090645         2.4666
  22   0.0000       0.115319         3.1380
  23   0.0000       0.119262         3.2453
  24   0.0000       0.137420         3.7394

MULLIKEN ATOMIC CHARGES
-----------------------
   0 C :   -0.478740
   1 C :   -0.181243
   2 C :    0.158781
   3 C :   -0.500081
   4 C :   -0.535434
   5 H :    0.154553
   6 H :    0.146391
   7 H :    0.155020
   8 H :    0.153846
   9 H :    0.151146
  10 H :    0.147518
  11 H :    0.151142
  12 H :    0.163466
  13 H :    0.163275
  14 H :    0.150360
Sum of atomic charges:    0.0000000

LOEWDIN ATOMIC CHARGES
----------------------
   0 C :   -0.414458
   1 C :   -0.233511
   2 C :   -0.147452
   3 C :   -0.396375
   4 C :   -0.402776
   5 H :    0.158977
   6 H :    0.155031
   7 H :    0.159040
   8 H :    0.160445
   9 H :    0.157855
  10 H :    0.157520
  11 H :    0.157855
  12 H :    0.164991
  13 H :    0.165000
  14 H :    0.157858

  Mayer bond orders larger than 0.100000
B(  0-C ,  1-C ) :   0.9093 B(  0-C ,  5-H ) :   0.9833 B(  0-C ,  6-H ) :   0.9707
B(  0-C ,  7-H ) :   0.9833 B(  1-C ,  2-C ) :   1.8974 B(  1-C ,  8-H ) :   0.9545
B(  2-C ,  3-C ) :   0.8509 B(  2-C ,  4-C ) :   0.8403 B(  3-C ,  9-H ) :   0.9710
B(  3-C , 10-H ) :   1.0003 B(  3-C , 11-H ) :   0.9710 B(  4-C , 12-H ) :   0.9842
B(  4-C , 13-H ) :   0.9839 B(  4-C , 14-H ) :   0.9792

Dispersion correction           -0.003379098
FINAL SINGLE POINT ENERGY      -196.463538540601

DIPOLE MOMENT
-------------

Method             : SCF
Type of density    : Electron Density
Multiplicity       :   1
Irrep              :   0
Energy             :  -196.4667517647224031 Eh
Relativity type    :
Basis              : AO
                                X                 Y                 Z
Electronic contribution:      0.003745352       1.119790811       0.000048178
Nuclear contribution   :      0.043539633      -1.250441618      -0.000287315
                        -----------------------------------------
Total Dipole Moment    :      0.047284985      -0.130650807      -0.000239138
                        -----------------------------------------
Magnitude (a.u.)       :      0.138944450
Magnitude (Debye)      :      0.353168726

Rotational constants in cm-1:             0.274792             0.121728             0.088497
Rotational constants in MHz :          8238.060068          3649.316056          2653.063971

                             ****ORCA TERMINATED NORMALLY****
TOTAL RUN TIME: 0 days 0 hours 0 minutes 8 seconds 35 msec
