                         Program Version 6.0.0  -   RELEASE  -
|  1> ! r2scan-3c def2/J RI DEFGRID2 scfconv6 printgap
|  2> %output
|  3>     printlevel normal
|  4> end
|  5> %cpcm
|  6>     smd true
|  7>     smdsolvent "water"
|  8> end
|  9> * xyz 0 1
| 10> C -2.0419888183 0.033336155 1.71162e-05
| 11> C -0.703747366 0.7055507651 -7.418e-07
| 12> C 0.4542165689 0.0546339729 5.258e-07
| 13> C 1.7738446679 0.764822257 9.854e-06
| 14> C 0.5137803019 -1.4464904195 -1.0537e-06
| 15> H -2.1514577808 -0.6068825764 0.8756316199
| 16> H -2.843471598 0.7661651853 0.0051917111
| 17> H -2.155497566 -0.598686492 -0.8810732562
| 18> H -0.7074320777 1.7870299109 -0.0002077745
| 19> H 2.3509993204 0.4838564734 -0.8804109902
| 20> H 1.6397533622 1.8434839853 0.0003463025
| 21> H 2.3512678463 0.4833517869 0.8800975182
| 22> H 0.0104052945 -1.8485153563 0.8785319643
| 23> H 0.0090437819 -1.8486830324 -0.8776990241
| 24> H 1.5427984533 -1.7939696646 -0.0007143212
| 25> *
| 26>
| 27>                          ****END OF INPUT****

CARTESIAN COORDINATES (ANGSTROEM)
---------------------------------
  C     -2.041989    0.033336    0.000017
  C     -0.703747    0.705551   -0.000001
  C      0.454217    0.054634    0.000001
  C      1.773845    0.764822    0.000010
  C      0.513780   -1.446490   -0.000001
  H     -2.151458   -0.606883    0.875632
  H     -2.843472    0.766165    0.005192
  H     -2.155498   -0.598686   -0.881073
  H     -0.707432    1.787030   -0.000208
  H      2.350999    0.483856   -0.880411
  H      1.639753    1.843484    0.000346
  H      2.351268    0.483352    0.880098
  H      0.010405   -1.848515    0.878532
  H      0.009044   -1.848683   -0.877699
  H      1.542798   -1.793970   -0.000714

 Total Charge           Charge          ....    0
 Multiplicity           Mult            ....    1
 Number of Electrons    NEL             ....   40
 Basis Dimension        Dim             ....  145

ORBITAL ENERGIES
----------------

  NO   OCC          E(Eh)            E(eV)
   0   2.0000     -10.027842      -272.8715
   1   2.0000     -10.013220      -272.4736
   2   2.0000     -10.012956      -272.4664
   3   2.0000     -10.011901      -272.4377
   4   2.0000     -10.009223      -272.3648
   5   2.0000      -0.775956       -21.1148
   6   2.0000      -0.692922       -18.8554
   7   2.0000      -0.652242       -17.7484
   8   2.0000      -0.595676       -16.2092
   9   2.0000      -0.473558       -12.8862
  10   2.0000      -0.422351       -11.4927
  11   2.0000      -0.399302       -10.8656
  12   2.0000      -0.395912       -10.7733
  13   2.0000      -0.364838        -9.9277
  14   2.0000      -0.349190        -9.5020
  15   2.0000      -0.348405        -9.4806
  16   2.0000      -0.326955        -8.8969
  17   2.0000      -0.314060        -8.5460
  18   2.0000      -0.290905        -7.9159
  19   2.0000      -0.204310        -5.5596
  20   0.0000       0.003846         0.1046
  21   0.0000       0.096752         2.6327
  22   0.0000       0.121214         3.2984
  23   0.0000       0.125136         3.4051
  24   0.0000       0.143808         3.9132

MULLIKEN ATOMIC CHARGES
-----------------------
   0 C :   -0.505786
   1 C :   -0.243049
   2 C :    0.138744
   3 C :   -0.524513
   4 C :   -0.559052
   5 H :    0.169369
   6 H :    0.161994
   7 H :    0.169748
   8 H :    0.176662
   9 H :    0.166400
  10 H :    0.161634
  11 H :    0.166400
  12 H :    0.177961
  13 H :    0.177705
  14 H :    0.165783
Sum of atomic charges:    0.0000000

LOEWDIN ATOMIC CHARGES
----------------------
   0 C :   -0.422963
   1 C :   -0.254139
   2 C :   -0.151718
   3 C :   -0.404510
   4 C :   -0.408600
   5 H :    0.163635
   6 H :    0.158939
   7 H :    0.163683
   8 H :    0.165745
   9 H :    0.163453
  10 H :    0.160363
  11 H :    0.163453
  12 H :    0.170032
  13 H :    0.170014
  14 H :    0.162611

  Mayer bond orders larger than 0.100000
B(  0-C ,  1-C ) :   0.8964 B(  0-C ,  5-H ) :   0.9785 B(  0-C ,  6-H ) :   0.9679
B(  0-C ,  7-H ) :   0.9784 B(  1-C ,  2-C ) :   1.8719 B(  1-C ,  8-H ) :   0.9600
B(  2-C ,  3-C ) :   0.8538 B(  2-C ,  4-C ) :   0.8386 B(  3-C ,  9-H ) :   0.9641
B(  3-C , 10-H ) :   0.9975 B(  3-C , 11-H ) :   0.9641 B(  4-C , 12-H ) :   0.9786
B(  4-C , 13-H ) :   0.9784 B(  4-C , 14-H ) :   0.9755

Dispersion correction           -0.003379098
FINAL SINGLE POINT ENERGY      -196.462099629929

DIPOLE MOMENT
-------------

Method             : SCF
Type of density    : Electron Density
Multiplicity       :   1
Irrep              :   0
Energy             :  -196.4653128540508078 Eh
Relativity type    :
Basis              : AO
                                X                 Y                 Z
Electronic contribution:      0.043979435       1.043007721       0.000011564
Nuclear contribution   :      0.043539633      -1.250441618      -0.000287315
                        -----------------------------------------
Total Dipole Moment    :      0.087519068      -0.207433897      -0.000275752
                        -----------------------------------------
Magnitude (a.u.)       :      0.225141033
Magnitude (Debye)      :      0.572263027

Rotational constants in cm-1:             0.274792             0.121728             0.088497
Rotational constants in MHz :          8238.060068          3649.316056          2653.063971

                             ****ORCA TERMINATED NORMALLY****
TOTAL RUN TIME: 0 days 0 hours 0 minutes 9 seconds 753 msec
