                         Program Version 6.0.0  -   RELEASE  -
|  1> ! pbe def2-sv(p) def2/J RI DEFGRID1 loosescf d4 GCP(DFT/SV(P)) printgap
|  2> %output
|  3>     printlevel normal
|  4> end
|  5> * xyz 0 1
|  6> C 2.1336992827 0.0377723738 0.5781445841
|  7> C 0.9528740744 -0.7506060331 0.0240491556
|  8> C -0.4028619314 -0.0063726975 -0.0887735993
|  9> C -0.3569314644 1.4501607717 0.3854654481
| 10> C -1.4798233627 -0.7578795634 0.7067182037
| 11> O -0.7275183831 -0.0391395237 -1.481031387
| 12> H 2.3537697658 0.9065851442 -0.0351526743
| 13> H 3.0127074163 -0.6025608077 0.5833177369
| 14> H 1.9474999915 0.3642461752 1.5974982948
| 15> H 0.8132312015 -1.6412419733 0.6383591518
| 16> H 1.1974412353 -1.0868306108 -0.9858336976
| 17> H -1.3447244113 1.8968906732 0.2876056799
| 18> H -0.059147523 1.5053416862 1.4271356661
| 19> H 0.3398500961 2.024594216 -0.2183216421
| 20> H -1.2060560014 -0.7986914631 1.7569969298
| 21> H -2.4421467717 -0.2570818187 0.6182806962
| 22> H -1.580508524 -1.7716894634 0.3256840196
| 23> H -1.5763535106 0.4026020031 -1.6194352037
| 24> *
| 25>
| 26>                          ****END OF INPUT****

CARTESIAN COORDINATES (ANGSTROEM)
---------------------------------
  C      2.133699    0.037772    0.578145
  C      0.952874   -0.750606    0.024049
  C     -0.402862   -0.006373   -0.088774
  C     -0.356931    1.450161    0.385465
  C     -1.479823   -0.757880    0.706718
  O     -0.727518   -0.039140   -1.481031
  H      2.353770    0.906585   -0.035153
  H      3.012707   -0.602561    0.583318
  H      1.947500    0.364246    1.597498
  H      0.813231   -1.641242    0.638359
  H      1.197441   -1.086831   -0.985834
  H     -1.344724    1.896891    0.287606
  H     -0.059148    1.505342    1.427136
  H      0.339850    2.024594   -0.218322
  H     -1.206056   -0.798691    1.756997
  H     -2.442147   -0.257082    0.618281
  H     -1.580509   -1.771689    0.325684
  H     -1.576354    0.402602   -1.619435

 Total Charge           Charge          ....    0
 Multiplicity           Mult            ....    1
 Number of Electrons    NEL             ....   50
 Basis Dimension        Dim             ....  108

ORBITAL ENERGIES
----------------

  NO   OCC          E(Eh)            E(eV)
   0   2.0000     -18.733970      -509.7772
   1   2.0000      -9.944729      -270.6098
   2   2.0000      -9.877098      -268.7695
   3   2.0000      -9.872915      -268.6557
   4   2.0000      -9.872376      -268.6410
   5   2.0000      -9.871640      -268.6210
   6   2.0000      -0.912411       -24.8280
   7   2.0000      -0.714163       -19.4334
   8   2.0000      -0.655527       -17.8378
   9   2.0000      -0.617115       -16.7925
  10   2.0000      -0.568318       -15.4647
  11   2.0000      -0.493144       -13.4191
  12   2.0000      -0.437284       -11.8991
  13   2.0000      -0.412342       -11.2204
  14   2.0000      -0.396691       -10.7945
  15   2.0000      -0.368850       -10.0369
  16   2.0000      -0.365514        -9.9461
  17   2.0000      -0.354872        -9.6566
  18   2.0000      -0.334266        -9.0958
  19   2.0000      -0.317262        -8.6331
  20   2.0000      -0.304232        -8.2786
  21   2.0000      -0.294989        -8.0271
  22   2.0000      -0.284648        -7.7457
  23   2.0000      -0.262208        -7.1350
  24   2.0000      -0.207876        -5.6566
  25   0.0000       0.022162         0.6031
  26   0.0000       0.055956         1.5226
  27   0.0000       0.076492         2.0814
  28   0.0000       0.081225         2.2103
  29   0.0000       0.090223         2.4551

MULLIKEN ATOMIC CHARGES
-----------------------
   0 C :   -0.268878
   1 C :   -0.136718
   2 C :   -0.050466
   3 C :   -0.199287
   4 C :   -0.239901
   5 O :   -0.427098
   6 H :    0.103051
   7 H :    0.103490
   8 H :    0.095087
   9 H :    0.077968
  10 H :    0.095977
  11 H :    0.083906
  12 H :    0.091310
  13 H :    0.100418
  14 H :    0.095813
  15 H :    0.080659
  16 H :    0.107804
  17 H :    0.286866
Sum of atomic charges:   -0.0000000

LOEWDIN ATOMIC CHARGES
----------------------
   0 C :   -0.340229
   1 C :   -0.227154
   2 C :   -0.011013
   3 C :   -0.339660
   4 C :   -0.340174
   5 O :   -0.325129
   6 H :    0.119170
   7 H :    0.121460
   8 H :    0.114514
   9 H :    0.117133
  10 H :    0.129256
  11 H :    0.112663
  12 H :    0.121194
  13 H :    0.121207
  14 H :    0.120091
  15 H :    0.109628
  16 H :    0.121139
  17 H :    0.275904

  Mayer bond orders larger than 0.100000
B(  0-C ,  1-C ) :   1.2081 B(  0-C ,  6-H ) :   0.9441 B(  0-C ,  7-H ) :   0.9460
B(  0-C ,  8-H ) :   0.9441 B(  1-C ,  2-C ) :   1.0208 B(  1-C ,  9-H ) :   0.9240
B(  1-C , 10-H ) :   0.9040 B(  2-C ,  3-C ) :   1.1535 B(  2-C ,  4-C ) :   1.0894
B(  2-C ,  5-O ) :   1.0161 B(  3-C , 11-H ) :   0.9368 B(  3-C , 12-H ) :   0.9261
B(  3-C , 13-H ) :   0.9298 B(  4-C , 14-H ) :   0.9380 B(  4-C , 15-H ) :   0.9414
B(  4-C , 16-H ) :   0.9406 B(  5-O , 17-H ) :   0.8551

Dispersion correction           -0.013536703
FINAL SINGLE POINT ENERGY      -272.302028798536

DIPOLE MOMENT
-------------

Method             : SCF
Type of density    : Electron Density
Multiplicity       :   1
Irrep              :   0
Energy             :  -272.3710793888087665 Eh
Relativity type    :
Basis              : AO
                                X                 Y                 Z
Electronic contribution:     -1.654753317      -0.646089145      -3.734687153
Nuclear contribution   :      1.354759531       0.883322924       4.083551475
                        -----------------------------------------
Total Dipole Moment    :     -0.299993786       0.237233779       0.348864322
                        -----------------------------------------
Magnitude (a.u.)       :      0.517670216
Magnitude (Debye)      :      1.315813120

Rotational constants in cm-1:             0.149188             0.084926             0.083275
Rotational constants in MHz :          4472.548213          2546.027008          2496.533090

                             ****ORCA TERMINATED NORMALLY****
TOTAL RUN TIME: 0 days 0 hours 0 minutes 6 seconds 860 msec
