                         Program Version 6.0.0  -   RELEASE  -
|  1> ! r2scan-3c def2/J RI DEFGRID2 scfconv6 printgap
|  2> %output
|  3>     printlevel normal
|  4> end
|  5> * xyz 0 1
|  6> C -3.6461144753 0.0405607545 0.0094849903
|  7> C -2.1519886142 0.0146299515 -0.0071460414
|  8> C -1.4251337763 1.2031507058 -0.0076840667
|  9> C -0.0457057141 1.1990523802 -0.0043897388
| 10> C 0.6545473878 -0.0096846993 -0.0007475588
| 11> C -0.07517707 -1.201498623 0.0001771871
| 12> C -1.4538658469 -1.1890947023 -0.0028076212
| 13> C 2.1274736653 -0.0911550419 0.0011796468
| 14> O 2.704275248 -1.1716836488 -0.0016426907
| 15> C 2.9009832809 1.1987016938 0.0072981822
| 16> H -4.0240779023 0.8326572458 -0.6320835908
| 17> H -4.0556878219 -0.9114183227 -0.3162585242
| 18> H -3.9973979563 0.2351204312 1.0224172196
| 19> H -1.9546618347 2.1442900905 -0.0115945864
| 20> H 0.4823594823 2.1384301463 -0.0064343649
| 21> H 0.4717925547 -2.1333406114 0.0022634254
| 22> H -1.9969069194 -2.1225006479 -0.0027780466
| 23> H 3.9649810251 0.9767870496 0.0118630982
| 24> H 2.6470248906 1.7787042082 0.8907329471
| 25> H 2.6557060847 1.781455996 -0.8768166387
| 26> *
| 27>
| 28>                          ****END OF INPUT****

CARTESIAN COORDINATES (ANGSTROEM)
---------------------------------
  C     -3.646114    0.040561    0.009485
  C     -2.151989    0.014630   -0.007146
  C     -1.425134    1.203151   -0.007684
  C     -0.045706    1.199052   -0.004390
  C      0.654547   -0.009685   -0.000748
  C     -0.075177   -1.201499    0.000177
  C     -1.453866   -1.189095   -0.002808
  C      2.127474   -0.091155    0.001180
  O      2.704275   -1.171684   -0.001643
  C      2.900983    1.198702    0.007298
  H     -4.024078    0.832657   -0.632084
  H     -4.055688   -0.911418   -0.316259
  H     -3.997398    0.235120    1.022417
  H     -1.954662    2.144290   -0.011595
  H      0.482359    2.138430   -0.006434
  H      0.471793   -2.133341    0.002263
  H     -1.996907   -2.122501   -0.002778
  H      3.964981    0.976787    0.011863
  H      2.647025    1.778704    0.890733
  H      2.655706    1.781456   -0.876817

 Total Charge           Charge          ....    0
 Multiplicity           Mult            ....    1
 Number of Electrons    NEL             ....   72
 Basis Dimension        Dim             ....  245

ORBITAL ENERGIES
----------------

  NO   OCC          E(Eh)            E(eV)
   0   2.0000     -18.930159      -515.1158
   1   2.0000     -10.116626      -275.2874
   2   2.0000     -10.059705      -273.7385
   3   2.0000     -10.050723      -273.4941
   4   2.0000     -10.046346      -273.3750
   5   2.0000     -10.043564      -273.2993
   6   2.0000     -10.043023      -273.2846
   7   2.0000     -10.041567      -273.2449
   8   2.0000     -10.038444      -273.1600
   9   2.0000     -10.031957      -272.9834
  10   2.0000      -0.995303       -27.0836
  11   2.0000      -0.841739       -22.9049
  12   2.0000      -0.765115       -20.8198
  13   2.0000      -0.729149       -19.8412
  14   2.0000      -0.713340       -19.4110
  15   2.0000      -0.668705       -18.1964
  16   2.0000      -0.587985       -15.9999
  17   2.0000      -0.580817       -15.8048
  18   2.0000      -0.526606       -14.3297
  19   2.0000      -0.467835       -12.7304
  20   2.0000      -0.450309       -12.2535
  21   2.0000      -0.426441       -11.6041
  22   2.0000      -0.418591       -11.3904
  23   2.0000      -0.413210       -11.2440
  24   2.0000      -0.405067       -11.0224
  25   2.0000      -0.399200       -10.8628
  26   2.0000      -0.387904       -10.5554
  27   2.0000      -0.362312        -9.8590
  28   2.0000      -0.357337        -9.7236
  29   2.0000      -0.351233        -9.5575
  30   2.0000      -0.329263        -8.9597
  31   2.0000      -0.322012        -8.7624
  32   2.0000      -0.314404        -8.5554
  33   2.0000      -0.249208        -6.7813
  34   2.0000      -0.236978        -6.4485
  35   2.0000      -0.214114        -5.8263
  36   0.0000      -0.084513        -2.2997
  37   0.0000      -0.042106        -1.1458
  38   0.0000       0.009919         0.2699
  39   0.0000       0.069750         1.8980
  40   0.0000       0.087933         2.3928

MULLIKEN ATOMIC CHARGES
-----------------------
   0 C :   -0.532471
   1 C :    0.228069
   2 C :   -0.219982
   3 C :   -0.183041
   4 C :    0.149325
   5 C :   -0.193960
   6 C :   -0.217680
   7 C :    0.263161
   8 O :   -0.355195
   9 C :   -0.567207
  10 H :    0.156152
  11 H :    0.154197
  12 H :    0.175323
  13 H :    0.146730
  14 H :    0.144363
  15 H :    0.183256
  16 H :    0.147868
  17 H :    0.182947
  18 H :    0.168931
  19 H :    0.169216
Sum of atomic charges:    0.0000000

LOEWDIN ATOMIC CHARGES
----------------------
   0 C :   -0.387066
   1 C :   -0.077974
   2 C :   -0.161676
   3 C :   -0.131062
   4 C :   -0.086219
   5 C :   -0.092327
   6 C :   -0.159636
   7 C :    0.237195
   8 O :   -0.482046
   9 C :   -0.383810
  10 H :    0.164672
  11 H :    0.162100
  12 H :    0.170231
  13 H :    0.169963
  14 H :    0.173140
  15 H :    0.192047
  16 H :    0.170414
  17 H :    0.176807
  18 H :    0.172569
  19 H :    0.172679

  Mayer bond orders larger than 0.100000
B(  0-C ,  1-C ) :   0.8009 B(  0-C , 10-H ) :   0.9835 B(  0-C , 11-H ) :   0.9891
B(  0-C , 12-H ) :   0.9665 B(  1-C ,  2-C ) :   1.3725 B(  1-C ,  6-C ) :   1.3654
B(  2-C ,  3-C ) :   1.4618 B(  2-C , 13-H ) :   0.9412 B(  3-C ,  4-C ) :   1.3785
B(  3-C , 14-H ) :   0.9324 B(  4-C ,  5-C ) :   1.3948 B(  4-C ,  7-C ) :   0.9221
B(  4-C ,  8-O ) :  -0.1201 B(  5-C ,  6-C ) :   1.4082 B(  5-C ,  8-O ) :   0.1030
B(  5-C , 15-H ) :   0.9734 B(  6-C , 16-H ) :   0.9445 B(  7-C ,  8-O ) :   1.9031
B(  7-C ,  9-C ) :   0.8806 B(  9-C , 17-H ) :   0.9804 B(  9-C , 18-H ) :   0.9613
B(  9-C , 19-H ) :   0.9612

Dispersion correction           -0.006788028
FINAL SINGLE POINT ENERGY      -424.102250453686

DIPOLE MOMENT
-------------

Method             : SCF
Type of density    : Electron Density
Multiplicity       :   1
Irrep              :   0
Energy             :  -424.1023530417608640 Eh
Relativity type    :
Basis              : AO
                                X                 Y                 Z
Electronic contribution:      4.295608058      -3.451806514      -0.052879809
Nuclear contribution   :     -5.407756232       4.410972542       0.076259096
                        -----------------------------------------
Total Dipole Moment    :     -1.112148174       0.959166028       0.023379286
                        -----------------------------------------
Magnitude (a.u.)       :      1.468815721
Magnitude (Debye)      :      3.733432861

Rotational constants in cm-1:             0.121476             0.026620             0.022014
Rotational constants in MHz :          3641.760836           798.057451           659.967695

                             ****ORCA TERMINATED NORMALLY****
TOTAL RUN TIME: 0 days 0 hours 0 minutes 34 seconds 332 msec
