                         Program Version 6.0.0  -   RELEASE  -
|  1> ! r2scan-3c def2/J RI DEFGRID2 scfconv6 printgap
|  2> %output
|  3>     printlevel normal
|  4> end
|  5> %cpcm
|  6>     smd true
|  7>     smdsolvent "water"
|  8> end
|  9> * xyz 0 1
| 10> C -3.6461144753 0.0405607545 0.0094849903
| 11> C -2.1519886142 0.0146299515 -0.0071460414
| 12> C -1.4251337763 1.2031507058 -0.0076840667
| 13> C -0.0457057141 1.1990523802 -0.0043897388
| 14> C 0.6545473878 -0.0096846993 -0.0007475588
| 15> C -0.07517707 -1.201498623 0.0001771871
| 16> C -1.4538658469 -1.1890947023 -0.0028076212
| 17> C 2.1274736653 -0.0911550419 0.0011796468
| 18> O 2.704275248 -1.1716836488 -0.0016426907
| 19> C 2.9009832809 1.1987016938 0.0072981822
| 20> H -4.0240779023 0.8326572458 -0.6320835908
| 21> H -4.0556878219 -0.9114183227 -0.3162585242
| 22> H -3.9973979563 0.2351204312 1.0224172196
| 23> H -1.9546618347 2.1442900905 -0.0115945864
| 24> H 0.4823594823 2.1384301463 -0.0064343649
| 25> H 0.4717925547 -2.1333406114 0.0022634254
| 26> H -1.9969069194 -2.1225006479 -0.0027780466
| 27> H 3.9649810251 0.9767870496 0.0118630982
| 28> H 2.6470248906 1.7787042082 0.8907329471
| 29> H 2.6557060847 1.781455996 -0.8768166387
| 30> *
| 31>
| 32>                          ****END OF INPUT****

CARTESIAN COORDINATES (ANGSTROEM)
---------------------------------
  C     -3.646114    0.040561    0.009485
  C     -2.151989    0.014630   -0.007146
  C     -1.425134    1.203151   -0.007684
  C     -0.045706    1.199052   -0.004390
  C      0.654547   -0.009685   -0.000748
  C     -0.075177   -1.201499    0.000177
  C     -1.453866   -1.189095   -0.002808
  C      2.127474   -0.091155    0.001180
  O      2.704275   -1.171684   -0.001643
  C      2.900983    1.198702    0.007298
  H     -4.024078    0.832657   -0.632084
  H     -4.055688   -0.911418   -0.316259
  H     -3.997398    0.235120    1.022417
  H     -1.954662    2.144290   -0.011595
  H      0.482359    2.138430   -0.006434
  H      0.471793   -2.133341    0.002263
  H     -1.996907   -2.122501   -0.002778
  H      3.964981    0.976787    0.011863
  H      2.647025    1.778704    0.890733
  H      2.655706    1.781456   -0.876817

 Total Charge           Charge          ....    0
 Multiplicity           Mult            ....    1
 Number of Electrons    NEL             ....   72
 Basis Dimension        Dim             ....  245

ORBITAL ENERGIES
----------------

  NO   OCC          E(Eh)            E(eV)
   0   2.0000     -18.943185      -515.4703
   1   2.0000     -10.125827      -275.5377
   2   2.0000     -10.054837      -273.6060
   3   2.0000     -10.044543      -273.3259
   4   2.0000     -10.043827      -273.3064
   5   2.0000     -10.040837      -273.2251
   6   2.0000     -10.035735      -273.0862
   7   2.0000     -10.035486      -273.0794
   8   2.0000     -10.022980      -272.7391
   9   2.0000     -10.021377      -272.6955
  10   2.0000      -1.010582       -27.4993
  11   2.0000      -0.837811       -22.7980
  12   2.0000      -0.759521       -20.6676
  13   2.0000      -0.724111       -19.7041
  14   2.0000      -0.706662       -19.2293
  15   2.0000      -0.659716       -17.9518
  16   2.0000      -0.581516       -15.8239
  17   2.0000      -0.575463       -15.6592
  18   2.0000      -0.522551       -14.2193
  19   2.0000      -0.466974       -12.7070
  20   2.0000      -0.445655       -12.1269
  21   2.0000      -0.421551       -11.4710
  22   2.0000      -0.415957       -11.3188
  23   2.0000      -0.406609       -11.0644
  24   2.0000      -0.395583       -10.7644
  25   2.0000      -0.391731       -10.6595
  26   2.0000      -0.390598       -10.6287
  27   2.0000      -0.353913        -9.6305
  28   2.0000      -0.347281        -9.4500
  29   2.0000      -0.347029        -9.4431
  30   2.0000      -0.326782        -8.8922
  31   2.0000      -0.322779        -8.7833
  32   2.0000      -0.307049        -8.3552
  33   2.0000      -0.246260        -6.7011
  34   2.0000      -0.235924        -6.4198
  35   2.0000      -0.228705        -6.2234
  36   0.0000      -0.087439        -2.3793
  37   0.0000      -0.038165        -1.0385
  38   0.0000       0.010532         0.2866
  39   0.0000       0.082125         2.2347
  40   0.0000       0.101114         2.7515

MULLIKEN ATOMIC CHARGES
-----------------------
   0 C :   -0.557847
   1 C :    0.216705
   2 C :   -0.247659
   3 C :   -0.187930
   4 C :    0.135295
   5 C :   -0.209880
   6 C :   -0.263679
   7 C :    0.300471
   8 O :   -0.457151
   9 C :   -0.588036
  10 H :    0.175222
  11 H :    0.173202
  12 H :    0.192558
  13 H :    0.180543
  14 H :    0.180132
  15 H :    0.192213
  16 H :    0.180843
  17 H :    0.184324
  18 H :    0.200166
  19 H :    0.200508
Sum of atomic charges:    0.0000000

LOEWDIN ATOMIC CHARGES
----------------------
   0 C :   -0.389994
   1 C :   -0.072837
   2 C :   -0.162404
   3 C :   -0.123528
   4 C :   -0.099780
   5 C :   -0.108803
   6 C :   -0.164273
   7 C :    0.248959
   8 O :   -0.561042
   9 C :   -0.380266
  10 H :    0.171999
  11 H :    0.168354
  12 H :    0.178053
  13 H :    0.182865
  14 H :    0.187529
  15 H :    0.192030
  16 H :    0.182409
  17 H :    0.176289
  18 H :    0.187151
  19 H :    0.187289

  Mayer bond orders larger than 0.100000
B(  0-C ,  1-C ) :   0.8167 B(  0-C , 10-H ) :   0.9750 B(  0-C , 11-H ) :   0.9837
B(  0-C , 12-H ) :   0.9574 B(  1-C ,  2-C ) :   1.3381 B(  1-C ,  6-C ) :   1.3419
B(  2-C ,  3-C ) :   1.4399 B(  2-C , 13-H ) :   0.9543 B(  3-C ,  4-C ) :   1.3642
B(  3-C , 14-H ) :   0.9387 B(  4-C ,  5-C ) :   1.3114 B(  4-C ,  7-C ) :   0.9438
B(  4-C ,  8-O ) :  -0.1104 B(  5-C ,  6-C ) :   1.4093 B(  5-C , 15-H ) :   0.9778
B(  6-C , 16-H ) :   0.9552 B(  7-C ,  8-O ) :   1.8311 B(  7-C ,  9-C ) :   0.8992
B(  9-C , 17-H ) :   0.9802 B(  9-C , 18-H ) :   0.9443 B(  9-C , 19-H ) :   0.9439

Dispersion correction           -0.006788028
FINAL SINGLE POINT ENERGY      -424.110503209057

DIPOLE MOMENT
-------------

Method             : SCF
Type of density    : Electron Density
Multiplicity       :   1
Irrep              :   0
Energy             :  -424.1106057971315977 Eh
Relativity type    :
Basis              : AO
                                X                 Y                 Z
Electronic contribution:      3.744670075      -2.875626975      -0.043085175
Nuclear contribution   :     -5.407756232       4.410972542       0.076259096
                        -----------------------------------------
Total Dipole Moment    :     -1.663086158       1.535345566       0.033173921
                        -----------------------------------------
Magnitude (a.u.)       :      2.263678883
Magnitude (Debye)      :      5.753814457

Rotational constants in cm-1:             0.121476             0.026620             0.022014
Rotational constants in MHz :          3641.760836           798.057451           659.967695

                             ****ORCA TERMINATED NORMALLY****
TOTAL RUN TIME: 0 days 0 hours 0 minutes 39 seconds 375 msec
