                         Program Version 6.0.0  -   RELEASE  -
|  1> ! r2scan-3c def2/J RI DEFGRID2 scfconv6 printgap
|  2> %output
|  3>     printlevel normal
|  4> end
|  5> * xyz 0 1
|  6> C -2.3872797077 -0.1858780433 0.0915878435
|  7> C -0.9161592787 -0.2799496703 0.1635901948
|  8> C -0.0556044355 0.6028960985 -0.3636701764
|  9> C 1.3766815623 0.4310765838 -0.2492669139
| 10> O 1.942825147 -0.4913234968 0.311495508
| 11> H -2.8008001694 -0.1645786019 1.0988497962
| 12> H -2.7858094673 -1.0753518756 -0.3941830954
| 13> H -2.7048661182 0.6993782774 -0.4513403922
| 14> H -0.5029766139 -1.1341953558 0.6868349391
| 15> H -0.4005217987 1.4767678219 -0.8951420033
| 16> H 1.9778619904 1.2268541003 -0.7264018303
| 17> *
| 18>
| 19>                          ****END OF INPUT****

CARTESIAN COORDINATES (ANGSTROEM)
---------------------------------
  C     -2.387280   -0.185878    0.091588
  C     -0.916159   -0.279950    0.163590
  C     -0.055604    0.602896   -0.363670
  C      1.376682    0.431077   -0.249267
  O      1.942825   -0.491323    0.311496
  H     -2.800800   -0.164579    1.098850
  H     -2.785809   -1.075352   -0.394183
  H     -2.704866    0.699378   -0.451340
  H     -0.502977   -1.134195    0.686835
  H     -0.400522    1.476768   -0.895142
  H      1.977862    1.226854   -0.726402

 Total Charge           Charge          ....    0
 Multiplicity           Mult            ....    1
 Number of Electrons    NEL             ....   38
 Basis Dimension        Dim             ....  130

ORBITAL ENERGIES
----------------

  NO   OCC          E(Eh)            E(eV)
   0   2.0000     -18.936866      -515.2983
   1   2.0000     -10.110564      -275.1224
   2   2.0000     -10.068366      -273.9742
   3   2.0000     -10.047422      -273.4043
   4   2.0000     -10.041970      -273.2559
   5   2.0000      -0.997978       -27.1564
   6   2.0000      -0.787991       -21.4423
   7   2.0000      -0.700484       -19.0611
   8   2.0000      -0.596908       -16.2427
   9   2.0000      -0.513619       -13.9763
  10   2.0000      -0.464481       -12.6392
  11   2.0000      -0.426912       -11.6169
  12   2.0000      -0.409479       -11.1425
  13   2.0000      -0.382249       -10.4015
  14   2.0000      -0.371566       -10.1108
  15   2.0000      -0.363912        -9.9026
  16   2.0000      -0.341630        -9.2962
  17   2.0000      -0.254970        -6.9381
  18   2.0000      -0.217674        -5.9232
  19   0.0000      -0.096724        -2.6320
  20   0.0000       0.037771         1.0278
  21   0.0000       0.085299         2.3211
  22   0.0000       0.100684         2.7397
  23   0.0000       0.127260         3.4629

MULLIKEN ATOMIC CHARGES
-----------------------
   0 C :   -0.490339
   1 C :   -0.003870
   2 C :   -0.170249
   3 C :    0.106098
   4 O :   -0.366633
   5 H :    0.163154
   6 H :    0.163107
   7 H :    0.155518
   8 H :    0.187741
   9 H :    0.153585
  10 H :    0.101888
Sum of atomic charges:    0.0000000

LOEWDIN ATOMIC CHARGES
----------------------
   0 C :   -0.397467
   1 C :   -0.090873
   2 C :   -0.223514
   3 C :    0.192370
   4 O :   -0.480177
   5 H :    0.170100
   6 H :    0.170084
   7 H :    0.160082
   8 H :    0.180982
   9 H :    0.167137
  10 H :    0.151275

  Mayer bond orders larger than 0.100000
B(  0-C ,  1-C ) :   0.8892 B(  0-C ,  5-H ) :   0.9553 B(  0-C ,  6-H ) :   0.9554
B(  0-C ,  7-H ) :   0.9920 B(  1-C ,  2-C ) :   1.7846 B(  1-C ,  4-O ) :   0.1615
B(  1-C ,  8-H ) :   0.9343 B(  2-C ,  3-C ) :   1.0218 B(  2-C ,  4-O ) :  -0.1250
B(  2-C ,  9-H ) :   0.9374 B(  3-C ,  4-O ) :   1.8986 B(  3-C , 10-H ) :   0.9943

Dispersion correction           -0.002199189
FINAL SINGLE POINT ENERGY      -231.170822961827

DIPOLE MOMENT
-------------

Method             : SCF
Type of density    : Electron Density
Multiplicity       :   1
Irrep              :   0
Energy             :  -231.1729268330646505 Eh
Relativity type    :
Basis              : AO
                                X                 Y                 Z
Electronic contribution:      5.485344634      -0.477843160       0.335384172
Nuclear contribution   :     -6.742051485       0.957966326      -0.634629258
                        -----------------------------------------
Total Dipole Moment    :     -1.256706851       0.480123166      -0.299245085
                        -----------------------------------------
Magnitude (a.u.)       :      1.378179228
Magnitude (Debye)      :      3.503053206

Rotational constants in cm-1:             0.645286             0.088341             0.078824
Rotational constants in MHz :         19345.194812          2648.406785          2363.080287

                             ****ORCA TERMINATED NORMALLY****
TOTAL RUN TIME: 0 days 0 hours 0 minutes 13 seconds 651 msec
