                         Program Version 6.0.0  -   RELEASE  -
|  1> ! r2scan-3c def2/J RI DEFGRID2 scfconv6 printgap
|  2> %output
|  3>     printlevel normal
|  4> end
|  5> %cpcm
|  6>     smd true
|  7>     smdsolvent "water"
|  8> end
|  9> * xyz 0 1
| 10> C -2.3872797077 -0.1858780433 0.0915878435
| 11> C -0.9161592787 -0.2799496703 0.1635901948
| 12> C -0.0556044355 0.6028960985 -0.3636701764
| 13> C 1.3766815623 0.4310765838 -0.2492669139
| 14> O 1.942825147 -0.4913234968 0.311495508
| 15> H -2.8008001694 -0.1645786019 1.0988497962
| 16> H -2.7858094673 -1.0753518756 -0.3941830954
| 17> H -2.7048661182 0.6993782774 -0.4513403922
| 18> H -0.5029766139 -1.1341953558 0.6868349391
| 19> H -0.4005217987 1.4767678219 -0.8951420033
| 20> H 1.9778619904 1.2268541003 -0.7264018303
| 21> *
| 22>
| 23>                          ****END OF INPUT****

CARTESIAN COORDINATES (ANGSTROEM)
---------------------------------
  C     -2.387280   -0.185878    0.091588
  C     -0.916159   -0.279950    0.163590
  C     -0.055604    0.602896   -0.363670
  C      1.376682    0.431077   -0.249267
  O      1.942825   -0.491323    0.311496
  H     -2.800800   -0.164579    1.098850
  H     -2.785809   -1.075352   -0.394183
  H     -2.704866    0.699378   -0.451340
  H     -0.502977   -1.134195    0.686835
  H     -0.400522    1.476768   -0.895142
  H      1.977862    1.226854   -0.726402

 Total Charge           Charge          ....    0
 Multiplicity           Mult            ....    1
 Number of Electrons    NEL             ....   38
 Basis Dimension        Dim             ....  130

ORBITAL ENERGIES
----------------

  NO   OCC          E(Eh)            E(eV)
   0   2.0000     -18.947609      -515.5907
   1   2.0000     -10.116110      -275.2734
   2   2.0000     -10.061897      -273.7981
   3   2.0000     -10.032404      -272.9956
   4   2.0000     -10.026811      -272.8434
   5   2.0000      -1.011413       -27.5219
   6   2.0000      -0.778127       -21.1739
   7   2.0000      -0.688558       -18.7366
   8   2.0000      -0.589401       -16.0384
   9   2.0000      -0.505208       -13.7474
  10   2.0000      -0.461563       -12.5598
  11   2.0000      -0.428870       -11.6702
  12   2.0000      -0.392362       -10.6767
  13   2.0000      -0.381351       -10.3771
  14   2.0000      -0.371580       -10.1112
  15   2.0000      -0.358925        -9.7668
  16   2.0000      -0.328789        -8.9468
  17   2.0000      -0.251656        -6.8479
  18   2.0000      -0.230052        -6.2600
  19   0.0000      -0.095969        -2.6114
  20   0.0000       0.040892         1.1127
  21   0.0000       0.098219         2.6727
  22   0.0000       0.114950         3.1280
  23   0.0000       0.135243         3.6802

MULLIKEN ATOMIC CHARGES
-----------------------
   0 C :   -0.530962
   1 C :    0.008636
   2 C :   -0.212059
   3 C :    0.137645
   4 O :   -0.474167
   5 H :    0.185138
   6 H :    0.185005
   7 H :    0.176362
   8 H :    0.196140
   9 H :    0.193035
  10 H :    0.135226
Sum of atomic charges:    0.0000000

LOEWDIN ATOMIC CHARGES
----------------------
   0 C :   -0.398183
   1 C :   -0.071997
   2 C :   -0.230943
   3 C :    0.206411
   4 O :   -0.566122
   5 H :    0.180546
   6 H :    0.180484
   7 H :    0.167108
   8 H :    0.182630
   9 H :    0.181736
  10 H :    0.168330

  Mayer bond orders larger than 0.100000
B(  0-C ,  1-C ) :   0.8996 B(  0-C ,  5-H ) :   0.9447 B(  0-C ,  6-H ) :   0.9448
B(  0-C ,  7-H ) :   0.9886 B(  1-C ,  2-C ) :   1.7262 B(  1-C ,  4-O ) :   0.1471
B(  1-C ,  8-H ) :   0.9345 B(  2-C ,  3-C ) :   1.0624 B(  2-C ,  4-O ) :  -0.1042
B(  2-C ,  9-H ) :   0.9310 B(  3-C ,  4-O ) :   1.8182 B(  3-C , 10-H ) :   0.9768

Dispersion correction           -0.002199189
FINAL SINGLE POINT ENERGY      -231.177341431695

DIPOLE MOMENT
-------------

Method             : SCF
Type of density    : Electron Density
Multiplicity       :   1
Irrep              :   0
Energy             :  -231.1794453029318106 Eh
Relativity type    :
Basis              : AO
                                X                 Y                 Z
Electronic contribution:      4.993069137      -0.242812989       0.190352172
Nuclear contribution   :     -6.742051485       0.957966326      -0.634629258
                        -----------------------------------------
Total Dipole Moment    :     -1.748982347       0.715153337      -0.444277086
                        -----------------------------------------
Magnitude (a.u.)       :      1.941073331
Magnitude (Debye)      :      4.933816310

Rotational constants in cm-1:             0.645286             0.088341             0.078824
Rotational constants in MHz :         19345.194812          2648.406785          2363.080287

                             ****ORCA TERMINATED NORMALLY****
TOTAL RUN TIME: 0 days 0 hours 0 minutes 16 seconds 26 msec
