                         Program Version 6.0.0  -   RELEASE  -
|  1> ! pbe def2-sv(p) def2/J RI DEFGRID1 loosescf d4 GCP(DFT/SV(P)) printgap
|  2> %output
|  3>     printlevel normal
|  4> end
|  5> * xyz 0 1
|  6> C -2.3767145252 -1.1399442908 -0.3891564107
|  7> C -1.0763201645 -0.6231526729 0.2354677761
|  8> H -1.1594709094 -0.6490744263 1.3337630463
|  9> C -0.793786028 0.8373556956 -0.1733477319
| 10> H -0.9155159754 0.9471350701 -1.262805028
| 11> C 0.6434414484 1.2531682288 0.1724034298
| 12> H 0.70290198 1.4024773783 1.2611548793
| 13> C 1.6563956422 0.1739704953 -0.2292292375
| 14> H 1.6965541715 0.125233221 -1.3293661522
| 15> C 1.2085174709 -1.1964034385 0.3094132537
| 16> H 1.1977645224 -1.1603374815 1.4122661175
| 17> O -0.0652834489 -1.5123833297 -0.1932832365
| 18> O 2.0867857711 -2.2020889817 -0.0508699571
| 19> O 2.9090598675 0.5399129435 0.2935947676
| 20> O 0.9132179433 2.4575547483 -0.4993541261
| 21> O -1.6527664119 1.7137517623 0.5082441456
| 22> O -3.4539642641 -0.3556514868 0.0640225746
| 23> H -2.4938041827 -2.1894696897 -0.096686754
| 24> H -2.2777848758 -1.0852268813 -1.4803482853
| 25> H 1.8715339908 -2.5063114686 -0.9471306868
| 26> H 3.5173997296 -0.2106128192 0.2094575552
| 27> H 1.8069812759 2.7465426978 -0.2613260472
| 28> H -2.5651880404 1.3894434402 0.4042667513
| 29> H -4.2810959457 -0.7042617652 -0.2982977759
| 30> *
| 31>
| 32>                          ****END OF INPUT****

CARTESIAN COORDINATES (ANGSTROEM)
---------------------------------
  C     -2.376715   -1.139944   -0.389156
  C     -1.076320   -0.623153    0.235468
  H     -1.159471   -0.649074    1.333763
  C     -0.793786    0.837356   -0.173348
  H     -0.915516    0.947135   -1.262805
  C      0.643441    1.253168    0.172403
  H      0.702902    1.402477    1.261155
  C      1.656396    0.173970   -0.229229
  H      1.696554    0.125233   -1.329366
  C      1.208517   -1.196403    0.309413
  H      1.197765   -1.160337    1.412266
  O     -0.065283   -1.512383   -0.193283
  O      2.086786   -2.202089   -0.050870
  O      2.909060    0.539913    0.293595
  O      0.913218    2.457555   -0.499354
  O     -1.652766    1.713752    0.508244
  O     -3.453964   -0.355651    0.064023
  H     -2.493804   -2.189470   -0.096687
  H     -2.277785   -1.085227   -1.480348
  H      1.871534   -2.506311   -0.947131
  H      3.517400   -0.210613    0.209458
  H      1.806981    2.746543   -0.261326
  H     -2.565188    1.389443    0.404267
  H     -4.281096   -0.704262   -0.298298

 Total Charge           Charge          ....    0
 Multiplicity           Mult            ....    1
 Number of Electrons    NEL             ....   96
 Basis Dimension        Dim             ....  192

ORBITAL ENERGIES
----------------

  NO   OCC          E(Eh)            E(eV)
   0   2.0000     -18.781239      -511.0635
   1   2.0000     -18.780414      -511.0411
   2   2.0000     -18.769383      -510.7409
   3   2.0000     -18.753364      -510.3050
   4   2.0000     -18.735935      -509.8307
   5   2.0000     -18.729922      -509.6671
   6   2.0000      -9.989135      -271.8182
   7   2.0000      -9.949827      -270.7486
   8   2.0000      -9.949126      -270.7295
   9   2.0000      -9.934715      -270.3373
  10   2.0000      -9.933564      -270.3060
  11   2.0000      -9.932818      -270.2857
  12   2.0000      -0.992251       -27.0005
  13   2.0000      -0.954503       -25.9733
  14   2.0000      -0.935305       -25.4509
  15   2.0000      -0.928162       -25.2566
  16   2.0000      -0.913768       -24.8649
  17   2.0000      -0.901491       -24.5308
  18   2.0000      -0.701996       -19.1023
  19   2.0000      -0.692176       -18.8351
  20   2.0000      -0.621348       -16.9077
  21   2.0000      -0.580859       -15.8060
  22   2.0000      -0.560183       -15.2434
  23   2.0000      -0.527040       -14.3415
  24   2.0000      -0.510771       -13.8988
  25   2.0000      -0.482683       -13.1345
  26   2.0000      -0.480542       -13.0762
  27   2.0000      -0.464476       -12.6390
  28   2.0000      -0.450637       -12.2624
  29   2.0000      -0.439315       -11.9544
  30   2.0000      -0.419545       -11.4164
  31   2.0000      -0.403393       -10.9769
  32   2.0000      -0.391566       -10.6551
  33   2.0000      -0.358834        -9.7644
  34   2.0000      -0.352615        -9.5951
  35   2.0000      -0.346680        -9.4336
  36   2.0000      -0.333259        -9.0684
  37   2.0000      -0.325889        -8.8679
  38   2.0000      -0.316144        -8.6027
  39   2.0000      -0.297258        -8.0888
  40   2.0000      -0.284099        -7.7307
  41   2.0000      -0.265383        -7.2214
  42   2.0000      -0.254336        -6.9208
  43   2.0000      -0.241882        -6.5820
  44   2.0000      -0.239933        -6.5289
  45   2.0000      -0.215679        -5.8689
  46   2.0000      -0.210224        -5.7205
  47   2.0000      -0.195381        -5.3166
  48   0.0000       0.002357         0.0641
  49   0.0000       0.021367         0.5814
  50   0.0000       0.040369         1.0985
  51   0.0000       0.048367         1.3161
  52   0.0000       0.063050         1.7157

MULLIKEN ATOMIC CHARGES
-----------------------
   0 C :    0.069599
   1 C :   -0.012563
   2 H :    0.068140
   3 C :    0.059885
   4 H :    0.048934
   5 C :    0.095451
   6 H :    0.056810
   7 C :    0.041064
   8 H :    0.037031
   9 C :    0.175953
  10 H :    0.054586
  11 O :   -0.311283
  12 O :   -0.387953
  13 O :   -0.424338
  14 O :   -0.409822
  15 O :   -0.419080
  16 O :   -0.442539
  17 H :    0.090602
  18 H :    0.075468
  19 H :    0.305349
  20 H :    0.303893
  21 H :    0.305302
  22 H :    0.302008
  23 H :    0.317505
Sum of atomic charges:   -0.0000000

LOEWDIN ATOMIC CHARGES
----------------------
   0 C :   -0.121820
   1 C :   -0.067060
   2 H :    0.109023
   3 C :   -0.062354
   4 H :    0.103186
   5 C :   -0.061667
   6 H :    0.108399
   7 C :   -0.101576
   8 H :    0.097381
   9 C :   -0.004623
  10 H :    0.098151
  11 O :   -0.149436
  12 O :   -0.296505
  13 O :   -0.325313
  14 O :   -0.315558
  15 O :   -0.320954
  16 O :   -0.329607
  17 H :    0.105761
  18 H :    0.101251
  19 H :    0.290254
  20 H :    0.285202
  21 H :    0.288027
  22 H :    0.272761
  23 H :    0.297078

  Mayer bond orders larger than 0.100000
B(  0-C ,  1-C ) :   1.0641 B(  0-C , 16-O ) :   1.0562 B(  0-C , 17-H ) :   0.9194
B(  0-C , 18-H ) :   0.9073 B(  1-C ,  2-H ) :   0.8743 B(  1-C ,  3-C ) :   1.0040
B(  1-C , 11-O ) :   0.9819 B(  3-C ,  4-H ) :   0.8702 B(  3-C ,  5-C ) :   1.0169
B(  3-C , 15-O ) :   1.1035 B(  5-C ,  6-H ) :   0.8742 B(  5-C ,  7-C ) :   0.9996
B(  5-C , 14-O ) :   1.0983 B(  7-C ,  8-H ) :   0.8588 B(  7-C ,  9-C ) :   0.9791
B(  7-C , 13-O ) :   1.0717 B(  9-C , 10-H ) :   0.8785 B(  9-C , 11-O ) :   1.0103
B(  9-C , 12-O ) :   1.1161 B( 12-O , 19-H ) :   0.8405 B( 13-O , 20-H ) :   0.8332
B( 14-O , 21-H ) :   0.8425 B( 15-O , 22-H ) :   0.8109 B( 16-O , 23-H ) :   0.8409

Dispersion correction           -0.023723490
FINAL SINGLE POINT ENERGY      -685.699167034283

DIPOLE MOMENT
-------------

Method             : SCF
Type of density    : Electron Density
Multiplicity       :   1
Irrep              :   0
Energy             :  -685.8300092596462036 Eh
Relativity type    :
Basis              : AO
                                X                 Y                 Z
Electronic contribution:      2.138782840       0.500134021       0.321077640
Nuclear contribution   :     -2.709515638      -1.767830812      -0.988006001
                        -----------------------------------------
Total Dipole Moment    :     -0.570732798      -1.267696791      -0.666928360
                        -----------------------------------------
Magnitude (a.u.)       :      1.541941801
Magnitude (Debye)      :      3.919304587

Rotational constants in cm-1:             0.043879             0.024495             0.016566
Rotational constants in MHz :          1315.448977           734.341913           496.651051

                             ****ORCA TERMINATED NORMALLY****
TOTAL RUN TIME: 0 days 0 hours 0 minutes 11 seconds 937 msec
