                         Program Version 6.0.0  -   RELEASE  -
|  1> ! r2scan-3c def2/J RI DEFGRID2 scfconv6 printgap
|  2> %output
|  3>     printlevel normal
|  4> end
|  5> * xyz 0 1
|  6> C 2.0668097546 0.0325076369 -0.1199444609
|  7> C 0.7597129316 0.6681383516 0.3379886641
|  8> C -0.4570040084 0.0212882793 -0.3298608139
|  9> H -0.3059364286 0.0280902975 -1.4226015298
| 10> C -1.7402563598 0.7823924068 0.0041044807
| 11> O -0.5236259016 -1.3238676898 0.1188798488
| 12> H 2.2083389027 0.1797166013 -1.1884246292
| 13> H 2.0475237895 -1.0353012714 0.0826953094
| 14> H 2.9083181958 0.4743865277 0.4068380219
| 15> H 0.7622871839 1.7334552357 0.1049148596
| 16> H 0.6548214882 0.5485533119 1.4175854005
| 17> H -2.5973128712 0.3223608968 -0.4826599552
| 18> H -1.902736122 0.7751418225 1.0792953044
| 19> H -1.6610784903 1.8110117383 -0.3346483248
| 20> H -1.3008848706 -1.748915331 -0.2665070045
| 21> *
| 22>
| 23>                          ****END OF INPUT****

CARTESIAN COORDINATES (ANGSTROEM)
---------------------------------
  C      2.066810    0.032508   -0.119944
  C      0.759713    0.668138    0.337989
  C     -0.457004    0.021288   -0.329861
  H     -0.305936    0.028090   -1.422602
  C     -1.740256    0.782392    0.004104
  O     -0.523626   -1.323868    0.118880
  H      2.208339    0.179717   -1.188425
  H      2.047524   -1.035301    0.082695
  H      2.908318    0.474387    0.406838
  H      0.762287    1.733455    0.104915
  H      0.654821    0.548553    1.417585
  H     -2.597313    0.322361   -0.482660
  H     -1.902736    0.775142    1.079295
  H     -1.661078    1.811012   -0.334648
  H     -1.300885   -1.748915   -0.266507

 Total Charge           Charge          ....    0
 Multiplicity           Mult            ....    1
 Number of Electrons    NEL             ....   42
 Basis Dimension        Dim             ....  150

ORBITAL ENERGIES
----------------

  NO   OCC          E(Eh)            E(eV)
   0   2.0000     -18.944481      -515.5055
   1   2.0000     -10.079552      -274.2785
   2   2.0000     -10.022234      -272.7188
   3   2.0000     -10.019462      -272.6434
   4   2.0000     -10.009390      -272.3693
   5   2.0000      -0.982577       -26.7373
   6   2.0000      -0.750563       -20.4239
   7   2.0000      -0.691107       -18.8060
   8   2.0000      -0.601165       -16.3585
   9   2.0000      -0.543013       -14.7761
  10   2.0000      -0.481874       -13.1125
  11   2.0000      -0.413802       -11.2601
  12   2.0000      -0.403942       -10.9918
  13   2.0000      -0.390853       -10.6356
  14   2.0000      -0.373892       -10.1741
  15   2.0000      -0.345209        -9.3936
  16   2.0000      -0.320678        -8.7261
  17   2.0000      -0.315820        -8.5939
  18   2.0000      -0.305937        -8.3250
  19   2.0000      -0.280129        -7.6227
  20   2.0000      -0.234029        -6.3683
  21   0.0000       0.063525         1.7286
  22   0.0000       0.112820         3.0700
  23   0.0000       0.117788         3.2052
  24   0.0000       0.142045         3.8652
  25   0.0000       0.144151         3.9225

MULLIKEN ATOMIC CHARGES
-----------------------
   0 C :   -0.499260
   1 C :   -0.226864
   2 C :    0.065152
   3 H :    0.121387
   4 C :   -0.481800
   5 O :   -0.430980
   6 H :    0.138650
   7 H :    0.170517
   8 H :    0.143949
   9 H :    0.128611
  10 H :    0.146394
  11 H :    0.135311
  12 H :    0.158150
  13 H :    0.145091
  14 H :    0.285693
Sum of atomic charges:    0.0000000

LOEWDIN ATOMIC CHARGES
----------------------
   0 C :   -0.419098
   1 C :   -0.283186
   2 C :    0.045366
   3 H :    0.159044
   4 C :   -0.402181
   5 O :   -0.620686
   6 H :    0.149216
   7 H :    0.163538
   8 H :    0.149134
   9 H :    0.156783
  10 H :    0.164305
  11 H :    0.150336
  12 H :    0.161609
  13 H :    0.157674
  14 H :    0.268146

  Mayer bond orders larger than 0.100000
B(  0-C ,  1-C ) :   0.9059 B(  0-C ,  6-H ) :   0.9818 B(  0-C ,  7-H ) :   0.9775
B(  0-C ,  8-H ) :   0.9758 B(  1-C ,  2-C ) :   0.9579 B(  1-C ,  9-H ) :   0.9666
B(  1-C , 10-H ) :   0.9702 B(  2-C ,  3-H ) :   0.9505 B(  2-C ,  4-C ) :   0.9253
B(  2-C ,  5-O ) :   0.8453 B(  4-C , 11-H ) :   0.9719 B(  4-C , 12-H ) :   0.9820
B(  4-C , 13-H ) :   0.9745 B(  5-O , 14-H ) :   0.9028

Dispersion correction           -0.003131092
FINAL SINGLE POINT ENERGY      -233.604368722144

DIPOLE MOMENT
-------------

Method             : SCF
Type of density    : Electron Density
Multiplicity       :   1
Irrep              :   0
Energy             :  -233.6093778110531218 Eh
Relativity type    :
Basis              : AO
                                X                 Y                 Z
Electronic contribution:     -1.154346744      -2.619777668       0.234540908
Nuclear contribution   :      0.755259021       2.877837109      -0.564428848
                        -----------------------------------------
Total Dipole Moment    :     -0.399087723       0.258059441      -0.329887940
                        -----------------------------------------
Magnitude (a.u.)       :      0.578525487
Magnitude (Debye)      :      1.470494925

Rotational constants in cm-1:             0.268091             0.115843             0.089748
Rotational constants in MHz :          8037.160442          3472.881686          2690.585476

                             ****ORCA TERMINATED NORMALLY****
TOTAL RUN TIME: 0 days 0 hours 0 minutes 15 seconds 225 msec
