                         Program Version 6.0.0  -   RELEASE  -
|  1> ! r2scan-3c def2/J RI DEFGRID2 scfconv6 printgap
|  2> %output
|  3>     printlevel normal
|  4> end
|  5> %cpcm
|  6>     smd true
|  7>     smdsolvent "water"
|  8> end
|  9> * xyz 0 1
| 10> C 2.0668097546 0.0325076369 -0.1199444609
| 11> C 0.7597129316 0.6681383516 0.3379886641
| 12> C -0.4570040084 0.0212882793 -0.3298608139
| 13> H -0.3059364286 0.0280902975 -1.4226015298
| 14> C -1.7402563598 0.7823924068 0.0041044807
| 15> O -0.5236259016 -1.3238676898 0.1188798488
| 16> H 2.2083389027 0.1797166013 -1.1884246292
| 17> H 2.0475237895 -1.0353012714 0.0826953094
| 18> H 2.9083181958 0.4743865277 0.4068380219
| 19> H 0.7622871839 1.7334552357 0.1049148596
| 20> H 0.6548214882 0.5485533119 1.4175854005
| 21> H -2.5973128712 0.3223608968 -0.4826599552
| 22> H -1.902736122 0.7751418225 1.0792953044
| 23> H -1.6610784903 1.8110117383 -0.3346483248
| 24> H -1.3008848706 -1.748915331 -0.2665070045
| 25> *
| 26>
| 27>                          ****END OF INPUT****

CARTESIAN COORDINATES (ANGSTROEM)
---------------------------------
  C      2.066810    0.032508   -0.119944
  C      0.759713    0.668138    0.337989
  C     -0.457004    0.021288   -0.329861
  H     -0.305936    0.028090   -1.422602
  C     -1.740256    0.782392    0.004104
  O     -0.523626   -1.323868    0.118880
  H      2.208339    0.179717   -1.188425
  H      2.047524   -1.035301    0.082695
  H      2.908318    0.474387    0.406838
  H      0.762287    1.733455    0.104915
  H      0.654821    0.548553    1.417585
  H     -2.597313    0.322361   -0.482660
  H     -1.902736    0.775142    1.079295
  H     -1.661078    1.811012   -0.334648
  H     -1.300885   -1.748915   -0.266507

 Total Charge           Charge          ....    0
 Multiplicity           Mult            ....    1
 Number of Electrons    NEL             ....   42
 Basis Dimension        Dim             ....  150

ORBITAL ENERGIES
----------------

  NO   OCC          E(Eh)            E(eV)
   0   2.0000     -18.947699      -515.5931
   1   2.0000     -10.074443      -274.1395
   2   2.0000     -10.017507      -272.5902
   3   2.0000     -10.009101      -272.3615
   4   2.0000     -10.008060      -272.3332
   5   2.0000      -0.984670       -26.7942
   6   2.0000      -0.746451       -20.3120
   7   2.0000      -0.685303       -18.6481
   8   2.0000      -0.596855       -16.2413
   9   2.0000      -0.539636       -14.6842
  10   2.0000      -0.478334       -13.0161
  11   2.0000      -0.411308       -11.1923
  12   2.0000      -0.397791       -10.8244
  13   2.0000      -0.388704       -10.5772
  14   2.0000      -0.367934       -10.0120
  15   2.0000      -0.339616        -9.2414
  16   2.0000      -0.320546        -8.7225
  17   2.0000      -0.313196        -8.5225
  18   2.0000      -0.303244        -8.2517
  19   2.0000      -0.277648        -7.5552
  20   2.0000      -0.237845        -6.4721
  21   0.0000       0.080363         2.1868
  22   0.0000       0.119005         3.2383
  23   0.0000       0.124658         3.3921
  24   0.0000       0.147148         4.0041
  25   0.0000       0.151002         4.1090

MULLIKEN ATOMIC CHARGES
-----------------------
   0 C :   -0.531949
   1 C :   -0.246937
   2 C :    0.085384
   3 H :    0.136603
   4 C :   -0.529567
   5 O :   -0.518061
   6 H :    0.157187
   7 H :    0.159762
   8 H :    0.158411
   9 H :    0.149886
  10 H :    0.153966
  11 H :    0.160541
  12 H :    0.160660
  13 H :    0.162900
  14 H :    0.341213
Sum of atomic charges:   -0.0000000

LOEWDIN ATOMIC CHARGES
----------------------
   0 C :   -0.428025
   1 C :   -0.287266
   2 C :    0.048108
   3 H :    0.166492
   4 C :   -0.406514
   5 O :   -0.656522
   6 H :    0.154327
   7 H :    0.157208
   8 H :    0.153510
   9 H :    0.164493
  10 H :    0.163986
  11 H :    0.158729
  12 H :    0.161237
  13 H :    0.163754
  14 H :    0.286483

  Mayer bond orders larger than 0.100000
B(  0-C ,  1-C ) :   0.8923 B(  0-C ,  6-H ) :   0.9789 B(  0-C ,  7-H ) :   0.9797
B(  0-C ,  8-H ) :   0.9723 B(  1-C ,  2-C ) :   0.9497 B(  1-C ,  9-H ) :   0.9619
B(  1-C , 10-H ) :   0.9725 B(  2-C ,  3-H ) :   0.9463 B(  2-C ,  4-C ) :   0.9290
B(  2-C ,  5-O ) :   0.8305 B(  4-C , 11-H ) :   0.9678 B(  4-C , 12-H ) :   0.9788
B(  4-C , 13-H ) :   0.9706 B(  5-O , 14-H ) :   0.8769

Dispersion correction           -0.003131092
FINAL SINGLE POINT ENERGY      -233.610363073967

DIPOLE MOMENT
-------------

Method             : SCF
Type of density    : Electron Density
Multiplicity       :   1
Irrep              :   0
Energy             :  -233.6153721628763265 Eh
Relativity type    :
Basis              : AO
                                X                 Y                 Z
Electronic contribution:     -1.322803679      -2.458500644       0.049932888
Nuclear contribution   :      0.755259021       2.877837109      -0.564428848
                        -----------------------------------------
Total Dipole Moment    :     -0.567544658       0.419336465      -0.514495961
                        -----------------------------------------
Magnitude (a.u.)       :      0.873301840
Magnitude (Debye)      :      2.219756870

Rotational constants in cm-1:             0.268091             0.115843             0.089748
Rotational constants in MHz :          8037.160442          3472.881686          2690.585476

                             ****ORCA TERMINATED NORMALLY****
TOTAL RUN TIME: 0 days 0 hours 0 minutes 16 seconds 990 msec
