                         Program Version 6.0.0  -   RELEASE  -
|  1> ! pbe def2-sv(p) def2/J RI DEFGRID1 loosescf d4 GCP(DFT/SV(P)) printgap
|  2> %output
|  3>     printlevel normal
|  4> end
|  5> * xyz 0 1
|  6> C 0.0004767171 1.192844964 3.42509e-05
|  7> I -1.7026212895 -0.0710344522 -1.6846e-06
|  8> I 1.7025631399 -0.0710825689 3.887e-07
|  9> H 0.0005687198 1.8395352817 0.8829842068
| 10> H 0.0010719713 1.8395893874 -0.8832291846
| 11> *
| 12>
| 13>                          ****END OF INPUT****

CARTESIAN COORDINATES (ANGSTROEM)
---------------------------------
  C      0.000477    1.192845    0.000034
  I     -1.702621   -0.071034   -0.000002
  I      1.702563   -0.071083    0.000000
  H      0.000569    1.839535    0.882984
  H      0.001072    1.839589   -0.883229

 Total Charge           Charge          ....    0
 Multiplicity           Mult            ....    1
 Number of Electrons    NEL             ....   58
 Basis Dimension        Dim             ....   70

ORBITAL ENERGIES
----------------

  NO   OCC          E(Eh)            E(eV)
   0   2.0000      -9.983538      -271.6659
   1   2.0000      -6.614207      -179.9817
   2   2.0000      -6.614197      -179.9814
   3   2.0000      -4.687551      -127.5547
   4   2.0000      -4.687543      -127.5545
   5   2.0000      -4.668491      -127.0361
   6   2.0000      -4.668477      -127.0357
   7   2.0000      -4.668305      -127.0310
   8   2.0000      -4.668295      -127.0308
   9   2.0000      -1.823622       -49.6233
  10   2.0000      -1.823444       -49.6184
  11   2.0000      -1.818619       -49.4871
  12   2.0000      -1.818443       -49.4824
  13   2.0000      -1.818257       -49.4773
  14   2.0000      -1.818199       -49.4757
  15   2.0000      -1.802930       -49.0602
  16   2.0000      -1.802907       -49.0596
  17   2.0000      -1.802892       -49.0592
  18   2.0000      -1.802882       -49.0589
  19   2.0000      -0.724395       -19.7118
  20   2.0000      -0.638262       -17.3680
  21   2.0000      -0.574734       -15.6393
  22   2.0000      -0.420089       -11.4312
  23   2.0000      -0.380642       -10.3578
  24   2.0000      -0.347416        -9.4537
  25   2.0000      -0.251150        -6.8341
  26   2.0000      -0.234397        -6.3783
  27   2.0000      -0.234086        -6.3698
  28   2.0000      -0.215643        -5.8679
  29   0.0000      -0.090760        -2.4697
  30   0.0000      -0.052300        -1.4232
  31   0.0000       0.050341         1.3699
  32   0.0000       0.069546         1.8924
  33   0.0000       0.216730         5.8975

MULLIKEN ATOMIC CHARGES
-----------------------
   0 C :   -0.517074
   1 I :    0.048227
   2 I :    0.048312
   3 H :    0.210258
   4 H :    0.210277
Sum of atomic charges:    0.0000000

LOEWDIN ATOMIC CHARGES
----------------------
   0 C :   -0.509065
   1 I :    0.110851
   2 I :    0.111125
   3 H :    0.143535
   4 H :    0.143553

  Mayer bond orders larger than 0.100000
B(  0-C ,  1-I ) :   1.0246 B(  0-C ,  2-I ) :   1.0249 B(  0-C ,  3-H ) :   0.9083
B(  0-C ,  4-H ) :   0.9083

Dispersion correction           -0.005279190
FINAL SINGLE POINT ENERGY      -634.562951129911

DIPOLE MOMENT
-------------

Method             : SCF
Type of density    : Electron Density
Multiplicity       :   1
Irrep              :   0
Energy             :  -634.5791065219042366 Eh
Relativity type    :
Basis              : AO
                                X                 Y                 Z
Electronic contribution:     -0.005310362     -13.340890292       0.000093183
Nuclear contribution   :      0.005758278      13.762905417      -0.000135815
                        -----------------------------------------
Total Dipole Moment    :      0.000447915       0.422015125      -0.000042631
                        -----------------------------------------
Magnitude (a.u.)       :      0.422015365
Magnitude (Debye)      :      1.072677811

Rotational constants in cm-1:             0.629814             0.022864             0.022154
Rotational constants in MHz :         18881.346189           685.452873           664.173873

                             ****ORCA TERMINATED NORMALLY****
TOTAL RUN TIME: 0 days 0 hours 0 minutes 10 seconds 789 msec
