                         Program Version 6.0.0  -   RELEASE  -
|  1> ! r2scan-3c def2/J RI DEFGRID2 scfconv6 printgap
|  2> %output
|  3>     printlevel normal
|  4> end
|  5> * xyz 0 1
|  6> C -2.5050659825 0.077934333 -0.0095807285
|  7> C -1.0981407955 -0.5089560582 -0.0251384061
|  8> C -0.0517095896 0.5898095326 0.0619572746
|  9> S 1.6567284368 -0.0602900565 -0.0454226755
| 10> H -3.2430535835 -0.7173869758 -0.0666467975
| 11> H -2.6731244157 0.6410627574 0.9054611058
| 12> H -2.6501189241 0.7452876482 -0.8558314076
| 13> H -0.9430551001 -1.0782541223 -0.9440130395
| 14> H -0.9771114961 -1.1933095148 0.8174204437
| 15> H -0.1345021533 1.2768493461 -0.7802024805
| 16> H -0.1342076891 1.1540050771 0.990345051
| 17> H 1.6034351346 -0.8024298562 1.0538884668
| 18> *
| 19>
| 20>                          ****END OF INPUT****

CARTESIAN COORDINATES (ANGSTROEM)
---------------------------------
  C     -2.505066    0.077934   -0.009581
  C     -1.098141   -0.508956   -0.025138
  C     -0.051710    0.589810    0.061957
  S      1.656728   -0.060290   -0.045423
  H     -3.243054   -0.717387   -0.066647
  H     -2.673124    0.641063    0.905461
  H     -2.650119    0.745288   -0.855831
  H     -0.943055   -1.078254   -0.944013
  H     -0.977111   -1.193310    0.817420
  H     -0.134502    1.276849   -0.780202
  H     -0.134208    1.154005    0.990345
  H      1.603435   -0.802430    1.053888

 Total Charge           Charge          ....    0
 Multiplicity           Mult            ....    1
 Number of Electrons    NEL             ....   42
 Basis Dimension        Dim             ....  124

ORBITAL ENERGIES
----------------

  NO   OCC          E(Eh)            E(eV)
   0   2.0000     -88.548924     -2409.5387
   1   2.0000     -10.065663      -273.9006
   2   2.0000     -10.036851      -273.1166
   3   2.0000     -10.025561      -272.8094
   4   2.0000      -7.844134      -213.4497
   5   2.0000      -5.791320      -157.5898
   6   2.0000      -5.787581      -157.4881
   7   2.0000      -5.781165      -157.3135
   8   2.0000      -0.780079       -21.2270
   9   2.0000      -0.708449       -19.2779
  10   2.0000      -0.616952       -16.7881
  11   2.0000      -0.561212       -15.2713
  12   2.0000      -0.453003       -12.3268
  13   2.0000      -0.413509       -11.2522
  14   2.0000      -0.386004       -10.5037
  15   2.0000      -0.377203       -10.2642
  16   2.0000      -0.346389        -9.4257
  17   2.0000      -0.323641        -8.8067
  18   2.0000      -0.312901        -8.5145
  19   2.0000      -0.291394        -7.9292
  20   2.0000      -0.208342        -5.6693
  21   0.0000       0.014771         0.4020
  22   0.0000       0.055590         1.5127
  23   0.0000       0.102105         2.7784
  24   0.0000       0.119688         3.2569
  25   0.0000       0.137076         3.7300

MULLIKEN ATOMIC CHARGES
-----------------------
   0 C :   -0.455844
   1 C :   -0.222743
   2 C :   -0.225556
   3 S :   -0.256717
   4 H :    0.150182
   5 H :    0.140734
   6 H :    0.141939
   7 H :    0.153433
   8 H :    0.133451
   9 H :    0.147833
  10 H :    0.163102
  11 H :    0.130185
Sum of atomic charges:   -0.0000000

LOEWDIN ATOMIC CHARGES
----------------------
   0 C :   -0.424945
   1 C :   -0.329689
   2 C :   -0.366384
   3 S :   -0.098779
   4 H :    0.153710
   5 H :    0.150471
   6 H :    0.151012
   7 H :    0.158586
   8 H :    0.151523
   9 H :    0.168184
  10 H :    0.160499
  11 H :    0.125812

  Mayer bond orders larger than 0.100000
B(  0-C ,  1-C ) :   0.8955 B(  0-C ,  4-H ) :   0.9694 B(  0-C ,  5-H ) :   0.9779
B(  0-C ,  6-H ) :   0.9803 B(  1-C ,  2-C ) :   0.9182 B(  1-C ,  7-H ) :   0.9681
B(  1-C ,  8-H ) :   0.9659 B(  2-C ,  3-S ) :   0.9714 B(  2-C ,  9-H ) :   0.9563
B(  2-C , 10-H ) :   0.9596 B(  3-S , 11-H ) :   0.9618

Dispersion correction           -0.002547454
FINAL SINGLE POINT ENERGY      -517.257041612913

DIPOLE MOMENT
-------------

Method             : SCF
Type of density    : Electron Density
Multiplicity       :   1
Irrep              :   0
Energy             :  -517.2634823164767113 Eh
Relativity type    :
Basis              : AO
                                X                 Y                 Z
Electronic contribution:      7.955803315      -0.027441847      -0.791033462
Nuclear contribution   :     -8.632979405       0.025940555       1.052439261
                        -----------------------------------------
Total Dipole Moment    :     -0.677176090      -0.001501291       0.261405799
                        -----------------------------------------
Magnitude (a.u.)       :      0.725880640
Magnitude (Debye)      :      1.845041958

Rotational constants in cm-1:             0.795252             0.079055             0.075775
Rotational constants in MHz :         23841.042134          2369.998084          2271.666044

                             ****ORCA TERMINATED NORMALLY****
TOTAL RUN TIME: 0 days 0 hours 0 minutes 9 seconds 560 msec
