                         Program Version 6.0.0  -   RELEASE  -
|  1> ! r2scan-3c def2/J RI DEFGRID2 scfconv6 printgap
|  2> %output
|  3>     printlevel normal
|  4> end
|  5> %cpcm
|  6>     smd true
|  7>     smdsolvent "water"
|  8> end
|  9> * xyz 0 1
| 10> C -2.5050659825 0.077934333 -0.0095807285
| 11> C -1.0981407955 -0.5089560582 -0.0251384061
| 12> C -0.0517095896 0.5898095326 0.0619572746
| 13> S 1.6567284368 -0.0602900565 -0.0454226755
| 14> H -3.2430535835 -0.7173869758 -0.0666467975
| 15> H -2.6731244157 0.6410627574 0.9054611058
| 16> H -2.6501189241 0.7452876482 -0.8558314076
| 17> H -0.9430551001 -1.0782541223 -0.9440130395
| 18> H -0.9771114961 -1.1933095148 0.8174204437
| 19> H -0.1345021533 1.2768493461 -0.7802024805
| 20> H -0.1342076891 1.1540050771 0.990345051
| 21> H 1.6034351346 -0.8024298562 1.0538884668
| 22> *
| 23>
| 24>                          ****END OF INPUT****

CARTESIAN COORDINATES (ANGSTROEM)
---------------------------------
  C     -2.505066    0.077934   -0.009581
  C     -1.098141   -0.508956   -0.025138
  C     -0.051710    0.589810    0.061957
  S      1.656728   -0.060290   -0.045423
  H     -3.243054   -0.717387   -0.066647
  H     -2.673124    0.641063    0.905461
  H     -2.650119    0.745288   -0.855831
  H     -0.943055   -1.078254   -0.944013
  H     -0.977111   -1.193310    0.817420
  H     -0.134502    1.276849   -0.780202
  H     -0.134208    1.154005    0.990345
  H      1.603435   -0.802430    1.053888

 Total Charge           Charge          ....    0
 Multiplicity           Mult            ....    1
 Number of Electrons    NEL             ....   42
 Basis Dimension        Dim             ....  124

ORBITAL ENERGIES
----------------

  NO   OCC          E(Eh)            E(eV)
   0   2.0000     -88.547643     -2409.5039
   1   2.0000     -10.054305      -273.5915
   2   2.0000     -10.024112      -272.7699
   3   2.0000     -10.011141      -272.4170
   4   2.0000      -7.842983      -213.4184
   5   2.0000      -5.789909      -157.5514
   6   2.0000      -5.786279      -157.4527
   7   2.0000      -5.780464      -157.2944
   8   2.0000      -0.769681       -20.9441
   9   2.0000      -0.699757       -19.0414
  10   2.0000      -0.607747       -16.5376
  11   2.0000      -0.549150       -14.9431
  12   2.0000      -0.440376       -11.9832
  13   2.0000      -0.402433       -10.9508
  14   2.0000      -0.374242       -10.1836
  15   2.0000      -0.366347        -9.9688
  16   2.0000      -0.336574        -9.1586
  17   2.0000      -0.310844        -8.4585
  18   2.0000      -0.299017        -8.1367
  19   2.0000      -0.286561        -7.7977
  20   2.0000      -0.209486        -5.7004
  21   0.0000       0.018399         0.5007
  22   0.0000       0.061910         1.6847
  23   0.0000       0.115772         3.1503
  24   0.0000       0.127909         3.4806
  25   0.0000       0.148544         4.0421

MULLIKEN ATOMIC CHARGES
-----------------------
   0 C :   -0.499525
   1 C :   -0.231911
   2 C :   -0.220817
   3 S :   -0.340536
   4 H :    0.160269
   5 H :    0.154485
   6 H :    0.155208
   7 H :    0.153867
   8 H :    0.150459
   9 H :    0.169866
  10 H :    0.179900
  11 H :    0.168736
Sum of atomic charges:    0.0000000

LOEWDIN ATOMIC CHARGES
----------------------
   0 C :   -0.430912
   1 C :   -0.329462
   2 C :   -0.361170
   3 S :   -0.138819
   4 H :    0.156112
   5 H :    0.154282
   6 H :    0.154390
   7 H :    0.157435
   8 H :    0.156227
   9 H :    0.175450
  10 H :    0.167701
  11 H :    0.138763

  Mayer bond orders larger than 0.100000
B(  0-C ,  1-C ) :   0.8944 B(  0-C ,  4-H ) :   0.9672 B(  0-C ,  5-H ) :   0.9761
B(  0-C ,  6-H ) :   0.9778 B(  1-C ,  2-C ) :   0.9144 B(  1-C ,  7-H ) :   0.9691
B(  1-C ,  8-H ) :   0.9653 B(  2-C ,  3-S ) :   0.9522 B(  2-C ,  9-H ) :   0.9496
B(  2-C , 10-H ) :   0.9538 B(  3-S , 11-H ) :   0.9553

Dispersion correction           -0.002547454
FINAL SINGLE POINT ENERGY      -517.259257780560

DIPOLE MOMENT
-------------

Method             : SCF
Type of density    : Electron Density
Multiplicity       :   1
Irrep              :   0
Energy             :  -517.2656984841235044 Eh
Relativity type    :
Basis              : AO
                                X                 Y                 Z
Electronic contribution:      7.747310338       0.005965970      -0.684884182
Nuclear contribution   :     -8.632979405       0.025940555       1.052439261
                        -----------------------------------------
Total Dipole Moment    :     -0.885669067       0.031906526       0.367555079
                        -----------------------------------------
Magnitude (a.u.)       :      0.959439659
Magnitude (Debye)      :      2.438701806

Rotational constants in cm-1:             0.795252             0.079055             0.075775
Rotational constants in MHz :         23841.042134          2369.998084          2271.666044

                             ****ORCA TERMINATED NORMALLY****
TOTAL RUN TIME: 0 days 0 hours 0 minutes 11 seconds 998 msec
