                         Program Version 6.0.0  -   RELEASE  -
|  1> ! r2scan-3c def2/J RI DEFGRID2 scfconv6 printgap
|  2> %output
|  3>     printlevel normal
|  4> end
|  5> * xyz 0 1
|  6> C 1.6867199397 -1.0677806787 0.1692100868
|  7> C 1.0384544061 0.2565367449 -0.2198499542
|  8> C -0.459015699 0.3413954107 -0.0411308561
|  9> O -1.0498534984 1.4006290313 -0.0738591899
| 10> O -1.1382183685 -0.7838872511 0.141656924
| 11> H 2.7659316635 -0.9667229111 0.094604775
| 12> H 1.44894631 -1.3325626775 1.1969594254
| 13> H 1.390464189 -1.8731407799 -0.4989309142
| 14> H 1.4643421081 1.0812634568 0.3542678249
| 15> H 1.2323383925 0.4802422751 -1.2722527784
| 16> H -0.5737759593 -1.5800746658 0.1427242388
| 17> *
| 18>
| 19>                          ****END OF INPUT****

CARTESIAN COORDINATES (ANGSTROEM)
---------------------------------
  C      1.686720   -1.067781    0.169210
  C      1.038454    0.256537   -0.219850
  C     -0.459016    0.341395   -0.041131
  O     -1.049853    1.400629   -0.073859
  O     -1.138218   -0.783887    0.141657
  H      2.765932   -0.966723    0.094605
  H      1.448946   -1.332563    1.196959
  H      1.390464   -1.873141   -0.498931
  H      1.464342    1.081263    0.354268
  H      1.232338    0.480242   -1.272253
  H     -0.573776   -1.580075    0.142724

 Total Charge           Charge          ....    0
 Multiplicity           Mult            ....    1
 Number of Electrons    NEL             ....   40
 Basis Dimension        Dim             ....  135

ORBITAL ENERGIES
----------------

  NO   OCC          E(Eh)            E(eV)
   0   2.0000     -19.007897      -517.2312
   1   2.0000     -18.926154      -515.0068
   2   2.0000     -10.161324      -276.5037
   3   2.0000     -10.060212      -273.7523
   4   2.0000     -10.054191      -273.5885
   5   2.0000      -1.075762       -29.2730
   6   2.0000      -0.978454       -26.6251
   7   2.0000      -0.769632       -20.9427
   8   2.0000      -0.645840       -17.5742
   9   2.0000      -0.593701       -16.1554
  10   2.0000      -0.495163       -13.4741
  11   2.0000      -0.462601       -12.5880
  12   2.0000      -0.422638       -11.5006
  13   2.0000      -0.401582       -10.9276
  14   2.0000      -0.384702       -10.4683
  15   2.0000      -0.369304       -10.0493
  16   2.0000      -0.347657        -9.4602
  17   2.0000      -0.340515        -9.2659
  18   2.0000      -0.285780        -7.7765
  19   2.0000      -0.235362        -6.4045
  20   0.0000      -0.019536        -0.5316
  21   0.0000       0.038475         1.0470
  22   0.0000       0.097988         2.6664
  23   0.0000       0.107736         2.9317
  24   0.0000       0.133914         3.6440

MULLIKEN ATOMIC CHARGES
-----------------------
   0 C :   -0.511280
   1 C :   -0.257222
   2 C :    0.332583
   3 O :   -0.381252
   4 O :   -0.338291
   5 H :    0.163628
   6 H :    0.170629
   7 H :    0.140418
   8 H :    0.173815
   9 H :    0.176448
  10 H :    0.330525
Sum of atomic charges:   -0.0000000

LOEWDIN ATOMIC CHARGES
----------------------
   0 C :   -0.421206
   1 C :   -0.259603
   2 C :    0.341726
   3 O :   -0.399255
   4 O :   -0.397634
   5 H :    0.163353
   6 H :    0.157147
   7 H :    0.149327
   8 H :    0.185431
   9 H :    0.184804
  10 H :    0.295910

  Mayer bond orders larger than 0.100000
B(  0-C ,  1-C ) :   0.8644 B(  0-C ,  5-H ) :   0.9545 B(  0-C ,  6-H ) :   0.9828
B(  0-C ,  7-H ) :   0.9662 B(  1-C ,  2-C ) :   1.0001 B(  1-C ,  8-H ) :   0.9434
B(  1-C ,  9-H ) :   0.9233 B(  2-C ,  3-O ) :   1.9726 B(  2-C ,  4-O ) :   1.0812
B(  4-O , 10-H ) :   0.8502

Dispersion correction           -0.002145811
FINAL SINGLE POINT ENERGY      -268.341013598918

DIPOLE MOMENT
-------------

Method             : SCF
Type of density    : Electron Density
Multiplicity       :   1
Irrep              :   0
Energy             :  -268.3453924943356128 Eh
Relativity type    :
Basis              : AO
                                X                 Y                 Z
Electronic contribution:     -5.842261342       2.685282397      -0.053833368
Nuclear contribution   :      7.217950378      -3.922724253       0.017305087
                        -----------------------------------------
Total Dipole Moment    :      1.375689037      -1.237441856      -0.036528280
                        -----------------------------------------
Magnitude (a.u.)       :      1.850707159
Magnitude (Debye)      :      4.704123754

Rotational constants in cm-1:             0.324648             0.131998             0.097859
Rotational constants in MHz :          9732.702503          3957.202910          2933.736205

                             ****ORCA TERMINATED NORMALLY****
TOTAL RUN TIME: 0 days 0 hours 0 minutes 12 seconds 695 msec
