                         Program Version 6.0.0  -   RELEASE  -
|  1> ! pbe def2-sv(p) def2/J RI DEFGRID1 loosescf d4 GCP(DFT/SV(P)) printgap
|  2> %output
|  3>     printlevel normal
|  4> end
|  5> * xyz 0 1
|  6> C -2.4782833788 -0.4667448512 -0.2277551292
|  7> C -1.035830403 -0.2039039472 0.2164327949
|  8> H -0.9420561492 -0.4192730284 1.2920709805
|  9> C -0.6251492722 1.2720708864 -0.0200238507
| 10> H -1.2372549015 1.7055818361 -0.8189574183
| 11> C 0.8483912017 1.3106984808 -0.4764338409
| 12> H 1.2446370773 2.3164494249 -0.3029674625
| 13> C 1.6665440398 0.2977511756 0.350887727
| 14> H 2.7085332222 0.325528442 0.0100220086
| 15> C 1.1161674183 -1.1350559567 0.0901612584
| 16> H 1.0501892429 -1.6703335632 1.0528964652
| 17> O -0.1692666117 -1.0748263267 -0.4985060553
| 18> O 1.9419500886 -1.8937749403 -0.7120324777
| 19> O 1.557132911 0.6613858559 1.7063485185
| 20> O 0.9806244159 1.0632986383 -1.8520383089
| 21> O -0.860521249 2.0636885713 1.1114743438
| 22> O -2.9818915359 -1.7053293667 0.1979780662
| 23> H -2.5154955327 -0.4932883039 -1.3181962165
| 24> H -3.0988122234 0.3608178534 0.1373818467
| 25> H 1.9411753603 -1.5471803844 -1.618063515
| 26> H 2.2793007801 0.2735194788 2.2197190179
| 27> H 0.444871672 0.2841924554 -2.0728181546
| 28> H -0.2070149991 1.8328756734 1.7928172916
| 29> H -3.041873521 -1.7199789504 1.1638400487
| 30> *
| 31>
| 32>                          ****END OF INPUT****

CARTESIAN COORDINATES (ANGSTROEM)
---------------------------------
  C     -2.478283   -0.466745   -0.227755
  C     -1.035830   -0.203904    0.216433
  H     -0.942056   -0.419273    1.292071
  C     -0.625149    1.272071   -0.020024
  H     -1.237255    1.705582   -0.818957
  C      0.848391    1.310698   -0.476434
  H      1.244637    2.316449   -0.302967
  C      1.666544    0.297751    0.350888
  H      2.708533    0.325528    0.010022
  C      1.116167   -1.135056    0.090161
  H      1.050189   -1.670334    1.052896
  O     -0.169267   -1.074826   -0.498506
  O      1.941950   -1.893775   -0.712032
  O      1.557133    0.661386    1.706349
  O      0.980624    1.063299   -1.852038
  O     -0.860521    2.063689    1.111474
  O     -2.981892   -1.705329    0.197978
  H     -2.515496   -0.493288   -1.318196
  H     -3.098812    0.360818    0.137382
  H      1.941175   -1.547180   -1.618064
  H      2.279301    0.273519    2.219719
  H      0.444872    0.284192   -2.072818
  H     -0.207015    1.832876    1.792817
  H     -3.041874   -1.719979    1.163840

 Total Charge           Charge          ....    0
 Multiplicity           Mult            ....    1
 Number of Electrons    NEL             ....   96
 Basis Dimension        Dim             ....  192

ORBITAL ENERGIES
----------------

  NO   OCC          E(Eh)            E(eV)
   0   2.0000     -18.785467      -511.1786
   1   2.0000     -18.780356      -511.0395
   2   2.0000     -18.767156      -510.6803
   3   2.0000     -18.758973      -510.4576
   4   2.0000     -18.747165      -510.1363
   5   2.0000     -18.746247      -510.1113
   6   2.0000      -9.994319      -271.9592
   7   2.0000      -9.951093      -270.7830
   8   2.0000      -9.946762      -270.6652
   9   2.0000      -9.946338      -270.6536
  10   2.0000      -9.942927      -270.5608
  11   2.0000      -9.936667      -270.3905
  12   2.0000      -0.993964       -27.0471
  13   2.0000      -0.957269       -26.0486
  14   2.0000      -0.939672       -25.5698
  15   2.0000      -0.930385       -25.3171
  16   2.0000      -0.922868       -25.1125
  17   2.0000      -0.917626       -24.9699
  18   2.0000      -0.700713       -19.0674
  19   2.0000      -0.693819       -18.8798
  20   2.0000      -0.621199       -16.9037
  21   2.0000      -0.594949       -16.1894
  22   2.0000      -0.572066       -15.5667
  23   2.0000      -0.539694       -14.6858
  24   2.0000      -0.509791       -13.8721
  25   2.0000      -0.499649       -13.5961
  26   2.0000      -0.489436       -13.3182
  27   2.0000      -0.473575       -12.8866
  28   2.0000      -0.452259       -12.3066
  29   2.0000      -0.429113       -11.6768
  30   2.0000      -0.411177       -11.1887
  31   2.0000      -0.401585       -10.9277
  32   2.0000      -0.390939       -10.6380
  33   2.0000      -0.379838       -10.3359
  34   2.0000      -0.363755        -9.8983
  35   2.0000      -0.352893        -9.6027
  36   2.0000      -0.341033        -9.2800
  37   2.0000      -0.320574        -8.7233
  38   2.0000      -0.313609        -8.5337
  39   2.0000      -0.303502        -8.2587
  40   2.0000      -0.281239        -7.6529
  41   2.0000      -0.275541        -7.4978
  42   2.0000      -0.268059        -7.2943
  43   2.0000      -0.261241        -7.1087
  44   2.0000      -0.248168        -6.7530
  45   2.0000      -0.224637        -6.1127
  46   2.0000      -0.212018        -5.7693
  47   2.0000      -0.200430        -5.4540
  48   0.0000      -0.002731        -0.0743
  49   0.0000       0.020091         0.5467
  50   0.0000       0.023395         0.6366
  51   0.0000       0.051401         1.3987
  52   0.0000       0.053957         1.4683

MULLIKEN ATOMIC CHARGES
-----------------------
   0 C :    0.073859
   1 C :    0.005047
   2 H :    0.039031
   3 C :    0.041934
   4 H :    0.073647
   5 C :    0.043536
   6 H :    0.082060
   7 C :   -0.003686
   8 H :    0.080511
   9 C :    0.192634
  10 H :    0.055908
  11 O :   -0.300272
  12 O :   -0.375418
  13 O :   -0.425909
  14 O :   -0.423495
  15 O :   -0.428149
  16 O :   -0.426853
  17 H :    0.084514
  18 H :    0.093040
  19 H :    0.297875
  20 H :    0.318061
  21 H :    0.300241
  22 H :    0.306791
  23 H :    0.295095
Sum of atomic charges:   -0.0000000

LOEWDIN ATOMIC CHARGES
----------------------
   0 C :   -0.126553
   1 C :   -0.080359
   2 H :    0.099597
   3 C :   -0.075979
   4 H :    0.117032
   5 C :   -0.072464
   6 H :    0.120543
   7 C :   -0.101206
   8 H :    0.112028
   9 C :   -0.003242
  10 H :    0.097111
  11 O :   -0.154575
  12 O :   -0.288066
  13 O :   -0.315510
  14 O :   -0.314028
  15 O :   -0.316294
  16 O :   -0.330985
  17 H :    0.118569
  18 H :    0.107021
  19 H :    0.282642
  20 H :    0.297512
  21 H :    0.268580
  22 H :    0.275590
  23 H :    0.283034

  Mayer bond orders larger than 0.100000
B(  0-C ,  1-C ) :   1.0355 B(  0-C , 16-O ) :   1.0882 B(  0-C , 17-H ) :   0.9045
B(  0-C , 18-H ) :   0.9215 B(  1-C ,  2-H ) :   0.8604 B(  1-C ,  3-C ) :   0.9523
B(  1-C , 11-O ) :   0.9983 B(  3-C ,  4-H ) :   0.8944 B(  3-C ,  5-C ) :   0.9941
B(  3-C , 15-O ) :   1.0472 B(  5-C ,  6-H ) :   0.8888 B(  5-C ,  7-C ) :   0.9836
B(  5-C , 14-O ) :   1.0446 B(  7-C ,  8-H ) :   0.8998 B(  7-C ,  9-C ) :   0.9158
B(  7-C , 13-O ) :   1.0319 B(  9-C , 10-H ) :   0.8981 B(  9-C , 11-O ) :   1.0129
B(  9-C , 12-O ) :   1.1545 B( 12-O , 19-H ) :   0.8352 B( 13-O , 20-H ) :   0.8394
B( 14-O , 21-H ) :   0.8211 B( 15-O , 22-H ) :   0.8227 B( 16-O , 23-H ) :   0.8533

Dispersion correction           -0.024842846
FINAL SINGLE POINT ENERGY      -685.689757449396

DIPOLE MOMENT
-------------

Method             : SCF
Type of density    : Electron Density
Multiplicity       :   1
Irrep              :   0
Energy             :  -685.8214131413402583 Eh
Relativity type    :
Basis              : AO
                                X                 Y                 Z
Electronic contribution:      1.913730986      -1.185698018      -0.596238904
Nuclear contribution   :     -1.281924485       1.158571833       1.441973346
                        -----------------------------------------
Total Dipole Moment    :      0.631806501      -0.027126185       0.845734441
                        -----------------------------------------
Magnitude (a.u.)       :      1.056021794
Magnitude (Debye)      :      2.684194084

Rotational constants in cm-1:             0.037804             0.027107             0.021720
Rotational constants in MHz :          1133.333747           812.647266           651.162940

                             ****ORCA TERMINATED NORMALLY****
TOTAL RUN TIME: 0 days 0 hours 0 minutes 12 seconds 78 msec
