                         Program Version 6.0.0  -   RELEASE  -
|  1> ! r2scan-3c def2/J RI DEFGRID2 scfconv6 printgap
|  2> %output
|  3>     printlevel normal
|  4> end
|  5> * xyz 0 1
|  6> C -2.8272578899 0.7709832226 0.7543599773
|  7> C -1.5249737105 0.5098979565 0.063794501
|  8> C -0.9128807586 1.4122953409 -0.6900919684
|  9> C 0.3928192588 1.2119728812 -1.3942821447
| 10> C 1.1460392377 -0.0348778556 -0.9219831971
| 11> H 1.8501387039 -0.3297358656 -1.7086965851
| 12> C 0.1384294441 -1.1787407481 -0.7494647816
| 13> C -0.9082696954 -0.8468826406 0.3167585322
| 14> H -0.4213687601 -0.8161706687 1.3089782507
| 15> O -1.9404132396 -1.8222290827 0.3399369266
| 16> C 1.9518995373 0.1727167214 0.341146127
| 17> C 1.663316895 1.0801612014 1.260424654
| 18> C 3.136126407 -0.7384285937 0.4812009304
| 19> H -3.556454923 0.0196368348 0.4574603501
| 20> H -3.2046156768 1.7597501181 0.5093827792
| 21> H -2.6971289029 0.6935790435 1.83335198
| 22> H -1.3754997901 2.3794182846 -0.8398192364
| 23> H 0.1909096657 1.1212269219 -2.4668541302
| 24> H 1.0196103188 2.096962926 -1.2612256695
| 25> H -0.3838265108 -1.3400596348 -1.6950853227
| 26> H 0.654655418 -2.1030990173 -0.4812880557
| 27> H -1.5487609525 -2.6875354141 0.5147241614
| 28> H 2.2644969907 1.1895724948 2.1479721501
| 29> H 0.819937272 1.7422419505 1.175216975
| 30> H 3.8646811342 -0.5243255441 -0.3000478088
| 31> H 3.6151390743 -0.6095102302 1.4476497535
| 32> H 2.8347216668 -1.7789230476 0.3750291791
| 33> *
| 34>
| 35>                          ****END OF INPUT****

CARTESIAN COORDINATES (ANGSTROEM)
---------------------------------
  C     -2.827258    0.770983    0.754360
  C     -1.524974    0.509898    0.063795
  C     -0.912881    1.412295   -0.690092
  C      0.392819    1.211973   -1.394282
  C      1.146039   -0.034878   -0.921983
  H      1.850139   -0.329736   -1.708697
  C      0.138429   -1.178741   -0.749465
  C     -0.908270   -0.846883    0.316759
  H     -0.421369   -0.816171    1.308978
  O     -1.940413   -1.822229    0.339937
  C      1.951900    0.172717    0.341146
  C      1.663317    1.080161    1.260425
  C      3.136126   -0.738429    0.481201
  H     -3.556455    0.019637    0.457460
  H     -3.204616    1.759750    0.509383
  H     -2.697129    0.693579    1.833352
  H     -1.375500    2.379418   -0.839819
  H      0.190910    1.121227   -2.466854
  H      1.019610    2.096963   -1.261226
  H     -0.383827   -1.340060   -1.695085
  H      0.654655   -2.103099   -0.481288
  H     -1.548761   -2.687535    0.514724
  H      2.264497    1.189572    2.147972
  H      0.819937    1.742242    1.175217
  H      3.864681   -0.524326   -0.300048
  H      3.615139   -0.609510    1.447650
  H      2.834722   -1.778923    0.375029

 Total Charge           Charge          ....    0
 Multiplicity           Mult            ....    1
 Number of Electrons    NEL             ....   84
 Basis Dimension        Dim             ....  294

ORBITAL ENERGIES
----------------

  NO   OCC          E(Eh)            E(eV)
   0   2.0000     -18.947003      -515.5742
   1   2.0000     -10.079630      -274.2807
   2   2.0000     -10.041949      -273.2553
   3   2.0000     -10.038474      -273.1608
   4   2.0000     -10.030473      -272.9431
   5   2.0000     -10.029580      -272.9187
   6   2.0000     -10.027957      -272.8746
   7   2.0000     -10.026136      -272.8250
   8   2.0000     -10.019046      -272.6321
   9   2.0000     -10.012729      -272.4602
  10   2.0000     -10.008806      -272.3534
  11   2.0000      -0.985271       -26.8106
  12   2.0000      -0.815393       -22.1880
  13   2.0000      -0.766003       -20.8440
  14   2.0000      -0.720961       -19.6183
  15   2.0000      -0.701598       -19.0915
  16   2.0000      -0.653125       -17.7724
  17   2.0000      -0.644201       -17.5296
  18   2.0000      -0.588213       -16.0061
  19   2.0000      -0.571469       -15.5505
  20   2.0000      -0.503254       -13.6942
  21   2.0000      -0.481432       -13.1004
  22   2.0000      -0.465707       -12.6725
  23   2.0000      -0.440554       -11.9881
  24   2.0000      -0.428235       -11.6529
  25   2.0000      -0.418080       -11.3765
  26   2.0000      -0.399622       -10.8743
  27   2.0000      -0.391761       -10.6604
  28   2.0000      -0.375828       -10.2268
  29   2.0000      -0.373055       -10.1513
  30   2.0000      -0.368101       -10.0165
  31   2.0000      -0.354410        -9.6440
  32   2.0000      -0.344683        -9.3793
  33   2.0000      -0.341512        -9.2930
  34   2.0000      -0.332932        -9.0595
  35   2.0000      -0.317910        -8.6508
  36   2.0000      -0.300746        -8.1837
  37   2.0000      -0.292715        -7.9652
  38   2.0000      -0.266946        -7.2640
  39   2.0000      -0.245833        -6.6895
  40   2.0000      -0.218859        -5.9555
  41   2.0000      -0.207726        -5.6525
  42   0.0000      -0.014586        -0.3969
  43   0.0000       0.002380         0.0648
  44   0.0000       0.066213         1.8018
  45   0.0000       0.068846         1.8734
  46   0.0000       0.095538         2.5997

MULLIKEN ATOMIC CHARGES
-----------------------
   0 C :   -0.527453
   1 C :    0.078079
   2 C :   -0.227359
   3 C :   -0.372351
   4 C :    0.004321
   5 H :    0.162470
   6 C :   -0.383456
   7 C :    0.040566
   8 H :    0.167810
   9 O :   -0.422687
  10 C :    0.004735
  11 C :   -0.346302
  12 C :   -0.528027
  13 H :    0.177112
  14 H :    0.144998
  15 H :    0.154728
  16 H :    0.157055
  17 H :    0.163639
  18 H :    0.172315
  19 H :    0.181520
  20 H :    0.151625
  21 H :    0.286133
  22 H :    0.139770
  23 H :    0.157697
  24 H :    0.161879
  25 H :    0.151936
  26 H :    0.149248
Sum of atomic charges:    0.0000000

LOEWDIN ATOMIC CHARGES
----------------------
   0 C :   -0.378714
   1 C :   -0.093174
   2 C :   -0.201252
   3 C :   -0.275498
   4 C :   -0.198814
   5 H :    0.168742
   6 C :   -0.248650
   7 C :    0.083469
   8 H :    0.181344
   9 O :   -0.609289
  10 C :   -0.122779
  11 C :   -0.318065
  12 C :   -0.392627
  13 H :    0.175735
  14 H :    0.155245
  15 H :    0.163238
  16 H :    0.164919
  17 H :    0.168757
  18 H :    0.169812
  19 H :    0.175010
  20 H :    0.157150
  21 H :    0.268680
  22 H :    0.155975
  23 H :    0.171156
  24 H :    0.162236
  25 H :    0.159114
  26 H :    0.158279

  Mayer bond orders larger than 0.100000
B(  0-C ,  1-C ) :   0.8547 B(  0-C , 13-H ) :   0.9657 B(  0-C , 14-H ) :   0.9994
B(  0-C , 15-H ) :   0.9641 B(  1-C ,  2-C ) :   1.8425 B(  1-C ,  7-C ) :   0.9016
B(  2-C ,  3-C ) :   0.9164 B(  2-C , 16-H ) :   0.9158 B(  3-C ,  4-C ) :   0.9525
B(  3-C , 17-H ) :   0.9531 B(  3-C , 18-H ) :   0.9947 B(  4-C ,  5-H ) :   0.9797
B(  4-C ,  6-C ) :   0.8380 B(  4-C , 10-C ) :   0.9087 B(  6-C ,  7-C ) :   0.8863
B(  6-C , 19-H ) :   0.9988 B(  6-C , 20-H ) :   0.9871 B(  7-C ,  8-H ) :   0.9607
B(  7-C ,  9-O ) :   0.9336 B(  9-O , 21-H ) :   0.9010 B( 10-C , 11-C ) :   1.8612
B( 10-C , 12-C ) :   0.8793 B( 11-C , 22-H ) :   0.9723 B( 11-C , 23-H ) :   0.9656
B( 12-C , 24-H ) :   0.9733 B( 12-C , 25-H ) :   0.9905 B( 12-C , 26-H ) :   0.9703

Dispersion correction           -0.010041980
FINAL SINGLE POINT ENERGY      -465.756033304433

DIPOLE MOMENT
-------------

Method             : SCF
Type of density    : Electron Density
Multiplicity       :   1
Irrep              :   0
Energy             :  -465.7576312595488162 Eh
Relativity type    :
Basis              : AO
                                X                 Y                 Z
Electronic contribution:     -3.054519200      -1.035620073      -1.015245942
Nuclear contribution   :      3.655063386       0.735735322       0.958920532
                        -----------------------------------------
Total Dipole Moment    :      0.600544186      -0.299884751      -0.056325410
                        -----------------------------------------
Magnitude (a.u.)       :      0.673614679
Magnitude (Debye)      :      1.712192443

Rotational constants in cm-1:             0.056809             0.027779             0.024333
Rotational constants in MHz :          1703.091609           832.785470           729.483676

                             ****ORCA TERMINATED NORMALLY****
TOTAL RUN TIME: 0 days 0 hours 0 minutes 44 seconds 659 msec
