                         Program Version 6.0.0  -   RELEASE  -
|  1> ! r2scan-3c def2/J RI DEFGRID2 scfconv6 printgap
|  2> %output
|  3>     printlevel normal
|  4> end
|  5> %cpcm
|  6>     smd true
|  7>     smdsolvent "water"
|  8> end
|  9> * xyz 0 1
| 10> C -2.8272578899 0.7709832226 0.7543599773
| 11> C -1.5249737105 0.5098979565 0.063794501
| 12> C -0.9128807586 1.4122953409 -0.6900919684
| 13> C 0.3928192588 1.2119728812 -1.3942821447
| 14> C 1.1460392377 -0.0348778556 -0.9219831971
| 15> H 1.8501387039 -0.3297358656 -1.7086965851
| 16> C 0.1384294441 -1.1787407481 -0.7494647816
| 17> C -0.9082696954 -0.8468826406 0.3167585322
| 18> H -0.4213687601 -0.8161706687 1.3089782507
| 19> O -1.9404132396 -1.8222290827 0.3399369266
| 20> C 1.9518995373 0.1727167214 0.341146127
| 21> C 1.663316895 1.0801612014 1.260424654
| 22> C 3.136126407 -0.7384285937 0.4812009304
| 23> H -3.556454923 0.0196368348 0.4574603501
| 24> H -3.2046156768 1.7597501181 0.5093827792
| 25> H -2.6971289029 0.6935790435 1.83335198
| 26> H -1.3754997901 2.3794182846 -0.8398192364
| 27> H 0.1909096657 1.1212269219 -2.4668541302
| 28> H 1.0196103188 2.096962926 -1.2612256695
| 29> H -0.3838265108 -1.3400596348 -1.6950853227
| 30> H 0.654655418 -2.1030990173 -0.4812880557
| 31> H -1.5487609525 -2.6875354141 0.5147241614
| 32> H 2.2644969907 1.1895724948 2.1479721501
| 33> H 0.819937272 1.7422419505 1.175216975
| 34> H 3.8646811342 -0.5243255441 -0.3000478088
| 35> H 3.6151390743 -0.6095102302 1.4476497535
| 36> H 2.8347216668 -1.7789230476 0.3750291791
| 37> *
| 38>
| 39>                          ****END OF INPUT****

CARTESIAN COORDINATES (ANGSTROEM)
---------------------------------
  C     -2.827258    0.770983    0.754360
  C     -1.524974    0.509898    0.063795
  C     -0.912881    1.412295   -0.690092
  C      0.392819    1.211973   -1.394282
  C      1.146039   -0.034878   -0.921983
  H      1.850139   -0.329736   -1.708697
  C      0.138429   -1.178741   -0.749465
  C     -0.908270   -0.846883    0.316759
  H     -0.421369   -0.816171    1.308978
  O     -1.940413   -1.822229    0.339937
  C      1.951900    0.172717    0.341146
  C      1.663317    1.080161    1.260425
  C      3.136126   -0.738429    0.481201
  H     -3.556455    0.019637    0.457460
  H     -3.204616    1.759750    0.509383
  H     -2.697129    0.693579    1.833352
  H     -1.375500    2.379418   -0.839819
  H      0.190910    1.121227   -2.466854
  H      1.019610    2.096963   -1.261226
  H     -0.383827   -1.340060   -1.695085
  H      0.654655   -2.103099   -0.481288
  H     -1.548761   -2.687535    0.514724
  H      2.264497    1.189572    2.147972
  H      0.819937    1.742242    1.175217
  H      3.864681   -0.524326   -0.300048
  H      3.615139   -0.609510    1.447650
  H      2.834722   -1.778923    0.375029

 Total Charge           Charge          ....    0
 Multiplicity           Mult            ....    1
 Number of Electrons    NEL             ....   84
 Basis Dimension        Dim             ....  294

ORBITAL ENERGIES
----------------

  NO   OCC          E(Eh)            E(eV)
   0   2.0000     -18.950371      -515.6658
   1   2.0000     -10.077347      -274.2185
   2   2.0000     -10.036275      -273.1009
   3   2.0000     -10.033688      -273.0305
   4   2.0000     -10.026938      -272.8469
   5   2.0000     -10.022611      -272.7291
   6   2.0000     -10.021800      -272.7071
   7   2.0000     -10.017815      -272.5986
   8   2.0000     -10.014754      -272.5153
   9   2.0000     -10.013282      -272.4752
  10   2.0000     -10.003634      -272.2127
  11   2.0000      -0.987823       -26.8800
  12   2.0000      -0.810665       -22.0593
  13   2.0000      -0.763378       -20.7726
  14   2.0000      -0.716725       -19.5031
  15   2.0000      -0.696732       -18.9590
  16   2.0000      -0.646735       -17.5986
  17   2.0000      -0.642140       -17.4735
  18   2.0000      -0.584812       -15.9135
  19   2.0000      -0.566103       -15.4045
  20   2.0000      -0.498398       -13.5621
  21   2.0000      -0.479403       -13.0452
  22   2.0000      -0.461551       -12.5594
  23   2.0000      -0.435797       -11.8586
  24   2.0000      -0.422867       -11.5068
  25   2.0000      -0.415431       -11.3045
  26   2.0000      -0.393827       -10.7166
  27   2.0000      -0.385304       -10.4846
  28   2.0000      -0.372588       -10.1386
  29   2.0000      -0.369071       -10.0429
  30   2.0000      -0.362754        -9.8710
  31   2.0000      -0.350388        -9.5345
  32   2.0000      -0.342683        -9.3249
  33   2.0000      -0.338633        -9.2147
  34   2.0000      -0.326798        -8.8926
  35   2.0000      -0.315407        -8.5827
  36   2.0000      -0.296780        -8.0758
  37   2.0000      -0.287549        -7.8246
  38   2.0000      -0.263376        -7.1668
  39   2.0000      -0.248335        -6.7575
  40   2.0000      -0.218350        -5.9416
  41   2.0000      -0.208298        -5.6681
  42   0.0000      -0.012807        -0.3485
  43   0.0000       0.003593         0.0978
  44   0.0000       0.077124         2.0986
  45   0.0000       0.079546         2.1646
  46   0.0000       0.103908         2.8275

MULLIKEN ATOMIC CHARGES
-----------------------
   0 C :   -0.568299
   1 C :    0.032398
   2 C :   -0.241932
   3 C :   -0.386651
   4 C :    0.033443
   5 H :    0.181081
   6 C :   -0.397932
   7 C :    0.056043
   8 H :    0.174968
   9 O :   -0.504721
  10 C :   -0.009326
  11 C :   -0.419061
  12 C :   -0.561124
  13 H :    0.174519
  14 H :    0.166338
  15 H :    0.175002
  16 H :    0.178408
  17 H :    0.181723
  18 H :    0.179935
  19 H :    0.182361
  20 H :    0.182164
  21 H :    0.342487
  22 H :    0.164530
  23 H :    0.166572
  24 H :    0.178841
  25 H :    0.165928
  26 H :    0.172305
Sum of atomic charges:    0.0000000

LOEWDIN ATOMIC CHARGES
----------------------
   0 C :   -0.389183
   1 C :   -0.110988
   2 C :   -0.202735
   3 C :   -0.277169
   4 C :   -0.197064
   5 H :    0.176752
   6 C :   -0.246206
   7 C :    0.083366
   8 H :    0.184790
   9 O :   -0.640329
  10 C :   -0.119129
  11 C :   -0.346522
  12 C :   -0.399028
  13 H :    0.171275
  14 H :    0.162297
  15 H :    0.167747
  16 H :    0.171703
  17 H :    0.175215
  18 H :    0.172037
  19 H :    0.175224
  20 H :    0.168942
  21 H :    0.287655
  22 H :    0.161897
  23 H :    0.171174
  24 H :    0.168574
  25 H :    0.162312
  26 H :    0.167395

  Mayer bond orders larger than 0.100000
B(  0-C ,  1-C ) :   0.8452 B(  0-C , 13-H ) :   0.9672 B(  0-C , 14-H ) :   0.9898
B(  0-C , 15-H ) :   0.9641 B(  1-C ,  2-C ) :   1.8468 B(  1-C ,  7-C ) :   0.8726
B(  2-C ,  3-C ) :   0.9033 B(  2-C , 16-H ) :   0.9227 B(  3-C ,  4-C ) :   0.9337
B(  3-C , 17-H ) :   0.9500 B(  3-C , 18-H ) :   0.9960 B(  4-C ,  5-H ) :   0.9733
B(  4-C ,  6-C ) :   0.8282 B(  4-C , 10-C ) :   0.8979 B(  6-C ,  7-C ) :   0.9001
B(  6-C , 19-H ) :   0.9978 B(  6-C , 20-H ) :   0.9776 B(  7-C ,  8-H ) :   0.9594
B(  7-C ,  9-O ) :   0.9182 B(  9-O , 21-H ) :   0.8746 B( 10-C , 11-C ) :   1.8302
B( 10-C , 12-C ) :   0.8853 B( 11-C , 22-H ) :   0.9711 B( 11-C , 23-H ) :   0.9709
B( 12-C , 24-H ) :   0.9655 B( 12-C , 25-H ) :   0.9872 B( 12-C , 26-H ) :   0.9625

Dispersion correction           -0.010041980
FINAL SINGLE POINT ENERGY      -465.762721764908

DIPOLE MOMENT
-------------

Method             : SCF
Type of density    : Electron Density
Multiplicity       :   1
Irrep              :   0
Energy             :  -465.7643197200241048 Eh
Relativity type    :
Basis              : AO
                                X                 Y                 Z
Electronic contribution:     -2.701545657      -1.211837930      -1.096684220
Nuclear contribution   :      3.655063386       0.735735322       0.958920532
                        -----------------------------------------
Total Dipole Moment    :      0.953517729      -0.476102608      -0.137763688
                        -----------------------------------------
Magnitude (a.u.)       :      1.074638817
Magnitude (Debye)      :      2.731514795

Rotational constants in cm-1:             0.056809             0.027779             0.024333
Rotational constants in MHz :          1703.091609           832.785470           729.483676

                             ****ORCA TERMINATED NORMALLY****
TOTAL RUN TIME: 0 days 0 hours 0 minutes 57 seconds 593 msec
