                         Program Version 6.0.0  -   RELEASE  -
|  1> ! r2scan-3c def2/J RI DEFGRID2 scfconv6 printgap
|  2> %output
|  3>     printlevel normal
|  4> end
|  5> * xyz 0 1
|  6> C -1.6475662403 -0.7833231726 0.9395898023
|  7> C -0.8893130367 -0.018918483 -0.109213226
|  8> O -1.4772654393 0.5206660195 -1.0276348831
|  9> C 0.628876244 0.0526081106 0.0189779564
| 10> C 0.992428793 0.7248162609 1.3492410537
| 11> C 1.196963134 0.8767944078 -1.1388486643
| 12> C 1.2047110927 -1.3684474986 -0.036579237
| 13> H -2.2196441318 -1.5668255697 0.4465070402
| 14> H -1.0094548403 -1.2167574805 1.6983974259
| 15> H -2.3660559637 -0.1095355524 1.4022806514
| 16> H 0.6580991189 0.139603202 2.2001379967
| 17> H 2.0719997341 0.8348042928 1.4120681595
| 18> H 0.5421293147 1.7132212949 1.4082934966
| 19> H 2.279287284 0.9350387304 -1.0657981953
| 20> H 0.7869646886 1.8841280936 -1.123235619
| 21> H 0.9308609917 0.4246215171 -2.0916682956
| 22> H 2.2900680945 -1.3172258212 -0.0070397188
| 23> H 0.9087014494 -1.8598218302 -0.9607799203
| 24> H 0.8675083218 -1.9715973777 0.8005656066
| 25> *
| 26>
| 27>                          ****END OF INPUT****

CARTESIAN COORDINATES (ANGSTROEM)
---------------------------------
  C     -1.647566   -0.783323    0.939590
  C     -0.889313   -0.018918   -0.109213
  O     -1.477265    0.520666   -1.027635
  C      0.628876    0.052608    0.018978
  C      0.992429    0.724816    1.349241
  C      1.196963    0.876794   -1.138849
  C      1.204711   -1.368447   -0.036579
  H     -2.219644   -1.566826    0.446507
  H     -1.009455   -1.216757    1.698397
  H     -2.366056   -0.109536    1.402281
  H      0.658099    0.139603    2.200138
  H      2.072000    0.834804    1.412068
  H      0.542129    1.713221    1.408293
  H      2.279287    0.935039   -1.065798
  H      0.786965    1.884128   -1.123236
  H      0.930861    0.424622   -2.091668
  H      2.290068   -1.317226   -0.007040
  H      0.908701   -1.859822   -0.960780
  H      0.867508   -1.971597    0.800566

 Total Charge           Charge          ....    0
 Multiplicity           Mult            ....    1
 Number of Electrons    NEL             ....   56
 Basis Dimension        Dim             ....  198

ORBITAL ENERGIES
----------------

  NO   OCC          E(Eh)            E(eV)
   0   2.0000     -18.934002      -515.2204
   1   2.0000     -10.115759      -275.2638
   2   2.0000     -10.053833      -273.5787
   3   2.0000     -10.033754      -273.0323
   4   2.0000     -10.031075      -272.9594
   5   2.0000     -10.031047      -272.9587
   6   2.0000     -10.014365      -272.5047
   7   2.0000      -1.001644       -27.2561
   8   2.0000      -0.795659       -21.6510
   9   2.0000      -0.711707       -19.3665
  10   2.0000      -0.667255       -18.1569
  11   2.0000      -0.653272       -17.7764
  12   2.0000      -0.579586       -15.7713
  13   2.0000      -0.474413       -12.9094
  14   2.0000      -0.449835       -12.2406
  15   2.0000      -0.429382       -11.6841
  16   2.0000      -0.427379       -11.6296
  17   2.0000      -0.402903       -10.9636
  18   2.0000      -0.390957       -10.6385
  19   2.0000      -0.376114       -10.2346
  20   2.0000      -0.365793        -9.9537
  21   2.0000      -0.356449        -9.6995
  22   2.0000      -0.341184        -9.2841
  23   2.0000      -0.325957        -8.8697
  24   2.0000      -0.324147        -8.8205
  25   2.0000      -0.305693        -8.3183
  26   2.0000      -0.303030        -8.2459
  27   2.0000      -0.209926        -5.7124
  28   0.0000      -0.045838        -1.2473
  29   0.0000       0.063462         1.7269
  30   0.0000       0.108459         2.9513
  31   0.0000       0.121663         3.3106
  32   0.0000       0.126611         3.4453

MULLIKEN ATOMIC CHARGES
-----------------------
   0 C :   -0.523478
   1 C :    0.235295
   2 O :   -0.330236
   3 C :    0.140877
   4 C :   -0.478451
   5 C :   -0.512779
   6 C :   -0.478649
   7 H :    0.181624
   8 H :    0.153119
   9 H :    0.181630
  10 H :    0.149919
  11 H :    0.159945
  12 H :    0.164680
  13 H :    0.150737
  14 H :    0.165137
  15 H :    0.165830
  16 H :    0.159906
  17 H :    0.164723
  18 H :    0.150172
Sum of atomic charges:    0.0000000

LOEWDIN ATOMIC CHARGES
----------------------
   0 C :   -0.386207
   1 C :    0.228398
   2 O :   -0.468179
   3 C :   -0.191864
   4 C :   -0.386110
   5 C :   -0.386350
   6 C :   -0.385851
   7 H :    0.183856
   8 H :    0.156032
   9 H :    0.183899
  10 H :    0.156011
  11 H :    0.162031
  12 H :    0.163658
  13 H :    0.152623
  14 H :    0.167951
  15 H :    0.168258
  16 H :    0.162000
  17 H :    0.163746
  18 H :    0.156098

  Mayer bond orders larger than 0.100000
B(  0-C ,  1-C ) :   0.9006 B(  0-C ,  7-H ) :   0.9551 B(  0-C ,  8-H ) :   0.9776
B(  0-C ,  9-H ) :   0.9550 B(  1-C ,  2-O ) :   1.9452 B(  1-C ,  3-C ) :   0.8613
B(  2-O ,  3-C ) :  -0.1123 B(  3-C ,  4-C ) :   0.9022 B(  3-C ,  5-C ) :   0.9555
B(  3-C ,  6-C ) :   0.9025 B(  4-C , 10-H ) :   0.9642 B(  4-C , 11-H ) :   0.9701
B(  4-C , 12-H ) :   0.9713 B(  5-C , 13-H ) :   0.9806 B(  5-C , 14-H ) :   0.9669
B(  5-C , 15-H ) :   0.9670 B(  6-C , 16-H ) :   0.9702 B(  6-C , 17-H ) :   0.9711
B(  6-C , 18-H ) :   0.9644

Dispersion correction           -0.005426900
FINAL SINGLE POINT ENERGY      -311.005576349092

DIPOLE MOMENT
-------------

Method             : SCF
Type of density    : Electron Density
Multiplicity       :   1
Irrep              :   0
Energy             :  -311.0095476506036221 Eh
Relativity type    :
Basis              : AO
                                X                 Y                 Z
Electronic contribution:     -4.806067203       1.483520090      -3.015826999
Nuclear contribution   :      5.363589170      -1.972129841       3.849741612
                        -----------------------------------------
Total Dipole Moment    :      0.557521968      -0.488609752       0.833914613
                        -----------------------------------------
Magnitude (a.u.)       :      1.115788428
Magnitude (Debye)      :      2.836108795

Rotational constants in cm-1:             0.107126             0.077655             0.064814
Rotational constants in MHz :          3211.565143          2328.024863          1943.062511

                             ****ORCA TERMINATED NORMALLY****
TOTAL RUN TIME: 0 days 0 hours 0 minutes 39 seconds 849 msec
