                         Program Version 6.0.0  -   RELEASE  -
|  1> ! r2scan-3c def2/J RI DEFGRID2 scfconv6 printgap
|  2> %output
|  3>     printlevel normal
|  4> end
|  5> * xyz 0 1
|  6> C -2.3650929157 0.8516491721 -0.2446124766
|  7> O -1.099811594 0.632341336 0.3922874105
|  8> C -0.434575236 -0.4755948488 0.1410657105
|  9> O -0.8037266777 -1.3687047147 -0.5844646926
| 10> C 0.8966038738 -0.4803573058 0.8864520015
| 11> C 1.8704982188 0.1690393599 0.0531486611
| 12> N 2.6335396544 0.6915682381 -0.6205985585
| 13> H -2.6670964091 -0.0416042069 -0.7913211885
| 14> H -2.2552420408 1.6943978207 -0.9248126569
| 15> H -3.0812160849 1.0876691986 0.5391907611
| 16> H 1.2104733147 -1.5096019857 1.0687287183
| 17> H 0.8000837081 0.0760148715 1.8202588725
| 18> *
| 19>
| 20>                          ****END OF INPUT****

CARTESIAN COORDINATES (ANGSTROEM)
---------------------------------
  C     -2.365093    0.851649   -0.244612
  O     -1.099812    0.632341    0.392287
  C     -0.434575   -0.475595    0.141066
  O     -0.803727   -1.368705   -0.584465
  C      0.896604   -0.480357    0.886452
  C      1.870498    0.169039    0.053149
  N      2.633540    0.691568   -0.620599
  H     -2.667096   -0.041604   -0.791321
  H     -2.255242    1.694398   -0.924813
  H     -3.081216    1.087669    0.539191
  H      1.210473   -1.509602    1.068729
  H      0.800084    0.076015    1.820259

 Total Charge           Charge          ....    0
 Multiplicity           Mult            ....    1
 Number of Electrons    NEL             ....   52
 Basis Dimension        Dim             ....  173

ORBITAL ENERGIES
----------------

  NO   OCC          E(Eh)            E(eV)
   0   2.0000     -19.029548      -517.8203
   1   2.0000     -18.959555      -515.9157
   2   2.0000     -14.162527      -385.3820
   3   2.0000     -10.191301      -277.3194
   4   2.0000     -10.106351      -275.0078
   5   2.0000     -10.105826      -274.9935
   6   2.0000     -10.080955      -274.3167
   7   2.0000      -1.105101       -30.0713
   8   2.0000      -1.009569       -27.4718
   9   2.0000      -0.888100       -24.1664
  10   2.0000      -0.792993       -21.5784
  11   2.0000      -0.716240       -19.4899
  12   2.0000      -0.571585       -15.5536
  13   2.0000      -0.526160       -14.3175
  14   2.0000      -0.504084       -13.7168
  15   2.0000      -0.479864       -13.0578
  16   2.0000      -0.462772       -12.5927
  17   2.0000      -0.437288       -11.8992
  18   2.0000      -0.412992       -11.2381
  19   2.0000      -0.386900       -10.5281
  20   2.0000      -0.347395        -9.4531
  21   2.0000      -0.335352        -9.1254
  22   2.0000      -0.322692        -8.7809
  23   2.0000      -0.316991        -8.6258
  24   2.0000      -0.298972        -8.1354
  25   2.0000      -0.267390        -7.2760
  26   0.0000      -0.051991        -1.4147
  27   0.0000       0.001855         0.0505
  28   0.0000       0.008910         0.2425
  29   0.0000       0.037031         1.0077
  30   0.0000       0.074309         2.0221

MULLIKEN ATOMIC CHARGES
-----------------------
   0 C :   -0.291616
   1 O :   -0.186961
   2 C :    0.434821
   3 O :   -0.410359
   4 C :   -0.380594
   5 C :    0.187094
   6 N :   -0.234001
   7 H :    0.190411
   8 H :    0.160293
   9 H :    0.154216
  10 H :    0.192067
  11 H :    0.184629
Sum of atomic charges:   -0.0000000

LOEWDIN ATOMIC CHARGES
----------------------
   0 C :   -0.034095
   1 O :   -0.581870
   2 C :    0.374304
   3 O :   -0.402343
   4 C :   -0.175558
   5 C :    0.148873
   6 N :   -0.295143
   7 H :    0.194135
   8 H :    0.179668
   9 H :    0.178004
  10 H :    0.207057
  11 H :    0.206969

  Mayer bond orders larger than 0.100000
B(  0-C ,  1-O ) :   0.8340 B(  0-C ,  7-H ) :   0.9650 B(  0-C ,  8-H ) :   0.9587
B(  0-C ,  9-H ) :   0.9632 B(  1-O ,  2-C ) :   1.0775 B(  2-C ,  3-O ) :   1.8573
B(  2-C ,  4-C ) :   0.9281 B(  4-C ,  5-C ) :   1.0622 B(  4-C , 10-H ) :   0.9506
B(  4-C , 11-H ) :   0.9500 B(  5-C ,  6-N ) :   2.8862

Dispersion correction           -0.002819189
FINAL SINGLE POINT ENERGY      -360.545640342721

DIPOLE MOMENT
-------------

Method             : SCF
Type of density    : Electron Density
Multiplicity       :   1
Irrep              :   0
Energy             :  -360.5505949599338464 Eh
Relativity type    :
Basis              : AO
                                X                 Y                 Z
Electronic contribution:      4.347165898      -1.113975342      -0.471255524
Nuclear contribution   :     -5.636195627       1.218969370       1.599929896
                        -----------------------------------------
Total Dipole Moment    :     -1.289029729       0.104994027       1.128674371
                        -----------------------------------------
Magnitude (a.u.)       :      1.716545142
Magnitude (Debye)      :      4.363111009

Rotational constants in cm-1:             0.179276             0.055823             0.050178
Rotational constants in MHz :          5374.562130          1673.526152          1504.294548

                             ****ORCA TERMINATED NORMALLY****
TOTAL RUN TIME: 0 days 0 hours 0 minutes 18 seconds 950 msec
