                         Program Version 6.0.0  -   RELEASE  -
|  1> ! r2scan-3c def2/J RI DEFGRID2 scfconv6 printgap
|  2> %output
|  3>     printlevel normal
|  4> end
|  5> * xyz 0 1
|  6> C 1.8571532327 0.0708302805 0.2587464613
|  7> C 0.5451360474 -0.165722958 -0.4706366325
|  8> O -0.525243173 0.1434762188 0.4057745682
|  9> C -1.7934450434 -0.0439655567 -0.178027507
| 10> H 1.9207002966 1.1085487152 0.5730919676
| 11> H 1.9063207049 -0.5611214923 1.1407271988
| 12> H 2.6897424868 -0.1596941888 -0.3981931069
| 13> H 0.4644189178 -1.2158224775 -0.7910218438
| 14> H 0.4802626633 0.4707361395 -1.3664922791
| 15> H -1.9200702601 0.5997938942 -1.0561192604
| 16> H -2.5228337177 0.2229707555 0.58246782
| 17> H -1.9362246216 -1.0882103959 -0.479162585
| 18> *
| 19>
| 20>                          ****END OF INPUT****

CARTESIAN COORDINATES (ANGSTROEM)
---------------------------------
  C      1.857153    0.070830    0.258746
  C      0.545136   -0.165723   -0.470637
  O     -0.525243    0.143476    0.405775
  C     -1.793445   -0.043966   -0.178028
  H      1.920700    1.108549    0.573092
  H      1.906321   -0.561121    1.140727
  H      2.689742   -0.159694   -0.398193
  H      0.464419   -1.215822   -0.791022
  H      0.480263    0.470736   -1.366492
  H     -1.920070    0.599794   -1.056119
  H     -2.522834    0.222971    0.582468
  H     -1.936225   -1.088210   -0.479163

 Total Charge           Charge          ....    0
 Multiplicity           Mult            ....    1
 Number of Electrons    NEL             ....   34
 Basis Dimension        Dim             ....  121

ORBITAL ENERGIES
----------------

  NO   OCC          E(Eh)            E(eV)
   0   2.0000     -18.947855      -515.5973
   1   2.0000     -10.074695      -274.1464
   2   2.0000     -10.067588      -273.9530
   3   2.0000     -10.018358      -272.6134
   4   2.0000      -0.993420       -27.0323
   5   2.0000      -0.726877       -19.7793
   6   2.0000      -0.639461       -17.4006
   7   2.0000      -0.569748       -15.5036
   8   2.0000      -0.453573       -12.3424
   9   2.0000      -0.445429       -12.1207
  10   2.0000      -0.418189       -11.3795
  11   2.0000      -0.387741       -10.5510
  12   2.0000      -0.354620        -9.6497
  13   2.0000      -0.331264        -9.0142
  14   2.0000      -0.321995        -8.7619
  15   2.0000      -0.282731        -7.6935
  16   2.0000      -0.219017        -5.9598
  17   0.0000       0.076087         2.0704
  18   0.0000       0.113506         3.0887
  19   0.0000       0.115774         3.1504
  20   0.0000       0.136646         3.7183
  21   0.0000       0.162587         4.4242

MULLIKEN ATOMIC CHARGES
-----------------------
   0 C :   -0.444863
   1 C :   -0.113808
   2 O :   -0.239304
   3 C :   -0.286053
   4 H :    0.152072
   5 H :    0.152025
   6 H :    0.137439
   7 H :    0.119552
   8 H :    0.119556
   9 H :    0.128440
  10 H :    0.146486
  11 H :    0.128458
Sum of atomic charges:    0.0000000

LOEWDIN ATOMIC CHARGES
----------------------
   0 C :   -0.392843
   1 C :    0.003527
   2 O :   -0.801517
   3 C :   -0.075669
   4 H :    0.158363
   5 H :    0.158317
   6 H :    0.155135
   7 H :    0.156766
   8 H :    0.156762
   9 H :    0.153544
  10 H :    0.174076
  11 H :    0.153540

  Mayer bond orders larger than 0.100000
B(  0-C ,  1-C ) :   0.9589 B(  0-C ,  4-H ) :   0.9749 B(  0-C ,  5-H ) :   0.9748
B(  0-C ,  6-H ) :   0.9655 B(  1-C ,  2-O ) :   0.8850 B(  1-C ,  7-H ) :   0.9503
B(  1-C ,  8-H ) :   0.9503 B(  2-O ,  3-C ) :   0.9049 B(  3-C ,  9-H ) :   0.9668
B(  3-C , 10-H ) :   0.9735 B(  3-C , 11-H ) :   0.9669

Dispersion correction           -0.001984559
FINAL SINGLE POINT ENERGY      -194.283895574461

DIPOLE MOMENT
-------------

Method             : SCF
Type of density    : Electron Density
Multiplicity       :   1
Irrep              :   0
Energy             :  -194.2906330771526484 Eh
Relativity type    :
Basis              : AO
                                X                 Y                 Z
Electronic contribution:     -1.027173578       0.433908493       1.242715286
Nuclear contribution   :      1.007581049      -0.582156992      -1.677699299
                        -----------------------------------------
Total Dipole Moment    :     -0.019592528      -0.148248499      -0.434984013
                        -----------------------------------------
Magnitude (a.u.)       :      0.459970190
Magnitude (Debye)      :      1.169151310

Rotational constants in cm-1:             0.946747             0.137973             0.129235
Rotational constants in MHz :         28382.767933          4136.338265          3874.364598

                             ****ORCA TERMINATED NORMALLY****
TOTAL RUN TIME: 0 days 0 hours 0 minutes 8 seconds 883 msec
