                         Program Version 6.0.0  -   RELEASE  -
|  1> ! r2scan-3c def2/J RI DEFGRID2 scfconv6 printgap
|  2> %output
|  3>     printlevel normal
|  4> end
|  5> %cpcm
|  6>     smd true
|  7>     smdsolvent "water"
|  8> end
|  9> * xyz 0 1
| 10> C 1.8571532327 0.0708302805 0.2587464613
| 11> C 0.5451360474 -0.165722958 -0.4706366325
| 12> O -0.525243173 0.1434762188 0.4057745682
| 13> C -1.7934450434 -0.0439655567 -0.178027507
| 14> H 1.9207002966 1.1085487152 0.5730919676
| 15> H 1.9063207049 -0.5611214923 1.1407271988
| 16> H 2.6897424868 -0.1596941888 -0.3981931069
| 17> H 0.4644189178 -1.2158224775 -0.7910218438
| 18> H 0.4802626633 0.4707361395 -1.3664922791
| 19> H -1.9200702601 0.5997938942 -1.0561192604
| 20> H -2.5228337177 0.2229707555 0.58246782
| 21> H -1.9362246216 -1.0882103959 -0.479162585
| 22> *
| 23>
| 24>                          ****END OF INPUT****

CARTESIAN COORDINATES (ANGSTROEM)
---------------------------------
  C      1.857153    0.070830    0.258746
  C      0.545136   -0.165723   -0.470637
  O     -0.525243    0.143476    0.405775
  C     -1.793445   -0.043966   -0.178028
  H      1.920700    1.108549    0.573092
  H      1.906321   -0.561121    1.140727
  H      2.689742   -0.159694   -0.398193
  H      0.464419   -1.215822   -0.791022
  H      0.480263    0.470736   -1.366492
  H     -1.920070    0.599794   -1.056119
  H     -2.522834    0.222971    0.582468
  H     -1.936225   -1.088210   -0.479163

 Total Charge           Charge          ....    0
 Multiplicity           Mult            ....    1
 Number of Electrons    NEL             ....   34
 Basis Dimension        Dim             ....  121

ORBITAL ENERGIES
----------------

  NO   OCC          E(Eh)            E(eV)
   0   2.0000     -18.954712      -515.7839
   1   2.0000     -10.069727      -274.0112
   2   2.0000     -10.061827      -273.7962
   3   2.0000     -10.013271      -272.4749
   4   2.0000      -0.998809       -27.1790
   5   2.0000      -0.723736       -19.6939
   6   2.0000      -0.635589       -17.2953
   7   2.0000      -0.566131       -15.4052
   8   2.0000      -0.452021       -12.3001
   9   2.0000      -0.443316       -12.0633
  10   2.0000      -0.417198       -11.3525
  11   2.0000      -0.382851       -10.4179
  12   2.0000      -0.349880        -9.5207
  13   2.0000      -0.326520        -8.8850
  14   2.0000      -0.316758        -8.6194
  15   2.0000      -0.288084        -7.8392
  16   2.0000      -0.223904        -6.0927
  17   0.0000       0.077634         2.1125
  18   0.0000       0.120858         3.2887
  19   0.0000       0.125045         3.4026
  20   0.0000       0.143240         3.8978
  21   0.0000       0.166513         4.5310

MULLIKEN ATOMIC CHARGES
-----------------------
   0 C :   -0.489137
   1 C :   -0.114119
   2 O :   -0.310053
   3 C :   -0.306087
   4 H :    0.160084
   5 H :    0.160146
   6 H :    0.161109
   7 H :    0.139760
   8 H :    0.139961
   9 H :    0.148647
  10 H :    0.161125
  11 H :    0.148565
Sum of atomic charges:    0.0000000

LOEWDIN ATOMIC CHARGES
----------------------
   0 C :   -0.401537
   1 C :    0.004608
   2 O :   -0.843398
   3 C :   -0.077089
   4 H :    0.158891
   5 H :    0.158871
   6 H :    0.164354
   7 H :    0.165521
   8 H :    0.165589
   9 H :    0.162684
  10 H :    0.178845
  11 H :    0.162662

  Mayer bond orders larger than 0.100000
B(  0-C ,  1-C ) :   0.9462 B(  0-C ,  4-H ) :   0.9723 B(  0-C ,  5-H ) :   0.9723
B(  0-C ,  6-H ) :   0.9603 B(  1-C ,  2-O ) :   0.8759 B(  1-C ,  7-H ) :   0.9470
B(  1-C ,  8-H ) :   0.9470 B(  2-O ,  3-C ) :   0.8953 B(  3-C ,  9-H ) :   0.9617
B(  3-C , 10-H ) :   0.9667 B(  3-C , 11-H ) :   0.9618

Dispersion correction           -0.001984559
FINAL SINGLE POINT ENERGY      -194.285810029923

DIPOLE MOMENT
-------------

Method             : SCF
Type of density    : Electron Density
Multiplicity       :   1
Irrep              :   0
Energy             :  -194.2925475326141793 Eh
Relativity type    :
Basis              : AO
                                X                 Y                 Z
Electronic contribution:     -1.037243380       0.349687691       0.997961568
Nuclear contribution   :      1.007581049      -0.582156992      -1.677699299
                        -----------------------------------------
Total Dipole Moment    :     -0.029662331      -0.232469301      -0.679737731
                        -----------------------------------------
Magnitude (a.u.)       :      0.719002930
Magnitude (Debye)      :      1.827560209

Rotational constants in cm-1:             0.946747             0.137973             0.129235
Rotational constants in MHz :         28382.767933          4136.338265          3874.364598

                             ****ORCA TERMINATED NORMALLY****
TOTAL RUN TIME: 0 days 0 hours 0 minutes 10 seconds 841 msec
