                         Program Version 6.0.0  -   RELEASE  -
|  1> ! pbe def2-sv(p) def2/J RI DEFGRID1 loosescf d4 GCP(DFT/SV(P)) printgap
|  2> %output
|  3>     printlevel normal
|  4> end
|  5> * xyz 0 1
|  6> C -2.265240438 -0.952263743 0.7786978948
|  7> C -0.8101136606 -0.4454017074 0.7574012621
|  8> H -0.5256794186 -0.1558201482 1.7800534111
|  9> C -0.6263703859 0.7498626065 -0.1943508697
| 10> H -0.7684878512 0.3878300723 -1.2192881781
| 11> C 0.8080895424 1.2975987745 -0.0648473765
| 12> H 0.8254733846 2.061608256 0.7217872604
| 13> C 1.7907854472 0.1679886528 0.3368052309
| 14> H 2.7472949974 0.3598150976 -0.1664282727
| 15> C 1.2689870148 -1.1763990834 -0.1872365681
| 16> H 1.954022224 -1.9804768032 0.123533025
| 17> O 0.0260807137 -1.5286880877 0.3543017352
| 18> O 1.2200367503 -1.0740985101 -1.5806700971
| 19> O 1.9571100516 0.0572720242 1.7268832743
| 20> O 1.2350254027 1.9585119694 -1.2270455065
| 21> O -1.6136441243 1.7314686517 -0.005989352
| 22> O -2.9081594392 -0.9188473287 -0.468809717
| 23> H -2.8292812337 -0.3720677812 1.5168817881
| 24> H -2.2445894171 -1.9998166157 1.0847386632
| 25> H 0.9071825755 -1.9107476533 -1.9575291132
| 26> H 2.5435186288 0.7598544248 2.0440319395
| 27> H 1.2461368403 1.3277072911 -1.9628044934
| 28> H -1.4589512814 2.2066583881 0.8226961569
| 29> H -3.0501939286 0.0075426138 -0.7168042789
| 30> *
| 31>
| 32>                          ****END OF INPUT****

CARTESIAN COORDINATES (ANGSTROEM)
---------------------------------
  C     -2.265240   -0.952264    0.778698
  C     -0.810114   -0.445402    0.757401
  H     -0.525679   -0.155820    1.780053
  C     -0.626370    0.749863   -0.194351
  H     -0.768488    0.387830   -1.219288
  C      0.808090    1.297599   -0.064847
  H      0.825473    2.061608    0.721787
  C      1.790785    0.167989    0.336805
  H      2.747295    0.359815   -0.166428
  C      1.268987   -1.176399   -0.187237
  H      1.954022   -1.980477    0.123533
  O      0.026081   -1.528688    0.354302
  O      1.220037   -1.074099   -1.580670
  O      1.957110    0.057272    1.726883
  O      1.235025    1.958512   -1.227046
  O     -1.613644    1.731469   -0.005989
  O     -2.908159   -0.918847   -0.468810
  H     -2.829281   -0.372068    1.516882
  H     -2.244589   -1.999817    1.084739
  H      0.907183   -1.910748   -1.957529
  H      2.543519    0.759854    2.044032
  H      1.246137    1.327707   -1.962804
  H     -1.458951    2.206658    0.822696
  H     -3.050194    0.007543   -0.716804

 Total Charge           Charge          ....    0
 Multiplicity           Mult            ....    1
 Number of Electrons    NEL             ....   96
 Basis Dimension        Dim             ....  192

ORBITAL ENERGIES
----------------

  NO   OCC          E(Eh)            E(eV)
   0   2.0000     -18.773234      -510.8457
   1   2.0000     -18.766841      -510.6717
   2   2.0000     -18.763932      -510.5925
   3   2.0000     -18.762991      -510.5669
   4   2.0000     -18.744205      -510.0557
   5   2.0000     -18.737279      -509.8673
   6   2.0000      -9.989092      -271.8170
   7   2.0000      -9.948501      -270.7125
   8   2.0000      -9.944783      -270.6113
   9   2.0000      -9.941083      -270.5106
  10   2.0000      -9.935527      -270.3594
  11   2.0000      -9.924514      -270.0597
  12   2.0000      -0.983962       -26.7750
  13   2.0000      -0.945239       -25.7213
  14   2.0000      -0.940880       -25.6027
  15   2.0000      -0.923725       -25.1358
  16   2.0000      -0.915813       -24.9205
  17   2.0000      -0.908401       -24.7189
  18   2.0000      -0.700017       -19.0484
  19   2.0000      -0.690512       -18.7898
  20   2.0000      -0.622232       -16.9318
  21   2.0000      -0.589298       -16.0356
  22   2.0000      -0.563995       -15.3471
  23   2.0000      -0.527769       -14.3613
  24   2.0000      -0.511253       -13.9119
  25   2.0000      -0.495128       -13.4731
  26   2.0000      -0.469909       -12.7869
  27   2.0000      -0.448625       -12.2077
  28   2.0000      -0.441076       -12.0023
  29   2.0000      -0.435701       -11.8560
  30   2.0000      -0.420841       -11.4517
  31   2.0000      -0.395514       -10.7625
  32   2.0000      -0.380046       -10.3416
  33   2.0000      -0.366252        -9.9662
  34   2.0000      -0.364212        -9.9107
  35   2.0000      -0.352128        -9.5819
  36   2.0000      -0.343065        -9.3353
  37   2.0000      -0.316548        -8.6137
  38   2.0000      -0.302415        -8.2291
  39   2.0000      -0.292849        -7.9688
  40   2.0000      -0.276804        -7.5322
  41   2.0000      -0.271772        -7.3953
  42   2.0000      -0.258089        -7.0230
  43   2.0000      -0.250269        -6.8102
  44   2.0000      -0.235840        -6.4175
  45   2.0000      -0.215054        -5.8519
  46   2.0000      -0.210696        -5.7333
  47   2.0000      -0.201079        -5.4716
  48   0.0000       0.009718         0.2644
  49   0.0000       0.015952         0.4341
  50   0.0000       0.024457         0.6655
  51   0.0000       0.048985         1.3329
  52   0.0000       0.067289         1.8310

MULLIKEN ATOMIC CHARGES
-----------------------
   0 C :    0.084725
   1 C :    0.024425
   2 H :    0.053317
   3 C :    0.036831
   4 H :    0.054790
   5 C :    0.108095
   6 H :    0.029640
   7 C :   -0.007821
   8 H :    0.076719
   9 C :    0.181672
  10 H :    0.067658
  11 O :   -0.308169
  12 O :   -0.404534
  13 O :   -0.408239
  14 O :   -0.424575
  15 O :   -0.416212
  16 O :   -0.441061
  17 H :    0.062311
  18 H :    0.092020
  19 H :    0.312733
  20 H :    0.310085
  21 H :    0.305436
  22 H :    0.301868
  23 H :    0.308286
Sum of atomic charges:    0.0000000

LOEWDIN ATOMIC CHARGES
----------------------
   0 C :   -0.124503
   1 C :   -0.078478
   2 H :    0.103459
   3 C :   -0.091475
   4 H :    0.115858
   5 C :   -0.072656
   6 H :    0.106104
   7 C :   -0.090999
   8 H :    0.112385
   9 C :    0.001185
  10 H :    0.100313
  11 O :   -0.141944
  12 O :   -0.317130
  13 O :   -0.310314
  14 O :   -0.316026
  15 O :   -0.310073
  16 O :   -0.336222
  17 H :    0.095636
  18 H :    0.120830
  19 H :    0.292531
  20 H :    0.292731
  21 H :    0.281646
  22 H :    0.285356
  23 H :    0.281786

  Mayer bond orders larger than 0.100000
B(  0-C ,  1-C ) :   0.9941 B(  0-C , 16-O ) :   1.1049 B(  0-C , 17-H ) :   0.9168
B(  0-C , 18-H ) :   0.9210 B(  1-C ,  2-H ) :   0.8692 B(  1-C ,  3-C ) :   1.0448
B(  1-C , 11-O ) :   0.9697 B(  3-C ,  4-H ) :   0.8148 B(  3-C ,  5-C ) :   1.0433
B(  3-C , 15-O ) :   1.0165 B(  5-C ,  6-H ) :   0.8594 B(  5-C ,  7-C ) :   0.9620
B(  5-C , 14-O ) :   1.0559 B(  7-C ,  8-H ) :   0.8827 B(  7-C ,  9-C ) :   1.0415
B(  7-C , 13-O ) :   1.0479 B(  9-C , 10-H ) :   0.8921 B(  9-C , 11-O ) :   1.0881
B(  9-C , 12-O ) :   1.1067 B( 12-O , 19-H ) :   0.8365 B( 13-O , 20-H ) :   0.8464
B( 14-O , 21-H ) :   0.8377 B( 15-O , 22-H ) :   0.8457 B( 16-O , 23-H ) :   0.8325

Dispersion correction           -0.025059989
FINAL SINGLE POINT ENERGY      -685.690793350906

DIPOLE MOMENT
-------------

Method             : SCF
Type of density    : Electron Density
Multiplicity       :   1
Irrep              :   0
Energy             :  -685.8215878955867311 Eh
Relativity type    :
Basis              : AO
                                X                 Y                 Z
Electronic contribution:      1.356990597      -0.357324030      -1.437777765
Nuclear contribution   :     -0.614383044       0.652637902       1.925029302
                        -----------------------------------------
Total Dipole Moment    :      0.742607554       0.295313872       0.487251536
                        -----------------------------------------
Magnitude (a.u.)       :      0.935996966
Magnitude (Debye)      :      2.379115217

Rotational constants in cm-1:             0.041444             0.026639             0.022872
Rotational constants in MHz :          1242.454089           798.604250           685.692592

                             ****ORCA TERMINATED NORMALLY****
TOTAL RUN TIME: 0 days 0 hours 0 minutes 11 seconds 826 msec
