                         Program Version 6.0.0  -   RELEASE  -
|  1> ! r2scan-3c def2/J RI DEFGRID2 scfconv6 printgap
|  2> %output
|  3>     printlevel normal
|  4> end
|  5> %cpcm
|  6>     smd true
|  7>     smdsolvent "water"
|  8> end
|  9> * xyz 0 1
| 10> C -2.1789088333 0.2737187247 0.1235344801
| 11> C -0.9218394034 -0.3995385913 -0.390559428
| 12> S 0.5647081467 0.3715950919 0.3587714574
| 13> C 1.8392486628 -0.6269590196 -0.4652876903
| 14> H -3.0543437382 -0.1880655597 -0.3262537236
| 15> H -2.244035322 0.1767933912 1.2045890271
| 16> H -2.1695176641 1.3319646811 -0.1262447518
| 17> H -0.8287966303 -0.289984849 -1.4714198005
| 18> H -0.9028455011 -1.4568878063 -0.1248061499
| 19> H 2.7959835753 -0.2676935276 -0.1029115069
| 20> H 1.7668218362 -0.4858052548 -1.5395205705
| 21> H 1.7043106286 -1.6713708335 -0.2004127014
| 22> *
| 23>
| 24>                          ****END OF INPUT****

CARTESIAN COORDINATES (ANGSTROEM)
---------------------------------
  C     -2.178909    0.273719    0.123534
  C     -0.921839   -0.399539   -0.390559
  S      0.564708    0.371595    0.358771
  C      1.839249   -0.626959   -0.465288
  H     -3.054344   -0.188066   -0.326254
  H     -2.244035    0.176793    1.204589
  H     -2.169518    1.331965   -0.126245
  H     -0.828797   -0.289985   -1.471420
  H     -0.902846   -1.456888   -0.124806
  H      2.795984   -0.267694   -0.102912
  H      1.766822   -0.485805   -1.539521
  H      1.704311   -1.671371   -0.200413

 Total Charge           Charge          ....    0
 Multiplicity           Mult            ....    1
 Number of Electrons    NEL             ....   42
 Basis Dimension        Dim             ....  124

ORBITAL ENERGIES
----------------

  NO   OCC          E(Eh)            E(eV)
   0   2.0000     -88.542138     -2409.3541
   1   2.0000     -10.050338      -273.4836
   2   2.0000     -10.042509      -273.2706
   3   2.0000     -10.018029      -272.6044
   4   2.0000      -7.836027      -213.2291
   5   2.0000      -5.783339      -157.3727
   6   2.0000      -5.779621      -157.2715
   7   2.0000      -5.773065      -157.0931
   8   2.0000      -0.765271       -20.8241
   9   2.0000      -0.701898       -19.0996
  10   2.0000      -0.605559       -16.4781
  11   2.0000      -0.539466       -14.6796
  12   2.0000      -0.422023       -11.4838
  13   2.0000      -0.403632       -10.9834
  14   2.0000      -0.389685       -10.6039
  15   2.0000      -0.381911       -10.3923
  16   2.0000      -0.341882        -9.3031
  17   2.0000      -0.318356        -8.6629
  18   2.0000      -0.311667        -8.4809
  19   2.0000      -0.276599        -7.5266
  20   2.0000      -0.189297        -5.1510
  21   0.0000       0.019097         0.5197
  22   0.0000       0.066353         1.8056
  23   0.0000       0.102207         2.7812
  24   0.0000       0.126207         3.4343
  25   0.0000       0.163001         4.4355

MULLIKEN ATOMIC CHARGES
-----------------------
   0 C :   -0.490492
   1 C :   -0.230257
   2 S :   -0.190924
   3 C :   -0.434154
   4 H :    0.165246
   5 H :    0.161819
   6 H :    0.161860
   7 H :    0.167036
   8 H :    0.167381
   9 H :    0.174177
  10 H :    0.174286
  11 H :    0.174022
Sum of atomic charges:    0.0000000

LOEWDIN ATOMIC CHARGES
----------------------
   0 C :   -0.433468
   1 C :   -0.347966
   2 S :   -0.049861
   3 C :   -0.461806
   4 H :    0.161416
   5 H :    0.156825
   6 H :    0.156818
   7 H :    0.162349
   8 H :    0.162193
   9 H :    0.171313
  10 H :    0.161085
  11 H :    0.161103

  Mayer bond orders larger than 0.100000
B(  0-C ,  1-C ) :   0.9186 B(  0-C ,  4-H ) :   0.9583 B(  0-C ,  5-H ) :   0.9720
B(  0-C ,  6-H ) :   0.9723 B(  1-C ,  2-S ) :   0.9837 B(  1-C ,  7-H ) :   0.9494
B(  1-C ,  8-H ) :   0.9490 B(  2-S ,  3-C ) :   0.9886 B(  3-C ,  9-H ) :   0.9458
B(  3-C , 10-H ) :   0.9507 B(  3-C , 11-H ) :   0.9505

Dispersion correction           -0.002490010
FINAL SINGLE POINT ENERGY      -517.255624073760

DIPOLE MOMENT
-------------

Method             : SCF
Type of density    : Electron Density
Multiplicity       :   1
Irrep              :   0
Energy             :  -517.2627662543808356 Eh
Relativity type    :
Basis              : AO
                                X                 Y                 Z
Electronic contribution:      2.610484987       1.982359242       1.901234768
Nuclear contribution   :     -2.767162643      -2.685334303      -2.531044369
                        -----------------------------------------
Total Dipole Moment    :     -0.156677656      -0.702975062      -0.629809601
                        -----------------------------------------
Magnitude (a.u.)       :      0.956755956
Magnitude (Debye)      :      2.431880374

Rotational constants in cm-1:             0.527523             0.105527             0.092558
Rotational constants in MHz :         15814.749535          3163.628451          2774.832749

                             ****ORCA TERMINATED NORMALLY****
TOTAL RUN TIME: 0 days 0 hours 0 minutes 11 seconds 981 msec
