                         Program Version 6.0.0  -   RELEASE  -
|  1> ! pbe def2-sv(p) def2/J RI DEFGRID1 loosescf d4 GCP(DFT/SV(P)) printgap
|  2> %output
|  3>     printlevel normal
|  4> end
|  5> * xyz 0 1
|  6> C -2.3228072712 -0.6920940275 -0.7658667123
|  7> C -1.1127029233 -0.5492855645 0.1684201333
|  8> H -1.3499162765 -0.9787123776 1.1564954108
|  9> C -0.7233027272 0.9224937777 0.4114143348
| 10> H -1.5562700222 1.5644614636 0.0881617746
| 11> C 0.5250227422 1.2722133334 -0.4270219369
| 12> H 0.8190837209 2.3085580716 -0.2286591286
| 13> C 1.7059237029 0.3661892399 -0.0280502018
| 14> H 2.3835044277 0.2934912616 -0.8916045712
| 15> C 1.1784905769 -1.0547529532 0.2723040097
| 16> H 1.0005431762 -1.1408577284 1.3630086955
| 17> O -0.0437522476 -1.2836140713 -0.405259221
| 18> O 2.1066931833 -1.9747670761 -0.1726914935
| 19> O 2.3562558952 0.9395466118 1.0732016115
| 20> O 0.2560389793 1.2012074587 -1.8026854809
| 21> O -0.4947128893 1.0683764544 1.7926661335
| 22> O -3.4813250109 -0.10788334 -0.2354122581
| 23> H -2.4674799362 -1.7570282964 -0.9828366984
| 24> H -2.1253265366 -0.1659048374 -1.7018074454
| 25> H 1.7277392792 -2.8673374553 -0.1465692121
| 26> H 3.1578424134 0.4375470958 1.277812544
| 27> H 0.1593666422 0.2686979668 -2.0511149116
| 28> H -0.1645778409 1.957625465 1.9825164258
| 29> H -3.7533681691 -0.5813491955 0.5639080702
| 30> *
| 31>
| 32>                          ****END OF INPUT****

CARTESIAN COORDINATES (ANGSTROEM)
---------------------------------
  C     -2.322807   -0.692094   -0.765867
  C     -1.112703   -0.549286    0.168420
  H     -1.349916   -0.978712    1.156495
  C     -0.723303    0.922494    0.411414
  H     -1.556270    1.564461    0.088162
  C      0.525023    1.272213   -0.427022
  H      0.819084    2.308558   -0.228659
  C      1.705924    0.366189   -0.028050
  H      2.383504    0.293491   -0.891605
  C      1.178491   -1.054753    0.272304
  H      1.000543   -1.140858    1.363009
  O     -0.043752   -1.283614   -0.405259
  O      2.106693   -1.974767   -0.172691
  O      2.356256    0.939547    1.073202
  O      0.256039    1.201207   -1.802685
  O     -0.494713    1.068376    1.792666
  O     -3.481325   -0.107883   -0.235412
  H     -2.467480   -1.757028   -0.982837
  H     -2.125327   -0.165905   -1.701807
  H      1.727739   -2.867337   -0.146569
  H      3.157842    0.437547    1.277813
  H      0.159367    0.268698   -2.051115
  H     -0.164578    1.957625    1.982516
  H     -3.753368   -0.581349    0.563908

 Total Charge           Charge          ....    0
 Multiplicity           Mult            ....    1
 Number of Electrons    NEL             ....   96
 Basis Dimension        Dim             ....  192

ORBITAL ENERGIES
----------------

  NO   OCC          E(Eh)            E(eV)
   0   2.0000     -18.781474      -511.0699
   1   2.0000     -18.766756      -510.6694
   2   2.0000     -18.756029      -510.3775
   3   2.0000     -18.754561      -510.3376
   4   2.0000     -18.750173      -510.2182
   5   2.0000     -18.748294      -510.1670
   6   2.0000      -9.985807      -271.7276
   7   2.0000      -9.946619      -270.6613
   8   2.0000      -9.940031      -270.4820
   9   2.0000      -9.937727      -270.4193
  10   2.0000      -9.937331      -270.4085
  11   2.0000      -9.936409      -270.3834
  12   2.0000      -0.990358       -26.9490
  13   2.0000      -0.939708       -25.5708
  14   2.0000      -0.934454       -25.4278
  15   2.0000      -0.928670       -25.2704
  16   2.0000      -0.921578       -25.0774
  17   2.0000      -0.916556       -24.9408
  18   2.0000      -0.697095       -18.9689
  19   2.0000      -0.688116       -18.7246
  20   2.0000      -0.617377       -16.7997
  21   2.0000      -0.593768       -16.1572
  22   2.0000      -0.564361       -15.3571
  23   2.0000      -0.523771       -14.2525
  24   2.0000      -0.503693       -13.7062
  25   2.0000      -0.484870       -13.1940
  26   2.0000      -0.476273       -12.9601
  27   2.0000      -0.460354       -12.5269
  28   2.0000      -0.457104       -12.4384
  29   2.0000      -0.436624       -11.8811
  30   2.0000      -0.416328       -11.3289
  31   2.0000      -0.400946       -10.9103
  32   2.0000      -0.384167       -10.4537
  33   2.0000      -0.373044       -10.1511
  34   2.0000      -0.355531        -9.6745
  35   2.0000      -0.347383        -9.4528
  36   2.0000      -0.325290        -8.8516
  37   2.0000      -0.317897        -8.6504
  38   2.0000      -0.300099        -8.1661
  39   2.0000      -0.296023        -8.0552
  40   2.0000      -0.283591        -7.7169
  41   2.0000      -0.280617        -7.6360
  42   2.0000      -0.260716        -7.0944
  43   2.0000      -0.242589        -6.6012
  44   2.0000      -0.229879        -6.2553
  45   2.0000      -0.224254        -6.1023
  46   2.0000      -0.209082        -5.6894
  47   2.0000      -0.204328        -5.5600
  48   0.0000       0.018511         0.5037
  49   0.0000       0.022811         0.6207
  50   0.0000       0.027508         0.7485
  51   0.0000       0.038692         1.0529
  52   0.0000       0.050566         1.3760

MULLIKEN ATOMIC CHARGES
-----------------------
   0 C :    0.080406
   1 C :   -0.023136
   2 H :    0.065989
   3 C :    0.037899
   4 H :    0.083972
   5 C :    0.018942
   6 H :    0.072556
   7 C :    0.079479
   8 H :    0.069219
   9 C :    0.152643
  10 H :    0.053984
  11 O :   -0.323702
  12 O :   -0.381557
  13 O :   -0.415346
  14 O :   -0.418548
  15 O :   -0.409719
  16 O :   -0.426300
  17 H :    0.083002
  18 H :    0.077561
  19 H :    0.305596
  20 H :    0.305944
  21 H :    0.306819
  22 H :    0.303706
  23 H :    0.300593
Sum of atomic charges:   -0.0000000

LOEWDIN ATOMIC CHARGES
----------------------
   0 C :   -0.127205
   1 C :   -0.073393
   2 H :    0.104835
   3 C :   -0.079401
   4 H :    0.109107
   5 C :   -0.069797
   6 H :    0.116074
   7 C :   -0.084441
   8 H :    0.109705
   9 C :   -0.007534
  10 H :    0.087387
  11 O :   -0.163222
  12 O :   -0.298449
  13 O :   -0.315893
  14 O :   -0.310411
  15 O :   -0.315750
  16 O :   -0.323581
  17 H :    0.100445
  18 H :    0.113982
  19 H :    0.288687
  20 H :    0.290370
  21 H :    0.274832
  22 H :    0.287022
  23 H :    0.286630

  Mayer bond orders larger than 0.100000
B(  0-C ,  1-C ) :   1.0354 B(  0-C , 16-O ) :   1.0673 B(  0-C , 17-H ) :   0.9162
B(  0-C , 18-H ) :   0.9042 B(  1-C ,  2-H ) :   0.8905 B(  1-C ,  3-C ) :   0.9562
B(  1-C , 11-O ) :   0.9726 B(  3-C ,  4-H ) :   0.8949 B(  3-C ,  5-C ) :   0.9993
B(  3-C , 15-O ) :   1.0643 B(  5-C ,  6-H ) :   0.8906 B(  5-C ,  7-C ) :   0.9716
B(  5-C , 14-O ) :   1.0543 B(  7-C ,  8-H ) :   0.8855 B(  7-C ,  9-C ) :   1.0013
B(  7-C , 13-O ) :   1.0727 B(  9-C , 10-H ) :   0.8727 B(  9-C , 11-O ) :   1.0200
B(  9-C , 12-O ) :   1.1661 B( 12-O , 19-H ) :   0.8392 B( 13-O , 20-H ) :   0.8455
B( 14-O , 21-H ) :   0.8222 B( 15-O , 22-H ) :   0.8424 B( 16-O , 23-H ) :   0.8496

Dispersion correction           -0.024854413
FINAL SINGLE POINT ENERGY      -685.689849049422

DIPOLE MOMENT
-------------

Method             : SCF
Type of density    : Electron Density
Multiplicity       :   1
Irrep              :   0
Energy             :  -685.8202911057146594 Eh
Relativity type    :
Basis              : AO
                                X                 Y                 Z
Electronic contribution:      2.182600262      -0.292895565       0.239039734
Nuclear contribution   :     -2.024400557      -0.622278710       0.406467654
                        -----------------------------------------
Total Dipole Moment    :      0.158199705      -0.915174275       0.645507388
                        -----------------------------------------
Magnitude (a.u.)       :      1.131039738
Magnitude (Debye)      :      2.874874543

Rotational constants in cm-1:             0.044899             0.024231             0.021352
Rotational constants in MHz :          1346.032442           726.419830           640.104903

                             ****ORCA TERMINATED NORMALLY****
TOTAL RUN TIME: 0 days 0 hours 0 minutes 11 seconds 968 msec
