                         Program Version 6.0.0  -   RELEASE  -
|  1> ! pbe def2-sv(p) def2/J RI DEFGRID1 loosescf d4 GCP(DFT/SV(P)) printgap
|  2> %output
|  3>     printlevel normal
|  4> end
|  5> * xyz 0 1
|  6> C -1.35133288 -0.8691646649 0.4086666949
|  7> C -0.5928239191 0.0845049328 -0.5111980775
|  8> C -0.6698544329 1.5174947338 0.0100030166
|  9> C 0.8699848575 -0.3554670404 -0.645793912
| 10> O 1.4974934584 -0.3269404128 0.6207039728
| 11> H -1.3373478444 -1.8798351 0.0073360698
| 12> H -2.3849209339 -0.5510640401 0.5156292354
| 13> H -0.8831371037 -0.8789461847 1.3897211483
| 14> H -1.0343589162 0.0432197998 -1.5130126112
| 15> H -0.174217011 2.2010936809 -0.6754089469
| 16> H -0.1792602937 1.5802914387 0.9781007895
| 17> H -1.7060937598 1.8255811762 0.1204635384
| 18> H 0.9042090901 -1.3723168539 -1.0616856563
| 19> H 1.3877951183 0.3214327164 -1.3397738961
| 20> H 2.4190964635 -0.5965735153 0.52390533
| 21> *
| 22>
| 23>                          ****END OF INPUT****

CARTESIAN COORDINATES (ANGSTROEM)
---------------------------------
  C     -1.351333   -0.869165    0.408667
  C     -0.592824    0.084505   -0.511198
  C     -0.669854    1.517495    0.010003
  C      0.869985   -0.355467   -0.645794
  O      1.497493   -0.326940    0.620704
  H     -1.337348   -1.879835    0.007336
  H     -2.384921   -0.551064    0.515629
  H     -0.883137   -0.878946    1.389721
  H     -1.034359    0.043220   -1.513013
  H     -0.174217    2.201094   -0.675409
  H     -0.179260    1.580291    0.978101
  H     -1.706094    1.825581    0.120464
  H      0.904209   -1.372317   -1.061686
  H      1.387795    0.321433   -1.339774
  H      2.419096   -0.596574    0.523905

 Total Charge           Charge          ....    0
 Multiplicity           Mult            ....    1
 Number of Electrons    NEL             ....   42
 Basis Dimension        Dim             ....   90

ORBITAL ENERGIES
----------------

  NO   OCC          E(Eh)            E(eV)
   0   2.0000     -18.740402      -509.9523
   1   2.0000      -9.925584      -270.0889
   2   2.0000      -9.890474      -269.1335
   3   2.0000      -9.863539      -268.4005
   4   2.0000      -9.863520      -268.4000
   5   2.0000      -0.916812       -24.9477
   6   2.0000      -0.714600       -19.4453
   7   2.0000      -0.602418       -16.3926
   8   2.0000      -0.598288       -16.2802
   9   2.0000      -0.493977       -13.4418
  10   2.0000      -0.460911       -12.5420
  11   2.0000      -0.403292       -10.9741
  12   2.0000      -0.391926       -10.6648
  13   2.0000      -0.379777       -10.3343
  14   2.0000      -0.336015        -9.1434
  15   2.0000      -0.322688        -8.7808
  16   2.0000      -0.315873        -8.5953
  17   2.0000      -0.285529        -7.7696
  18   2.0000      -0.283165        -7.7053
  19   2.0000      -0.263526        -7.1709
  20   2.0000      -0.211207        -5.7472
  21   0.0000       0.023493         0.6393
  22   0.0000       0.057504         1.5648
  23   0.0000       0.084477         2.2987
  24   0.0000       0.088350         2.4041
  25   0.0000       0.104954         2.8559

MULLIKEN ATOMIC CHARGES
-----------------------
   0 C :   -0.250825
   1 C :   -0.185816
   2 C :   -0.250206
   3 C :    0.024648
   4 O :   -0.436971
   5 H :    0.089908
   6 H :    0.096194
   7 H :    0.111600
   8 H :    0.072382
   9 H :    0.089718
  10 H :    0.111282
  11 H :    0.096067
  12 H :    0.066142
  13 H :    0.066113
  14 H :    0.299763
Sum of atomic charges:   -0.0000000

LOEWDIN ATOMIC CHARGES
----------------------
   0 C :   -0.332015
   1 C :   -0.169632
   2 C :   -0.331944
   3 C :   -0.113347
   4 O :   -0.345332
   5 H :    0.114428
   6 H :    0.115535
   7 H :    0.123392
   8 H :    0.116199
   9 H :    0.114323
  10 H :    0.123292
  11 H :    0.115481
  12 H :    0.091526
  13 H :    0.091606
  14 H :    0.286487

  Mayer bond orders larger than 0.100000
B(  0-C ,  1-C ) :   1.1074 B(  0-C ,  5-H ) :   0.9518 B(  0-C ,  6-H ) :   0.9538
B(  0-C ,  7-H ) :   0.9471 B(  1-C ,  2-C ) :   1.1073 B(  1-C ,  3-C ) :   1.0724
B(  1-C ,  8-H ) :   0.9041 B(  2-C ,  9-H ) :   0.9518 B(  2-C , 10-H ) :   0.9471
B(  2-C , 11-H ) :   0.9539 B(  3-C ,  4-O ) :   1.0724 B(  3-C , 12-H ) :   0.9225
B(  3-C , 13-H ) :   0.9226 B(  4-O , 14-H ) :   0.8523

Dispersion correction           -0.009901231
FINAL SINGLE POINT ENERGY      -233.088207029746

DIPOLE MOMENT
-------------

Method             : SCF
Type of density    : Electron Density
Multiplicity       :   1
Irrep              :   0
Energy             :  -233.1478713518026780 Eh
Relativity type    :
Basis              : AO
                                X                 Y                 Z
Electronic contribution:      3.174807978      -0.820004129       0.563219720
Nuclear contribution   :     -2.781187202       0.645176760      -0.980273841
                        -----------------------------------------
Total Dipole Moment    :      0.393620776      -0.174827369      -0.417054121
                        -----------------------------------------
Magnitude (a.u.)       :      0.599529869
Magnitude (Debye)      :      1.523883822

Rotational constants in cm-1:             0.210893             0.134338             0.107810
Rotational constants in MHz :          6322.410672          4027.337747          3232.062622

                             ****ORCA TERMINATED NORMALLY****
TOTAL RUN TIME: 0 days 0 hours 0 minutes 5 seconds 570 msec
