                         Program Version 6.0.0  -   RELEASE  -
|  1> ! pbe def2-sv(p) def2/J RI DEFGRID1 loosescf d4 GCP(DFT/SV(P)) printgap
|  2> %output
|  3>     printlevel normal
|  4> end
|  5> * xyz 0 1
|  6> C -2.5264999638 -0.5961584878 -0.2433223573
|  7> C -1.2428513608 -0.4794702773 0.592110508
|  8> H -1.4368480887 -0.8472266166 1.6118091645
|  9> C -0.7294077549 0.9694296688 0.7524315362
| 10> H -1.5717395856 1.6610743347 0.6019913946
| 11> C 0.3509253936 1.3173697668 -0.287918914
| 12> H 0.820504869 2.2699090084 -0.0078640236
| 13> C 1.4938137628 0.2716938639 -0.2924871249
| 14> H 1.7461444532 0.0682758935 -1.3454552905
| 15> C 1.0334510818 -1.0416828941 0.3731651691
| 16> H 1.0785776411 -0.9254661143 1.4667436917
| 17> O -0.2864398515 -1.3212491595 -0.0359905473
| 18> O 1.8442250353 -2.1158276248 0.0569344899
| 19> O 2.5977614038 0.8262197134 0.3781813997
| 20> O -0.1968023763 1.5153247406 -1.5627352231
| 21> O -0.2462367261 1.076548593 2.0721720546
| 22> O -2.2910155026 -0.3331191056 -1.6071149022
| 23> H -3.2578254755 0.1366479966 0.0997586228
| 24> H -2.9367032221 -1.6012308569 -0.1139731363
| 25> H 1.6830014575 -2.3887312917 -0.8598905549
| 26> H 3.3030938793 0.164986792 0.4359388525
| 27> H -0.9548175867 0.9066176823 -1.7055112384
| 28> H 0.0832964181 1.9720800187 2.2339490621
| 29> H -1.8093551362 -1.0851563704 -1.9820912966
| 30> *
| 31>
| 32>                          ****END OF INPUT****

CARTESIAN COORDINATES (ANGSTROEM)
---------------------------------
  C     -2.526500   -0.596158   -0.243322
  C     -1.242851   -0.479470    0.592111
  H     -1.436848   -0.847227    1.611809
  C     -0.729408    0.969430    0.752432
  H     -1.571740    1.661074    0.601991
  C      0.350925    1.317370   -0.287919
  H      0.820505    2.269909   -0.007864
  C      1.493814    0.271694   -0.292487
  H      1.746144    0.068276   -1.345455
  C      1.033451   -1.041683    0.373165
  H      1.078578   -0.925466    1.466744
  O     -0.286440   -1.321249   -0.035991
  O      1.844225   -2.115828    0.056934
  O      2.597761    0.826220    0.378181
  O     -0.196802    1.515325   -1.562735
  O     -0.246237    1.076549    2.072172
  O     -2.291016   -0.333119   -1.607115
  H     -3.257825    0.136648    0.099759
  H     -2.936703   -1.601231   -0.113973
  H      1.683001   -2.388731   -0.859891
  H      3.303094    0.164987    0.435939
  H     -0.954818    0.906618   -1.705511
  H      0.083296    1.972080    2.233949
  H     -1.809355   -1.085156   -1.982091

 Total Charge           Charge          ....    0
 Multiplicity           Mult            ....    1
 Number of Electrons    NEL             ....   96
 Basis Dimension        Dim             ....  192

ORBITAL ENERGIES
----------------

  NO   OCC          E(Eh)            E(eV)
   0   2.0000     -18.785568      -511.1813
   1   2.0000     -18.777101      -510.9509
   2   2.0000     -18.763844      -510.5902
   3   2.0000     -18.758885      -510.4552
   4   2.0000     -18.747059      -510.1334
   5   2.0000     -18.727946      -509.6133
   6   2.0000      -9.980664      -271.5877
   7   2.0000      -9.953569      -270.8504
   8   2.0000      -9.952787      -270.8291
   9   2.0000      -9.947572      -270.6872
  10   2.0000      -9.934477      -270.3309
  11   2.0000      -9.929367      -270.1918
  12   2.0000      -0.988924       -26.9100
  13   2.0000      -0.958340       -26.0777
  14   2.0000      -0.938392       -25.5349
  15   2.0000      -0.925588       -25.1865
  16   2.0000      -0.916513       -24.9396
  17   2.0000      -0.904571       -24.6146
  18   2.0000      -0.706151       -19.2153
  19   2.0000      -0.681326       -18.5398
  20   2.0000      -0.622240       -16.9320
  21   2.0000      -0.597167       -16.2497
  22   2.0000      -0.567422       -15.4403
  23   2.0000      -0.531427       -14.4609
  24   2.0000      -0.497320       -13.5328
  25   2.0000      -0.488765       -13.3000
  26   2.0000      -0.478882       -13.0310
  27   2.0000      -0.467660       -12.7257
  28   2.0000      -0.465267       -12.6606
  29   2.0000      -0.425327       -11.5737
  30   2.0000      -0.410717       -11.1762
  31   2.0000      -0.401295       -10.9198
  32   2.0000      -0.394077       -10.7234
  33   2.0000      -0.381087       -10.3699
  34   2.0000      -0.355833        -9.6827
  35   2.0000      -0.352547        -9.5933
  36   2.0000      -0.327566        -8.9135
  37   2.0000      -0.320173        -8.7124
  38   2.0000      -0.313903        -8.5417
  39   2.0000      -0.303209        -8.2507
  40   2.0000      -0.291400        -7.9294
  41   2.0000      -0.269283        -7.3276
  42   2.0000      -0.255436        -6.9508
  43   2.0000      -0.247901        -6.7457
  44   2.0000      -0.235282        -6.4023
  45   2.0000      -0.230146        -6.2626
  46   2.0000      -0.208863        -5.6835
  47   2.0000      -0.194330        -5.2880
  48   0.0000       0.010149         0.2762
  49   0.0000       0.023411         0.6371
  50   0.0000       0.027970         0.7611
  51   0.0000       0.053399         1.4531
  52   0.0000       0.055507         1.5104

MULLIKEN ATOMIC CHARGES
-----------------------
   0 C :    0.047859
   1 C :    0.022728
   2 H :    0.087503
   3 C :   -0.027564
   4 H :    0.075119
   5 C :    0.078673
   6 H :    0.061095
   7 C :    0.080561
   8 H :    0.035064
   9 C :    0.158129
  10 H :    0.073907
  11 O :   -0.331022
  12 O :   -0.382628
  13 O :   -0.418229
  14 O :   -0.433866
  15 O :   -0.407169
  16 O :   -0.430688
  17 H :    0.104620
  18 H :    0.098750
  19 H :    0.298492
  20 H :    0.300096
  21 H :    0.285855
  22 H :    0.307472
  23 H :    0.315243
Sum of atomic charges:   -0.0000000

LOEWDIN ATOMIC CHARGES
----------------------
   0 C :   -0.123816
   1 C :   -0.067257
   2 H :    0.118468
   3 C :   -0.080894
   4 H :    0.104686
   5 C :   -0.066147
   6 H :    0.112207
   7 C :   -0.090831
   8 H :    0.097750
   9 C :   -0.014857
  10 H :    0.105292
  11 O :   -0.168352
  12 O :   -0.295729
  13 O :   -0.320672
  14 O :   -0.333699
  15 O :   -0.313447
  16 O :   -0.309146
  17 H :    0.123030
  18 H :    0.112681
  19 H :    0.284402
  20 H :    0.284895
  21 H :    0.261236
  22 H :    0.289518
  23 H :    0.290681

  Mayer bond orders larger than 0.100000
B(  0-C ,  1-C ) :   1.0373 B(  0-C , 16-O ) :   1.0284 B(  0-C , 17-H ) :   0.9233
B(  0-C , 18-H ) :   0.9237 B(  1-C ,  2-H ) :   0.8890 B(  1-C ,  3-C ) :   0.9493
B(  1-C , 11-O ) :   1.0069 B(  3-C ,  4-H ) :   0.8988 B(  3-C ,  5-C ) :   1.0281
B(  3-C , 15-O ) :   1.0515 B(  5-C ,  6-H ) :   0.8807 B(  5-C ,  7-C ) :   0.9208
B(  5-C , 14-O ) :   1.0947 B(  7-C ,  8-H ) :   0.8741 B(  7-C ,  9-C ) :   1.0162
B(  7-C , 13-O ) :   1.0693 B(  9-C , 10-H ) :   0.8606 B(  9-C , 11-O ) :   1.0092
B(  9-C , 12-O ) :   1.1230 B( 12-O , 19-H ) :   0.8434 B( 13-O , 20-H ) :   0.8424
B( 14-O , 21-H ) :   0.7783 B( 15-O , 22-H ) :   0.8424 B( 16-O , 21-H ) :   0.1589
B( 16-O , 23-H ) :   0.8287

Dispersion correction           -0.025220715
FINAL SINGLE POINT ENERGY      -685.695207757981

DIPOLE MOMENT
-------------

Method             : SCF
Type of density    : Electron Density
Multiplicity       :   1
Irrep              :   0
Energy             :  -685.8275319162278265 Eh
Relativity type    :
Basis              : AO
                                X                 Y                 Z
Electronic contribution:      2.602515424      -0.920969388      -0.399663600
Nuclear contribution   :     -3.030499470       0.306050304       0.398135490
                        -----------------------------------------
Total Dipole Moment    :     -0.427984046      -0.614919084      -0.001528111
                        -----------------------------------------
Magnitude (a.u.)       :      0.749198344
Magnitude (Debye)      :      1.904310852

Rotational constants in cm-1:             0.040564             0.027039             0.024037
Rotational constants in MHz :          1216.068143           810.623250           720.614370

                             ****ORCA TERMINATED NORMALLY****
TOTAL RUN TIME: 0 days 0 hours 0 minutes 12 seconds 80 msec
