                         Program Version 6.0.0  -   RELEASE  -
|  1> ! r2scan-3c def2/J RI DEFGRID2 scfconv6 printgap
|  2> %output
|  3>     printlevel normal
|  4> end
|  5> * xyz 0 1
|  6> C -2.5612751432 -0.6484531627 -0.3560721194
|  7> C -1.1841888781 -0.2943628226 0.2150783921
|  8> H -1.2548286173 -0.2368666668 1.3127247593
|  9> C -0.7038400651 1.0619790146 -0.3158041614
| 10> H -0.6848212343 1.0286808606 -1.4160999457
| 11> C 0.7233563659 1.3276124582 0.1789765609
| 12> H 0.6951451166 1.4415265201 1.2769206483
| 13> C 1.6395762332 0.1486244835 -0.1803962979
| 14> H 1.724294869 0.0704729002 -1.2696335562
| 15> C 1.0217013987 -1.1582475053 0.342499371
| 16> H 0.9783969939 -1.1136033323 1.4549560533
| 17> O -0.2877158279 -1.3292200544 -0.1515567026
| 18> O 1.7940884363 -2.21517979 -0.0857372772
| 19> O 2.9424932681 0.3691222701 0.2891242934
| 20> O 1.1759473732 2.5235352418 -0.4075198926
| 21> O -1.5931588584 2.0495732513 0.131865631
| 22> O -3.1333660159 -1.7675110749 0.2655675294
| 23> H -2.4598544831 -0.8072888872 -1.436064078
| 24> H -3.2330609997 0.1908166581 -0.1713337858
| 25> H 1.333905735 -3.053806956 0.075113004
| 26> H 2.9938234818 0.1985843539 1.2411764698
| 27> H 2.1417747893 2.5609285504 -0.329100988
| 28> H -1.237922351 2.9154502336 -0.1228001058
| 29> H -2.5687578521 -2.5360764723 0.1005019776
| 30> *
| 31>
| 32>                          ****END OF INPUT****

CARTESIAN COORDINATES (ANGSTROEM)
---------------------------------
  C     -2.561275   -0.648453   -0.356072
  C     -1.184189   -0.294363    0.215078
  H     -1.254829   -0.236867    1.312725
  C     -0.703840    1.061979   -0.315804
  H     -0.684821    1.028681   -1.416100
  C      0.723356    1.327612    0.178977
  H      0.695145    1.441527    1.276921
  C      1.639576    0.148624   -0.180396
  H      1.724295    0.070473   -1.269634
  C      1.021701   -1.158248    0.342499
  H      0.978397   -1.113603    1.454956
  O     -0.287716   -1.329220   -0.151557
  O      1.794088   -2.215180   -0.085737
  O      2.942493    0.369122    0.289124
  O      1.175947    2.523535   -0.407520
  O     -1.593159    2.049573    0.131866
  O     -3.133366   -1.767511    0.265568
  H     -2.459854   -0.807289   -1.436064
  H     -3.233061    0.190817   -0.171334
  H      1.333906   -3.053807    0.075113
  H      2.993823    0.198584    1.241176
  H      2.141775    2.560929   -0.329101
  H     -1.237922    2.915450   -0.122800
  H     -2.568758   -2.536076    0.100502

 Total Charge           Charge          ....    0
 Multiplicity           Mult            ....    1
 Number of Electrons    NEL             ....   96
 Basis Dimension        Dim             ....  318

ORBITAL ENERGIES
----------------

  NO   OCC          E(Eh)            E(eV)
   0   2.0000     -18.981822      -516.5216
   1   2.0000     -18.975976      -516.3626
   2   2.0000     -18.975243      -516.3426
   3   2.0000     -18.965553      -516.0789
   4   2.0000     -18.962119      -515.9855
   5   2.0000     -18.952199      -515.7156
   6   2.0000     -10.152532      -276.2645
   7   2.0000     -10.098984      -274.8073
   8   2.0000     -10.096523      -274.7404
   9   2.0000     -10.096292      -274.7341
  10   2.0000     -10.095766      -274.7198
  11   2.0000     -10.079760      -274.2842
  12   2.0000      -1.061744       -28.8915
  13   2.0000      -1.022085       -27.8123
  14   2.0000      -1.011293       -27.5187
  15   2.0000      -0.997151       -27.1339
  16   2.0000      -0.990957       -26.9653
  17   2.0000      -0.985148       -26.8072
  18   2.0000      -0.758502       -20.6399
  19   2.0000      -0.743600       -20.2344
  20   2.0000      -0.663082       -18.0434
  21   2.0000      -0.621119       -16.9015
  22   2.0000      -0.601203       -16.3596
  23   2.0000      -0.571259       -15.5447
  24   2.0000      -0.538475       -14.6527
  25   2.0000      -0.516100       -14.0438
  26   2.0000      -0.494539       -13.4571
  27   2.0000      -0.490878       -13.3575
  28   2.0000      -0.476877       -12.9765
  29   2.0000      -0.462969       -12.5980
  30   2.0000      -0.449173       -12.2226
  31   2.0000      -0.425867       -11.5884
  32   2.0000      -0.417955       -11.3731
  33   2.0000      -0.390166       -10.6169
  34   2.0000      -0.384542       -10.4639
  35   2.0000      -0.383445       -10.4341
  36   2.0000      -0.356539        -9.7019
  37   2.0000      -0.344496        -9.3742
  38   2.0000      -0.336842        -9.1659
  39   2.0000      -0.322931        -8.7874
  40   2.0000      -0.314432        -8.5561
  41   2.0000      -0.299235        -8.1426
  42   2.0000      -0.285277        -7.7628
  43   2.0000      -0.276758        -7.5310
  44   2.0000      -0.261299        -7.1103
  45   2.0000      -0.247000        -6.7212
  46   2.0000      -0.239856        -6.5268
  47   2.0000      -0.233413        -6.3515
  48   0.0000       0.024076         0.6551
  49   0.0000       0.039869         1.0849
  50   0.0000       0.058878         1.6022
  51   0.0000       0.071705         1.9512
  52   0.0000       0.074097         2.0163

MULLIKEN ATOMIC CHARGES
-----------------------
   0 C :   -0.296527
   1 C :   -0.049709
   2 H :    0.182217
   3 C :    0.036250
   4 H :    0.168294
   5 C :    0.019184
   6 H :    0.166916
   7 C :   -0.058871
   8 H :    0.180602
   9 C :   -0.085149
  10 H :    0.142258
  11 O :   -0.209487
  12 O :   -0.368773
  13 O :   -0.400380
  14 O :   -0.439776
  15 O :   -0.443122
  16 O :   -0.407751
  17 H :    0.144736
  18 H :    0.172669
  19 H :    0.308994
  20 H :    0.301509
  21 H :    0.313579
  22 H :    0.316271
  23 H :    0.306066
Sum of atomic charges:    0.0000000

LOEWDIN ATOMIC CHARGES
----------------------
   0 C :    0.044571
   1 C :    0.116890
   2 H :    0.188917
   3 C :    0.113382
   4 H :    0.184166
   5 C :    0.096632
   6 H :    0.179427
   7 C :    0.111316
   8 H :    0.206984
   9 C :    0.294622
  10 H :    0.172283
  11 O :   -0.685795
  12 O :   -0.486827
  13 O :   -0.556185
  14 O :   -0.580833
  15 O :   -0.578378
  16 O :   -0.588900
  17 H :    0.169199
  18 H :    0.199667
  19 H :    0.284285
  20 H :    0.274042
  21 H :    0.284490
  22 H :    0.284681
  23 H :    0.271363

  Mayer bond orders larger than 0.100000
B(  0-C ,  1-C ) :   0.9209 B(  0-C , 16-O ) :   1.0122 B(  0-C , 17-H ) :   0.9965
B(  0-C , 18-H ) :   0.9638 B(  1-C ,  2-H ) :   0.9567 B(  1-C ,  3-C ) :   0.8557
B(  1-C , 11-O ) :   0.7879 B(  3-C ,  4-H ) :   0.9614 B(  3-C ,  5-C ) :   0.8570
B(  3-C , 15-O ) :   0.8513 B(  5-C ,  6-H ) :   0.9781 B(  5-C ,  7-C ) :   0.8612
B(  5-C , 14-O ) :   0.8995 B(  7-C ,  8-H ) :   0.9544 B(  7-C ,  9-C ) :   0.8730
B(  7-C , 13-O ) :   1.0128 B(  9-C , 10-H ) :   1.0061 B(  9-C , 11-O ) :   0.9296
B(  9-C , 12-O ) :   1.0575 B( 12-O , 19-H ) :   0.8790 B( 13-O , 20-H ) :   0.8849
B( 14-O , 21-H ) :   0.8705 B( 15-O , 22-H ) :   0.8796 B( 16-O , 23-H ) :   0.8833

Dispersion correction           -0.007960371
FINAL SINGLE POINT ENERGY      -687.075343170318

DIPOLE MOMENT
-------------

Method             : SCF
Type of density    : Electron Density
Multiplicity       :   1
Irrep              :   0
Energy             :  -687.0866398055113677 Eh
Relativity type    :
Basis              : AO
                                X                 Y                 Z
Electronic contribution:      2.069894940      -0.786973143      -0.252027475
Nuclear contribution   :     -1.461406194       0.612606514       0.672686380
                        -----------------------------------------
Total Dipole Moment    :      0.608488746      -0.174366629       0.420658906
                        -----------------------------------------
Magnitude (a.u.)       :      0.760010651
Magnitude (Debye)      :      1.931793553

Rotational constants in cm-1:             0.039614             0.025767             0.016318
Rotational constants in MHz :          1187.608791           772.474069           489.187776

                             ****ORCA TERMINATED NORMALLY****
TOTAL RUN TIME: 0 days 0 hours 0 minutes 47 seconds 929 msec
