                         Program Version 6.0.0  -   RELEASE  -
|  1> ! r2scan-3c def2/J RI DEFGRID2 scfconv6 printgap
|  2> %output
|  3>     printlevel normal
|  4> end
|  5> %cpcm
|  6>     smd true
|  7>     smdsolvent "water"
|  8> end
|  9> * xyz 0 1
| 10> C -2.5612751432 -0.6484531627 -0.3560721194
| 11> C -1.1841888781 -0.2943628226 0.2150783921
| 12> H -1.2548286173 -0.2368666668 1.3127247593
| 13> C -0.7038400651 1.0619790146 -0.3158041614
| 14> H -0.6848212343 1.0286808606 -1.4160999457
| 15> C 0.7233563659 1.3276124582 0.1789765609
| 16> H 0.6951451166 1.4415265201 1.2769206483
| 17> C 1.6395762332 0.1486244835 -0.1803962979
| 18> H 1.724294869 0.0704729002 -1.2696335562
| 19> C 1.0217013987 -1.1582475053 0.342499371
| 20> H 0.9783969939 -1.1136033323 1.4549560533
| 21> O -0.2877158279 -1.3292200544 -0.1515567026
| 22> O 1.7940884363 -2.21517979 -0.0857372772
| 23> O 2.9424932681 0.3691222701 0.2891242934
| 24> O 1.1759473732 2.5235352418 -0.4075198926
| 25> O -1.5931588584 2.0495732513 0.131865631
| 26> O -3.1333660159 -1.7675110749 0.2655675294
| 27> H -2.4598544831 -0.8072888872 -1.436064078
| 28> H -3.2330609997 0.1908166581 -0.1713337858
| 29> H 1.333905735 -3.053806956 0.075113004
| 30> H 2.9938234818 0.1985843539 1.2411764698
| 31> H 2.1417747893 2.5609285504 -0.329100988
| 32> H -1.237922351 2.9154502336 -0.1228001058
| 33> H -2.5687578521 -2.5360764723 0.1005019776
| 34> *
| 35>
| 36>                          ****END OF INPUT****

CARTESIAN COORDINATES (ANGSTROEM)
---------------------------------
  C     -2.561275   -0.648453   -0.356072
  C     -1.184189   -0.294363    0.215078
  H     -1.254829   -0.236867    1.312725
  C     -0.703840    1.061979   -0.315804
  H     -0.684821    1.028681   -1.416100
  C      0.723356    1.327612    0.178977
  H      0.695145    1.441527    1.276921
  C      1.639576    0.148624   -0.180396
  H      1.724295    0.070473   -1.269634
  C      1.021701   -1.158248    0.342499
  H      0.978397   -1.113603    1.454956
  O     -0.287716   -1.329220   -0.151557
  O      1.794088   -2.215180   -0.085737
  O      2.942493    0.369122    0.289124
  O      1.175947    2.523535   -0.407520
  O     -1.593159    2.049573    0.131866
  O     -3.133366   -1.767511    0.265568
  H     -2.459854   -0.807289   -1.436064
  H     -3.233061    0.190817   -0.171334
  H      1.333906   -3.053807    0.075113
  H      2.993823    0.198584    1.241176
  H      2.141775    2.560929   -0.329101
  H     -1.237922    2.915450   -0.122800
  H     -2.568758   -2.536076    0.100502

 Total Charge           Charge          ....    0
 Multiplicity           Mult            ....    1
 Number of Electrons    NEL             ....   96
 Basis Dimension        Dim             ....  318

ORBITAL ENERGIES
----------------

  NO   OCC          E(Eh)            E(eV)
   0   2.0000     -18.975595      -516.3522
   1   2.0000     -18.969183      -516.1777
   2   2.0000     -18.965151      -516.0680
   3   2.0000     -18.961252      -515.9619
   4   2.0000     -18.959831      -515.9232
   5   2.0000     -18.956785      -515.8403
   6   2.0000     -10.139041      -275.8973
   7   2.0000     -10.089344      -274.5450
   8   2.0000     -10.088195      -274.5137
   9   2.0000     -10.088030      -274.5093
  10   2.0000     -10.085123      -274.4302
  11   2.0000     -10.076327      -274.1908
  12   2.0000      -1.054218       -28.6867
  13   2.0000      -1.014723       -27.6120
  14   2.0000      -1.005907       -27.3721
  15   2.0000      -0.996037       -27.1036
  16   2.0000      -0.985741       -26.8234
  17   2.0000      -0.982197       -26.7269
  18   2.0000      -0.750292       -20.4165
  19   2.0000      -0.734944       -19.9988
  20   2.0000      -0.656240       -17.8572
  21   2.0000      -0.611403       -16.6371
  22   2.0000      -0.594931       -16.1889
  23   2.0000      -0.561047       -15.2669
  24   2.0000      -0.529903       -14.4194
  25   2.0000      -0.506914       -13.7938
  26   2.0000      -0.486890       -13.2490
  27   2.0000      -0.480858       -13.0848
  28   2.0000      -0.472025       -12.8445
  29   2.0000      -0.454191       -12.3592
  30   2.0000      -0.442044       -12.0286
  31   2.0000      -0.422307       -11.4916
  32   2.0000      -0.412845       -11.2341
  33   2.0000      -0.389424       -10.5968
  34   2.0000      -0.379807       -10.3351
  35   2.0000      -0.376913       -10.2563
  36   2.0000      -0.352992        -9.6054
  37   2.0000      -0.342796        -9.3279
  38   2.0000      -0.333698        -9.0804
  39   2.0000      -0.320040        -8.7087
  40   2.0000      -0.310773        -8.4566
  41   2.0000      -0.299862        -8.1597
  42   2.0000      -0.280894        -7.6435
  43   2.0000      -0.272734        -7.4215
  44   2.0000      -0.254095        -6.9143
  45   2.0000      -0.248436        -6.7603
  46   2.0000      -0.240453        -6.5431
  47   2.0000      -0.226380        -6.1601
  48   0.0000       0.038814         1.0562
  49   0.0000       0.061816         1.6821
  50   0.0000       0.079488         2.1630
  51   0.0000       0.089657         2.4397
  52   0.0000       0.094101         2.5606

MULLIKEN ATOMIC CHARGES
-----------------------
   0 C :   -0.293747
   1 C :   -0.043975
   2 H :    0.200187
   3 C :    0.016622
   4 H :    0.186087
   5 C :    0.011488
   6 H :    0.186829
   7 C :   -0.037631
   8 H :    0.193476
   9 C :   -0.066612
  10 H :    0.171373
  11 O :   -0.244983
  12 O :   -0.441083
  13 O :   -0.469745
  14 O :   -0.497956
  15 O :   -0.503314
  16 O :   -0.483912
  17 H :    0.164463
  18 H :    0.176204
  19 H :    0.359677
  20 H :    0.358208
  21 H :    0.348699
  22 H :    0.353240
  23 H :    0.356405
Sum of atomic charges:    0.0000000

LOEWDIN ATOMIC CHARGES
----------------------
   0 C :    0.040898
   1 C :    0.118104
   2 H :    0.196148
   3 C :    0.113681
   4 H :    0.191328
   5 C :    0.102057
   6 H :    0.191162
   7 C :    0.111290
   8 H :    0.208403
   9 C :    0.300075
  10 H :    0.191119
  11 O :   -0.696492
  12 O :   -0.515248
  13 O :   -0.577224
  14 O :   -0.602916
  15 O :   -0.604415
  16 O :   -0.621867
  17 H :    0.178054
  18 H :    0.199021
  19 H :    0.302548
  20 H :    0.293691
  21 H :    0.295650
  22 H :    0.296771
  23 H :    0.288163

  Mayer bond orders larger than 0.100000
B(  0-C ,  1-C ) :   0.9158 B(  0-C , 16-O ) :   0.9954 B(  0-C , 17-H ) :   0.9839
B(  0-C , 18-H ) :   0.9656 B(  1-C ,  2-H ) :   0.9502 B(  1-C ,  3-C ) :   0.8724
B(  1-C , 11-O ) :   0.7885 B(  3-C ,  4-H ) :   0.9539 B(  3-C ,  5-C ) :   0.8787
B(  3-C , 15-O ) :   0.8336 B(  5-C ,  6-H ) :   0.9647 B(  5-C ,  7-C ) :   0.8835
B(  5-C , 14-O ) :   0.8871 B(  7-C ,  8-H ) :   0.9545 B(  7-C ,  9-C ) :   0.8614
B(  7-C , 13-O ) :   0.9983 B(  9-C , 10-H ) :   0.9905 B(  9-C , 11-O ) :   0.9381
B(  9-C , 12-O ) :   1.0487 B( 12-O , 19-H ) :   0.8536 B( 13-O , 20-H ) :   0.8568
B( 14-O , 21-H ) :   0.8550 B( 15-O , 22-H ) :   0.8614 B( 16-O , 23-H ) :   0.8573

Dispersion correction           -0.007960371
FINAL SINGLE POINT ENERGY      -687.110239652307

DIPOLE MOMENT
-------------

Method             : SCF
Type of density    : Electron Density
Multiplicity       :   1
Irrep              :   0
Energy             :  -687.1215362874997936 Eh
Relativity type    :
Basis              : AO
                                X                 Y                 Z
Electronic contribution:      2.269408759      -0.865620381       0.049403988
Nuclear contribution   :     -1.461406194       0.612606514       0.672686380
                        -----------------------------------------
Total Dipole Moment    :      0.808002565      -0.253013866       0.722090368
                        -----------------------------------------
Magnitude (a.u.)       :      1.112788687
Magnitude (Debye)      :      2.828484059

Rotational constants in cm-1:             0.039614             0.025767             0.016318
Rotational constants in MHz :          1187.608791           772.474069           489.187776

                             ****ORCA TERMINATED NORMALLY****
TOTAL RUN TIME: 0 days 0 hours 0 minutes 56 seconds 889 msec
