                         Program Version 6.0.0  -   RELEASE  -
|  1> ! pbe def2-sv(p) def2/J RI DEFGRID1 loosescf d4 GCP(DFT/SV(P)) printgap
|  2> %output
|  3>     printlevel normal
|  4> end
|  5> * xyz 0 1
|  6> C -3.0538015868 0.5909464387 -0.6866160307
|  7> C -1.9460694494 0.5301553604 0.3669835967
|  8> H -2.4139243666 0.6889246451 1.3471144342
|  9> C -0.8594949272 1.5886535789 0.1518639002
| 10> C 0.1582321676 1.1169662219 -0.8835669292
| 11> C 0.8838830484 -0.1741286201 -0.4568762596
| 12> H 0.8824095283 -0.8659138711 -1.3046585694
| 13> C 0.1334599712 -0.872390787 0.7010016661
| 14> C -1.3434297787 -0.855335951 0.4371828188
| 15> O -1.999965677 -1.8696174913 0.2962231468
| 16> C 2.3240597824 0.0394722506 -0.0391417292
| 17> C 2.7109541438 1.0575812954 0.7129180445
| 18> C 3.2818918187 -1.009523904 -0.5141989438
| 19> H -3.7395985892 -0.2414187447 -0.5467835712
| 20> H -3.6061118979 1.5226331481 -0.6038977501
| 21> H -2.6339543374 0.5194387674 -1.6868903837
| 22> H -1.3255918017 2.5137323976 -0.1893500255
| 23> H -0.3550067135 1.8022458797 1.0943379035
| 24> H -0.3654192801 0.9354732205 -1.8236579996
| 25> H 0.8902268454 1.9038902515 -1.0656411447
| 26> H 0.4777798987 -1.9013145204 0.810336539
| 27> H 0.328740266 -0.3337840891 1.6288344421
| 28> H 3.7387510666 1.1793649385 1.0089726898
| 29> H 2.0290580966 1.8135477315 1.0606285802
| 30> H 4.277568794 -0.8419302723 -0.1137314748
| 31> H 2.940765734 -1.9973167049 -0.2077450324
| 32> H 3.3359021868 -1.0007068892 -1.6022125919
| 33> *
| 34>
| 35>                          ****END OF INPUT****

CARTESIAN COORDINATES (ANGSTROEM)
---------------------------------
  C     -3.053802    0.590946   -0.686616
  C     -1.946069    0.530155    0.366984
  H     -2.413924    0.688925    1.347114
  C     -0.859495    1.588654    0.151864
  C      0.158232    1.116966   -0.883567
  C      0.883883   -0.174129   -0.456876
  H      0.882410   -0.865914   -1.304659
  C      0.133460   -0.872391    0.701002
  C     -1.343430   -0.855336    0.437183
  O     -1.999966   -1.869617    0.296223
  C      2.324060    0.039472   -0.039142
  C      2.710954    1.057581    0.712918
  C      3.281892   -1.009524   -0.514199
  H     -3.739599   -0.241419   -0.546784
  H     -3.606112    1.522633   -0.603898
  H     -2.633954    0.519439   -1.686890
  H     -1.325592    2.513732   -0.189350
  H     -0.355007    1.802246    1.094338
  H     -0.365419    0.935473   -1.823658
  H      0.890227    1.903890   -1.065641
  H      0.477780   -1.901315    0.810337
  H      0.328740   -0.333784    1.628834
  H      3.738751    1.179365    1.008973
  H      2.029058    1.813548    1.060629
  H      4.277569   -0.841930   -0.113731
  H      2.940766   -1.997317   -0.207745
  H      3.335902   -1.000707   -1.602213

 Total Charge           Charge          ....    0
 Multiplicity           Mult            ....    1
 Number of Electrons    NEL             ....   84
 Basis Dimension        Dim             ....  186

ORBITAL ENERGIES
----------------

  NO   OCC          E(Eh)            E(eV)
   0   2.0000     -18.739260      -509.9212
   1   2.0000      -9.969335      -271.2794
   2   2.0000      -9.909885      -269.6617
   3   2.0000      -9.904782      -269.5228
   4   2.0000      -9.902884      -269.4712
   5   2.0000      -9.894869      -269.2531
   6   2.0000      -9.893806      -269.2241
   7   2.0000      -9.891382      -269.1582
   8   2.0000      -9.886932      -269.0371
   9   2.0000      -9.878994      -268.8211
  10   2.0000      -9.877123      -268.7702
  11   2.0000      -0.934188       -25.4206
  12   2.0000      -0.773915       -21.0593
  13   2.0000      -0.730643       -19.8818
  14   2.0000      -0.683757       -18.6060
  15   2.0000      -0.659059       -17.9339
  16   2.0000      -0.618769       -16.8376
  17   2.0000      -0.611517       -16.6402
  18   2.0000      -0.552038       -15.0217
  19   2.0000      -0.539295       -14.6750
  20   2.0000      -0.469539       -12.7768
  21   2.0000      -0.456467       -12.4211
  22   2.0000      -0.448477       -12.2037
  23   2.0000      -0.428825       -11.6689
  24   2.0000      -0.417089       -11.3496
  25   2.0000      -0.402576       -10.9547
  26   2.0000      -0.389122       -10.5886
  27   2.0000      -0.375830       -10.2269
  28   2.0000      -0.366075        -9.9614
  29   2.0000      -0.360477        -9.8091
  30   2.0000      -0.354606        -9.6493
  31   2.0000      -0.349523        -9.5110
  32   2.0000      -0.332965        -9.0604
  33   2.0000      -0.328168        -8.9299
  34   2.0000      -0.326345        -8.8803
  35   2.0000      -0.317678        -8.6445
  36   2.0000      -0.307683        -8.3725
  37   2.0000      -0.286176        -7.7872
  38   2.0000      -0.278018        -7.5652
  39   2.0000      -0.277158        -7.5418
  40   2.0000      -0.223891        -6.0924
  41   2.0000      -0.190810        -5.1922
  42   0.0000      -0.054203        -1.4749
  43   0.0000      -0.017607        -0.4791
  44   0.0000       0.027550         0.7497
  45   0.0000       0.038972         1.0605
  46   0.0000       0.052362         1.4248

MULLIKEN ATOMIC CHARGES
-----------------------
   0 C :   -0.244935
   1 C :   -0.182112
   2 H :    0.101640
   3 C :   -0.108638
   4 C :   -0.108110
   5 C :   -0.180667
   6 H :    0.067201
   7 C :   -0.040187
   8 C :    0.006763
   9 O :   -0.162180
  10 C :   -0.040938
  11 C :   -0.247408
  12 C :   -0.212487
  13 H :    0.121409
  14 H :    0.098721
  15 H :    0.101225
  16 H :    0.087826
  17 H :    0.081056
  18 H :    0.086361
  19 H :    0.095614
  20 H :    0.085497
  21 H :    0.092110
  22 H :    0.085451
  23 H :    0.093686
  24 H :    0.098139
  25 H :    0.112134
  26 H :    0.112831
Sum of atomic charges:   -0.0000000

LOEWDIN ATOMIC CHARGES
----------------------
   0 C :   -0.325296
   1 C :   -0.175629
   2 H :    0.144047
   3 C :   -0.218711
   4 C :   -0.218241
   5 C :   -0.123934
   6 H :    0.123137
   7 C :   -0.226230
   8 C :    0.051497
   9 O :   -0.129668
  10 C :   -0.045901
  11 C :   -0.271602
  12 C :   -0.321196
  13 H :    0.128451
  14 H :    0.119298
  15 H :    0.118198
  16 H :    0.122248
  17 H :    0.115880
  18 H :    0.120576
  19 H :    0.125352
  20 H :    0.129525
  21 H :    0.138136
  22 H :    0.120339
  23 H :    0.116499
  24 H :    0.123917
  25 H :    0.128913
  26 H :    0.130395

  Mayer bond orders larger than 0.100000
B(  0-C ,  1-C ) :   1.1211 B(  0-C , 13-H ) :   0.9359 B(  0-C , 14-H ) :   0.9464
B(  0-C , 15-H ) :   0.9501 B(  1-C ,  2-H ) :   0.8564 B(  1-C ,  3-C ) :   1.0804
B(  1-C ,  8-C ) :   0.9229 B(  3-C ,  4-C ) :   1.1747 B(  3-C , 16-H ) :   0.9129
B(  3-C , 17-H ) :   0.8850 B(  4-C ,  5-C ) :   1.0733 B(  4-C , 18-H ) :   0.9024
B(  4-C , 19-H ) :   0.9086 B(  5-C ,  6-H ) :   0.8846 B(  5-C ,  7-C ) :   1.0929
B(  5-C , 10-C ) :   0.9960 B(  7-C ,  8-C ) :   1.0871 B(  7-C , 20-H ) :   0.8899
B(  7-C , 21-H ) :   0.8594 B(  8-C ,  9-O ) :   2.1888 B( 10-C , 11-C ) :   2.0432
B( 10-C , 12-C ) :   1.1309 B( 11-C , 22-H ) :   0.9014 B( 11-C , 23-H ) :   0.9020
B( 12-C , 24-H ) :   0.9402 B( 12-C , 25-H ) :   0.9293 B( 12-C , 26-H ) :   0.9263

Dispersion correction           -0.028763403
FINAL SINGLE POINT ENERGY      -464.822710313430

DIPOLE MOMENT
-------------

Method             : SCF
Type of density    : Electron Density
Multiplicity       :   1
Irrep              :   0
Energy             :  -464.9083527083007539 Eh
Relativity type    :
Basis              : AO
                                X                 Y                 Z
Electronic contribution:     -3.630851478      -4.578521967       2.033783593
Nuclear contribution   :      4.156062531       5.316884854      -2.054267462
                        -----------------------------------------
Total Dipole Moment    :      0.525211053       0.738362888      -0.020483870
                        -----------------------------------------
Magnitude (a.u.)       :      0.906336578
Magnitude (Debye)      :      2.303724501

Rotational constants in cm-1:             0.068981             0.023989             0.020265
Rotational constants in MHz :          2067.997643           719.171988           607.524807

                             ****ORCA TERMINATED NORMALLY****
TOTAL RUN TIME: 0 days 0 hours 0 minutes 17 seconds 125 msec
