                         Program Version 6.0.0  -   RELEASE  -
|  1> ! r2scan-3c def2/J RI DEFGRID2 scfconv6 printgap
|  2> %output
|  3>     printlevel normal
|  4> end
|  5> %cpcm
|  6>     smd true
|  7>     smdsolvent "water"
|  8> end
|  9> * xyz 0 1
| 10> C -2.8625361869 0.3976658291 -0.1064329876
| 11> N -1.8164418709 -0.5699232044 0.1261469135
| 12> C -0.4843485913 -0.2523006697 0.0353654219
| 13> C 0.4640162516 -1.2824422379 -0.0097313129
| 14> C 1.8134888388 -1.0027371861 -0.0385348323
| 15> C 2.2603011636 0.3098756223 -0.0278063995
| 16> C 1.3324057156 1.336318138 0.0127659125
| 17> C -0.0226612142 1.0676102769 0.0426293072
| 18> H -2.7945211223 0.8583021731 -1.0992224628
| 19> H -2.8119492847 1.1851431799 0.6464185311
| 20> H -3.8233894708 -0.1012618006 -0.0147670884
| 21> H -2.0400539761 -1.5172698863 -0.1353468292
| 22> H 0.1250225389 -2.3089645709 -0.0198628479
| 23> H 2.5257814398 -1.8146925818 -0.0733227939
| 24> H 3.3173406074 0.5278011282 -0.0529548044
| 25> H 1.667391215 2.363860171 0.0181450649
| 26> H -0.7227632285 1.887102216 0.0711711039
| 27> *
| 28>
| 29>                          ****END OF INPUT****

CARTESIAN COORDINATES (ANGSTROEM)
---------------------------------
  C     -2.862536    0.397666   -0.106433
  N     -1.816442   -0.569923    0.126147
  C     -0.484349   -0.252301    0.035365
  C      0.464016   -1.282442   -0.009731
  C      1.813489   -1.002737   -0.038535
  C      2.260301    0.309876   -0.027806
  C      1.332406    1.336318    0.012766
  C     -0.022661    1.067610    0.042629
  H     -2.794521    0.858302   -1.099222
  H     -2.811949    1.185143    0.646419
  H     -3.823389   -0.101262   -0.014767
  H     -2.040054   -1.517270   -0.135347
  H      0.125023   -2.308965   -0.019863
  H      2.525781   -1.814693   -0.073323
  H      3.317341    0.527801   -0.052955
  H      1.667391    2.363860    0.018145
  H     -0.722763    1.887102    0.071171

 Total Charge           Charge          ....    0
 Multiplicity           Mult            ....    1
 Number of Electrons    NEL             ....   58
 Basis Dimension        Dim             ....  202

ORBITAL ENERGIES
----------------

  NO   OCC          E(Eh)            E(eV)
   0   2.0000     -14.166024      -385.4771
   1   2.0000     -10.069896      -274.0158
   2   2.0000     -10.047756      -273.4133
   3   2.0000     -10.029172      -272.9077
   4   2.0000     -10.029111      -272.9060
   5   2.0000     -10.023224      -272.7458
   6   2.0000     -10.022189      -272.7176
   7   2.0000     -10.018240      -272.6102
   8   2.0000      -0.899724       -24.4827
   9   2.0000      -0.809605       -22.0305
  10   2.0000      -0.713344       -19.4111
  11   2.0000      -0.706290       -19.2191
  12   2.0000      -0.640550       -17.4302
  13   2.0000      -0.575650       -15.6642
  14   2.0000      -0.551620       -15.0104
  15   2.0000      -0.496744       -13.5171
  16   2.0000      -0.458857       -12.4861
  17   2.0000      -0.432759       -11.7760
  18   2.0000      -0.405253       -11.0275
  19   2.0000      -0.402175       -10.9437
  20   2.0000      -0.385126       -10.4798
  21   2.0000      -0.381020       -10.3681
  22   2.0000      -0.348475        -9.4825
  23   2.0000      -0.344485        -9.3739
  24   2.0000      -0.320163        -8.7121
  25   2.0000      -0.300399        -8.1743
  26   2.0000      -0.272793        -7.4231
  27   2.0000      -0.236112        -6.4249
  28   2.0000      -0.176585        -4.8051
  29   0.0000      -0.029240        -0.7957
  30   0.0000      -0.010000        -0.2721
  31   0.0000       0.084250         2.2926
  32   0.0000       0.100575         2.7368
  33   0.0000       0.113685         3.0935

MULLIKEN ATOMIC CHARGES
-----------------------
   0 C :   -0.423496
   1 N :   -0.220587
   2 C :    0.304049
   3 C :   -0.398895
   4 C :   -0.157736
   5 C :   -0.255385
   6 C :   -0.190068
   7 C :   -0.341012
   8 H :    0.160953
   9 H :    0.166776
  10 H :    0.172225
  11 H :    0.305292
  12 H :    0.174703
  13 H :    0.177126
  14 H :    0.174895
  15 H :    0.174847
  16 H :    0.176311
Sum of atomic charges:    0.0000000

LOEWDIN ATOMIC CHARGES
----------------------
   0 C :   -0.133514
   1 N :   -0.747460
   2 C :    0.126049
   3 C :   -0.171180
   4 C :   -0.173979
   5 C :   -0.232844
   6 C :   -0.171429
   7 C :   -0.188575
   8 H :    0.165990
   9 H :    0.176382
  10 H :    0.186169
  11 H :    0.274764
  12 H :    0.181389
  13 H :    0.176400
  14 H :    0.172995
  15 H :    0.176068
  16 H :    0.182775

  Mayer bond orders larger than 0.100000
B(  0-C ,  1-N ) :   0.8814 B(  0-C ,  8-H ) :   0.9485 B(  0-C ,  9-H ) :   0.9591
B(  0-C , 10-H ) :   0.9650 B(  1-N ,  2-C ) :   1.1458 B(  1-N , 11-H ) :   0.8967
B(  2-C ,  3-C ) :   1.2810 B(  2-C ,  7-C ) :   1.2911 B(  3-C ,  4-C ) :   1.4094
B(  3-C , 12-H ) :   0.9609 B(  4-C ,  5-C ) :   1.3491 B(  4-C , 13-H ) :   0.9542
B(  5-C ,  6-C ) :   1.3844 B(  5-C , 14-H ) :   0.9615 B(  6-C ,  7-C ) :   1.3803
B(  6-C , 15-H ) :   0.9633 B(  7-C , 16-H ) :   0.9570

Dispersion correction           -0.005296492
FINAL SINGLE POINT ENERGY      -326.822064587633

DIPOLE MOMENT
-------------

Method             : SCF
Type of density    : Electron Density
Multiplicity       :   1
Irrep              :   0
Energy             :  -326.8257161841004859 Eh
Relativity type    :
Basis              : AO
                                X                 Y                 Z
Electronic contribution:      3.192192630      -1.290157180       0.350142677
Nuclear contribution   :     -4.285326093       1.010115916      -0.618257639
                        -----------------------------------------
Total Dipole Moment    :     -1.093133462      -0.280041264      -0.268114962
                        -----------------------------------------
Magnitude (a.u.)       :      1.159848916
Magnitude (Debye)      :      2.948101656

Rotational constants in cm-1:             0.168374             0.051088             0.039582
Rotational constants in MHz :          5047.737632          1531.584674          1186.627244

                             ****ORCA TERMINATED NORMALLY****
TOTAL RUN TIME: 0 days 0 hours 0 minutes 24 seconds 103 msec
