                         Program Version 6.0.0  -   RELEASE  -
|  1> ! pbe def2-sv(p) def2/J RI DEFGRID1 loosescf d4 GCP(DFT/SV(P)) printgap
|  2> %output
|  3>     printlevel normal
|  4> end
|  5> * xyz 0 1
|  6> C -1.9096993678 -2.1867353724 0.0011286913
|  7> C -0.9098507208 -1.0695790082 -0.0012066462
|  8> C 0.4517007715 -1.3229120468 -0.0014596828
|  9> C 1.3790081231 -0.2853648555 -0.0011782478
| 10> C 0.9255608768 1.0219050981 -0.000558952
| 11> C -0.4396237895 1.2927177286 0.000125523
| 12> C -1.3515246015 0.248837163 -0.000234028
| 13> O -0.8297447295 2.6002493989 0.0004063718
| 14> C 2.8461138928 -0.5917591062 0.0013314726
| 15> H -2.5172956923 -2.1464642656 0.9038354667
| 16> H -2.5768862858 -2.0995217183 -0.8545770131
| 17> H -1.4122920141 -3.151541323 -0.0404076315
| 18> H 0.8048361459 -2.3439570487 -0.0019888978
| 19> H 1.6144851998 1.852747916 -0.001021512
| 20> H -2.4127058241 0.4556935121 -1.13489e-05
| 21> H -1.7965494268 2.6623108286 0.0024050803
| 22> H 3.103486049 -1.2122954943 -0.8551301792
| 23> H 3.4332152424 0.3214104146 -0.0380746708
| 24> H 3.1133002884 -1.1405691948 0.9029718028
| 25> *
| 26>
| 27>                          ****END OF INPUT****

CARTESIAN COORDINATES (ANGSTROEM)
---------------------------------
  C     -1.909699   -2.186735    0.001129
  C     -0.909851   -1.069579   -0.001207
  C      0.451701   -1.322912   -0.001460
  C      1.379008   -0.285365   -0.001178
  C      0.925561    1.021905   -0.000559
  C     -0.439624    1.292718    0.000126
  C     -1.351525    0.248837   -0.000234
  O     -0.829745    2.600249    0.000406
  C      2.846114   -0.591759    0.001331
  H     -2.517296   -2.146464    0.903835
  H     -2.576886   -2.099522   -0.854577
  H     -1.412292   -3.151541   -0.040408
  H      0.804836   -2.343957   -0.001989
  H      1.614485    1.852748   -0.001022
  H     -2.412706    0.455694   -0.000011
  H     -1.796549    2.662311    0.002405
  H      3.103486   -1.212295   -0.855130
  H      3.433215    0.321410   -0.038075
  H      3.113300   -1.140569    0.902972

 Total Charge           Charge          ....    0
 Multiplicity           Mult            ....    1
 Number of Electrons    NEL             ....   66
 Basis Dimension        Dim             ....  146

ORBITAL ENERGIES
----------------

  NO   OCC          E(Eh)            E(eV)
   0   2.0000     -18.776555      -510.9360
   1   2.0000      -9.945493      -270.6306
   2   2.0000      -9.898220      -269.3442
   3   2.0000      -9.896664      -269.3019
   4   2.0000      -9.881661      -268.8937
   5   2.0000      -9.880715      -268.8679
   6   2.0000      -9.879099      -268.8240
   7   2.0000      -9.876080      -268.7418
   8   2.0000      -9.874519      -268.6993
   9   2.0000      -0.956683       -26.0327
  10   2.0000      -0.772006       -21.0074
  11   2.0000      -0.702708       -19.1217
  12   2.0000      -0.673307       -18.3216
  13   2.0000      -0.615920       -16.7600
  14   2.0000      -0.611095       -16.6287
  15   2.0000      -0.548443       -14.9239
  16   2.0000      -0.511224       -13.9111
  17   2.0000      -0.471219       -12.8225
  18   2.0000      -0.442266       -12.0347
  19   2.0000      -0.422884       -11.5073
  20   2.0000      -0.382439       -10.4067
  21   2.0000      -0.368973       -10.0403
  22   2.0000      -0.368138       -10.0175
  23   2.0000      -0.357729        -9.7343
  24   2.0000      -0.350458        -9.5364
  25   2.0000      -0.347110        -9.4453
  26   2.0000      -0.345978        -9.4145
  27   2.0000      -0.314643        -8.5619
  28   2.0000      -0.303885        -8.2691
  29   2.0000      -0.286711        -7.8018
  30   2.0000      -0.275206        -7.4887
  31   2.0000      -0.210248        -5.7211
  32   2.0000      -0.188302        -5.1240
  33   0.0000      -0.026640        -0.7249
  34   0.0000      -0.012616        -0.3433
  35   0.0000       0.026464         0.7201
  36   0.0000       0.050392         1.3712
  37   0.0000       0.064307         1.7499

MULLIKEN ATOMIC CHARGES
-----------------------
   0 C :   -0.224003
   1 C :    0.065235
   2 C :   -0.191489
   3 C :    0.073894
   4 C :   -0.210047
   5 C :    0.277326
   6 C :   -0.246113
   7 O :   -0.339890
   8 C :   -0.222501
   9 H :    0.113293
  10 H :    0.111693
  11 H :    0.101177
  12 H :    0.014462
  13 H :    0.027555
  14 H :    0.005795
  15 H :    0.315113
  16 H :    0.113127
  17 H :    0.100788
  18 H :    0.114584
Sum of atomic charges:    0.0000000

LOEWDIN ATOMIC CHARGES
----------------------
   0 C :   -0.321838
   1 C :   -0.038609
   2 C :   -0.152855
   3 C :   -0.037661
   4 C :   -0.157843
   5 C :    0.027922
   6 C :   -0.186203
   7 O :   -0.239460
   8 C :   -0.320840
   9 H :    0.131195
  10 H :    0.130289
  11 H :    0.123970
  12 H :    0.116374
  13 H :    0.126760
  14 H :    0.115268
  15 H :    0.296288
  16 H :    0.131312
  17 H :    0.123792
  18 H :    0.132138

  Mayer bond orders larger than 0.100000
B(  0-C ,  1-C ) :   1.0897 B(  0-C ,  9-H ) :   0.9358 B(  0-C , 10-H ) :   0.9367
B(  0-C , 11-H ) :   0.9462 B(  1-C ,  2-C ) :   1.4028 B(  1-C ,  6-C ) :   1.3500
B(  2-C ,  3-C ) :   1.3359 B(  2-C , 12-H ) :   0.9634 B(  3-C ,  4-C ) :   1.3920
B(  3-C ,  8-C ) :   1.0955 B(  4-C ,  5-C ) :   1.3234 B(  4-C , 13-H ) :   0.9647
B(  5-C ,  6-C ) :   1.3113 B(  5-C ,  7-O ) :   1.1779 B(  6-C , 14-H ) :   0.9579
B(  7-O , 15-H ) :   0.8436 B(  8-C , 16-H ) :   0.9369 B(  8-C , 17-H ) :   0.9457
B(  8-C , 18-H ) :   0.9359

Dispersion correction           -0.018670551
FINAL SINGLE POINT ENERGY      -385.240799512959

DIPOLE MOMENT
-------------

Method             : SCF
Type of density    : Electron Density
Multiplicity       :   1
Irrep              :   0
Energy             :  -385.2993217291502788 Eh
Relativity type    :
Basis              : AO
                                X                 Y                 Z
Electronic contribution:     -1.759726778       6.153223344      -0.009430373
Nuclear contribution   :      1.257602389      -6.343062653       0.016894088
                        -----------------------------------------
Total Dipole Moment    :     -0.502124389      -0.189839309       0.007463715
                        -----------------------------------------
Magnitude (a.u.)       :      0.536864575
Magnitude (Debye)      :      1.364601304

Rotational constants in cm-1:             0.060124             0.059385             0.030210
Rotational constants in MHz :          1802.468984          1780.309869           905.682035

                             ****ORCA TERMINATED NORMALLY****
TOTAL RUN TIME: 0 days 0 hours 0 minutes 30 seconds 529 msec
