                         Program Version 6.0.0  -   RELEASE  -
|  1> ! pbe def2-sv(p) def2/J RI DEFGRID1 loosescf d4 GCP(DFT/SV(P)) printgap
|  2> %output
|  3>     printlevel normal
|  4> end
|  5> * xyz 0 1
|  6> C -2.2021313181 -1.0406951857 -0.4168819532
|  7> C -1.1784026433 -0.2167889987 0.3788195476
|  8> H -1.6710815393 0.2011812459 1.2658762452
|  9> C -0.5950666674 0.9417217154 -0.443237744
| 10> H -0.4239159235 0.6218520678 -1.4812839822
| 11> C 0.7550776742 1.3306346607 0.1724421631
| 12> H 0.6133461256 1.4938406396 1.2527507544
| 13> C 1.7375344293 0.1745856689 -0.0321440627
| 14> H 2.0921078375 0.2126563296 -1.0728703427
| 15> C 1.0288529122 -1.1792878381 0.1674237394
| 16> H 1.6769926033 -1.7948495512 0.8048737106
| 17> O -0.1631344233 -1.0787897979 0.9034237912
| 18> O 0.8282386968 -1.7551711393 -1.0866022719
| 19> O 2.8173114635 0.2309528991 0.8617599774
| 20> O 1.2954435174 2.4791668946 -0.4269355484
| 21> O -1.4120409195 2.0856572818 -0.398422093
| 22> O -2.8833430129 -1.9582146541 0.4024983846
| 23> H -1.6869409186 -1.5577215489 -1.236917074
| 24> H -2.969554873 -0.386010813 -0.8334460933
| 25> H 0.7151597726 -2.7145988291 -1.0078475919
| 26> H 3.2680561008 1.0817120763 0.7495951512
| 27> H 0.5953086797 3.1491330656 -0.4742020585
| 28> H -2.2250806798 1.9422777425 -0.9004844788
| 29> H -2.2313391641 -2.4278370709 0.943129957
| 30> *
| 31>
| 32>                          ****END OF INPUT****

CARTESIAN COORDINATES (ANGSTROEM)
---------------------------------
  C     -2.202131   -1.040695   -0.416882
  C     -1.178403   -0.216789    0.378820
  H     -1.671082    0.201181    1.265876
  C     -0.595067    0.941722   -0.443238
  H     -0.423916    0.621852   -1.481284
  C      0.755078    1.330635    0.172442
  H      0.613346    1.493841    1.252751
  C      1.737534    0.174586   -0.032144
  H      2.092108    0.212656   -1.072870
  C      1.028853   -1.179288    0.167424
  H      1.676993   -1.794850    0.804874
  O     -0.163134   -1.078790    0.903424
  O      0.828239   -1.755171   -1.086602
  O      2.817311    0.230953    0.861760
  O      1.295444    2.479167   -0.426936
  O     -1.412041    2.085657   -0.398422
  O     -2.883343   -1.958215    0.402498
  H     -1.686941   -1.557722   -1.236917
  H     -2.969555   -0.386011   -0.833446
  H      0.715160   -2.714599   -1.007848
  H      3.268056    1.081712    0.749595
  H      0.595309    3.149133   -0.474202
  H     -2.225081    1.942278   -0.900484
  H     -2.231339   -2.427837    0.943130

 Total Charge           Charge          ....    0
 Multiplicity           Mult            ....    1
 Number of Electrons    NEL             ....   96
 Basis Dimension        Dim             ....  192

ORBITAL ENERGIES
----------------

  NO   OCC          E(Eh)            E(eV)
   0   2.0000     -18.772570      -510.8276
   1   2.0000     -18.771950      -510.8107
   2   2.0000     -18.771461      -510.7974
   3   2.0000     -18.750046      -510.2147
   4   2.0000     -18.749640      -510.2037
   5   2.0000     -18.742894      -510.0201
   6   2.0000      -9.989679      -271.8330
   7   2.0000      -9.948463      -270.7114
   8   2.0000      -9.943920      -270.5878
   9   2.0000      -9.939737      -270.4740
  10   2.0000      -9.939494      -270.4674
  11   2.0000      -9.932419      -270.2749
  12   2.0000      -0.985303       -26.8115
  13   2.0000      -0.953192       -25.9377
  14   2.0000      -0.933490       -25.4016
  15   2.0000      -0.925870       -25.1942
  16   2.0000      -0.915951       -24.9243
  17   2.0000      -0.911842       -24.8125
  18   2.0000      -0.708870       -19.2893
  19   2.0000      -0.693761       -18.8782
  20   2.0000      -0.623858       -16.9760
  21   2.0000      -0.585951       -15.9445
  22   2.0000      -0.567302       -15.4371
  23   2.0000      -0.523112       -14.2346
  24   2.0000      -0.506071       -13.7709
  25   2.0000      -0.498155       -13.5555
  26   2.0000      -0.480869       -13.0851
  27   2.0000      -0.458102       -12.4656
  28   2.0000      -0.441488       -12.0135
  29   2.0000      -0.432272       -11.7627
  30   2.0000      -0.404457       -11.0058
  31   2.0000      -0.393303       -10.7023
  32   2.0000      -0.392118       -10.6701
  33   2.0000      -0.387489       -10.5441
  34   2.0000      -0.366184        -9.9644
  35   2.0000      -0.359402        -9.7798
  36   2.0000      -0.326666        -8.8890
  37   2.0000      -0.323117        -8.7925
  38   2.0000      -0.304722        -8.2919
  39   2.0000      -0.296860        -8.0780
  40   2.0000      -0.283142        -7.7047
  41   2.0000      -0.266349        -7.2477
  42   2.0000      -0.261629        -7.1193
  43   2.0000      -0.240974        -6.5572
  44   2.0000      -0.234716        -6.3869
  45   2.0000      -0.222458        -6.0534
  46   2.0000      -0.219840        -5.9822
  47   2.0000      -0.203704        -5.5431
  48   0.0000       0.002890         0.0787
  49   0.0000       0.012716         0.3460
  50   0.0000       0.041501         1.1293
  51   0.0000       0.048315         1.3147
  52   0.0000       0.056881         1.5478

MULLIKEN ATOMIC CHARGES
-----------------------
   0 C :    0.075459
   1 C :    0.036159
   2 H :    0.074717
   3 C :   -0.016061
   4 H :    0.069819
   5 C :    0.052249
   6 H :    0.058004
   7 C :    0.089809
   8 H :    0.073366
   9 C :    0.163315
  10 H :    0.077953
  11 O :   -0.327308
  12 O :   -0.395417
  13 O :   -0.418163
  14 O :   -0.426301
  15 O :   -0.417735
  16 O :   -0.436853
  17 H :    0.072735
  18 H :    0.059073
  19 H :    0.309077
  20 H :    0.310421
  21 H :    0.307893
  22 H :    0.311975
  23 H :    0.295816
Sum of atomic charges:   -0.0000000

LOEWDIN ATOMIC CHARGES
----------------------
   0 C :   -0.136737
   1 C :   -0.077133
   2 H :    0.118719
   3 C :   -0.082022
   4 H :    0.108226
   5 C :   -0.073375
   6 H :    0.107618
   7 C :   -0.070677
   8 H :    0.112536
   9 C :    0.000395
  10 H :    0.108681
  11 O :   -0.150972
  12 O :   -0.307227
  13 O :   -0.316745
  14 O :   -0.325029
  15 O :   -0.315129
  16 O :   -0.340603
  17 H :    0.098353
  18 H :    0.103468
  19 H :    0.290097
  20 H :    0.291861
  21 H :    0.285263
  22 H :    0.291570
  23 H :    0.278860

  Mayer bond orders larger than 0.100000
B(  0-C ,  1-C ) :   1.0661 B(  0-C , 16-O ) :   1.0750 B(  0-C , 17-H ) :   0.8950
B(  0-C , 18-H ) :   0.9134 B(  1-C ,  2-H ) :   0.8771 B(  1-C ,  3-C ) :   0.9681
B(  1-C , 11-O ) :   0.9552 B(  3-C ,  4-H ) :   0.8866 B(  3-C ,  5-C ) :   1.0313
B(  3-C , 15-O ) :   1.0574 B(  5-C ,  6-H ) :   0.8569 B(  5-C ,  7-C ) :   1.0475
B(  5-C , 14-O ) :   1.0922 B(  7-C ,  8-H ) :   0.8821 B(  7-C ,  9-C ) :   0.9898
B(  7-C , 13-O ) :   1.0898 B(  9-C , 10-H ) :   0.8938 B(  9-C , 11-O ) :   1.0709
B(  9-C , 12-O ) :   1.1054 B( 12-O , 19-H ) :   0.8367 B( 13-O , 20-H ) :   0.8434
B( 14-O , 21-H ) :   0.8302 B( 15-O , 22-H ) :   0.8407 B( 16-O , 23-H ) :   0.8420

Dispersion correction           -0.024376492
FINAL SINGLE POINT ENERGY      -685.694505880456

DIPOLE MOMENT
-------------

Method             : SCF
Type of density    : Electron Density
Multiplicity       :   1
Irrep              :   0
Energy             :  -685.8246430502787234 Eh
Relativity type    :
Basis              : AO
                                X                 Y                 Z
Electronic contribution:      1.991511658       0.163197212       1.400245755
Nuclear contribution   :     -2.100866195      -0.167283027      -1.863944884
                        -----------------------------------------
Total Dipole Moment    :     -0.109354537      -0.004085815      -0.463699129
                        -----------------------------------------
Magnitude (a.u.)       :      0.476436764
Magnitude (Debye)      :      1.211006015

Rotational constants in cm-1:             0.042505             0.025952             0.018510
Rotational constants in MHz :          1274.268112           778.015988           554.930172

                             ****ORCA TERMINATED NORMALLY****
TOTAL RUN TIME: 0 days 0 hours 0 minutes 12 seconds 167 msec
