                         Program Version 6.0.0  -   RELEASE  -
|  1> ! r2scan-3c def2/J RI DEFGRID2 scfconv6 printgap
|  2> %output
|  3>     printlevel normal
|  4> end
|  5> * xyz 0 1
|  6> C 3.2687333053 1.0721984141 -0.0060215513
|  7> N 2.2771204871 0.0331933444 0.0011171173
|  8> C 2.4740099782 -1.2925651179 0.0043635962
|  9> N 1.3567792707 -1.9972121907 0.0037641361
| 10> C 0.3753081365 -1.0717846045 -0.0002805671
| 11> C 0.9135129267 0.2117088496 -0.001949304
| 12> C 0.0971560208 1.3793949457 -0.0001227332
| 13> O 0.4810080329 2.5445339641 0.0017875244
| 14> N -1.259037817 1.054861188 0.0007899742
| 15> C -1.8174538162 -0.2147958027 -0.0007523702
| 16> O -3.0325119211 -0.3544890435 -0.0003803239
| 17> N -0.9676281647 -1.2878522815 0.000552449
| 18> C -1.48674709 -2.6421693054 -0.0042697966
| 19> C -2.2179993894 2.1507843774 0.0022199844
| 20> H 3.1810221411 1.6624152535 -0.9184163823
| 21> H 3.109432507 1.7392669061 0.8409266406
| 22> H 4.2558839013 0.6220266775 0.0524643059
| 23> H 3.4464045116 -1.7416993943 0.0074271738
| 24> H -1.237080325 -3.1264294984 -0.9466584014
| 25> H -2.5660342524 -2.5865558761 0.1151283104
| 26> H -1.0358376342 -3.1986844309 0.8140345745
| 27> H -2.8580994212 2.0754297162 0.8797406836
| 28> H -2.8404266175 2.0944194998 -0.8894685701
| 29> H -1.6535807222 3.0795877673 0.017180337
| 30> *
| 31>
| 32>                          ****END OF INPUT****

CARTESIAN COORDINATES (ANGSTROEM)
---------------------------------
  C      3.268733    1.072198   -0.006022
  N      2.277120    0.033193    0.001117
  C      2.474010   -1.292565    0.004364
  N      1.356779   -1.997212    0.003764
  C      0.375308   -1.071785   -0.000281
  C      0.913513    0.211709   -0.001949
  C      0.097156    1.379395   -0.000123
  O      0.481008    2.544534    0.001788
  N     -1.259038    1.054861    0.000790
  C     -1.817454   -0.214796   -0.000752
  O     -3.032512   -0.354489   -0.000380
  N     -0.967628   -1.287852    0.000552
  C     -1.486747   -2.642169   -0.004270
  C     -2.217999    2.150784    0.002220
  H      3.181022    1.662415   -0.918416
  H      3.109433    1.739267    0.840927
  H      4.255884    0.622027    0.052464
  H      3.446405   -1.741699    0.007427
  H     -1.237080   -3.126429   -0.946658
  H     -2.566034   -2.586556    0.115128
  H     -1.035838   -3.198684    0.814035
  H     -2.858099    2.075430    0.879741
  H     -2.840427    2.094419   -0.889469
  H     -1.653581    3.079588    0.017180

 Total Charge           Charge          ....    0
 Multiplicity           Mult            ....    1
 Number of Electrons    NEL             ....  102
 Basis Dimension        Dim             ....  346

ORBITAL ENERGIES
----------------

  NO   OCC          E(Eh)            E(eV)
   0   2.0000     -18.923649      -514.9387
   1   2.0000     -18.918728      -514.8047
   2   2.0000     -14.250992      -387.7892
   3   2.0000     -14.228647      -387.1812
   4   2.0000     -14.219878      -386.9425
   5   2.0000     -14.165357      -385.4590
   6   2.0000     -10.167783      -276.6794
   7   2.0000     -10.147414      -276.1252
   8   2.0000     -10.114324      -275.2247
   9   2.0000     -10.112022      -275.1621
  10   2.0000     -10.092545      -274.6321
  11   2.0000     -10.077783      -274.2304
  12   2.0000     -10.070479      -274.0317
  13   2.0000     -10.058226      -273.6982
  14   2.0000      -1.045147       -28.4399
  15   2.0000      -1.020714       -27.7750
  16   2.0000      -1.005238       -27.3539
  17   2.0000      -0.946716       -25.7614
  18   2.0000      -0.909047       -24.7364
  19   2.0000      -0.881032       -23.9741
  20   2.0000      -0.766300       -20.8521
  21   2.0000      -0.713699       -19.4207
  22   2.0000      -0.707007       -19.2386
  23   2.0000      -0.683301       -18.5936
  24   2.0000      -0.631176       -17.1752
  25   2.0000      -0.615853       -16.7582
  26   2.0000      -0.576250       -15.6806
  27   2.0000      -0.554112       -15.0782
  28   2.0000      -0.509387       -13.8611
  29   2.0000      -0.483579       -13.1588
  30   2.0000      -0.483124       -13.1465
  31   2.0000      -0.456411       -12.4196
  32   2.0000      -0.453410       -12.3379
  33   2.0000      -0.428887       -11.6706
  34   2.0000      -0.425362       -11.5747
  35   2.0000      -0.424138       -11.5414
  36   2.0000      -0.404819       -11.0157
  37   2.0000      -0.399090       -10.8598
  38   2.0000      -0.392680       -10.6854
  39   2.0000      -0.389917       -10.6102
  40   2.0000      -0.369467       -10.0537
  41   2.0000      -0.363256        -9.8847
  42   2.0000      -0.362190        -9.8557
  43   2.0000      -0.358508        -9.7555
  44   2.0000      -0.299992        -8.1632
  45   2.0000      -0.275449        -7.4953
  46   2.0000      -0.263460        -7.1691
  47   2.0000      -0.254760        -6.9324
  48   2.0000      -0.246318        -6.7027
  49   2.0000      -0.227924        -6.2021
  50   2.0000      -0.204726        -5.5709
  51   0.0000      -0.061098        -1.6626
  52   0.0000      -0.007989        -0.2174
  53   0.0000       0.004570         0.1244
  54   0.0000       0.044897         1.2217
  55   0.0000       0.072110         1.9622

MULLIKEN ATOMIC CHARGES
-----------------------
   0 C :   -0.364782
   1 N :    0.286817
   2 C :   -0.044789
   3 N :   -0.246603
   4 C :   -0.129722
   5 C :   -0.027545
   6 C :   -0.030669
   7 O :   -0.451772
   8 N :    0.138387
   9 C :    0.249092
  10 O :   -0.476548
  11 N :    0.197998
  12 C :   -0.398833
  13 C :   -0.396804
  14 H :    0.176012
  15 H :    0.180482
  16 H :    0.148526
  17 H :    0.143200
  18 H :    0.160957
  19 H :    0.201430
  20 H :    0.163325
  21 H :    0.164327
  22 H :    0.163598
  23 H :    0.193917
Sum of atomic charges:    0.0000000

LOEWDIN ATOMIC CHARGES
----------------------
   0 C :   -0.073327
   1 N :   -0.724473
   2 C :    0.268358
   3 N :   -0.498640
   4 C :    0.355450
   5 C :    0.211458
   6 C :    0.390703
   7 O :   -0.473608
   8 N :   -0.646916
   9 C :    0.475817
  10 O :   -0.428258
  11 N :   -0.647355
  12 C :   -0.076813
  13 C :   -0.077971
  14 H :    0.191781
  15 H :    0.194819
  16 H :    0.185088
  17 H :    0.206493
  18 H :    0.184119
  19 H :    0.210966
  20 H :    0.187921
  21 H :    0.188327
  22 H :    0.187708
  23 H :    0.208354

  Mayer bond orders larger than 0.100000
B(  0-C ,  1-N ) :   0.9028 B(  0-C , 14-H ) :   0.9391 B(  0-C , 15-H ) :   0.9410
B(  0-C , 16-H ) :   0.9620 B(  1-N ,  2-C ) :   1.2520 B(  1-N ,  5-C ) :   1.2569
B(  2-C ,  3-N ) :   1.4520 B(  2-C , 17-H ) :   0.9579 B(  3-N ,  4-C ) :   1.3550
B(  4-C ,  5-C ) :   1.3872 B(  4-C , 11-N ) :   1.2962 B(  5-C ,  6-C ) :   1.0177
B(  6-C ,  7-O ) :   1.8734 B(  6-C ,  8-N ) :   1.0479 B(  8-N ,  9-C ) :   1.1585
B(  8-N , 13-C ) :   0.9022 B(  9-C , 10-O ) :   1.8128 B(  9-C , 11-N ) :   1.0867
B( 11-N , 12-C ) :   0.8790 B( 12-C , 18-H ) :   0.9486 B( 12-C , 19-H ) :   0.9510
B( 12-C , 20-H ) :   0.9512 B( 13-C , 21-H ) :   0.9459 B( 13-C , 22-H ) :   0.9455
B( 13-C , 23-H ) :   0.9554

Dispersion correction           -0.009851250
FINAL SINGLE POINT ENERGY      -680.226660530452

DIPOLE MOMENT
-------------

Method             : SCF
Type of density    : Electron Density
Multiplicity       :   1
Irrep              :   0
Energy             :  -680.2460995254364207 Eh
Relativity type    :
Basis              : AO
                                X                 Y                 Z
Electronic contribution:     -0.181493151      -0.921858313       0.027159644
Nuclear contribution   :      1.660232882       0.601822424      -0.025877288
                        -----------------------------------------
Total Dipole Moment    :      1.478739731      -0.320035889       0.001282356
                        -----------------------------------------
Magnitude (a.u.)       :      1.512975812
Magnitude (Debye)      :      3.845678892

Rotational constants in cm-1:             0.035823             0.023849             0.014433
Rotational constants in MHz :          1073.954593           714.980948           432.702018

                             ****ORCA TERMINATED NORMALLY****
TOTAL RUN TIME: 0 days 0 hours 1 minutes 9 seconds 8 msec
