                         Program Version 6.0.0  -   RELEASE  -
|  1> ! r2scan-3c def2/J RI DEFGRID2 scfconv6 printgap
|  2> %output
|  3>     printlevel normal
|  4> end
|  5> %cpcm
|  6>     smd true
|  7>     smdsolvent "water"
|  8> end
|  9> * xyz 0 1
| 10> C 3.2687333053 1.0721984141 -0.0060215513
| 11> N 2.2771204871 0.0331933444 0.0011171173
| 12> C 2.4740099782 -1.2925651179 0.0043635962
| 13> N 1.3567792707 -1.9972121907 0.0037641361
| 14> C 0.3753081365 -1.0717846045 -0.0002805671
| 15> C 0.9135129267 0.2117088496 -0.001949304
| 16> C 0.0971560208 1.3793949457 -0.0001227332
| 17> O 0.4810080329 2.5445339641 0.0017875244
| 18> N -1.259037817 1.054861188 0.0007899742
| 19> C -1.8174538162 -0.2147958027 -0.0007523702
| 20> O -3.0325119211 -0.3544890435 -0.0003803239
| 21> N -0.9676281647 -1.2878522815 0.000552449
| 22> C -1.48674709 -2.6421693054 -0.0042697966
| 23> C -2.2179993894 2.1507843774 0.0022199844
| 24> H 3.1810221411 1.6624152535 -0.9184163823
| 25> H 3.109432507 1.7392669061 0.8409266406
| 26> H 4.2558839013 0.6220266775 0.0524643059
| 27> H 3.4464045116 -1.7416993943 0.0074271738
| 28> H -1.237080325 -3.1264294984 -0.9466584014
| 29> H -2.5660342524 -2.5865558761 0.1151283104
| 30> H -1.0358376342 -3.1986844309 0.8140345745
| 31> H -2.8580994212 2.0754297162 0.8797406836
| 32> H -2.8404266175 2.0944194998 -0.8894685701
| 33> H -1.6535807222 3.0795877673 0.017180337
| 34> *
| 35>
| 36>                          ****END OF INPUT****

CARTESIAN COORDINATES (ANGSTROEM)
---------------------------------
  C      3.268733    1.072198   -0.006022
  N      2.277120    0.033193    0.001117
  C      2.474010   -1.292565    0.004364
  N      1.356779   -1.997212    0.003764
  C      0.375308   -1.071785   -0.000281
  C      0.913513    0.211709   -0.001949
  C      0.097156    1.379395   -0.000123
  O      0.481008    2.544534    0.001788
  N     -1.259038    1.054861    0.000790
  C     -1.817454   -0.214796   -0.000752
  O     -3.032512   -0.354489   -0.000380
  N     -0.967628   -1.287852    0.000552
  C     -1.486747   -2.642169   -0.004270
  C     -2.217999    2.150784    0.002220
  H      3.181022    1.662415   -0.918416
  H      3.109433    1.739267    0.840927
  H      4.255884    0.622027    0.052464
  H      3.446405   -1.741699    0.007427
  H     -1.237080   -3.126429   -0.946658
  H     -2.566034   -2.586556    0.115128
  H     -1.035838   -3.198684    0.814035
  H     -2.858099    2.075430    0.879741
  H     -2.840427    2.094419   -0.889469
  H     -1.653581    3.079588    0.017180

 Total Charge           Charge          ....    0
 Multiplicity           Mult            ....    1
 Number of Electrons    NEL             ....  102
 Basis Dimension        Dim             ....  346

ORBITAL ENERGIES
----------------

  NO   OCC          E(Eh)            E(eV)
   0   2.0000     -18.935281      -515.2552
   1   2.0000     -18.933599      -515.2094
   2   2.0000     -14.240863      -387.5136
   3   2.0000     -14.231426      -387.2568
   4   2.0000     -14.226006      -387.1093
   5   2.0000     -14.163248      -385.4016
   6   2.0000     -10.177754      -276.9508
   7   2.0000     -10.155344      -276.3410
   8   2.0000     -10.113004      -275.1888
   9   2.0000     -10.102634      -274.9066
  10   2.0000     -10.075566      -274.1701
  11   2.0000     -10.067648      -273.9546
  12   2.0000     -10.063000      -273.8282
  13   2.0000     -10.057829      -273.6875
  14   2.0000      -1.052775       -28.6475
  15   2.0000      -1.021628       -27.7999
  16   2.0000      -1.012310       -27.5464
  17   2.0000      -0.950064       -25.8526
  18   2.0000      -0.915230       -24.9047
  19   2.0000      -0.875086       -23.8123
  20   2.0000      -0.762552       -20.7501
  21   2.0000      -0.705640       -19.2014
  22   2.0000      -0.698598       -19.0098
  23   2.0000      -0.682226       -18.5643
  24   2.0000      -0.629921       -17.1410
  25   2.0000      -0.615463       -16.7476
  26   2.0000      -0.573819       -15.6144
  27   2.0000      -0.546735       -14.8774
  28   2.0000      -0.502925       -13.6853
  29   2.0000      -0.481360       -13.0985
  30   2.0000      -0.477571       -12.9954
  31   2.0000      -0.449228       -12.2241
  32   2.0000      -0.446987       -12.1631
  33   2.0000      -0.433834       -11.8052
  34   2.0000      -0.426797       -11.6137
  35   2.0000      -0.422886       -11.5073
  36   2.0000      -0.409317       -11.1381
  37   2.0000      -0.397790       -10.8244
  38   2.0000      -0.381613       -10.3842
  39   2.0000      -0.378648       -10.3035
  40   2.0000      -0.367872       -10.0103
  41   2.0000      -0.365998        -9.9593
  42   2.0000      -0.363957        -9.9038
  43   2.0000      -0.361350        -9.8328
  44   2.0000      -0.296597        -8.0708
  45   2.0000      -0.279920        -7.6170
  46   2.0000      -0.269253        -7.3267
  47   2.0000      -0.264837        -7.2066
  48   2.0000      -0.251588        -6.8461
  49   2.0000      -0.242773        -6.6062
  50   2.0000      -0.205082        -5.5806
  51   0.0000      -0.060067        -1.6345
  52   0.0000      -0.014893        -0.4053
  53   0.0000       0.008432         0.2294
  54   0.0000       0.050065         1.3623
  55   0.0000       0.084840         2.3086

MULLIKEN ATOMIC CHARGES
-----------------------
   0 C :   -0.421818
   1 N :    0.305699
   2 C :   -0.025262
   3 N :   -0.299857
   4 C :   -0.131236
   5 C :   -0.011850
   6 C :   -0.019637
   7 O :   -0.529250
   8 N :    0.165088
   9 C :    0.268096
  10 O :   -0.558654
  11 N :    0.222661
  12 C :   -0.434506
  13 C :   -0.432557
  14 H :    0.192346
  15 H :    0.191151
  16 H :    0.189238
  17 H :    0.189217
  18 H :    0.189771
  19 H :    0.200291
  20 H :    0.185564
  21 H :    0.184626
  22 H :    0.185049
  23 H :    0.195829
Sum of atomic charges:    0.0000000

LOEWDIN ATOMIC CHARGES
----------------------
   0 C :   -0.071365
   1 N :   -0.707632
   2 C :    0.288131
   3 N :   -0.530665
   4 C :    0.357573
   5 C :    0.214890
   6 C :    0.395571
   7 O :   -0.531523
   8 N :   -0.635764
   9 C :    0.479868
  10 O :   -0.489435
  11 N :   -0.634744
  12 C :   -0.074945
  13 C :   -0.078177
  14 H :    0.195690
  15 H :    0.196988
  16 H :    0.202278
  17 H :    0.225510
  18 H :    0.193564
  19 H :    0.210910
  20 H :    0.196051
  21 H :    0.194097
  22 H :    0.193742
  23 H :    0.209387

  Mayer bond orders larger than 0.100000
B(  0-C ,  1-N ) :   0.8840 B(  0-C , 14-H ) :   0.9363 B(  0-C , 15-H ) :   0.9385
B(  0-C , 16-H ) :   0.9506 B(  1-N ,  2-C ) :   1.2743 B(  1-N ,  5-C ) :   1.2444
B(  2-C ,  3-N ) :   1.4188 B(  2-C , 17-H ) :   0.9453 B(  3-N ,  4-C ) :   1.3837
B(  4-C ,  5-C ) :   1.3853 B(  4-C , 11-N ) :   1.2964 B(  5-C ,  6-C ) :   1.0391
B(  6-C ,  7-O ) :   1.8129 B(  6-C ,  8-N ) :   1.0601 B(  8-N ,  9-C ) :   1.1701
B(  8-N , 13-C ) :   0.8794 B(  9-C , 10-O ) :   1.7499 B(  9-C , 11-N ) :   1.1139
B( 11-N , 12-C ) :   0.8586 B( 12-C , 18-H ) :   0.9422 B( 12-C , 19-H ) :   0.9470
B( 12-C , 20-H ) :   0.9447 B( 13-C , 21-H ) :   0.9423 B( 13-C , 22-H ) :   0.9420
B( 13-C , 23-H ) :   0.9498

Dispersion correction           -0.009851250
FINAL SINGLE POINT ENERGY      -680.245583490891

DIPOLE MOMENT
-------------

Method             : SCF
Type of density    : Electron Density
Multiplicity       :   1
Irrep              :   0
Energy             :  -680.2650224858750789 Eh
Relativity type    :
Basis              : AO
                                X                 Y                 Z
Electronic contribution:      0.497308120      -1.215190377       0.025729158
Nuclear contribution   :      1.660232882       0.601822424      -0.025877288
                        -----------------------------------------
Total Dipole Moment    :      2.157541002      -0.613367953      -0.000148130
                        -----------------------------------------
Magnitude (a.u.)       :      2.243034428
Magnitude (Debye)      :      5.701340422

Rotational constants in cm-1:             0.035823             0.023849             0.014433
Rotational constants in MHz :          1073.954593           714.980948           432.702018

                             ****ORCA TERMINATED NORMALLY****
TOTAL RUN TIME: 0 days 0 hours 1 minutes 22 seconds 975 msec
