                         Program Version 6.0.0  -   RELEASE  -
|  1> ! pbe def2-sv(p) def2/J RI DEFGRID1 loosescf d4 GCP(DFT/SV(P)) printgap
|  2> %output
|  3>     printlevel normal
|  4> end
|  5> * xyz 0 1
|  6> C -2.3739640171 -0.7678681685 -0.1077601413
|  7> C -1.0099319503 -0.2687587737 0.3951049791
|  8> H -1.1332169284 0.1196952125 1.4170775427
|  9> C -0.5109238595 0.8796793442 -0.4860151424
| 10> H -0.4660058905 0.5304182964 -1.5288424401
| 11> C 0.8995780599 1.3350717637 -0.0592826166
| 12> H 0.803101729 2.0282703498 0.7847250827
| 13> C 1.7791955717 0.1480641329 0.4039219579
| 14> H 2.7805040595 0.2765698737 -0.0189418962
| 15> C 1.1819845478 -1.1733105271 -0.0966153708
| 16> H 1.7670370939 -2.0130993196 0.3056749635
| 17> O -0.1011128315 -1.3715786141 0.4421703617
| 18> O 1.1992942412 -1.1668125704 -1.489303719
| 19> O 1.9498910164 0.1113701378 1.7967556553
| 20> O 1.5078064319 2.0774798403 -1.0865590441
| 21> O -1.4388358575 1.931287292 -0.3696368908
| 22> O -2.9697028501 -1.7167228053 0.7368334178
| 23> H -2.2420962688 -1.2705238542 -1.06765806
| 24> H -3.0201950153 0.1075856343 -0.243330601
| 25> H 0.9724359976 -2.0444830636 -1.8324071344
| 26> H 1.1723557996 -0.2912993392 2.2109462974
| 27> H 1.673148777 1.4972900325 -1.844861211
| 28> H -1.0988003169 2.6994188883 -0.852808206
| 29> H -3.1412381372 -1.3190453943 1.6019414691
| 30> *
| 31>
| 32>                          ****END OF INPUT****

CARTESIAN COORDINATES (ANGSTROEM)
---------------------------------
  C     -2.373964   -0.767868   -0.107760
  C     -1.009932   -0.268759    0.395105
  H     -1.133217    0.119695    1.417078
  C     -0.510924    0.879679   -0.486015
  H     -0.466006    0.530418   -1.528842
  C      0.899578    1.335072   -0.059283
  H      0.803102    2.028270    0.784725
  C      1.779196    0.148064    0.403922
  H      2.780504    0.276570   -0.018942
  C      1.181985   -1.173311   -0.096615
  H      1.767037   -2.013099    0.305675
  O     -0.101113   -1.371579    0.442170
  O      1.199294   -1.166813   -1.489304
  O      1.949891    0.111370    1.796756
  O      1.507806    2.077480   -1.086559
  O     -1.438836    1.931287   -0.369637
  O     -2.969703   -1.716723    0.736833
  H     -2.242096   -1.270524   -1.067658
  H     -3.020195    0.107586   -0.243331
  H      0.972436   -2.044483   -1.832407
  H      1.172356   -0.291299    2.210946
  H      1.673149    1.497290   -1.844861
  H     -1.098800    2.699419   -0.852808
  H     -3.141238   -1.319045    1.601941

 Total Charge           Charge          ....    0
 Multiplicity           Mult            ....    1
 Number of Electrons    NEL             ....   96
 Basis Dimension        Dim             ....  192

ORBITAL ENERGIES
----------------

  NO   OCC          E(Eh)            E(eV)
   0   2.0000     -18.781067      -511.0588
   1   2.0000     -18.775980      -510.9204
   2   2.0000     -18.755909      -510.3742
   3   2.0000     -18.755614      -510.3662
   4   2.0000     -18.754480      -510.3353
   5   2.0000     -18.743513      -510.0369
   6   2.0000      -9.994226      -271.9567
   7   2.0000      -9.949688      -270.7448
   8   2.0000      -9.944517      -270.6041
   9   2.0000      -9.943892      -270.5871
  10   2.0000      -9.939877      -270.4778
  11   2.0000      -9.928484      -270.1678
  12   2.0000      -0.991308       -26.9748
  13   2.0000      -0.944855       -25.7108
  14   2.0000      -0.933734       -25.4082
  15   2.0000      -0.930522       -25.3208
  16   2.0000      -0.920940       -25.0601
  17   2.0000      -0.914542       -24.8859
  18   2.0000      -0.708057       -19.2672
  19   2.0000      -0.691873       -18.8268
  20   2.0000      -0.620428       -16.8827
  21   2.0000      -0.593034       -16.1373
  22   2.0000      -0.570849       -15.5336
  23   2.0000      -0.532327       -14.4854
  24   2.0000      -0.517008       -14.0685
  25   2.0000      -0.487581       -13.2677
  26   2.0000      -0.467978       -12.7343
  27   2.0000      -0.463964       -12.6251
  28   2.0000      -0.450028       -12.2459
  29   2.0000      -0.425752       -11.5853
  30   2.0000      -0.417290       -11.3551
  31   2.0000      -0.411525       -11.1982
  32   2.0000      -0.387713       -10.5502
  33   2.0000      -0.372649       -10.1403
  34   2.0000      -0.362405        -9.8615
  35   2.0000      -0.357865        -9.7380
  36   2.0000      -0.343786        -9.3549
  37   2.0000      -0.311080        -8.4649
  38   2.0000      -0.303673        -8.2634
  39   2.0000      -0.293644        -7.9905
  40   2.0000      -0.282642        -7.6911
  41   2.0000      -0.271596        -7.3905
  42   2.0000      -0.264399        -7.1947
  43   2.0000      -0.245473        -6.6797
  44   2.0000      -0.239697        -6.5225
  45   2.0000      -0.233846        -6.3633
  46   2.0000      -0.211744        -5.7618
  47   2.0000      -0.198757        -5.4085
  48   0.0000       0.006752         0.1837
  49   0.0000       0.019012         0.5173
  50   0.0000       0.034161         0.9296
  51   0.0000       0.039522         1.0754
  52   0.0000       0.056650         1.5415

MULLIKEN ATOMIC CHARGES
-----------------------
   0 C :    0.086736
   1 C :   -0.002914
   2 H :    0.043341
   3 C :    0.058360
   4 H :    0.048970
   5 C :    0.079568
   6 H :    0.067604
   7 C :    0.048952
   8 H :    0.076625
   9 C :    0.126663
  10 H :    0.075683
  11 O :   -0.307517
  12 O :   -0.396001
  13 O :   -0.418276
  14 O :   -0.427689
  15 O :   -0.415364
  16 O :   -0.427311
  17 H :    0.067737
  18 H :    0.092154
  19 H :    0.313104
  20 H :    0.305030
  21 H :    0.303241
  22 H :    0.307574
  23 H :    0.293727
Sum of atomic charges:   -0.0000000

LOEWDIN ATOMIC CHARGES
----------------------
   0 C :   -0.129244
   1 C :   -0.069630
   2 H :    0.098751
   3 C :   -0.084261
   4 H :    0.103015
   5 C :   -0.079389
   6 H :    0.121141
   7 C :   -0.083163
   8 H :    0.121782
   9 C :   -0.016870
  10 H :    0.102636
  11 O :   -0.146127
  12 O :   -0.312741
  13 O :   -0.308413
  14 O :   -0.315538
  15 O :   -0.319703
  16 O :   -0.333128
  17 H :    0.112668
  18 H :    0.106725
  19 H :    0.293024
  20 H :    0.282838
  21 H :    0.283777
  22 H :    0.289681
  23 H :    0.282170

  Mayer bond orders larger than 0.100000
B(  0-C ,  1-C ) :   1.0450 B(  0-C , 16-O ) :   1.0876 B(  0-C , 17-H ) :   0.9053
B(  0-C , 18-H ) :   0.9131 B(  1-C ,  2-H ) :   0.8709 B(  1-C ,  3-C ) :   1.0160
B(  1-C , 11-O ) :   0.9661 B(  3-C ,  4-H ) :   0.8450 B(  3-C ,  5-C ) :   1.0444
B(  3-C , 15-O ) :   1.0483 B(  5-C ,  6-H ) :   0.8605 B(  5-C ,  7-C ) :   0.9526
B(  5-C , 14-O ) :   1.0253 B(  7-C ,  8-H ) :   0.8796 B(  7-C ,  9-C ) :   1.0509
B(  7-C , 13-O ) :   1.0531 B(  9-C , 10-H ) :   0.8990 B(  9-C , 11-O ) :   1.0630
B(  9-C , 12-O ) :   1.1157 B( 12-O , 19-H ) :   0.8363 B( 13-O , 20-H ) :   0.8390
B( 14-O , 21-H ) :   0.8450 B( 15-O , 22-H ) :   0.8384 B( 16-O , 23-H ) :   0.8539

Dispersion correction           -0.024580608
FINAL SINGLE POINT ENERGY      -685.689126775368

DIPOLE MOMENT
-------------

Method             : SCF
Type of density    : Electron Density
Multiplicity       :   1
Irrep              :   0
Energy             :  -685.8193081101455846 Eh
Relativity type    :
Basis              : AO
                                X                 Y                 Z
Electronic contribution:      1.785852356      -0.528389278       0.531267187
Nuclear contribution   :     -1.811271080       0.298962845      -1.001971659
                        -----------------------------------------
Total Dipole Moment    :     -0.025418724      -0.229426433      -0.470704471
                        -----------------------------------------
Magnitude (a.u.)       :      0.524256902
Magnitude (Debye)      :      1.332555144

Rotational constants in cm-1:             0.040822             0.025433             0.020778
Rotational constants in MHz :          1223.814882           762.475616           622.900432

                             ****ORCA TERMINATED NORMALLY****
TOTAL RUN TIME: 0 days 0 hours 0 minutes 11 seconds 867 msec
