                         Program Version 6.0.0  -   RELEASE  -
|  1> ! wb97x-v def2-tzvp def2/J RIJCOSX DEFGRID2 scfconv7 GCP(DFT/TZ) printgap
|  2> %output
|  3>     printlevel normal
|  4> end
|  5> * xyz 0 1
|  6> C -3.440100560012322 0.6371111078650313 -0.08372630610497474
|  7> C -1.9478691809524784 0.49897491255635007 -0.020289806523329276
|  8> C -1.1132186167827822 1.364121298993211 -0.6075635114990382
|  9> C 0.38110683831349296 1.2492784440586517 -0.6032163969898869
| 10> C 0.864948560641655 -0.14082733377913972 -0.15066062473539296
| 11> H 0.6306802931700893 -0.8422820741504643 -0.9658908446209727
| 12> C 0.0645716865565624 -0.5582251975594605 1.0801769027461874
| 13> C -1.4174751888304766 -0.6783804960544895 0.764397239901426
| 14> H -1.9807302205748336 -0.7520644146634813 1.7066662203855865
| 15> O -1.6063307984943884 -1.9241575247787859 0.030293198772187648
| 16> C 2.366730815048162 -0.15977155344809665 0.02668184050652541
| 17> C 2.9680336415516297 -0.37258130880178303 1.2019647992067086
| 18> C 3.163759686148876 0.09422559775702993 -1.2220379300588526
| 19> H -3.8676541226895083 0.7168950444207333 0.9236171285454615
| 20> H -3.9035199833809138 -0.2413319132813658 -0.5521809240971446
| 21> H -3.7362514499472663 1.518366152183142 -0.6591908946833626
| 22> H -1.5301519518605022 2.2216973280941197 -1.135730907653653
| 23> H 0.756575313941034 1.4774327593886547 -1.6071772732308969
| 24> H 0.8097175199525743 2.017634485393205 0.05979747289823441
| 25> H 0.4169014072850217 -1.5155273412803503 1.4790923794191868
| 26> H 0.1864585301764847 0.19190319523501922 1.8718131440515176
| 27> H -2.5546891606171984 -2.0402920224198717 -0.11125067926475658
| 28> H 4.052437589147877 -0.37054422966341455 1.2777900649433958
| 29> H 2.4124298654374967 -0.5485630567495448 2.117257612152396
| 30> H 2.8364971169069393 -0.5678136791881092 -2.0329736453077705
| 31> H 3.0215670247364925 1.1209409012227325 -1.5799349386908919
| 32> H 4.232518717143937 -0.058900051333826954 -1.0518648967468747
| 33> *
| 34>
| 35>                          ****END OF INPUT****

CARTESIAN COORDINATES (ANGSTROEM)
---------------------------------
  C     -3.440101    0.637111   -0.083726
  C     -1.947869    0.498975   -0.020290
  C     -1.113219    1.364121   -0.607564
  C      0.381107    1.249278   -0.603216
  C      0.864949   -0.140827   -0.150661
  H      0.630680   -0.842282   -0.965891
  C      0.064572   -0.558225    1.080177
  C     -1.417475   -0.678380    0.764397
  H     -1.980730   -0.752064    1.706666
  O     -1.606331   -1.924158    0.030293
  C      2.366731   -0.159772    0.026682
  C      2.968034   -0.372581    1.201965
  C      3.163760    0.094226   -1.222038
  H     -3.867654    0.716895    0.923617
  H     -3.903520   -0.241332   -0.552181
  H     -3.736251    1.518366   -0.659191
  H     -1.530152    2.221697   -1.135731
  H      0.756575    1.477433   -1.607177
  H      0.809718    2.017634    0.059797
  H      0.416901   -1.515527    1.479092
  H      0.186459    0.191903    1.871813
  H     -2.554689   -2.040292   -0.111251
  H      4.052438   -0.370544    1.277790
  H      2.412430   -0.548563    2.117258
  H      2.836497   -0.567814   -2.032974
  H      3.021567    1.120941   -1.579935
  H      4.232519   -0.058900   -1.051865

 Total Charge           Charge          ....    0
 Multiplicity           Mult            ....    1
 Number of Electrons    NEL             ....   84
 Basis Dimension        Dim             ....  437

ORBITAL ENERGIES
----------------

  NO   OCC          E(Eh)            E(eV)
   0   2.0000     -21.667552      -589.6041
   1   2.0000     -12.098181      -329.2083
   2   2.0000     -12.053242      -327.9854
   3   2.0000     -12.050509      -327.9110
   4   2.0000     -12.048572      -327.8583
   5   2.0000     -12.047320      -327.8243
   6   2.0000     -12.047006      -327.8157
   7   2.0000     -12.044536      -327.7485
   8   2.0000     -12.038312      -327.5791
   9   2.0000     -12.037445      -327.5555
  10   2.0000     -12.026320      -327.2528
  11   2.0000      -1.663190       -45.2577
  12   2.0000      -1.364102       -37.1191
  13   2.0000      -1.324467       -36.0406
  14   2.0000      -1.269063       -34.5330
  15   2.0000      -1.257386       -34.2152
  16   2.0000      -1.190761       -32.4022
  17   2.0000      -1.183214       -32.1969
  18   2.0000      -1.128893       -30.7187
  19   2.0000      -1.097105       -29.8537
  20   2.0000      -1.052849       -28.6495
  21   2.0000      -0.996536       -27.1171
  22   2.0000      -0.964188       -26.2369
  23   2.0000      -0.937841       -25.5200
  24   2.0000      -0.933908       -25.4129
  25   2.0000      -0.912592       -24.8329
  26   2.0000      -0.897227       -24.4148
  27   2.0000      -0.893377       -24.3100
  28   2.0000      -0.865849       -23.5609
  29   2.0000      -0.864646       -23.5282
  30   2.0000      -0.840100       -22.8603
  31   2.0000      -0.833483       -22.6802
  32   2.0000      -0.828833       -22.5537
  33   2.0000      -0.819805       -22.3080
  34   2.0000      -0.815191       -22.1825
  35   2.0000      -0.808019       -21.9873
  36   2.0000      -0.800594       -21.7853
  37   2.0000      -0.772889       -21.0314
  38   2.0000      -0.767663       -20.8892
  39   2.0000      -0.760272       -20.6880
  40   2.0000      -0.646813       -17.6007
  41   2.0000      -0.637364       -17.3435
  42   0.0000      -0.227757        -6.1976
  43   0.0000      -0.193884        -5.2759
  44   0.0000      -0.117780        -3.2050
  45   0.0000      -0.059847        -1.6285
  46   0.0000      -0.047886        -1.3030

MULLIKEN ATOMIC CHARGES
-----------------------
   0 C :   -0.344615
   1 C :   -0.056231
   2 C :   -0.210900
   3 C :   -0.166975
   4 C :    0.013200
   5 H :    0.094652
   6 C :   -0.224329
   7 C :    0.147315
   8 H :    0.083694
   9 O :   -0.440189
  10 C :    0.014478
  11 C :   -0.301360
  12 C :   -0.368924
  13 H :    0.120133
  14 H :    0.099137
  15 H :    0.118641
  16 H :    0.107006
  17 H :    0.107074
  18 H :    0.105880
  19 H :    0.120384
  20 H :    0.105180
  21 H :    0.291317
  22 H :    0.106039
  23 H :    0.121123
  24 H :    0.119407
  25 H :    0.123434
  26 H :    0.115433
Sum of atomic charges:    0.0000000

LOEWDIN ATOMIC CHARGES
----------------------
   0 C :   -0.261483
   1 C :   -0.189463
   2 C :   -0.130503
   3 C :   -0.211832
   4 C :   -0.203990
   5 H :    0.167161
   6 C :   -0.199400
   7 C :   -0.283773
   8 H :    0.137824
   9 O :   -0.036074
  10 C :   -0.202796
  11 C :   -0.197682
  12 C :   -0.254524
  13 H :    0.124776
  14 H :    0.118859
  15 H :    0.126187
  16 H :    0.139463
  17 H :    0.141330
  18 H :    0.147133
  19 H :    0.145930
  20 H :    0.145870
  21 H :    0.162956
  22 H :    0.118520
  23 H :    0.120444
  24 H :    0.126158
  25 H :    0.124718
  26 H :    0.124191

  Mayer bond orders larger than 0.100000
B(  0-C ,  1-C ) :   0.9494 B(  0-C , 13-H ) :   0.9795 B(  0-C , 14-H ) :   0.9674
B(  0-C , 15-H ) :   0.9914 B(  1-C ,  2-C ) :   1.9094 B(  1-C ,  7-C ) :   0.9958
B(  2-C ,  3-C ) :   1.0036 B(  2-C , 16-H ) :   0.9597 B(  3-C ,  4-C ) :   0.9617
B(  3-C , 17-H ) :   0.9669 B(  3-C , 18-H ) :   0.9445 B(  4-C ,  5-H ) :   0.9612
B(  4-C ,  6-C ) :   0.9952 B(  4-C , 10-C ) :   0.9313 B(  6-C ,  7-C ) :   0.9679
B(  6-C , 19-H ) :   0.9669 B(  6-C , 20-H ) :   0.9629 B(  7-C ,  8-H ) :   0.9877
B(  7-C ,  9-O ) :   1.0579 B(  9-O , 21-H ) :   0.9072 B( 10-C , 11-C ) :   1.9177
B( 10-C , 12-C ) :   0.9651 B( 11-C , 22-H ) :   0.9663 B( 11-C , 23-H ) :   0.9703
B( 12-C , 24-H ) :   0.9767 B( 12-C , 25-H ) :   0.9717 B( 12-C , 26-H ) :   0.9831

FINAL SINGLE POINT ENERGY      -465.918097451757

DIPOLE MOMENT
-------------

Method             : SCF
Type of density    : Electron Density
Multiplicity       :   1
Irrep              :   0
Energy             :  -465.9359414819568883 Eh
Relativity type    :
Basis              : AO
                                X                 Y                 Z
Electronic contribution:     -2.287644450      -2.204507448       0.695606670
Nuclear contribution   :      1.766854546       2.669421968      -0.722848763
                        -----------------------------------------
Total Dipole Moment    :     -0.520789904       0.464914520      -0.027242093
                        -----------------------------------------
Magnitude (a.u.)       :      0.698648529
Magnitude (Debye)      :      1.775823433

Rotational constants in cm-1:             0.070932             0.022401             0.019504
Rotational constants in MHz :          2126.500275           671.576356           584.718075

                             ****ORCA TERMINATED NORMALLY****
TOTAL RUN TIME: 0 days 0 hours 5 minutes 26 seconds 613 msec
