                         Program Version 6.0.0  -   RELEASE  -
|  1> ! wb97x-v def2-tzvp def2/J RIJCOSX DEFGRID2 scfconv7 GCP(DFT/TZ) printgap
|  2> %output
|  3>     printlevel normal
|  4> end
|  5> %cpcm
|  6>     smd true
|  7>     smdsolvent "water"
|  8> end
|  9> * xyz 0 1
| 10> C -3.440100560012322 0.6371111078650313 -0.08372630610497474
| 11> C -1.9478691809524784 0.49897491255635007 -0.020289806523329276
| 12> C -1.1132186167827822 1.364121298993211 -0.6075635114990382
| 13> C 0.38110683831349296 1.2492784440586517 -0.6032163969898869
| 14> C 0.864948560641655 -0.14082733377913972 -0.15066062473539296
| 15> H 0.6306802931700893 -0.8422820741504643 -0.9658908446209727
| 16> C 0.0645716865565624 -0.5582251975594605 1.0801769027461874
| 17> C -1.4174751888304766 -0.6783804960544895 0.764397239901426
| 18> H -1.9807302205748336 -0.7520644146634813 1.7066662203855865
| 19> O -1.6063307984943884 -1.9241575247787859 0.030293198772187648
| 20> C 2.366730815048162 -0.15977155344809665 0.02668184050652541
| 21> C 2.9680336415516297 -0.37258130880178303 1.2019647992067086
| 22> C 3.163759686148876 0.09422559775702993 -1.2220379300588526
| 23> H -3.8676541226895083 0.7168950444207333 0.9236171285454615
| 24> H -3.9035199833809138 -0.2413319132813658 -0.5521809240971446
| 25> H -3.7362514499472663 1.518366152183142 -0.6591908946833626
| 26> H -1.5301519518605022 2.2216973280941197 -1.135730907653653
| 27> H 0.756575313941034 1.4774327593886547 -1.6071772732308969
| 28> H 0.8097175199525743 2.017634485393205 0.05979747289823441
| 29> H 0.4169014072850217 -1.5155273412803503 1.4790923794191868
| 30> H 0.1864585301764847 0.19190319523501922 1.8718131440515176
| 31> H -2.5546891606171984 -2.0402920224198717 -0.11125067926475658
| 32> H 4.052437589147877 -0.37054422966341455 1.2777900649433958
| 33> H 2.4124298654374967 -0.5485630567495448 2.117257612152396
| 34> H 2.8364971169069393 -0.5678136791881092 -2.0329736453077705
| 35> H 3.0215670247364925 1.1209409012227325 -1.5799349386908919
| 36> H 4.232518717143937 -0.058900051333826954 -1.0518648967468747
| 37> *
| 38>
| 39>                          ****END OF INPUT****

CARTESIAN COORDINATES (ANGSTROEM)
---------------------------------
  C     -3.440101    0.637111   -0.083726
  C     -1.947869    0.498975   -0.020290
  C     -1.113219    1.364121   -0.607564
  C      0.381107    1.249278   -0.603216
  C      0.864949   -0.140827   -0.150661
  H      0.630680   -0.842282   -0.965891
  C      0.064572   -0.558225    1.080177
  C     -1.417475   -0.678380    0.764397
  H     -1.980730   -0.752064    1.706666
  O     -1.606331   -1.924158    0.030293
  C      2.366731   -0.159772    0.026682
  C      2.968034   -0.372581    1.201965
  C      3.163760    0.094226   -1.222038
  H     -3.867654    0.716895    0.923617
  H     -3.903520   -0.241332   -0.552181
  H     -3.736251    1.518366   -0.659191
  H     -1.530152    2.221697   -1.135731
  H      0.756575    1.477433   -1.607177
  H      0.809718    2.017634    0.059797
  H      0.416901   -1.515527    1.479092
  H      0.186459    0.191903    1.871813
  H     -2.554689   -2.040292   -0.111251
  H      4.052438   -0.370544    1.277790
  H      2.412430   -0.548563    2.117258
  H      2.836497   -0.567814   -2.032974
  H      3.021567    1.120941   -1.579935
  H      4.232519   -0.058900   -1.051865

 Total Charge           Charge          ....    0
 Multiplicity           Mult            ....    1
 Number of Electrons    NEL             ....   84
 Basis Dimension        Dim             ....  437

ORBITAL ENERGIES
----------------

  NO   OCC          E(Eh)            E(eV)
   0   2.0000     -21.671022      -589.6985
   1   2.0000     -12.093067      -329.0691
   2   2.0000     -12.053804      -328.0007
   3   2.0000     -12.045095      -327.7637
   4   2.0000     -12.044543      -327.7487
   5   2.0000     -12.039437      -327.6097
   6   2.0000     -12.037721      -327.5630
   7   2.0000     -12.033158      -327.4389
   8   2.0000     -12.031829      -327.4027
   9   2.0000     -12.030105      -327.3558
  10   2.0000     -12.024310      -327.1981
  11   2.0000      -1.667087       -45.3637
  12   2.0000      -1.359702       -36.9994
  13   2.0000      -1.321181       -35.9512
  14   2.0000      -1.264279       -34.4028
  15   2.0000      -1.251975       -34.0680
  16   2.0000      -1.181678       -32.1551
  17   2.0000      -1.179416       -32.0935
  18   2.0000      -1.124299       -30.5937
  19   2.0000      -1.091986       -29.7144
  20   2.0000      -1.053160       -28.6579
  21   2.0000      -0.993894       -27.0452
  22   2.0000      -0.965516       -26.2730
  23   2.0000      -0.938408       -25.5354
  24   2.0000      -0.928912       -25.2770
  25   2.0000      -0.910390       -24.7730
  26   2.0000      -0.894351       -24.3365
  27   2.0000      -0.888226       -24.1698
  28   2.0000      -0.861376       -23.4392
  29   2.0000      -0.859859       -23.3980
  30   2.0000      -0.831436       -22.6245
  31   2.0000      -0.824369       -22.4322
  32   2.0000      -0.821338       -22.3497
  33   2.0000      -0.812256       -22.1026
  34   2.0000      -0.805204       -21.9107
  35   2.0000      -0.799810       -21.7639
  36   2.0000      -0.795629       -21.6502
  37   2.0000      -0.768444       -20.9104
  38   2.0000      -0.763100       -20.7650
  39   2.0000      -0.754759       -20.5380
  40   2.0000      -0.641695       -17.4614
  41   2.0000      -0.638046       -17.3621
  42   0.0000      -0.222933        -6.0663
  43   0.0000      -0.194684        -5.2976
  44   0.0000      -0.112565        -3.0630
  45   0.0000      -0.047183        -1.2839
  46   0.0000      -0.040692        -1.1073

MULLIKEN ATOMIC CHARGES
-----------------------
   0 C :   -0.386429
   1 C :   -0.111144
   2 C :   -0.253731
   3 C :   -0.170462
   4 C :    0.021123
   5 H :    0.090731
   6 C :   -0.224579
   7 C :    0.172274
   8 H :    0.116529
   9 O :   -0.555065
  10 C :   -0.029105
  11 C :   -0.398059
  12 C :   -0.408034
  13 H :    0.136329
  14 H :    0.133279
  15 H :    0.137779
  16 H :    0.146631
  17 H :    0.132836
  18 H :    0.117477
  19 H :    0.125767
  20 H :    0.124357
  21 H :    0.355023
  22 H :    0.147945
  23 H :    0.156835
  24 H :    0.137790
  25 H :    0.146671
  26 H :    0.137231
Sum of atomic charges:    0.0000000

LOEWDIN ATOMIC CHARGES
----------------------
   0 C :   -0.263797
   1 C :   -0.197014
   2 C :   -0.139438
   3 C :   -0.211093
   4 C :   -0.207492
   5 H :    0.164651
   6 C :   -0.203169
   7 C :   -0.279511
   8 H :    0.147670
   9 O :   -0.076619
  10 C :   -0.208408
  11 C :   -0.220733
  12 C :   -0.257889
  13 H :    0.129648
  14 H :    0.128585
  15 H :    0.128807
  16 H :    0.147168
  17 H :    0.147725
  18 H :    0.150007
  19 H :    0.144168
  20 H :    0.151764
  21 H :    0.184976
  22 H :    0.124306
  23 H :    0.125854
  24 H :    0.130805
  25 H :    0.131350
  26 H :    0.127679

  Mayer bond orders larger than 0.100000
B(  0-C ,  1-C ) :   0.9613 B(  0-C , 13-H ) :   0.9732 B(  0-C , 14-H ) :   0.9598
B(  0-C , 15-H ) :   0.9883 B(  1-C ,  2-C ) :   1.8935 B(  1-C ,  7-C ) :   0.9983
B(  2-C ,  3-C ) :   0.9935 B(  2-C , 16-H ) :   0.9641 B(  3-C ,  4-C ) :   0.9621
B(  3-C , 17-H ) :   0.9647 B(  3-C , 18-H ) :   0.9424 B(  4-C ,  5-H ) :   0.9611
B(  4-C ,  6-C ) :   0.9711 B(  4-C , 10-C ) :   0.9250 B(  6-C ,  7-C ) :   0.9571
B(  6-C , 19-H ) :   0.9748 B(  6-C , 20-H ) :   0.9574 B(  7-C ,  8-H ) :   0.9916
B(  7-C ,  9-O ) :   1.0088 B(  9-O , 21-H ) :   0.8717 B( 10-C , 11-C ) :   1.8995
B( 10-C , 12-C ) :   0.9734 B( 11-C , 22-H ) :   0.9679 B( 11-C , 23-H ) :   0.9707
B( 12-C , 24-H ) :   0.9720 B( 12-C , 25-H ) :   0.9651 B( 12-C , 26-H ) :   0.9793

FINAL SINGLE POINT ENERGY      -465.926650337283

DIPOLE MOMENT
-------------

Method             : SCF
Type of density    : Electron Density
Multiplicity       :   1
Irrep              :   0
Energy             :  -465.9444943674827755 Eh
Relativity type    :
Basis              : AO
                                X                 Y                 Z
Electronic contribution:     -2.530540779      -1.972296498       0.712360361
Nuclear contribution   :      1.766854546       2.669421968      -0.722848763
                        -----------------------------------------
Total Dipole Moment    :     -0.763686233       0.697125470      -0.010488402
                        -----------------------------------------
Magnitude (a.u.)       :      1.034074751
Magnitude (Debye)      :      2.628409134

Rotational constants in cm-1:             0.070932             0.022401             0.019504
Rotational constants in MHz :          2126.500275           671.576356           584.718075

                             ****ORCA TERMINATED NORMALLY****
TOTAL RUN TIME: 0 days 0 hours 5 minutes 35 seconds 813 msec
