                         Program Version 6.0.0  -   RELEASE  -
|  1> ! wb97x-v def2-tzvp def2/J RIJCOSX DEFGRID2 scfconv7 GCP(DFT/TZ) printgap
|  2> %output
|  3>     printlevel normal
|  4> end
|  5> * xyz 0 1
|  6> C -1.7124858992800112 -0.5854607501421295 -0.6420973961065176
|  7> C -1.2080265431599997 0.05732012879087822 0.6427732571713536
|  8> C 0.04800192829402375 0.9210458993934845 0.4239595697187069
|  9> C 1.1701967149894015 0.14054895946685012 -0.0580027916381982
| 10> N 2.0562503012506856 -0.5054778960405746 -0.43310083918620973
| 11> H -2.61810755063449 -1.1686603834429574 -0.451519789227453
| 12> H -1.9508675169667127 0.17441815080283998 -1.3940107974306344
| 13> H -0.9643842659426046 -1.262216016523914 -1.0696990369110453
| 14> H -1.9744580201480346 0.7146242236286303 1.0646934681649667
| 15> H -0.9868701281350984 -0.707996142218513 1.3936759159269156
| 16> H 0.3567365237395159 1.4052550356015026 1.3567251590891527
| 17> H -0.15037374030789497 1.7114353552137438 -0.30926275740828885
| 18> *
| 19>
| 20>                          ****END OF INPUT****

CARTESIAN COORDINATES (ANGSTROEM)
---------------------------------
  C     -1.712486   -0.585461   -0.642097
  C     -1.208027    0.057320    0.642773
  C      0.048002    0.921046    0.423960
  C      1.170197    0.140549   -0.058003
  N      2.056250   -0.505478   -0.433101
  H     -2.618108   -1.168660   -0.451520
  H     -1.950868    0.174418   -1.394011
  H     -0.964384   -1.262216   -1.069699
  H     -1.974458    0.714624    1.064693
  H     -0.986870   -0.707996    1.393676
  H      0.356737    1.405255    1.356725
  H     -0.150374    1.711435   -0.309263

 Total Charge           Charge          ....    0
 Multiplicity           Mult            ....    1
 Number of Electrons    NEL             ....   38
 Basis Dimension        Dim             ....  197

ORBITAL ENERGIES
----------------

  NO   OCC          E(Eh)            E(eV)
   0   2.0000     -16.523922      -449.6388
   1   2.0000     -12.099281      -329.2382
   2   2.0000     -12.085520      -328.8637
   3   2.0000     -12.072995      -328.5229
   4   2.0000     -12.049889      -327.8941
   5   2.0000      -1.516979       -41.2791
   6   2.0000      -1.337777       -36.4028
   7   2.0000      -1.238127       -33.6912
   8   2.0000      -1.111972       -30.2583
   9   2.0000      -0.984721       -26.7956
  10   2.0000      -0.918241       -24.9866
  11   2.0000      -0.902613       -24.5613
  12   2.0000      -0.889223       -24.1970
  13   2.0000      -0.864375       -23.5209
  14   2.0000      -0.831533       -22.6272
  15   2.0000      -0.811238       -22.0749
  16   2.0000      -0.787874       -21.4392
  17   2.0000      -0.782578       -21.2950
  18   2.0000      -0.777386       -21.1538
  19   0.0000      -0.225227        -6.1287
  20   0.0000      -0.213903        -5.8206
  21   0.0000      -0.084312        -2.2942
  22   0.0000      -0.032030        -0.8716
  23   0.0000      -0.013865        -0.3773

MULLIKEN ATOMIC CHARGES
-----------------------
   0 C :   -0.362427
   1 C :   -0.158880
   2 C :   -0.065262
   3 C :   -0.268948
   4 N :   -0.015950
   5 H :    0.120629
   6 H :    0.107066
   7 H :    0.139643
   8 H :    0.108912
   9 H :    0.112096
  10 H :    0.142999
  11 H :    0.140121
Sum of atomic charges:   -0.0000000

LOEWDIN ATOMIC CHARGES
----------------------
   0 C :   -0.299519
   1 C :   -0.268796
   2 C :   -0.239498
   3 C :   -0.201569
   4 N :    0.045007
   5 H :    0.120584
   6 H :    0.118897
   7 H :    0.126474
   8 H :    0.135992
   9 H :    0.139473
  10 H :    0.161350
  11 H :    0.161604

  Mayer bond orders larger than 0.100000
B(  0-C ,  1-C ) :   0.9892 B(  0-C ,  5-H ) :   0.9779 B(  0-C ,  6-H ) :   0.9755
B(  0-C ,  7-H ) :   0.9739 B(  1-C ,  2-C ) :   0.9614 B(  1-C ,  8-H ) :   0.9745
B(  1-C ,  9-H ) :   0.9693 B(  2-C ,  3-C ) :   0.9477 B(  2-C , 10-H ) :   0.9495
B(  2-C , 11-H ) :   0.9615 B(  3-C ,  4-N ) :   3.1493

FINAL SINGLE POINT ENERGY      -211.388656085805

DIPOLE MOMENT
-------------

Method             : SCF
Type of density    : Electron Density
Multiplicity       :   1
Irrep              :   0
Energy             :  -211.3959193142051731 Eh
Relativity type    :
Basis              : AO
                                X                 Y                 Z
Electronic contribution:      6.426995999      -0.030863771      -0.142818664
Nuclear contribution   :     -7.764661475       0.791378221       0.653232844
                        -----------------------------------------
Total Dipole Moment    :     -1.337665476       0.760514450       0.510414180
                        -----------------------------------------
Magnitude (a.u.)       :      1.621189005
Magnitude (Debye)      :      4.120734969

Rotational constants in cm-1:             0.338593             0.108884             0.090512
Rotational constants in MHz :         10150.772522          3264.250211          2713.492959

                             ****ORCA TERMINATED NORMALLY****
TOTAL RUN TIME: 0 days 0 hours 0 minutes 52 seconds 841 msec
