                         Program Version 6.0.0  -   RELEASE  -
|  1> ! wb97x-v def2-tzvp def2/J RIJCOSX DEFGRID2 scfconv7 GCP(DFT/TZ) printgap
|  2> %output
|  3>     printlevel normal
|  4> end
|  5> %cpcm
|  6>     smd true
|  7>     smdsolvent "water"
|  8> end
|  9> * xyz 0 1
| 10> C -1.7124858992800112 -0.5854607501421295 -0.6420973961065176
| 11> C -1.2080265431599997 0.05732012879087822 0.6427732571713536
| 12> C 0.04800192829402375 0.9210458993934845 0.4239595697187069
| 13> C 1.1701967149894015 0.14054895946685012 -0.0580027916381982
| 14> N 2.0562503012506856 -0.5054778960405746 -0.43310083918620973
| 15> H -2.61810755063449 -1.1686603834429574 -0.451519789227453
| 16> H -1.9508675169667127 0.17441815080283998 -1.3940107974306344
| 17> H -0.9643842659426046 -1.262216016523914 -1.0696990369110453
| 18> H -1.9744580201480346 0.7146242236286303 1.0646934681649667
| 19> H -0.9868701281350984 -0.707996142218513 1.3936759159269156
| 20> H 0.3567365237395159 1.4052550356015026 1.3567251590891527
| 21> H -0.15037374030789497 1.7114353552137438 -0.30926275740828885
| 22> *
| 23>
| 24>                          ****END OF INPUT****

CARTESIAN COORDINATES (ANGSTROEM)
---------------------------------
  C     -1.712486   -0.585461   -0.642097
  C     -1.208027    0.057320    0.642773
  C      0.048002    0.921046    0.423960
  C      1.170197    0.140549   -0.058003
  N      2.056250   -0.505478   -0.433101
  H     -2.618108   -1.168660   -0.451520
  H     -1.950868    0.174418   -1.394011
  H     -0.964384   -1.262216   -1.069699
  H     -1.974458    0.714624    1.064693
  H     -0.986870   -0.707996    1.393676
  H      0.356737    1.405255    1.356725
  H     -0.150374    1.711435   -0.309263

 Total Charge           Charge          ....    0
 Multiplicity           Mult            ....    1
 Number of Electrons    NEL             ....   38
 Basis Dimension        Dim             ....  197

ORBITAL ENERGIES
----------------

  NO   OCC          E(Eh)            E(eV)
   0   2.0000     -16.528147      -449.7537
   1   2.0000     -12.096008      -329.1491
   2   2.0000     -12.077830      -328.6545
   3   2.0000     -12.050501      -327.9108
   4   2.0000     -12.030077      -327.3550
   5   2.0000      -1.525512       -41.5113
   6   2.0000      -1.318916       -35.8895
   7   2.0000      -1.220150       -33.2020
   8   2.0000      -1.092670       -29.7331
   9   2.0000      -0.969318       -26.3765
  10   2.0000      -0.904368       -24.6091
  11   2.0000      -0.898121       -24.4391
  12   2.0000      -0.878794       -23.9132
  13   2.0000      -0.845833       -23.0163
  14   2.0000      -0.818660       -22.2769
  15   2.0000      -0.804406       -21.8890
  16   2.0000      -0.781171       -21.2567
  17   2.0000      -0.773320       -21.0431
  18   2.0000      -0.761266       -20.7151
  19   0.0000      -0.226470        -6.1626
  20   0.0000      -0.215491        -5.8638
  21   0.0000      -0.074488        -2.0269
  22   0.0000      -0.009767        -0.2658
  23   0.0000       0.009133         0.2485

MULLIKEN ATOMIC CHARGES
-----------------------
   0 C :   -0.401252
   1 C :   -0.172241
   2 C :   -0.052671
   3 C :   -0.220633
   4 N :   -0.136722
   5 H :    0.134971
   6 H :    0.126680
   7 H :    0.129127
   8 H :    0.127694
   9 H :    0.121992
  10 H :    0.172812
  11 H :    0.170243
Sum of atomic charges:    0.0000000

LOEWDIN ATOMIC CHARGES
----------------------
   0 C :   -0.305638
   1 C :   -0.263729
   2 C :   -0.223838
   3 C :   -0.176419
   4 N :   -0.030760
   5 H :    0.122606
   6 H :    0.122579
   7 H :    0.121691
   8 H :    0.142976
   9 H :    0.141726
  10 H :    0.174164
  11 H :    0.174642

  Mayer bond orders larger than 0.100000
B(  0-C ,  1-C ) :   0.9868 B(  0-C ,  5-H ) :   0.9765 B(  0-C ,  6-H ) :   0.9743
B(  0-C ,  7-H ) :   0.9734 B(  1-C ,  2-C ) :   0.9548 B(  1-C ,  8-H ) :   0.9690
B(  1-C ,  9-H ) :   0.9700 B(  2-C ,  3-C ) :   0.9624 B(  2-C , 10-H ) :   0.9329
B(  2-C , 11-H ) :   0.9453 B(  3-C ,  4-N ) :   3.1399

FINAL SINGLE POINT ENERGY      -211.394730185919

DIPOLE MOMENT
-------------

Method             : SCF
Type of density    : Electron Density
Multiplicity       :   1
Irrep              :   0
Energy             :  -211.4019934143188095 Eh
Relativity type    :
Basis              : AO
                                X                 Y                 Z
Electronic contribution:      6.048167929       0.305628678       0.055926308
Nuclear contribution   :     -7.764661475       0.791378221       0.653232844
                        -----------------------------------------
Total Dipole Moment    :     -1.716493547       1.097006899       0.709159152
                        -----------------------------------------
Magnitude (a.u.)       :      2.157007403
Magnitude (Debye)      :      5.482677102

Rotational constants in cm-1:             0.338593             0.108884             0.090512
Rotational constants in MHz :         10150.772522          3264.250211          2713.492959

                             ****ORCA TERMINATED NORMALLY****
TOTAL RUN TIME: 0 days 0 hours 0 minutes 53 seconds 655 msec
