                         Program Version 6.0.0  -   RELEASE  -
|  1> ! pbe def2-sv(p) def2/J RI DEFGRID1 loosescf d4 GCP(DFT/SV(P)) printgap
|  2> %output
|  3>     printlevel normal
|  4> end
|  5> * xyz 0 1
|  6> C -1.7689166183 -0.9669060537 -0.9023568734
|  7> C -1.2796357263 -0.1962840846 0.3376100553
|  8> H -2.1182426294 -0.1227707442 1.0402635664
|  9> C -0.8017385811 1.2446152678 0.0249224405
| 10> H -1.0531165737 1.5047891379 -1.0111301446
| 11> C 0.7207427288 1.3672173674 0.1498623426
| 12> H 0.9710302636 1.5107942542 1.2117258528
| 13> C 1.3962088899 0.0883377979 -0.3525931961
| 14> H 1.0785199726 -0.0971040304 -1.3883367831
| 15> C 0.9636360697 -1.0956046451 0.52371588
| 16> H 1.6374857692 -1.1479150495 1.3929306152
| 17> O -0.3168420804 -0.9401395337 1.0816779213
| 18> O 1.0645471493 -2.2535738923 -0.2522065726
| 19> O 2.7853694451 0.2881594064 -0.2909406102
| 20> O 1.128347429 2.4763933561 -0.6061875406
| 21> O -1.3667415519 2.1740985558 0.9175117818
| 22> O -2.6601139529 -1.9992277851 -0.5568201971
| 23> H -0.9122422275 -1.3692646717 -1.455766952
| 24> H -2.3345505503 -0.3002926862 -1.554929041
| 25> H 0.994260635 -3.0438031569 0.3040085051
| 26> H 3.2421258747 -0.4521802606 -0.7153028602
| 27> H 2.0979448086 2.5054670777 -0.5988021727
| 28> H -2.2751978313 2.3787995673 0.6553238611
| 29> H -2.2286789722 -2.5897332663 0.0762599667
| 30> *
| 31>
| 32>                          ****END OF INPUT****

CARTESIAN COORDINATES (ANGSTROEM)
---------------------------------
  C     -1.768917   -0.966906   -0.902357
  C     -1.279636   -0.196284    0.337610
  H     -2.118243   -0.122771    1.040264
  C     -0.801739    1.244615    0.024922
  H     -1.053117    1.504789   -1.011130
  C      0.720743    1.367217    0.149862
  H      0.971030    1.510794    1.211726
  C      1.396209    0.088338   -0.352593
  H      1.078520   -0.097104   -1.388337
  C      0.963636   -1.095605    0.523716
  H      1.637486   -1.147915    1.392931
  O     -0.316842   -0.940140    1.081678
  O      1.064547   -2.253574   -0.252207
  O      2.785369    0.288159   -0.290941
  O      1.128347    2.476393   -0.606188
  O     -1.366742    2.174099    0.917512
  O     -2.660114   -1.999228   -0.556820
  H     -0.912242   -1.369265   -1.455767
  H     -2.334551   -0.300293   -1.554929
  H      0.994261   -3.043803    0.304009
  H      3.242126   -0.452180   -0.715303
  H      2.097945    2.505467   -0.598802
  H     -2.275198    2.378800    0.655324
  H     -2.228679   -2.589733    0.076260

 Total Charge           Charge          ....    0
 Multiplicity           Mult            ....    1
 Number of Electrons    NEL             ....   96
 Basis Dimension        Dim             ....  192

ORBITAL ENERGIES
----------------

  NO   OCC          E(Eh)            E(eV)
   0   2.0000     -18.774080      -510.8687
   1   2.0000     -18.769677      -510.7489
   2   2.0000     -18.767551      -510.6910
   3   2.0000     -18.747417      -510.1432
   4   2.0000     -18.742555      -510.0108
   5   2.0000     -18.741973      -509.9950
   6   2.0000      -9.989410      -271.8257
   7   2.0000      -9.946680      -270.6629
   8   2.0000      -9.942744      -270.5558
   9   2.0000      -9.939868      -270.4776
  10   2.0000      -9.939714      -270.4734
  11   2.0000      -9.928488      -270.1679
  12   2.0000      -0.984047       -26.7773
  13   2.0000      -0.947016       -25.7696
  14   2.0000      -0.934194       -25.4207
  15   2.0000      -0.922709       -25.1082
  16   2.0000      -0.912514       -24.8308
  17   2.0000      -0.911746       -24.8099
  18   2.0000      -0.705506       -19.1978
  19   2.0000      -0.691545       -18.8179
  20   2.0000      -0.623581       -16.9685
  21   2.0000      -0.586316       -15.9545
  22   2.0000      -0.565963       -15.4006
  23   2.0000      -0.518972       -14.1220
  24   2.0000      -0.506527       -13.7833
  25   2.0000      -0.489241       -13.3129
  26   2.0000      -0.479777       -13.0554
  27   2.0000      -0.462947       -12.5974
  28   2.0000      -0.446423       -12.1478
  29   2.0000      -0.434744       -11.8300
  30   2.0000      -0.402629       -10.9561
  31   2.0000      -0.399573       -10.8729
  32   2.0000      -0.388055       -10.5595
  33   2.0000      -0.372713       -10.1420
  34   2.0000      -0.367296        -9.9946
  35   2.0000      -0.350462        -9.5366
  36   2.0000      -0.333444        -9.0735
  37   2.0000      -0.312740        -8.5101
  38   2.0000      -0.294958        -8.0262
  39   2.0000      -0.286849        -7.8056
  40   2.0000      -0.286034        -7.7834
  41   2.0000      -0.269864        -7.3434
  42   2.0000      -0.257157        -6.9976
  43   2.0000      -0.244865        -6.6631
  44   2.0000      -0.233698        -6.3593
  45   2.0000      -0.227651        -6.1947
  46   2.0000      -0.214171        -5.8279
  47   2.0000      -0.196243        -5.3400
  48   0.0000       0.010248         0.2789
  49   0.0000       0.022168         0.6032
  50   0.0000       0.027887         0.7588
  51   0.0000       0.049478         1.3464
  52   0.0000       0.052659         1.4329

MULLIKEN ATOMIC CHARGES
-----------------------
   0 C :    0.029826
   1 C :    0.013915
   2 H :    0.063765
   3 C :    0.056928
   4 H :    0.066316
   5 C :    0.077969
   6 H :    0.068763
   7 C :   -0.010646
   8 H :    0.067644
   9 C :    0.198600
  10 H :    0.063291
  11 O :   -0.317107
  12 O :   -0.396532
  13 O :   -0.420067
  14 O :   -0.413673
  15 O :   -0.405696
  16 O :   -0.436930
  17 H :    0.101323
  18 H :    0.081772
  19 H :    0.302304
  20 H :    0.310826
  21 H :    0.303442
  22 H :    0.302068
  23 H :    0.291900
Sum of atomic charges:    0.0000000

LOEWDIN ATOMIC CHARGES
----------------------
   0 C :   -0.143258
   1 C :   -0.077398
   2 H :    0.118405
   3 C :   -0.062603
   4 H :    0.109006
   5 C :   -0.058018
   6 H :    0.113422
   7 C :   -0.091283
   8 H :    0.108163
   9 C :   -0.014754
  10 H :    0.100893
  11 O :   -0.150444
  12 O :   -0.315237
  13 O :   -0.315953
  14 O :   -0.315735
  15 O :   -0.313107
  16 O :   -0.338830
  17 H :    0.104916
  18 H :    0.111900
  19 H :    0.285701
  20 H :    0.293651
  21 H :    0.284216
  22 H :    0.287511
  23 H :    0.278838

  Mayer bond orders larger than 0.100000
B(  0-C ,  1-C ) :   1.0252 B(  0-C , 16-O ) :   1.0571 B(  0-C , 17-H ) :   0.8952
B(  0-C , 18-H ) :   0.9174 B(  1-C ,  2-H ) :   0.8890 B(  1-C ,  3-C ) :   0.9621
B(  1-C , 11-O ) :   1.0102 B(  3-C ,  4-H ) :   0.8907 B(  3-C ,  5-C ) :   1.0191
B(  3-C , 15-O ) :   1.0960 B(  5-C ,  6-H ) :   0.8654 B(  5-C ,  7-C ) :   1.0165
B(  5-C , 14-O ) :   1.0983 B(  7-C ,  8-H ) :   0.8793 B(  7-C ,  9-C ) :   0.9784
B(  7-C , 13-O ) :   1.0682 B(  9-C , 10-H ) :   0.8871 B(  9-C , 11-O ) :   1.0596
B(  9-C , 12-O ) :   1.1155 B( 12-O , 19-H ) :   0.8414 B( 13-O , 20-H ) :   0.8425
B( 14-O , 21-H ) :   0.8356 B( 15-O , 22-H ) :   0.8492 B( 16-O , 23-H ) :   0.8490

Dispersion correction           -0.024375604
FINAL SINGLE POINT ENERGY      -685.688950668345

DIPOLE MOMENT
-------------

Method             : SCF
Type of density    : Electron Density
Multiplicity       :   1
Irrep              :   0
Energy             :  -685.8179847797413231 Eh
Relativity type    :
Basis              : AO
                                X                 Y                 Z
Electronic contribution:      1.413382739       0.299620111       1.852522787
Nuclear contribution   :     -0.835572890      -1.151349837      -1.913049258
                        -----------------------------------------
Total Dipole Moment    :      0.577809849      -0.851729726      -0.060526471
                        -----------------------------------------
Magnitude (a.u.)       :      1.031004948
Magnitude (Debye)      :      2.620606314

Rotational constants in cm-1:             0.037746             0.028319             0.018805
Rotational constants in MHz :          1131.603068           848.975352           563.747608

                             ****ORCA TERMINATED NORMALLY****
TOTAL RUN TIME: 0 days 0 hours 0 minutes 11 seconds 851 msec
