                         Program Version 6.0.0  -   RELEASE  -
|  1> ! pbe def2-sv(p) def2/J RI DEFGRID1 loosescf d4 GCP(DFT/SV(P)) printgap
|  2> %output
|  3>     printlevel normal
|  4> end
|  5> * xyz 0 1
|  6> C -1.3683795923 -0.0018570472 0.3894680279
|  7> C -0.7669338052 1.2553863371 -0.2388017634
|  8> C 0.7809583047 1.1962659796 -0.1929139658
|  9> N 1.3079650349 0.002253121 0.4430217885
| 10> C 0.783595802 -1.2015426067 -0.176741811
| 11> C -0.7637085936 -1.2505814173 -0.2516229909
| 12> H -2.4509532797 -0.0022094312 0.2525831934
| 13> H -1.1763811034 -0.0077286113 1.4655503043
| 14> H -1.1029660972 1.3272675282 -1.2742783213
| 15> H -1.1298639533 2.1375460056 0.2902168025
| 16> H 1.1847796277 1.2143032456 -1.209566104
| 17> H 1.1840334791 2.0588178018 0.3407277802
| 18> H 1.0638389464 0.0093710687 1.4282583292
| 19> H 1.2063571068 -1.2453638969 -1.1849738789
| 20> H 1.1701248957 -2.0548144491 0.383296086
| 21> H -1.0823610251 -1.3000748603 -1.2939117306
| 22> H -1.1406239703 -2.1406743967 0.2536835005
| 23> *
| 24>
| 25>                          ****END OF INPUT****

CARTESIAN COORDINATES (ANGSTROEM)
---------------------------------
  C     -1.368380   -0.001857    0.389468
  C     -0.766934    1.255386   -0.238802
  C      0.780958    1.196266   -0.192914
  N      1.307965    0.002253    0.443022
  C      0.783596   -1.201543   -0.176742
  C     -0.763709   -1.250581   -0.251623
  H     -2.450953   -0.002209    0.252583
  H     -1.176381   -0.007729    1.465550
  H     -1.102966    1.327268   -1.274278
  H     -1.129864    2.137546    0.290217
  H      1.184780    1.214303   -1.209566
  H      1.184033    2.058818    0.340728
  H      1.063839    0.009371    1.428258
  H      1.206357   -1.245364   -1.184974
  H      1.170125   -2.054814    0.383296
  H     -1.082361   -1.300075   -1.293912
  H     -1.140624   -2.140674    0.253684

 Total Charge           Charge          ....    0
 Multiplicity           Mult            ....    1
 Number of Electrons    NEL             ....   48
 Basis Dimension        Dim             ....  106

ORBITAL ENERGIES
----------------

  NO   OCC          E(Eh)            E(eV)
   0   2.0000     -13.962733      -379.9453
   1   2.0000      -9.901688      -269.4386
   2   2.0000      -9.901664      -269.4380
   3   2.0000      -9.884742      -268.9775
   4   2.0000      -9.878707      -268.8133
   5   2.0000      -9.878674      -268.8124
   6   2.0000      -0.823228       -22.4012
   7   2.0000      -0.699880       -19.0447
   8   2.0000      -0.666599       -18.1391
   9   2.0000      -0.571600       -15.5540
  10   2.0000      -0.552580       -15.0365
  11   2.0000      -0.483781       -13.1644
  12   2.0000      -0.451588       -12.2883
  13   2.0000      -0.421220       -11.4620
  14   2.0000      -0.400494       -10.8980
  15   2.0000      -0.375414       -10.2155
  16   2.0000      -0.351037        -9.5522
  17   2.0000      -0.333564        -9.0767
  18   2.0000      -0.326972        -8.8974
  19   2.0000      -0.310517        -8.4496
  20   2.0000      -0.300832        -8.1861
  21   2.0000      -0.269656        -7.3377
  22   2.0000      -0.267487        -7.2787
  23   2.0000      -0.169814        -4.6209
  24   0.0000       0.022514         0.6126
  25   0.0000       0.046793         1.2733
  26   0.0000       0.073381         1.9968
  27   0.0000       0.079863         2.1732
  28   0.0000       0.084578         2.3015

MULLIKEN ATOMIC CHARGES
-----------------------
   0 C :   -0.188821
   1 C :   -0.168033
   2 C :   -0.073423
   3 N :   -0.325982
   4 C :   -0.072691
   5 C :   -0.169143
   6 H :    0.088807
   7 H :    0.074633
   8 H :    0.076012
   9 H :    0.082148
  10 H :    0.076534
  11 H :    0.085551
  12 H :    0.193856
  13 H :    0.076786
  14 H :    0.085231
  15 H :    0.076064
  16 H :    0.082473
Sum of atomic charges:    0.0000000

LOEWDIN ATOMIC CHARGES
----------------------
   0 C :   -0.231206
   1 C :   -0.253499
   2 C :   -0.173267
   3 N :   -0.254318
   4 C :   -0.173163
   5 C :   -0.253517
   6 H :    0.119334
   7 H :    0.107211
   8 H :    0.114854
   9 H :    0.116279
  10 H :    0.110653
  11 H :    0.112711
  12 H :    0.203548
  13 H :    0.110534
  14 H :    0.112639
  15 H :    0.114659
  16 H :    0.116547

  Mayer bond orders larger than 0.100000
B(  0-C ,  1-C ) :   1.1490 B(  0-C ,  5-C ) :   1.1481 B(  0-C ,  6-H ) :   0.9208
B(  0-C ,  7-H ) :   0.9148 B(  1-C ,  2-C ) :   1.0693 B(  1-C ,  8-H ) :   0.9187
B(  1-C ,  9-H ) :   0.9212 B(  2-C ,  3-N ) :   1.1440 B(  2-C , 10-H ) :   0.9270
B(  2-C , 11-H ) :   0.9382 B(  3-N ,  4-C ) :   1.1432 B(  3-N , 12-H ) :   0.8757
B(  4-C ,  5-C ) :   1.0674 B(  4-C , 13-H ) :   0.9279 B(  4-C , 14-H ) :   0.9380
B(  5-C , 15-H ) :   0.9192 B(  5-C , 16-H ) :   0.9212

Dispersion correction           -0.013920524
FINAL SINGLE POINT ENERGY      -251.273290107606

DIPOLE MOMENT
-------------

Method             : SCF
Type of density    : Electron Density
Multiplicity       :   1
Irrep              :   0
Energy             :  -251.3366643432983665 Eh
Relativity type    :
Basis              : AO
                                X                 Y                 Z
Electronic contribution:      1.740474483       0.003729424       0.664121787
Nuclear contribution   :     -2.126245090      -0.003327536      -0.512079016
                        -----------------------------------------
Total Dipole Moment    :     -0.385770608       0.000401888       0.152042771
                        -----------------------------------------
Magnitude (a.u.)       :      0.414651814
Magnitude (Debye)      :      1.053961153

Rotational constants in cm-1:             0.150196             0.147573             0.088224
Rotational constants in MHz :          4502.751287          4424.131645          2644.885674

                             ****ORCA TERMINATED NORMALLY****
TOTAL RUN TIME: 0 days 0 hours 0 minutes 6 seconds 86 msec
