                         Program Version 6.0.0  -   RELEASE  -
|  1> ! pbe def2-sv(p) def2/J RI DEFGRID1 loosescf d4 GCP(DFT/SV(P)) printgap
|  2> %output
|  3>     printlevel normal
|  4> end
|  5> * xyz 0 1
|  6> C -2.3254371922 -0.8375365055 -0.6143124492
|  7> C -1.0475838705 -0.5627902547 0.1947274603
|  8> H -1.163057071 -0.9592314534 1.2169610841
|  9> C -0.7408930191 0.9535426657 0.3105308235
| 10> H -1.5775311144 1.5149621938 -0.120371477
| 11> C 0.5502368093 1.2775601938 -0.4663251301
| 12> H 0.7964391794 2.3324713656 -0.3021041929
| 13> C 1.7060373186 0.3992587231 0.0723567828
| 14> H 2.5426092672 0.4505186425 -0.6354430974
| 15> C 1.2467707301 -1.0806031278 0.1790987534
| 16> H 1.1659743735 -1.3281149046 1.2507387555
| 17> O 0.0009600196 -1.2624345284 -0.4588786591
| 18> O 2.149695467 -1.9745254196 -0.3570780383
| 19> O 2.1032885099 0.8047887523 1.3632257771
| 20> O 0.3988296653 1.1348547443 -1.8539425648
| 21> O -0.6515829192 1.3727072633 1.6498810218
| 22> O -3.4517910264 -0.1903533481 -0.0900363449
| 23> H -2.4715793956 -1.922742062 -0.6752644301
| 24> H -2.2012191519 -0.4459709191 -1.6262431779
| 25> H 2.0673693049 -1.9883029197 -1.3234279016
| 26> H 2.6875158061 1.5747638316 1.308752848
| 27> H 0.1408307199 0.2194275092 -2.0437208535
| 28> H 0.2250332937 1.1346468475 2.0014224171
| 29> H -3.6539127155 -0.5382694661 0.7900147465
| 30> *
| 31>
| 32>                          ****END OF INPUT****

CARTESIAN COORDINATES (ANGSTROEM)
---------------------------------
  C     -2.325437   -0.837537   -0.614312
  C     -1.047584   -0.562790    0.194727
  H     -1.163057   -0.959231    1.216961
  C     -0.740893    0.953543    0.310531
  H     -1.577531    1.514962   -0.120371
  C      0.550237    1.277560   -0.466325
  H      0.796439    2.332471   -0.302104
  C      1.706037    0.399259    0.072357
  H      2.542609    0.450519   -0.635443
  C      1.246771   -1.080603    0.179099
  H      1.165974   -1.328115    1.250739
  O      0.000960   -1.262435   -0.458879
  O      2.149695   -1.974525   -0.357078
  O      2.103289    0.804789    1.363226
  O      0.398830    1.134855   -1.853943
  O     -0.651583    1.372707    1.649881
  O     -3.451791   -0.190353   -0.090036
  H     -2.471579   -1.922742   -0.675264
  H     -2.201219   -0.445971   -1.626243
  H      2.067369   -1.988303   -1.323428
  H      2.687516    1.574764    1.308753
  H      0.140831    0.219428   -2.043721
  H      0.225033    1.134647    2.001422
  H     -3.653913   -0.538269    0.790015

 Total Charge           Charge          ....    0
 Multiplicity           Mult            ....    1
 Number of Electrons    NEL             ....   96
 Basis Dimension        Dim             ....  192

ORBITAL ENERGIES
----------------

  NO   OCC          E(Eh)            E(eV)
   0   2.0000     -18.790247      -511.3086
   1   2.0000     -18.784083      -511.1409
   2   2.0000     -18.767149      -510.6801
   3   2.0000     -18.757886      -510.4280
   4   2.0000     -18.754348      -510.3318
   5   2.0000     -18.737927      -509.8849
   6   2.0000      -9.997789      -272.0537
   7   2.0000      -9.950847      -270.7763
   8   2.0000      -9.947976      -270.6982
   9   2.0000      -9.944276      -270.5975
  10   2.0000      -9.940851      -270.5043
  11   2.0000      -9.935620      -270.3620
  12   2.0000      -0.998279       -27.1645
  13   2.0000      -0.956982       -26.0408
  14   2.0000      -0.940119       -25.5819
  15   2.0000      -0.933372       -25.3983
  16   2.0000      -0.923384       -25.1266
  17   2.0000      -0.914072       -24.8732
  18   2.0000      -0.699741       -19.0409
  19   2.0000      -0.693289       -18.8653
  20   2.0000      -0.624346       -16.9893
  21   2.0000      -0.593228       -16.1426
  22   2.0000      -0.575025       -15.6472
  23   2.0000      -0.540863       -14.7176
  24   2.0000      -0.506790       -13.7905
  25   2.0000      -0.497885       -13.5482
  26   2.0000      -0.487160       -13.2563
  27   2.0000      -0.463859       -12.6223
  28   2.0000      -0.455267       -12.3884
  29   2.0000      -0.447776       -12.1846
  30   2.0000      -0.407162       -11.0795
  31   2.0000      -0.402706       -10.9582
  32   2.0000      -0.395598       -10.7648
  33   2.0000      -0.379450       -10.3253
  34   2.0000      -0.354750        -9.6532
  35   2.0000      -0.346153        -9.4193
  36   2.0000      -0.339228        -9.2309
  37   2.0000      -0.321876        -8.7587
  38   2.0000      -0.317575        -8.6416
  39   2.0000      -0.312431        -8.5017
  40   2.0000      -0.286083        -7.7847
  41   2.0000      -0.277816        -7.5598
  42   2.0000      -0.263783        -7.1779
  43   2.0000      -0.255748        -6.9593
  44   2.0000      -0.244134        -6.6432
  45   2.0000      -0.230566        -6.2740
  46   2.0000      -0.210919        -5.7394
  47   2.0000      -0.199846        -5.4381
  48   0.0000       0.001416         0.0385
  49   0.0000       0.016746         0.4557
  50   0.0000       0.023141         0.6297
  51   0.0000       0.035793         0.9740
  52   0.0000       0.052775         1.4361

MULLIKEN ATOMIC CHARGES
-----------------------
   0 C :    0.076390
   1 C :   -0.018668
   2 H :    0.055899
   3 C :    0.054318
   4 H :    0.089782
   5 C :    0.036224
   6 H :    0.068403
   7 C :   -0.004611
   8 H :    0.067988
   9 C :    0.210186
  10 H :    0.065822
  11 O :   -0.314444
  12 O :   -0.380823
  13 O :   -0.414569
  14 O :   -0.421783
  15 O :   -0.432518
  16 O :   -0.423034
  17 H :    0.087311
  18 H :    0.078246
  19 H :    0.301685
  20 H :    0.317366
  21 H :    0.300493
  22 H :    0.296313
  23 H :    0.304024
Sum of atomic charges:   -0.0000000

LOEWDIN ATOMIC CHARGES
----------------------
   0 C :   -0.125451
   1 C :   -0.081868
   2 H :    0.102763
   3 C :   -0.077563
   4 H :    0.122441
   5 C :   -0.084062
   6 H :    0.113799
   7 C :   -0.100939
   8 H :    0.108893
   9 C :    0.008306
  10 H :    0.104140
  11 O :   -0.157295
  12 O :   -0.288753
  13 O :   -0.304604
  14 O :   -0.315564
  15 O :   -0.326754
  16 O :   -0.321440
  17 H :    0.102015
  18 H :    0.112369
  19 H :    0.286536
  20 H :    0.297402
  21 H :    0.269620
  22 H :    0.266910
  23 H :    0.289098

  Mayer bond orders larger than 0.100000
B(  0-C ,  1-C ) :   1.0329 B(  0-C , 16-O ) :   1.0745 B(  0-C , 17-H ) :   0.9159
B(  0-C , 18-H ) :   0.9108 B(  1-C ,  2-H ) :   0.8773 B(  1-C ,  3-C ) :   0.9442
B(  1-C , 11-O ) :   0.9688 B(  3-C ,  4-H ) :   0.8923 B(  3-C ,  5-C ) :   0.9897
B(  3-C , 15-O ) :   1.0637 B(  5-C ,  6-H ) :   0.8931 B(  5-C ,  7-C ) :   0.9608
B(  5-C , 14-O ) :   1.0425 B(  7-C ,  8-H ) :   0.8923 B(  7-C ,  9-C ) :   0.9701
B(  7-C , 13-O ) :   1.0288 B(  9-C , 10-H ) :   0.8758 B(  9-C , 11-O ) :   1.0257
B(  9-C , 12-O ) :   1.1452 B( 12-O , 19-H ) :   0.8408 B( 13-O , 20-H ) :   0.8391
B( 13-O , 22-H ) :   0.1068 B( 14-O , 21-H ) :   0.8251 B( 15-O , 22-H ) :   0.8092
B( 16-O , 23-H ) :   0.8484

Dispersion correction           -0.024906901
FINAL SINGLE POINT ENERGY      -685.689268452729

DIPOLE MOMENT
-------------

Method             : SCF
Type of density    : Electron Density
Multiplicity       :   1
Irrep              :   0
Energy             :  -685.8212780605915668 Eh
Relativity type    :
Basis              : AO
                                X                 Y                 Z
Electronic contribution:      1.964126019      -0.369120512       0.159229906
Nuclear contribution   :     -1.344258951       0.039725229      -0.145123185
                        -----------------------------------------
Total Dipole Moment    :      0.619867068      -0.329395283       0.014106721
                        -----------------------------------------
Magnitude (a.u.)       :      0.702093608
Magnitude (Debye)      :      1.784580128

Rotational constants in cm-1:             0.043059             0.024950             0.021352
Rotational constants in MHz :          1290.877337           747.967615           640.118053

                             ****ORCA TERMINATED NORMALLY****
TOTAL RUN TIME: 0 days 0 hours 0 minutes 12 seconds 129 msec
