                         Program Version 6.0.0  -   RELEASE  -
|  1> ! wb97x-v def2-tzvp def2/J RIJCOSX DEFGRID2 scfconv7 GCP(DFT/TZ) printgap
|  2> %output
|  3>     printlevel normal
|  4> end
|  5> * xyz 0 1
|  6> C -3.4100387053836427 0.5371095711506746 0.0020430390851714766
|  7> C -1.9260620609854957 0.5148898799982716 0.33207712657479177
|  8> H -1.764482259902916 0.856756302199311 1.3661040573872785
|  9> C -1.1067556201054298 1.4525172375225572 -0.584360488644302
| 10> C 0.3825922498992379 1.4236860497922292 -0.2549277118352729
| 11> C 0.9435130715800699 0.002373968193186264 -0.383661998829888
| 12> H 0.7722099298382672 -0.3404165660162039 -1.4127173607830175
| 13> C 0.15326211044439694 -0.9487124328027124 0.5542346374537187
| 14> C -1.3206672711019969 -0.8675657957071816 0.2624222026102516
| 15> O -1.9734151576610686 -1.8618309991583204 -0.04427608289396389
| 16> C 2.4278154331713213 -0.09224816555440074 -0.10999191660212275
| 17> C 3.2394315644195197 -0.7085752271539477 -0.9752677811536288
| 18> C 2.943099280978447 0.519399421154753 1.1607195459688053
| 19> H -3.7997291417134624 1.5542393659551674 0.10432737657109227
| 20> H -3.5853145128895396 0.206406410929304 -1.0269040480397362
| 21> H -3.97918293619347 -0.11616390445449701 0.6694359252642197
| 22> H -1.2642150951410416 1.1472983443219766 -1.6276434631866927
| 23> H -1.502855276345312 2.4683893508801873 -0.4807613395409528
| 24> H 0.9279033625881474 2.0951730312696615 -0.9281732420352797
| 25> H 0.5362046655133587 1.789255964907136 0.7679940970165031
| 26> H 0.4918533576994315 -1.9818070969647323 0.44013295437916156
| 27> H 0.308027277049343 -0.6343548624697901 1.5947256402981038
| 28> H 4.305928493521607 -0.7989339975104676 -0.7847672456457739
| 29> H 2.8577036208121176 -1.1390513146128411 -1.8979389310862917
| 30> H 3.9986960336241446 0.2798007131334914 1.309996623729249
| 31> H 2.84016779479209 1.6106560849308131 1.1391919054963457
| 32> H 2.381004725532875 0.16913382854736464 2.0342185678755897
| 33> *
| 34>
| 35>                          ****END OF INPUT****

CARTESIAN COORDINATES (ANGSTROEM)
---------------------------------
  C     -3.410039    0.537110    0.002043
  C     -1.926062    0.514890    0.332077
  H     -1.764482    0.856756    1.366104
  C     -1.106756    1.452517   -0.584360
  C      0.382592    1.423686   -0.254928
  C      0.943513    0.002374   -0.383662
  H      0.772210   -0.340417   -1.412717
  C      0.153262   -0.948712    0.554235
  C     -1.320667   -0.867566    0.262422
  O     -1.973415   -1.861831   -0.044276
  C      2.427815   -0.092248   -0.109992
  C      3.239432   -0.708575   -0.975268
  C      2.943099    0.519399    1.160720
  H     -3.799729    1.554239    0.104327
  H     -3.585315    0.206406   -1.026904
  H     -3.979183   -0.116164    0.669436
  H     -1.264215    1.147298   -1.627643
  H     -1.502855    2.468389   -0.480761
  H      0.927903    2.095173   -0.928173
  H      0.536205    1.789256    0.767994
  H      0.491853   -1.981807    0.440133
  H      0.308027   -0.634355    1.594726
  H      4.305928   -0.798934   -0.784767
  H      2.857704   -1.139051   -1.897939
  H      3.998696    0.279801    1.309997
  H      2.840168    1.610656    1.139192
  H      2.381005    0.169134    2.034219

 Total Charge           Charge          ....    0
 Multiplicity           Mult            ....    1
 Number of Electrons    NEL             ....   84
 Basis Dimension        Dim             ....  437

ORBITAL ENERGIES
----------------

  NO   OCC          E(Eh)            E(eV)
   0   2.0000     -21.657410      -589.3281
   1   2.0000     -12.131670      -330.1195
   2   2.0000     -12.067304      -328.3680
   3   2.0000     -12.063775      -328.2720
   4   2.0000     -12.061790      -328.2180
   5   2.0000     -12.057593      -328.1038
   6   2.0000     -12.054620      -328.0229
   7   2.0000     -12.054316      -328.0146
   8   2.0000     -12.048653      -327.8605
   9   2.0000     -12.037803      -327.5653
  10   2.0000     -12.035609      -327.5056
  11   2.0000      -1.698949       -46.2307
  12   2.0000      -1.369337       -37.2615
  13   2.0000      -1.328832       -36.1594
  14   2.0000      -1.276193       -34.7270
  15   2.0000      -1.255378       -34.1606
  16   2.0000      -1.195609       -32.5342
  17   2.0000      -1.181527       -32.1510
  18   2.0000      -1.113569       -30.3017
  19   2.0000      -1.099933       -29.9307
  20   2.0000      -1.053968       -28.6799
  21   2.0000      -0.999581       -27.2000
  22   2.0000      -0.963440       -26.2165
  23   2.0000      -0.960526       -26.1372
  24   2.0000      -0.918852       -25.0032
  25   2.0000      -0.912756       -24.8374
  26   2.0000      -0.901383       -24.5279
  27   2.0000      -0.892328       -24.2815
  28   2.0000      -0.874780       -23.8040
  29   2.0000      -0.853522       -23.2255
  30   2.0000      -0.849841       -23.1254
  31   2.0000      -0.844191       -22.9716
  32   2.0000      -0.835006       -22.7217
  33   2.0000      -0.819624       -22.3031
  34   2.0000      -0.812332       -22.1047
  35   2.0000      -0.806535       -21.9469
  36   2.0000      -0.805730       -21.9250
  37   2.0000      -0.785753       -21.3814
  38   2.0000      -0.773894       -21.0587
  39   2.0000      -0.763895       -20.7866
  40   2.0000      -0.758765       -20.6470
  41   2.0000      -0.651219       -17.7206
  42   0.0000      -0.312503        -8.5036
  43   0.0000      -0.207614        -5.6495
  44   0.0000      -0.059467        -1.6182
  45   0.0000      -0.057260        -1.5581
  46   0.0000      -0.054408        -1.4805

MULLIKEN ATOMIC CHARGES
-----------------------
   0 C :   -0.332160
   1 C :   -0.009779
   2 H :    0.082792
   3 C :   -0.216301
   4 C :   -0.228905
   5 C :   -0.005777
   6 H :    0.088407
   7 C :   -0.178448
   8 C :    0.113423
   9 O :   -0.303277
  10 C :    0.040647
  11 C :   -0.282406
  12 C :   -0.389878
  13 H :    0.109873
  14 H :    0.115299
  15 H :    0.125778
  16 H :    0.110565
  17 H :    0.109128
  18 H :    0.116765
  19 H :    0.105139
  20 H :    0.121729
  21 H :    0.108373
  22 H :    0.110584
  23 H :    0.116273
  24 H :    0.120031
  25 H :    0.132545
  26 H :    0.119581
Sum of atomic charges:    0.0000000

LOEWDIN ATOMIC CHARGES
----------------------
   0 C :   -0.270814
   1 C :   -0.247520
   2 H :    0.162319
   3 C :   -0.220350
   4 C :   -0.226399
   5 C :   -0.205934
   6 H :    0.161839
   7 C :   -0.177003
   8 C :   -0.285669
   9 O :    0.112613
  10 C :   -0.206876
  11 C :   -0.186867
  12 C :   -0.253563
  13 H :    0.118643
  14 H :    0.125516
  15 H :    0.125397
  16 H :    0.141478
  17 H :    0.137405
  18 H :    0.140846
  19 H :    0.138690
  20 H :    0.149048
  21 H :    0.148112
  22 H :    0.119617
  23 H :    0.121598
  24 H :    0.126897
  25 H :    0.127386
  26 H :    0.123592

  Mayer bond orders larger than 0.100000
B(  0-C ,  1-C ) :   0.9843 B(  0-C , 13-H ) :   0.9850 B(  0-C , 14-H ) :   0.9694
B(  0-C , 15-H ) :   0.9793 B(  1-C ,  2-H ) :   0.9438 B(  1-C ,  3-C ) :   0.9494
B(  1-C ,  8-C ) :   0.9306 B(  3-C ,  4-C ) :   0.9888 B(  3-C , 16-H ) :   0.9708
B(  3-C , 17-H ) :   0.9724 B(  4-C ,  5-C ) :   0.9653 B(  4-C , 18-H ) :   0.9679
B(  4-C , 19-H ) :   0.9677 B(  5-C ,  6-H ) :   0.9755 B(  5-C ,  7-C ) :   0.9482
B(  5-C , 10-C ) :   0.9097 B(  7-C ,  8-C ) :   1.0024 B(  7-C , 20-H ) :   0.9527
B(  7-C , 21-H ) :   0.9549 B(  8-C ,  9-O ) :   2.1836 B( 10-C , 11-C ) :   1.9263
B( 10-C , 12-C ) :   0.9476 B( 11-C , 22-H ) :   0.9654 B( 11-C , 23-H ) :   0.9697
B( 12-C , 24-H ) :   0.9816 B( 12-C , 25-H ) :   0.9743 B( 12-C , 26-H ) :   0.9761

FINAL SINGLE POINT ENERGY      -465.944586126698

DIPOLE MOMENT
-------------

Method             : SCF
Type of density    : Electron Density
Multiplicity       :   1
Irrep              :   0
Energy             :  -465.9625828145976811 Eh
Relativity type    :
Basis              : AO
                                X                 Y                 Z
Electronic contribution:     -2.668607115      -5.613226216      -0.795398622
Nuclear contribution   :      3.284837156       6.749987226       1.128168025
                        -----------------------------------------
Total Dipole Moment    :      0.616230041       1.136761010       0.332769403
                        -----------------------------------------
Magnitude (a.u.)       :      1.335178091
Magnitude (Debye)      :      3.393753001

Rotational constants in cm-1:             0.072416             0.021908             0.019290
Rotational constants in MHz :          2170.981787           656.797861           578.294016

                             ****ORCA TERMINATED NORMALLY****
TOTAL RUN TIME: 0 days 0 hours 7 minutes 0 seconds 568 msec
