                         Program Version 6.0.0  -   RELEASE  -
|  1> ! wb97x-v def2-tzvp def2/J RIJCOSX DEFGRID2 scfconv7 GCP(DFT/TZ) printgap
|  2> %output
|  3>     printlevel normal
|  4> end
|  5> %cpcm
|  6>     smd true
|  7>     smdsolvent "water"
|  8> end
|  9> * xyz 0 1
| 10> C -3.4100387053836427 0.5371095711506746 0.0020430390851714766
| 11> C -1.9260620609854957 0.5148898799982716 0.33207712657479177
| 12> H -1.764482259902916 0.856756302199311 1.3661040573872785
| 13> C -1.1067556201054298 1.4525172375225572 -0.584360488644302
| 14> C 0.3825922498992379 1.4236860497922292 -0.2549277118352729
| 15> C 0.9435130715800699 0.002373968193186264 -0.383661998829888
| 16> H 0.7722099298382672 -0.3404165660162039 -1.4127173607830175
| 17> C 0.15326211044439694 -0.9487124328027124 0.5542346374537187
| 18> C -1.3206672711019969 -0.8675657957071816 0.2624222026102516
| 19> O -1.9734151576610686 -1.8618309991583204 -0.04427608289396389
| 20> C 2.4278154331713213 -0.09224816555440074 -0.10999191660212275
| 21> C 3.2394315644195197 -0.7085752271539477 -0.9752677811536288
| 22> C 2.943099280978447 0.519399421154753 1.1607195459688053
| 23> H -3.7997291417134624 1.5542393659551674 0.10432737657109227
| 24> H -3.5853145128895396 0.206406410929304 -1.0269040480397362
| 25> H -3.97918293619347 -0.11616390445449701 0.6694359252642197
| 26> H -1.2642150951410416 1.1472983443219766 -1.6276434631866927
| 27> H -1.502855276345312 2.4683893508801873 -0.4807613395409528
| 28> H 0.9279033625881474 2.0951730312696615 -0.9281732420352797
| 29> H 0.5362046655133587 1.789255964907136 0.7679940970165031
| 30> H 0.4918533576994315 -1.9818070969647323 0.44013295437916156
| 31> H 0.308027277049343 -0.6343548624697901 1.5947256402981038
| 32> H 4.305928493521607 -0.7989339975104676 -0.7847672456457739
| 33> H 2.8577036208121176 -1.1390513146128411 -1.8979389310862917
| 34> H 3.9986960336241446 0.2798007131334914 1.309996623729249
| 35> H 2.84016779479209 1.6106560849308131 1.1391919054963457
| 36> H 2.381004725532875 0.16913382854736464 2.0342185678755897
| 37> *
| 38>
| 39>                          ****END OF INPUT****

CARTESIAN COORDINATES (ANGSTROEM)
---------------------------------
  C     -3.410039    0.537110    0.002043
  C     -1.926062    0.514890    0.332077
  H     -1.764482    0.856756    1.366104
  C     -1.106756    1.452517   -0.584360
  C      0.382592    1.423686   -0.254928
  C      0.943513    0.002374   -0.383662
  H      0.772210   -0.340417   -1.412717
  C      0.153262   -0.948712    0.554235
  C     -1.320667   -0.867566    0.262422
  O     -1.973415   -1.861831   -0.044276
  C      2.427815   -0.092248   -0.109992
  C      3.239432   -0.708575   -0.975268
  C      2.943099    0.519399    1.160720
  H     -3.799729    1.554239    0.104327
  H     -3.585315    0.206406   -1.026904
  H     -3.979183   -0.116164    0.669436
  H     -1.264215    1.147298   -1.627643
  H     -1.502855    2.468389   -0.480761
  H      0.927903    2.095173   -0.928173
  H      0.536205    1.789256    0.767994
  H      0.491853   -1.981807    0.440133
  H      0.308027   -0.634355    1.594726
  H      4.305928   -0.798934   -0.784767
  H      2.857704   -1.139051   -1.897939
  H      3.998696    0.279801    1.309997
  H      2.840168    1.610656    1.139192
  H      2.381005    0.169134    2.034219

 Total Charge           Charge          ....    0
 Multiplicity           Mult            ....    1
 Number of Electrons    NEL             ....   84
 Basis Dimension        Dim             ....  437

ORBITAL ENERGIES
----------------

  NO   OCC          E(Eh)            E(eV)
   0   2.0000     -21.668383      -589.6267
   1   2.0000     -12.139423      -330.3305
   2   2.0000     -12.055753      -328.0537
   3   2.0000     -12.053525      -327.9931
   4   2.0000     -12.051425      -327.9360
   5   2.0000     -12.044829      -327.7565
   6   2.0000     -12.041216      -327.6582
   7   2.0000     -12.036135      -327.5199
   8   2.0000     -12.031444      -327.3922
   9   2.0000     -12.028294      -327.3065
  10   2.0000     -12.027121      -327.2746
  11   2.0000      -1.713478       -46.6261
  12   2.0000      -1.357575       -36.9415
  13   2.0000      -1.318799       -35.8863
  14   2.0000      -1.266165       -34.4541
  15   2.0000      -1.244449       -33.8632
  16   2.0000      -1.182007       -32.1641
  17   2.0000      -1.173312       -31.9274
  18   2.0000      -1.109118       -30.1806
  19   2.0000      -1.093957       -29.7681
  20   2.0000      -1.054792       -28.7024
  21   2.0000      -0.987252       -26.8645
  22   2.0000      -0.964491       -26.2451
  23   2.0000      -0.956170       -26.0187
  24   2.0000      -0.918180       -24.9849
  25   2.0000      -0.901462       -24.5300
  26   2.0000      -0.899901       -24.4875
  27   2.0000      -0.879103       -23.9216
  28   2.0000      -0.863683       -23.5020
  29   2.0000      -0.844737       -22.9865
  30   2.0000      -0.843199       -22.9446
  31   2.0000      -0.832143       -22.6438
  32   2.0000      -0.822449       -22.3800
  33   2.0000      -0.809126       -22.0174
  34   2.0000      -0.798726       -21.7344
  35   2.0000      -0.796044       -21.6615
  36   2.0000      -0.794578       -21.6216
  37   2.0000      -0.773415       -21.0457
  38   2.0000      -0.761505       -20.7216
  39   2.0000      -0.754528       -20.5317
  40   2.0000      -0.745346       -20.2819
  41   2.0000      -0.642943       -17.4954
  42   0.0000      -0.310655        -8.4534
  43   0.0000      -0.199674        -5.4334
  44   0.0000      -0.053774        -1.4633
  45   0.0000      -0.045013        -1.2249
  46   0.0000      -0.042172        -1.1476

MULLIKEN ATOMIC CHARGES
-----------------------
   0 C :   -0.413017
   1 C :    0.012250
   2 H :    0.115487
   3 C :   -0.230014
   4 C :   -0.243357
   5 C :    0.027618
   6 H :    0.104148
   7 C :   -0.205386
   8 C :    0.197702
   9 O :   -0.447448
  10 C :   -0.009276
  11 C :   -0.377874
  12 C :   -0.426322
  13 H :    0.136746
  14 H :    0.127636
  15 H :    0.134880
  16 H :    0.119135
  17 H :    0.126609
  18 H :    0.123661
  19 H :    0.124258
  20 H :    0.121246
  21 H :    0.147687
  22 H :    0.149002
  23 H :    0.150634
  24 H :    0.138834
  25 H :    0.150645
  26 H :    0.144516
Sum of atomic charges:    0.0000000

LOEWDIN ATOMIC CHARGES
----------------------
   0 C :   -0.280899
   1 C :   -0.239784
   2 H :    0.175822
   3 C :   -0.216431
   4 C :   -0.222906
   5 C :   -0.201941
   6 H :    0.166269
   7 C :   -0.173375
   8 C :   -0.262861
   9 O :    0.032214
  10 C :   -0.209795
  11 C :   -0.212467
  12 C :   -0.256110
  13 H :    0.125927
  14 H :    0.124288
  15 H :    0.123047
  16 H :    0.144290
  17 H :    0.142548
  18 H :    0.142984
  19 H :    0.145269
  20 H :    0.146932
  21 H :    0.163100
  22 H :    0.124561
  23 H :    0.126149
  24 H :    0.129222
  25 H :    0.132859
  26 H :    0.131087

  Mayer bond orders larger than 0.100000
B(  0-C ,  1-C ) :   0.9474 B(  0-C , 13-H ) :   0.9823 B(  0-C , 14-H ) :   0.9708
B(  0-C , 15-H ) :   0.9824 B(  1-C ,  2-H ) :   0.9319 B(  1-C ,  3-C ) :   0.9473
B(  1-C ,  8-C ) :   0.9536 B(  3-C ,  4-C ) :   0.9971 B(  3-C , 16-H ) :   0.9669
B(  3-C , 17-H ) :   0.9671 B(  4-C ,  5-C ) :   0.9753 B(  4-C , 18-H ) :   0.9635
B(  4-C , 19-H ) :   0.9635 B(  5-C ,  6-H ) :   0.9766 B(  5-C ,  7-C ) :   0.9408
B(  5-C , 10-C ) :   0.8933 B(  7-C ,  8-C ) :   1.0299 B(  7-C , 20-H ) :   0.9551
B(  7-C , 21-H ) :   0.9377 B(  8-C ,  9-O ) :   2.0184 B( 10-C , 11-C ) :   1.9112
B( 10-C , 12-C ) :   0.9621 B( 11-C , 22-H ) :   0.9676 B( 11-C , 23-H ) :   0.9672
B( 12-C , 24-H ) :   0.9788 B( 12-C , 25-H ) :   0.9666 B( 12-C , 26-H ) :   0.9691

FINAL SINGLE POINT ENERGY      -465.952465282001

DIPOLE MOMENT
-------------

Method             : SCF
Type of density    : Electron Density
Multiplicity       :   1
Irrep              :   0
Energy             :  -465.9704619699013506 Eh
Relativity type    :
Basis              : AO
                                X                 Y                 Z
Electronic contribution:     -2.453062487      -5.017495663      -0.526177657
Nuclear contribution   :      3.284837156       6.749987226       1.128168025
                        -----------------------------------------
Total Dipole Moment    :      0.831774669       1.732491563       0.601990369
                        -----------------------------------------
Magnitude (a.u.)       :      2.013893870
Magnitude (Debye)      :      5.118911411

Rotational constants in cm-1:             0.072416             0.021908             0.019290
Rotational constants in MHz :          2170.981787           656.797861           578.294016

                             ****ORCA TERMINATED NORMALLY****
TOTAL RUN TIME: 0 days 0 hours 6 minutes 40 seconds 796 msec
