                         Program Version 6.0.0  -   RELEASE  -
|  1> ! pbe def2-sv(p) def2/J RI DEFGRID1 loosescf d4 GCP(DFT/SV(P)) printgap
|  2> %output
|  3>     printlevel normal
|  4> end
|  5> * xyz 0 1
|  6> C -2.2129995508 -1.2165694103 0.084839989
|  7> C -0.8605619015 -0.5782607952 0.4208150026
|  8> H -0.8275511384 -0.3393769969 1.4942390204
|  9> C -0.6248790545 0.7139675136 -0.3675264402
| 10> H -0.7049703903 0.4725777122 -1.4425999557
| 11> C 0.79147971 1.2694757813 -0.0960930927
| 12> H 0.6913301724 2.0768462663 0.6409686845
| 13> C 1.730779006 0.2092730706 0.5038336551
| 14> H 2.757071923 0.4977961173 0.2342076561
| 15> C 1.4283609092 -1.1444319557 -0.1544354675
| 16> H 2.0626246955 -1.9440452448 0.2521425054
| 17> O 0.1111705742 -1.5743057205 0.1176502932
| 18> O 1.6922181867 -1.1091336212 -1.5222929382
| 19> O 1.5548160432 0.1863207002 1.8947133055
| 20> O 1.3948437899 1.7287206018 -1.2844189098
| 21> O -1.5438397286 1.7247178489 -0.035136681
| 22> O -3.2513599414 -0.3722439946 0.5270914485
| 23> H -2.246417547 -2.1911523725 0.5828028042
| 24> H -2.2661807848 -1.374733684 -1.0000175275
| 25> H 1.5615579852 -0.2095291079 -1.8735823769
| 26> H 2.2220295497 -0.3832509112 2.3044735972
| 27> H 0.9257100119 2.5137620049 -1.602313499
| 28> H -2.4076724474 1.3165105396 0.1526777205
| 29> H -4.1036084922 -0.8105417724 0.392535397
| 30> *
| 31>
| 32>                          ****END OF INPUT****

CARTESIAN COORDINATES (ANGSTROEM)
---------------------------------
  C     -2.213000   -1.216569    0.084840
  C     -0.860562   -0.578261    0.420815
  H     -0.827551   -0.339377    1.494239
  C     -0.624879    0.713968   -0.367526
  H     -0.704970    0.472578   -1.442600
  C      0.791480    1.269476   -0.096093
  H      0.691330    2.076846    0.640969
  C      1.730779    0.209273    0.503834
  H      2.757072    0.497796    0.234208
  C      1.428361   -1.144432   -0.154435
  H      2.062625   -1.944045    0.252143
  O      0.111171   -1.574306    0.117650
  O      1.692218   -1.109134   -1.522293
  O      1.554816    0.186321    1.894713
  O      1.394844    1.728721   -1.284419
  O     -1.543840    1.724718   -0.035137
  O     -3.251360   -0.372244    0.527091
  H     -2.246418   -2.191152    0.582803
  H     -2.266181   -1.374734   -1.000018
  H      1.561558   -0.209529   -1.873582
  H      2.222030   -0.383251    2.304474
  H      0.925710    2.513762   -1.602313
  H     -2.407672    1.316511    0.152678
  H     -4.103608   -0.810542    0.392535

 Total Charge           Charge          ....    0
 Multiplicity           Mult            ....    1
 Number of Electrons    NEL             ....   96
 Basis Dimension        Dim             ....  192

ORBITAL ENERGIES
----------------

  NO   OCC          E(Eh)            E(eV)
   0   2.0000     -18.776684      -510.9395
   1   2.0000     -18.769549      -510.7454
   2   2.0000     -18.761564      -510.5281
   3   2.0000     -18.756310      -510.3851
   4   2.0000     -18.739955      -509.9401
   5   2.0000     -18.734972      -509.8045
   6   2.0000      -9.976032      -271.4616
   7   2.0000      -9.945669      -270.6354
   8   2.0000      -9.944334      -270.5991
   9   2.0000      -9.939907      -270.4786
  10   2.0000      -9.937366      -270.4095
  11   2.0000      -9.935850      -270.3682
  12   2.0000      -0.969504       -26.3815
  13   2.0000      -0.949075       -25.8257
  14   2.0000      -0.943367       -25.6703
  15   2.0000      -0.933409       -25.3993
  16   2.0000      -0.913346       -24.8534
  17   2.0000      -0.896800       -24.4032
  18   2.0000      -0.701690       -19.0940
  19   2.0000      -0.690874       -18.7996
  20   2.0000      -0.619102       -16.8466
  21   2.0000      -0.585305       -15.9270
  22   2.0000      -0.557983       -15.1835
  23   2.0000      -0.516037       -14.0421
  24   2.0000      -0.506428       -13.7806
  25   2.0000      -0.499303       -13.5867
  26   2.0000      -0.472611       -12.8604
  27   2.0000      -0.460994       -12.5443
  28   2.0000      -0.446003       -12.1364
  29   2.0000      -0.430655       -11.7187
  30   2.0000      -0.420789       -11.4503
  31   2.0000      -0.401117       -10.9150
  32   2.0000      -0.381600       -10.3839
  33   2.0000      -0.370095       -10.0708
  34   2.0000      -0.360533        -9.8106
  35   2.0000      -0.347894        -9.4667
  36   2.0000      -0.323673        -8.8076
  37   2.0000      -0.316703        -8.6179
  38   2.0000      -0.311066        -8.4645
  39   2.0000      -0.305216        -8.3054
  40   2.0000      -0.273420        -7.4401
  41   2.0000      -0.262910        -7.1541
  42   2.0000      -0.245869        -6.6904
  43   2.0000      -0.242637        -6.6025
  44   2.0000      -0.228914        -6.2291
  45   2.0000      -0.219348        -5.9688
  46   2.0000      -0.214528        -5.8376
  47   2.0000      -0.202299        -5.5048
  48   0.0000       0.006591         0.1793
  49   0.0000       0.012979         0.3532
  50   0.0000       0.031398         0.8544
  51   0.0000       0.060295         1.6407
  52   0.0000       0.068202         1.8559

MULLIKEN ATOMIC CHARGES
-----------------------
   0 C :    0.065571
   1 C :    0.026191
   2 H :    0.074817
   3 C :    0.042087
   4 H :    0.031384
   5 C :    0.060075
   6 H :    0.081659
   7 C :   -0.008964
   8 H :    0.084644
   9 C :    0.196381
  10 H :    0.051166
  11 O :   -0.312973
  12 O :   -0.403266
  13 O :   -0.406108
  14 O :   -0.419236
  15 O :   -0.436653
  16 O :   -0.445037
  17 H :    0.091402
  18 H :    0.073999
  19 H :    0.303901
  20 H :    0.308802
  21 H :    0.317808
  22 H :    0.305250
  23 H :    0.317099
Sum of atomic charges:   -0.0000000

LOEWDIN ATOMIC CHARGES
----------------------
   0 C :   -0.125481
   1 C :   -0.068685
   2 H :    0.112490
   3 C :   -0.079201
   4 H :    0.095119
   5 C :   -0.063088
   6 H :    0.121551
   7 C :   -0.091410
   8 H :    0.112415
   9 C :   -0.005554
  10 H :    0.098172
  11 O :   -0.147657
  12 O :   -0.314154
  13 O :   -0.306689
  14 O :   -0.311546
  15 O :   -0.336087
  16 O :   -0.332025
  17 H :    0.108339
  18 H :    0.100810
  19 H :    0.271392
  20 H :    0.292666
  21 H :    0.298076
  22 H :    0.273827
  23 H :    0.296721

  Mayer bond orders larger than 0.100000
B(  0-C ,  1-C ) :   1.0474 B(  0-C , 16-O ) :   1.0399 B(  0-C , 17-H ) :   0.9180
B(  0-C , 18-H ) :   0.9070 B(  1-C ,  2-H ) :   0.8638 B(  1-C ,  3-C ) :   1.0958
B(  1-C , 11-O ) :   0.9855 B(  3-C ,  4-H ) :   0.8452 B(  3-C ,  5-C ) :   1.0169
B(  3-C , 15-O ) :   1.0918 B(  5-C ,  6-H ) :   0.8551 B(  5-C ,  7-C ) :   1.0183
B(  5-C , 14-O ) :   1.0400 B(  7-C ,  8-H ) :   0.8891 B(  7-C ,  9-C ) :   1.0131
B(  7-C , 13-O ) :   1.0418 B(  9-C , 10-H ) :   0.9024 B(  9-C , 11-O ) :   1.0495
B(  9-C , 12-O ) :   1.1441 B( 12-O , 19-H ) :   0.8058 B( 13-O , 20-H ) :   0.8457
B( 14-O , 21-H ) :   0.8413 B( 15-O , 22-H ) :   0.8016 B( 16-O , 22-H ) :   0.1105
B( 16-O , 23-H ) :   0.8413

Dispersion correction           -0.024879351
FINAL SINGLE POINT ENERGY      -685.693499475965

DIPOLE MOMENT
-------------

Method             : SCF
Type of density    : Electron Density
Multiplicity       :   1
Irrep              :   0
Energy             :  -685.8261085300376863 Eh
Relativity type    :
Basis              : AO
                                X                 Y                 Z
Electronic contribution:      1.589830601       0.342398704       0.061050155
Nuclear contribution   :     -2.192261577      -0.343289959       0.122674168
                        -----------------------------------------
Total Dipole Moment    :     -0.602430976      -0.000891255       0.183724323
                        -----------------------------------------
Magnitude (a.u.)       :      0.629824183
Magnitude (Debye)      :      1.600885850

Rotational constants in cm-1:             0.043425             0.025196             0.021829
Rotational constants in MHz :          1301.838852           755.358342           654.405243

                             ****ORCA TERMINATED NORMALLY****
TOTAL RUN TIME: 0 days 0 hours 0 minutes 11 seconds 996 msec
