                         Program Version 6.0.0  -   RELEASE  -
|  1> ! pbe def2-sv(p) def2/J RI DEFGRID1 loosescf d4 GCP(DFT/SV(P)) printgap
|  2> %output
|  3>     printlevel normal
|  4> end
|  5> * xyz 0 1
|  6> C -2.4803273284 0.233996317 0.0131907735
|  7> O -1.0519391803 0.3340923523 0.0038263307
|  8> C -0.3661187382 -0.7883220792 -0.0168434607
|  9> O -0.8617276736 -1.8939571072 -0.0270096561
| 10> C 1.1337336735 -0.5867423025 -0.0288710451
| 11> Cl 1.596092092 1.1319131668 0.0230668004
| 12> H -2.8230655789 -0.253151512 -0.8997745079
| 13> H -2.8425670208 1.2553390253 0.0720340757
| 14> H -2.8058840391 -0.350774202 0.8736562617
| 15> H 1.5461819076 -1.0229946825 -0.9394769069
| 16> H 1.5701725308 -1.0845278759 0.8377716231
| 17> *
| 18>
| 19>                          ****END OF INPUT****

CARTESIAN COORDINATES (ANGSTROEM)
---------------------------------
  C     -2.480327    0.233996    0.013191
  O     -1.051939    0.334092    0.003826
  C     -0.366119   -0.788322   -0.016843
  O     -0.861728   -1.893957   -0.027010
  C      1.133734   -0.586742   -0.028871
  Cl     1.596092    1.131913    0.023067
  H     -2.823066   -0.253152   -0.899775
  H     -2.842567    1.255339    0.072034
  H     -2.805884   -0.350774    0.873656
  H      1.546182   -1.022995   -0.939477
  H      1.570173   -1.084528    0.837772

 Total Charge           Charge          ....    0
 Multiplicity           Mult            ....    1
 Number of Electrons    NEL             ....   56
 Basis Dimension        Dim             ....   98

ORBITAL ENERGIES
----------------

  NO   OCC          E(Eh)            E(eV)
   0   2.0000    -100.624916     -2738.1432
   1   2.0000     -18.813991      -511.9547
   2   2.0000     -18.748824      -510.1814
   3   2.0000     -10.021896      -272.7097
   4   2.0000      -9.957340      -270.9530
   5   2.0000      -9.950504      -270.7670
   6   2.0000      -9.160874      -249.2801
   7   2.0000      -6.992877      -190.2859
   8   2.0000      -6.980269      -189.9428
   9   2.0000      -6.980199      -189.9409
  10   2.0000      -1.022986       -27.8369
  11   2.0000      -0.925890       -25.1947
  12   2.0000      -0.785427       -21.3726
  13   2.0000      -0.683672       -18.6036
  14   2.0000      -0.626983       -17.0611
  15   2.0000      -0.522197       -14.2097
  16   2.0000      -0.464908       -12.6508
  17   2.0000      -0.458397       -12.4736
  18   2.0000      -0.422351       -11.4927
  19   2.0000      -0.416170       -11.3246
  20   2.0000      -0.381400       -10.3784
  21   2.0000      -0.377831       -10.2813
  22   2.0000      -0.347243        -9.4490
  23   2.0000      -0.315304        -8.5798
  24   2.0000      -0.273420        -7.4401
  25   2.0000      -0.267165        -7.2699
  26   2.0000      -0.250564        -6.8182
  27   2.0000      -0.226209        -6.1555
  28   0.0000      -0.033920        -0.9230
  29   0.0000       0.006824         0.1857
  30   0.0000       0.042785         1.1642
  31   0.0000       0.055769         1.5176
  32   0.0000       0.084682         2.3043

MULLIKEN ATOMIC CHARGES
-----------------------
   0 C :   -0.112067
   1 O :   -0.212436
   2 C :    0.124507
   3 O :   -0.209659
   4 C :   -0.172152
   5 Cl:   -0.127764
   6 H :    0.124538
   7 H :    0.129746
   8 H :    0.125112
   9 H :    0.165287
  10 H :    0.164890
Sum of atomic charges:    0.0000000

LOEWDIN ATOMIC CHARGES
----------------------
   0 C :   -0.198607
   1 O :   -0.056331
   2 C :    0.005917
   3 O :   -0.162280
   4 C :   -0.304896
   5 Cl:    0.046675
   6 H :    0.122561
   7 H :    0.125110
   8 H :    0.122715
   9 H :    0.149687
  10 H :    0.149450

  Mayer bond orders larger than 0.100000
B(  0-C ,  1-O ) :   0.9309 B(  0-C ,  6-H ) :   0.9529 B(  0-C ,  7-H ) :   0.9585
B(  0-C ,  8-H ) :   0.9510 B(  1-O ,  2-C ) :   1.2809 B(  1-O ,  3-O ) :   0.1013
B(  2-C ,  3-O ) :   2.0344 B(  2-C ,  4-C ) :   0.9822 B(  4-C ,  5-Cl) :   1.0659
B(  4-C ,  9-H ) :   0.9087 B(  4-C , 10-H ) :   0.9094

Dispersion correction           -0.008320029
FINAL SINGLE POINT ENERGY      -727.081893559307

DIPOLE MOMENT
-------------

Method             : SCF
Type of density    : Electron Density
Multiplicity       :   1
Irrep              :   0
Energy             :  -727.1236899432155951 Eh
Relativity type    :
Basis              : AO
                                X                 Y                 Z
Electronic contribution:      6.823837824       3.060960128       0.074133925
Nuclear contribution   :     -7.194678629      -2.908428736      -0.083643613
                        -----------------------------------------
Total Dipole Moment    :     -0.370840805       0.152531392      -0.009509689
                        -----------------------------------------
Magnitude (a.u.)       :      0.401097447
Magnitude (Debye)      :      1.019508689

Rotational constants in cm-1:             0.180582             0.061570             0.046727
Rotational constants in MHz :          5413.715600          1845.822020          1400.841537

                             ****ORCA TERMINATED NORMALLY****
TOTAL RUN TIME: 0 days 0 hours 0 minutes 5 seconds 628 msec
