                         Program Version 6.0.0  -   RELEASE  -
|  1> ! pbe def2-sv(p) def2/J RI DEFGRID1 loosescf d4 GCP(DFT/SV(P)) printgap
|  2> %output
|  3>     printlevel normal
|  4> end
|  5> * xyz 0 1
|  6> C 1.2545223244 1.4599834441 -0.2320964604
|  7> C 0.7168812035 0.045624804 -0.4251362249
|  8> C 1.5184602345 -0.9609025935 0.4112659142
|  9> C -0.7380232427 -0.0548483385 -0.0113226687
| 10> O -1.280812219 0.7917978218 0.6716908493
| 11> C -1.4710566759 -1.281969502 -0.4771586662
| 12> H 1.1506679054 1.7595559992 0.8083372162
| 13> H 2.3032519623 1.5082546402 -0.5112116833
| 14> H 0.6939404319 2.1652514541 -0.8414053564
| 15> H 0.7892925576 -0.2351462225 -1.4802703115
| 16> H 1.15748741 -1.9742603441 0.261926521
| 17> H 1.4365521296 -0.7138288495 1.4674523684
| 18> H 2.5661286132 -0.918134997 0.1266124267
| 19> H -0.8485934739 -1.9236309918 -1.0899126284
| 20> H -2.3465207167 -0.9683005728 -1.0422441925
| 21> H -1.833517196 -1.8292676122 0.3906110929
| 22> *
| 23>
| 24>                          ****END OF INPUT****

CARTESIAN COORDINATES (ANGSTROEM)
---------------------------------
  C      1.254522    1.459983   -0.232096
  C      0.716881    0.045625   -0.425136
  C      1.518460   -0.960903    0.411266
  C     -0.738023   -0.054848   -0.011323
  O     -1.280812    0.791798    0.671691
  C     -1.471057   -1.281970   -0.477159
  H      1.150668    1.759556    0.808337
  H      2.303252    1.508255   -0.511212
  H      0.693940    2.165251   -0.841405
  H      0.789293   -0.235146   -1.480270
  H      1.157487   -1.974260    0.261927
  H      1.436552   -0.713829    1.467452
  H      2.566129   -0.918135    0.126612
  H     -0.848593   -1.923631   -1.089913
  H     -2.346521   -0.968301   -1.042244
  H     -1.833517   -1.829268    0.390611

 Total Charge           Charge          ....    0
 Multiplicity           Mult            ....    1
 Number of Electrons    NEL             ....   48
 Basis Dimension        Dim             ....  104

ORBITAL ENERGIES
----------------

  NO   OCC          E(Eh)            E(eV)
   0   2.0000     -18.736279      -509.8401
   1   2.0000      -9.969708      -271.2896
   2   2.0000      -9.903049      -269.4757
   3   2.0000      -9.889301      -269.1016
   4   2.0000      -9.885771      -269.0055
   5   2.0000      -9.872745      -268.6511
   6   2.0000      -0.933395       -25.3990
   7   2.0000      -0.729905       -19.8617
   8   2.0000      -0.665896       -18.1199
   9   2.0000      -0.616313       -16.7707
  10   2.0000      -0.554695       -15.0940
  11   2.0000      -0.460389       -12.5278
  12   2.0000      -0.427828       -11.6418
  13   2.0000      -0.411914       -11.2087
  14   2.0000      -0.401084       -10.9140
  15   2.0000      -0.376527       -10.2458
  16   2.0000      -0.360627        -9.8132
  17   2.0000      -0.352602        -9.5948
  18   2.0000      -0.343867        -9.3571
  19   2.0000      -0.314047        -8.5457
  20   2.0000      -0.313132        -8.5208
  21   2.0000      -0.300003        -8.1635
  22   2.0000      -0.296040        -8.0557
  23   2.0000      -0.193959        -5.2779
  24   0.0000      -0.049821        -1.3557
  25   0.0000       0.029508         0.8030
  26   0.0000       0.066330         1.8049
  27   0.0000       0.075595         2.0571
  28   0.0000       0.089843         2.4448

MULLIKEN ATOMIC CHARGES
-----------------------
   0 C :   -0.225864
   1 C :   -0.195107
   2 C :   -0.261578
   3 C :    0.002601
   4 O :   -0.173060
   5 C :   -0.243241
   6 H :    0.108844
   7 H :    0.093824
   8 H :    0.104339
   9 H :    0.085822
  10 H :    0.106392
  11 H :    0.111764
  12 H :    0.114932
  13 H :    0.107657
  14 H :    0.131382
  15 H :    0.131292
Sum of atomic charges:   -0.0000000

LOEWDIN ATOMIC CHARGES
----------------------
   0 C :   -0.327905
   1 C :   -0.185112
   2 C :   -0.319550
   3 C :    0.049978
   4 O :   -0.133818
   5 C :   -0.363913
   6 H :    0.125190
   7 H :    0.117126
   8 H :    0.122647
   9 H :    0.125560
  10 H :    0.119014
  11 H :    0.125277
  12 H :    0.125128
  13 H :    0.124153
  14 H :    0.148753
  15 H :    0.147472

  Mayer bond orders larger than 0.100000
B(  0-C ,  1-C ) :   1.1176 B(  0-C ,  6-H ) :   0.9431 B(  0-C ,  7-H ) :   0.9481
B(  0-C ,  8-H ) :   0.9523 B(  1-C ,  2-C ) :   1.0805 B(  1-C ,  3-C ) :   0.9521
B(  1-C ,  9-H ) :   0.8828 B(  2-C , 10-H ) :   0.9483 B(  2-C , 11-H ) :   0.9477
B(  2-C , 12-H ) :   0.9500 B(  3-C ,  4-O ) :   2.1814 B(  3-C ,  5-C ) :   1.0709
B(  5-C , 13-H ) :   0.9357 B(  5-C , 14-H ) :   0.9222 B(  5-C , 15-H ) :   0.9255

Dispersion correction           -0.011831597
FINAL SINGLE POINT ENERGY      -271.142821724445

DIPOLE MOMENT
-------------

Method             : SCF
Type of density    : Electron Density
Multiplicity       :   1
Irrep              :   0
Energy             :  -271.1969039919003990 Eh
Relativity type    :
Basis              : AO
                                X                 Y                 Z
Electronic contribution:     -4.303325879       2.203357958       1.270348145
Nuclear contribution   :      4.736271567      -2.924251302      -1.782031054
                        -----------------------------------------
Total Dipole Moment    :      0.432945688      -0.720893344      -0.511682909
                        -----------------------------------------
Magnitude (a.u.)       :      0.984351858
Magnitude (Debye)      :      2.502023585

Rotational constants in cm-1:             0.158858             0.099782             0.073322
Rotational constants in MHz :          4762.440091          2991.378541          2198.135944

                             ****ORCA TERMINATED NORMALLY****
TOTAL RUN TIME: 0 days 0 hours 0 minutes 6 seconds 259 msec
