                         Program Version 6.0.0  -   RELEASE  -
|  1> ! r2scan-3c def2/J RI DEFGRID2 scfconv6 printgap
|  2> %output
|  3>     printlevel normal
|  4> end
|  5> * xyz 0 1
|  6> C -2.6697768886 -1.4345429364 -0.0744594386
|  7> C -1.9577864409 -0.0901148021 0.012438071
|  8> C -0.4520567349 -0.1413758599 -0.0057037826
|  9> C 0.2480888494 -1.3363963073 -0.0965762464
| 10> C 1.6325096422 -1.3596921381 -0.1111780409
| 11> C 2.3420556922 -0.1763683768 -0.0342608907
| 12> C 1.6556942797 1.0216677645 0.0561981298
| 13> C 0.2686435176 1.0582370807 0.0716125587
| 14> C -0.4379508468 2.3763424725 0.1701056253
| 15> H -3.7457490266 -1.2765852721 -0.0520490592
| 16> H -2.4035171465 -2.0720392389 0.7654261873
| 17> H -2.4221472539 -1.9479226187 -1.0006161484
| 18> H -2.2720469642 0.4141576777 0.9313113369
| 19> H -2.2893359866 0.5368909049 -0.8208255766
| 20> H -0.2847900896 -2.2717037904 -0.157631073
| 21> H 2.1532299486 -2.3034404786 -0.1824031884
| 22> H 3.4220332656 -0.1836035163 -0.0444554403
| 23> H 2.2087622343 1.9485729817 0.1166105927
| 24> H 0.2794506877 3.1910047264 0.2219433072
| 25> H -1.0800590046 2.5341918875 -0.6953919792
| 26> H -1.0665514407 2.410556019 1.0589861297
| 27> *
| 28>
| 29>                          ****END OF INPUT****

CARTESIAN COORDINATES (ANGSTROEM)
---------------------------------
  C     -2.669777   -1.434543   -0.074459
  C     -1.957786   -0.090115    0.012438
  C     -0.452057   -0.141376   -0.005704
  C      0.248089   -1.336396   -0.096576
  C      1.632510   -1.359692   -0.111178
  C      2.342056   -0.176368   -0.034261
  C      1.655694    1.021668    0.056198
  C      0.268644    1.058237    0.071613
  C     -0.437951    2.376342    0.170106
  H     -3.745749   -1.276585   -0.052049
  H     -2.403517   -2.072039    0.765426
  H     -2.422147   -1.947923   -1.000616
  H     -2.272047    0.414158    0.931311
  H     -2.289336    0.536891   -0.820826
  H     -0.284790   -2.271704   -0.157631
  H      2.153230   -2.303440   -0.182403
  H      3.422033   -0.183604   -0.044455
  H      2.208762    1.948573    0.116611
  H      0.279451    3.191005    0.221943
  H     -1.080059    2.534192   -0.695392
  H     -1.066551    2.410556    1.058986

 Total Charge           Charge          ....    0
 Multiplicity           Mult            ....    1
 Number of Electrons    NEL             ....   66
 Basis Dimension        Dim             ....  231

ORBITAL ENERGIES
----------------

  NO   OCC          E(Eh)            E(eV)
   0   2.0000     -10.037210      -273.1264
   1   2.0000     -10.036444      -273.1055
   2   2.0000     -10.034869      -273.0627
   3   2.0000     -10.025956      -272.8201
   4   2.0000     -10.025085      -272.7964
   5   2.0000     -10.024905      -272.7915
   6   2.0000     -10.024572      -272.7825
   7   2.0000     -10.024306      -272.7752
   8   2.0000     -10.021803      -272.7071
   9   2.0000      -0.827665       -22.5219
  10   2.0000      -0.755431       -20.5563
  11   2.0000      -0.736226       -20.0337
  12   2.0000      -0.690699       -18.7949
  13   2.0000      -0.650168       -17.6920
  14   2.0000      -0.606771       -16.5111
  15   2.0000      -0.551862       -15.0169
  16   2.0000      -0.535692       -14.5769
  17   2.0000      -0.469490       -12.7755
  18   2.0000      -0.436194       -11.8694
  19   2.0000      -0.427813       -11.6414
  20   2.0000      -0.409009       -11.1297
  21   2.0000      -0.397769       -10.8239
  22   2.0000      -0.388060       -10.5597
  23   2.0000      -0.371435       -10.1073
  24   2.0000      -0.353895        -9.6300
  25   2.0000      -0.343873        -9.3573
  26   2.0000      -0.334282        -9.0963
  27   2.0000      -0.332334        -9.0433
  28   2.0000      -0.317265        -8.6332
  29   2.0000      -0.297000        -8.0818
  30   2.0000      -0.293283        -7.9806
  31   2.0000      -0.226365        -6.1597
  32   2.0000      -0.216174        -5.8824
  33   0.0000      -0.022189        -0.6038
  34   0.0000      -0.021233        -0.5778
  35   0.0000       0.087962         2.3936
  36   0.0000       0.092053         2.5049
  37   0.0000       0.097433         2.6513

MULLIKEN ATOMIC CHARGES
-----------------------
   0 C :   -0.517388
   1 C :   -0.337158
   2 C :    0.164790
   3 C :   -0.188223
   4 C :   -0.176114
   5 C :   -0.160713
   6 C :   -0.205235
   7 C :    0.140889
   8 C :   -0.548925
   9 H :    0.149520
  10 H :    0.158431
  11 H :    0.158374
  12 H :    0.158866
  13 H :    0.158686
  14 H :    0.142672
  15 H :    0.142973
  16 H :    0.143247
  17 H :    0.144331
  18 H :    0.150143
  19 H :    0.160578
  20 H :    0.160255
Sum of atomic charges:    0.0000000

LOEWDIN ATOMIC CHARGES
----------------------
   0 C :   -0.419916
   1 C :   -0.284402
   2 C :   -0.086075
   3 C :   -0.163536
   4 C :   -0.170431
   5 C :   -0.170325
   6 C :   -0.165265
   7 C :   -0.093392
   8 C :   -0.389135
   9 H :    0.152978
  10 H :    0.153944
  11 H :    0.153915
  12 H :    0.164908
  13 H :    0.164913
  14 H :    0.169939
  15 H :    0.165304
  16 H :    0.165697
  17 H :    0.166110
  18 H :    0.159229
  19 H :    0.162785
  20 H :    0.162753

  Mayer bond orders larger than 0.100000
B(  0-C ,  1-C ) :   0.8592 B(  0-C ,  9-H ) :   0.9694 B(  0-C , 10-H ) :   0.9848
B(  0-C , 11-H ) :   0.9847 B(  1-C ,  2-C ) :   0.8276 B(  1-C , 12-H ) :   0.9820
B(  1-C , 13-H ) :   0.9814 B(  2-C ,  3-C ) :   1.4529 B(  2-C ,  7-C ) :   1.4477
B(  3-C ,  4-C ) :   1.4081 B(  3-C , 14-H ) :   0.9440 B(  4-C ,  5-C ) :   1.4281
B(  4-C , 15-H ) :   0.9488 B(  5-C ,  6-C ) :   1.4356 B(  5-C , 16-H ) :   0.9487
B(  6-C ,  7-C ) :   1.4116 B(  6-C , 17-H ) :   0.9237 B(  7-C ,  8-C ) :   0.8141
B(  8-C , 18-H ) :   0.9873 B(  8-C , 19-H ) :   0.9797 B(  8-C , 20-H ) :   0.9795

Dispersion correction           -0.006997036
FINAL SINGLE POINT ENERGY      -350.081519341207

DIPOLE MOMENT
-------------

Method             : SCF
Type of density    : Electron Density
Multiplicity       :   1
Irrep              :   0
Energy             :  -350.0819791579471030 Eh
Relativity type    :
Basis              : AO
                                X                 Y                 Z
Electronic contribution:      6.740124327      -0.778452889      -0.119438613
Nuclear contribution   :     -7.036929082       0.919478089       0.132192511
                        -----------------------------------------
Total Dipole Moment    :     -0.296804755       0.141025200       0.012753898
                        -----------------------------------------
Magnitude (a.u.)       :      0.328852294
Magnitude (Debye)      :      0.835876104

Rotational constants in cm-1:             0.081105             0.049324             0.031204
Rotational constants in MHz :          2431.481442          1478.693340           935.481028

                             ****ORCA TERMINATED NORMALLY****
TOTAL RUN TIME: 0 days 0 hours 0 minutes 25 seconds 751 msec
