                         Program Version 6.0.0  -   RELEASE  -
|  1> ! r2scan-3c def2/J RI DEFGRID2 scfconv6 printgap
|  2> %output
|  3>     printlevel normal
|  4> end
|  5> %cpcm
|  6>     smd true
|  7>     smdsolvent "water"
|  8> end
|  9> * xyz 0 1
| 10> C -2.6697768886 -1.4345429364 -0.0744594386
| 11> C -1.9577864409 -0.0901148021 0.012438071
| 12> C -0.4520567349 -0.1413758599 -0.0057037826
| 13> C 0.2480888494 -1.3363963073 -0.0965762464
| 14> C 1.6325096422 -1.3596921381 -0.1111780409
| 15> C 2.3420556922 -0.1763683768 -0.0342608907
| 16> C 1.6556942797 1.0216677645 0.0561981298
| 17> C 0.2686435176 1.0582370807 0.0716125587
| 18> C -0.4379508468 2.3763424725 0.1701056253
| 19> H -3.7457490266 -1.2765852721 -0.0520490592
| 20> H -2.4035171465 -2.0720392389 0.7654261873
| 21> H -2.4221472539 -1.9479226187 -1.0006161484
| 22> H -2.2720469642 0.4141576777 0.9313113369
| 23> H -2.2893359866 0.5368909049 -0.8208255766
| 24> H -0.2847900896 -2.2717037904 -0.157631073
| 25> H 2.1532299486 -2.3034404786 -0.1824031884
| 26> H 3.4220332656 -0.1836035163 -0.0444554403
| 27> H 2.2087622343 1.9485729817 0.1166105927
| 28> H 0.2794506877 3.1910047264 0.2219433072
| 29> H -1.0800590046 2.5341918875 -0.6953919792
| 30> H -1.0665514407 2.410556019 1.0589861297
| 31> *
| 32>
| 33>                          ****END OF INPUT****

CARTESIAN COORDINATES (ANGSTROEM)
---------------------------------
  C     -2.669777   -1.434543   -0.074459
  C     -1.957786   -0.090115    0.012438
  C     -0.452057   -0.141376   -0.005704
  C      0.248089   -1.336396   -0.096576
  C      1.632510   -1.359692   -0.111178
  C      2.342056   -0.176368   -0.034261
  C      1.655694    1.021668    0.056198
  C      0.268644    1.058237    0.071613
  C     -0.437951    2.376342    0.170106
  H     -3.745749   -1.276585   -0.052049
  H     -2.403517   -2.072039    0.765426
  H     -2.422147   -1.947923   -1.000616
  H     -2.272047    0.414158    0.931311
  H     -2.289336    0.536891   -0.820826
  H     -0.284790   -2.271704   -0.157631
  H      2.153230   -2.303440   -0.182403
  H      3.422033   -0.183604   -0.044455
  H      2.208762    1.948573    0.116611
  H      0.279451    3.191005    0.221943
  H     -1.080059    2.534192   -0.695392
  H     -1.066551    2.410556    1.058986

 Total Charge           Charge          ....    0
 Multiplicity           Mult            ....    1
 Number of Electrons    NEL             ....   66
 Basis Dimension        Dim             ....  231

ORBITAL ENERGIES
----------------

  NO   OCC          E(Eh)            E(eV)
   0   2.0000     -10.037449      -273.1329
   1   2.0000     -10.036549      -273.1084
   2   2.0000     -10.025844      -272.8171
   3   2.0000     -10.025518      -272.8082
   4   2.0000     -10.025072      -272.7961
   5   2.0000     -10.024548      -272.7818
   6   2.0000     -10.024490      -272.7802
   7   2.0000     -10.016620      -272.5661
   8   2.0000     -10.011306      -272.4215
   9   2.0000      -0.828750       -22.5514
  10   2.0000      -0.751789       -20.4572
  11   2.0000      -0.733777       -19.9671
  12   2.0000      -0.687742       -18.7144
  13   2.0000      -0.645968       -17.5777
  14   2.0000      -0.601430       -16.3657
  15   2.0000      -0.549800       -14.9608
  16   2.0000      -0.532570       -14.4920
  17   2.0000      -0.466709       -12.6998
  18   2.0000      -0.433742       -11.8027
  19   2.0000      -0.419689       -11.4203
  20   2.0000      -0.405064       -11.0224
  21   2.0000      -0.392772       -10.6879
  22   2.0000      -0.380536       -10.3549
  23   2.0000      -0.368705       -10.0330
  24   2.0000      -0.347008        -9.4426
  25   2.0000      -0.336460        -9.1556
  26   2.0000      -0.331226        -9.0131
  27   2.0000      -0.327023        -8.8988
  28   2.0000      -0.311721        -8.4824
  29   2.0000      -0.293653        -7.9907
  30   2.0000      -0.288698        -7.8559
  31   2.0000      -0.230396        -6.2694
  32   2.0000      -0.218573        -5.9477
  33   0.0000      -0.024820        -0.6754
  34   0.0000      -0.024331        -0.6621
  35   0.0000       0.094930         2.5832
  36   0.0000       0.100372         2.7313
  37   0.0000       0.105508         2.8710

MULLIKEN ATOMIC CHARGES
-----------------------
   0 C :   -0.539182
   1 C :   -0.346951
   2 C :    0.138741
   3 C :   -0.214416
   4 C :   -0.220428
   5 C :   -0.198134
   6 C :   -0.236366
   7 C :    0.119199
   8 C :   -0.580973
   9 H :    0.162429
  10 H :    0.165943
  11 H :    0.165878
  12 H :    0.180045
  13 H :    0.179867
  14 H :    0.171084
  15 H :    0.173141
  16 H :    0.173621
  17 H :    0.175726
  18 H :    0.169182
  19 H :    0.180890
  20 H :    0.180704
Sum of atomic charges:    0.0000000

LOEWDIN ATOMIC CHARGES
----------------------
   0 C :   -0.425105
   1 C :   -0.285838
   2 C :   -0.091582
   3 C :   -0.176430
   4 C :   -0.187278
   5 C :   -0.187228
   6 C :   -0.178517
   7 C :   -0.098762
   8 C :   -0.394882
   9 H :    0.156629
  10 H :    0.156224
  11 H :    0.156190
  12 H :    0.172356
  13 H :    0.172367
  14 H :    0.179509
  15 H :    0.174847
  16 H :    0.175304
  17 H :    0.176993
  18 H :    0.164788
  19 H :    0.170199
  20 H :    0.170215

  Mayer bond orders larger than 0.100000
B(  0-C ,  1-C ) :   0.8502 B(  0-C ,  9-H ) :   0.9674 B(  0-C , 10-H ) :   0.9809
B(  0-C , 11-H ) :   0.9809 B(  1-C ,  2-C ) :   0.8361 B(  1-C , 12-H ) :   0.9791
B(  1-C , 13-H ) :   0.9786 B(  2-C ,  3-C ) :   1.4164 B(  2-C ,  7-C ) :   1.3910
B(  3-C ,  4-C ) :   1.3683 B(  3-C , 14-H ) :   0.9575 B(  4-C ,  5-C ) :   1.3842
B(  4-C , 15-H ) :   0.9634 B(  5-C ,  6-C ) :   1.3898 B(  5-C , 16-H ) :   0.9616
B(  6-C ,  7-C ) :   1.3893 B(  6-C , 17-H ) :   0.9423 B(  7-C ,  8-C ) :   0.8278
B(  8-C , 18-H ) :   0.9812 B(  8-C , 19-H ) :   0.9729 B(  8-C , 20-H ) :   0.9727

Dispersion correction           -0.006997036
FINAL SINGLE POINT ENERGY      -350.083029671753

DIPOLE MOMENT
-------------

Method             : SCF
Type of density    : Electron Density
Multiplicity       :   1
Irrep              :   0
Energy             :  -350.0834894884930009 Eh
Relativity type    :
Basis              : AO
                                X                 Y                 Z
Electronic contribution:      6.579575164      -0.673601200      -0.110253220
Nuclear contribution   :     -7.036929082       0.919478089       0.132192511
                        -----------------------------------------
Total Dipole Moment    :     -0.457353918       0.245876889       0.021939291
                        -----------------------------------------
Magnitude (a.u.)       :      0.519720486
Magnitude (Debye)      :      1.321024491

Rotational constants in cm-1:             0.081105             0.049324             0.031204
Rotational constants in MHz :          2431.481442          1478.693340           935.481028

                             ****ORCA TERMINATED NORMALLY****
TOTAL RUN TIME: 0 days 0 hours 0 minutes 30 seconds 745 msec
