                         Program Version 6.0.0  -   RELEASE  -
|  1> ! r2scan-3c def2/J RI DEFGRID2 scfconv6 printgap
|  2> %output
|  3>     printlevel normal
|  4> end
|  5> * xyz 0 1
|  6> C -2.5617619164 -0.6473225604 -0.337244087
|  7> C -1.1829754418 -0.2879994512 0.2243894251
|  8> H -1.240663308 -0.2437453573 1.3223711006
|  9> C -0.7056810807 1.0743135839 -0.2948978559
| 10> H -0.708387473 1.0598452371 -1.396438334
| 11> C 0.7334265074 1.3342124347 0.1726600533
| 12> H 0.7404597989 1.4329957933 1.2698551027
| 13> C 1.6314180148 0.1548913659 -0.211101419
| 14> H 1.6901887191 0.0972479553 -1.3098034231
| 15> C 1.0141728159 -1.1528454267 0.3245917336
| 16> H 1.0134579346 -1.1149551941 1.4277917243
| 17> O -0.291002908 -1.3176309054 -0.1678043451
| 18> O 1.7649340823 -2.2566916631 -0.0367060297
| 19> O 2.9058445673 0.3761946153 0.3390166902
| 20> O 1.1615522062 2.5339255175 -0.423243367
| 21> O -1.5826922881 2.0575995894 0.1828166169
| 22> O -3.0983789021 -1.7962167874 0.2616682928
| 23> H -2.4737305296 -0.778173909 -1.4229428904
| 24> H -3.2486005372 0.1721646902 -0.1227246888
| 25> H 1.5192028813 -2.5302076836 -0.9350462319
| 26> H 3.4282488888 -0.4373244131 0.2683268258
| 27> H 2.093093013 2.6759563479 -0.1994618943
| 28> H -1.2219998647 2.9263136485 -0.0545953903
| 29> H -2.4792478423 -2.5292456555 0.1294427212
| 30> *
| 31>
| 32>                          ****END OF INPUT****

CARTESIAN COORDINATES (ANGSTROEM)
---------------------------------
  C     -2.561762   -0.647323   -0.337244
  C     -1.182975   -0.287999    0.224389
  H     -1.240663   -0.243745    1.322371
  C     -0.705681    1.074314   -0.294898
  H     -0.708387    1.059845   -1.396438
  C      0.733427    1.334212    0.172660
  H      0.740460    1.432996    1.269855
  C      1.631418    0.154891   -0.211101
  H      1.690189    0.097248   -1.309803
  C      1.014173   -1.152845    0.324592
  H      1.013458   -1.114955    1.427792
  O     -0.291003   -1.317631   -0.167804
  O      1.764934   -2.256692   -0.036706
  O      2.905845    0.376195    0.339017
  O      1.161552    2.533926   -0.423243
  O     -1.582692    2.057600    0.182817
  O     -3.098379   -1.796217    0.261668
  H     -2.473731   -0.778174   -1.422943
  H     -3.248601    0.172165   -0.122725
  H      1.519203   -2.530208   -0.935046
  H      3.428249   -0.437324    0.268327
  H      2.093093    2.675956   -0.199462
  H     -1.222000    2.926314   -0.054595
  H     -2.479248   -2.529246    0.129443

 Total Charge           Charge          ....    0
 Multiplicity           Mult            ....    1
 Number of Electrons    NEL             ....   96
 Basis Dimension        Dim             ....  318

ORBITAL ENERGIES
----------------

  NO   OCC          E(Eh)            E(eV)
   0   2.0000     -18.984392      -516.5916
   1   2.0000     -18.982348      -516.5360
   2   2.0000     -18.971224      -516.2332
   3   2.0000     -18.967058      -516.1199
   4   2.0000     -18.962372      -515.9924
   5   2.0000     -18.950397      -515.6665
   6   2.0000     -10.149841      -276.1912
   7   2.0000     -10.097837      -274.7761
   8   2.0000     -10.097053      -274.7548
   9   2.0000     -10.096915      -274.7510
  10   2.0000     -10.096625      -274.7431
  11   2.0000     -10.079900      -274.2880
  12   2.0000      -1.065756       -29.0007
  13   2.0000      -1.020701       -27.7747
  14   2.0000      -1.011529       -27.5251
  15   2.0000      -0.997968       -27.1561
  16   2.0000      -0.991714       -26.9859
  17   2.0000      -0.985036       -26.8042
  18   2.0000      -0.759457       -20.6659
  19   2.0000      -0.742903       -20.2154
  20   2.0000      -0.659951       -17.9582
  21   2.0000      -0.626683       -17.0529
  22   2.0000      -0.597575       -16.2608
  23   2.0000      -0.572427       -15.5765
  24   2.0000      -0.536533       -14.5998
  25   2.0000      -0.521335       -14.1862
  26   2.0000      -0.496326       -13.5057
  27   2.0000      -0.482146       -13.1199
  28   2.0000      -0.474650       -12.9159
  29   2.0000      -0.467282       -12.7154
  30   2.0000      -0.444189       -12.0870
  31   2.0000      -0.426416       -11.6034
  32   2.0000      -0.421588       -11.4720
  33   2.0000      -0.396564       -10.7910
  34   2.0000      -0.387484       -10.5440
  35   2.0000      -0.371523       -10.1096
  36   2.0000      -0.357939        -9.7400
  37   2.0000      -0.355290        -9.6679
  38   2.0000      -0.338455        -9.2098
  39   2.0000      -0.326867        -8.8945
  40   2.0000      -0.321057        -8.7364
  41   2.0000      -0.294211        -8.0059
  42   2.0000      -0.290264        -7.8985
  43   2.0000      -0.271676        -7.3927
  44   2.0000      -0.257540        -7.0080
  45   2.0000      -0.247695        -6.7401
  46   2.0000      -0.241753        -6.5784
  47   2.0000      -0.234457        -6.3799
  48   0.0000       0.027090         0.7372
  49   0.0000       0.042331         1.1519
  50   0.0000       0.067834         1.8459
  51   0.0000       0.074566         2.0290
  52   0.0000       0.083306         2.2669

MULLIKEN ATOMIC CHARGES
-----------------------
   0 C :   -0.285429
   1 C :   -0.067927
   2 H :    0.184382
   3 C :    0.032023
   4 H :    0.166627
   5 C :   -0.038523
   6 H :    0.171719
   7 C :    0.105889
   8 H :    0.162973
   9 C :   -0.143439
  10 H :    0.159195
  11 O :   -0.211621
  12 O :   -0.385621
  13 O :   -0.442061
  14 O :   -0.444349
  15 O :   -0.442453
  16 O :   -0.410910
  17 H :    0.140916
  18 H :    0.170702
  19 H :    0.324467
  20 H :    0.311133
  21 H :    0.315721
  22 H :    0.315914
  23 H :    0.310672
Sum of atomic charges:   -0.0000000

LOEWDIN ATOMIC CHARGES
----------------------
   0 C :    0.044374
   1 C :    0.120633
   2 H :    0.191168
   3 C :    0.115232
   4 H :    0.183406
   5 C :    0.107501
   6 H :    0.186543
   7 C :    0.106207
   8 H :    0.182003
   9 C :    0.293014
  10 H :    0.196639
  11 O :   -0.688443
  12 O :   -0.495756
  13 O :   -0.578001
  14 O :   -0.576633
  15 O :   -0.576462
  16 O :   -0.587905
  17 H :    0.167678
  18 H :    0.198325
  19 H :    0.284684
  20 H :    0.283425
  21 H :    0.283738
  22 H :    0.285009
  23 H :    0.273620

  Mayer bond orders larger than 0.100000
B(  0-C ,  1-C ) :   0.9356 B(  0-C , 16-O ) :   1.0083 B(  0-C , 17-H ) :   0.9949
B(  0-C , 18-H ) :   0.9627 B(  1-C ,  2-H ) :   0.9524 B(  1-C ,  3-C ) :   0.8597
B(  1-C , 11-O ) :   0.7836 B(  3-C ,  4-H ) :   0.9633 B(  3-C ,  5-C ) :   0.8622
B(  3-C , 15-O ) :   0.8567 B(  5-C ,  6-H ) :   0.9955 B(  5-C ,  7-C ) :   0.8602
B(  5-C , 14-O ) :   0.9162 B(  7-C ,  8-H ) :   0.9491 B(  7-C ,  9-C ) :   0.7691
B(  7-C , 13-O ) :   0.8910 B(  9-C , 10-H ) :   1.0065 B(  9-C , 11-O ) :   0.9676
B(  9-C , 12-O ) :   1.0965 B( 12-O , 19-H ) :   0.8698 B( 13-O , 20-H ) :   0.8758
B( 14-O , 21-H ) :   0.8788 B( 15-O , 22-H ) :   0.8779 B( 16-O , 23-H ) :   0.8784

Dispersion correction           -0.007964452
FINAL SINGLE POINT ENERGY      -687.080086980976

DIPOLE MOMENT
-------------

Method             : SCF
Type of density    : Electron Density
Multiplicity       :   1
Irrep              :   0
Energy             :  -687.0914856493700427 Eh
Relativity type    :
Basis              : AO
                                X                 Y                 Z
Electronic contribution:      1.789988796      -0.735903944       0.395972505
Nuclear contribution   :     -0.820330458       0.679714196      -0.957652148
                        -----------------------------------------
Total Dipole Moment    :      0.969658338      -0.056189749      -0.561679643
                        -----------------------------------------
Magnitude (a.u.)       :      1.121997594
Magnitude (Debye)      :      2.851891241

Rotational constants in cm-1:             0.039289             0.026037             0.016376
Rotational constants in MHz :          1177.842225           780.559455           490.935207

                             ****ORCA TERMINATED NORMALLY****
TOTAL RUN TIME: 0 days 0 hours 0 minutes 48 seconds 429 msec
