                         Program Version 6.0.0  -   RELEASE  -
|  1> ! r2scan-3c def2/J RI DEFGRID2 scfconv6 printgap
|  2> %output
|  3>     printlevel normal
|  4> end
|  5> %cpcm
|  6>     smd true
|  7>     smdsolvent "water"
|  8> end
|  9> * xyz 0 1
| 10> C -2.5617619164 -0.6473225604 -0.337244087
| 11> C -1.1829754418 -0.2879994512 0.2243894251
| 12> H -1.240663308 -0.2437453573 1.3223711006
| 13> C -0.7056810807 1.0743135839 -0.2948978559
| 14> H -0.708387473 1.0598452371 -1.396438334
| 15> C 0.7334265074 1.3342124347 0.1726600533
| 16> H 0.7404597989 1.4329957933 1.2698551027
| 17> C 1.6314180148 0.1548913659 -0.211101419
| 18> H 1.6901887191 0.0972479553 -1.3098034231
| 19> C 1.0141728159 -1.1528454267 0.3245917336
| 20> H 1.0134579346 -1.1149551941 1.4277917243
| 21> O -0.291002908 -1.3176309054 -0.1678043451
| 22> O 1.7649340823 -2.2566916631 -0.0367060297
| 23> O 2.9058445673 0.3761946153 0.3390166902
| 24> O 1.1615522062 2.5339255175 -0.423243367
| 25> O -1.5826922881 2.0575995894 0.1828166169
| 26> O -3.0983789021 -1.7962167874 0.2616682928
| 27> H -2.4737305296 -0.778173909 -1.4229428904
| 28> H -3.2486005372 0.1721646902 -0.1227246888
| 29> H 1.5192028813 -2.5302076836 -0.9350462319
| 30> H 3.4282488888 -0.4373244131 0.2683268258
| 31> H 2.093093013 2.6759563479 -0.1994618943
| 32> H -1.2219998647 2.9263136485 -0.0545953903
| 33> H -2.4792478423 -2.5292456555 0.1294427212
| 34> *
| 35>
| 36>                          ****END OF INPUT****

CARTESIAN COORDINATES (ANGSTROEM)
---------------------------------
  C     -2.561762   -0.647323   -0.337244
  C     -1.182975   -0.287999    0.224389
  H     -1.240663   -0.243745    1.322371
  C     -0.705681    1.074314   -0.294898
  H     -0.708387    1.059845   -1.396438
  C      0.733427    1.334212    0.172660
  H      0.740460    1.432996    1.269855
  C      1.631418    0.154891   -0.211101
  H      1.690189    0.097248   -1.309803
  C      1.014173   -1.152845    0.324592
  H      1.013458   -1.114955    1.427792
  O     -0.291003   -1.317631   -0.167804
  O      1.764934   -2.256692   -0.036706
  O      2.905845    0.376195    0.339017
  O      1.161552    2.533926   -0.423243
  O     -1.582692    2.057600    0.182817
  O     -3.098379   -1.796217    0.261668
  H     -2.473731   -0.778174   -1.422943
  H     -3.248601    0.172165   -0.122725
  H      1.519203   -2.530208   -0.935046
  H      3.428249   -0.437324    0.268327
  H      2.093093    2.675956   -0.199462
  H     -1.222000    2.926314   -0.054595
  H     -2.479248   -2.529246    0.129443

 Total Charge           Charge          ....    0
 Multiplicity           Mult            ....    1
 Number of Electrons    NEL             ....   96
 Basis Dimension        Dim             ....  318

ORBITAL ENERGIES
----------------

  NO   OCC          E(Eh)            E(eV)
   0   2.0000     -18.977528      -516.4048
   1   2.0000     -18.970134      -516.2036
   2   2.0000     -18.962434      -515.9941
   3   2.0000     -18.961677      -515.9735
   4   2.0000     -18.961104      -515.9579
   5   2.0000     -18.956856      -515.8423
   6   2.0000     -10.137364      -275.8517
   7   2.0000     -10.090667      -274.5810
   8   2.0000     -10.089255      -274.5426
   9   2.0000     -10.087055      -274.4827
  10   2.0000     -10.084265      -274.4068
  11   2.0000     -10.076752      -274.2024
  12   2.0000      -1.056174       -28.7400
  13   2.0000      -1.014651       -27.6101
  14   2.0000      -1.005418       -27.3588
  15   2.0000      -0.995740       -27.0955
  16   2.0000      -0.986600       -26.8468
  17   2.0000      -0.982124       -26.7250
  18   2.0000      -0.751410       -20.4469
  19   2.0000      -0.734140       -19.9770
  20   2.0000      -0.653006       -17.7692
  21   2.0000      -0.616650       -16.7799
  22   2.0000      -0.591809       -16.1040
  23   2.0000      -0.562125       -15.2962
  24   2.0000      -0.527393       -14.3511
  25   2.0000      -0.511459       -13.9175
  26   2.0000      -0.487307       -13.2603
  27   2.0000      -0.478061       -13.0087
  28   2.0000      -0.468683       -12.7535
  29   2.0000      -0.456301       -12.4166
  30   2.0000      -0.435496       -11.8505
  31   2.0000      -0.423580       -11.5262
  32   2.0000      -0.416439       -11.3319
  33   2.0000      -0.395349       -10.7580
  34   2.0000      -0.381191       -10.3727
  35   2.0000      -0.366790        -9.9809
  36   2.0000      -0.353056        -9.6071
  37   2.0000      -0.348245        -9.4762
  38   2.0000      -0.335394        -9.1265
  39   2.0000      -0.327172        -8.9028
  40   2.0000      -0.314964        -8.5706
  41   2.0000      -0.295309        -8.0358
  42   2.0000      -0.283876        -7.7247
  43   2.0000      -0.265291        -7.2189
  44   2.0000      -0.252198        -6.8627
  45   2.0000      -0.248159        -6.7528
  46   2.0000      -0.243408        -6.6235
  47   2.0000      -0.227517        -6.1911
  48   0.0000       0.039541         1.0760
  49   0.0000       0.060839         1.6555
  50   0.0000       0.080649         2.1946
  51   0.0000       0.092920         2.5285
  52   0.0000       0.097941         2.6651

MULLIKEN ATOMIC CHARGES
-----------------------
   0 C :   -0.283798
   1 C :   -0.060962
   2 H :    0.201745
   3 C :    0.019120
   4 H :    0.186121
   5 C :   -0.022814
   6 H :    0.184387
   7 C :    0.078185
   8 H :    0.184499
   9 C :   -0.118536
  10 H :    0.178493
  11 O :   -0.244985
  12 O :   -0.436895
  13 O :   -0.497384
  14 O :   -0.497659
  15 O :   -0.503472
  16 O :   -0.486290
  17 H :    0.162452
  18 H :    0.175016
  19 H :    0.372511
  20 H :    0.348622
  21 H :    0.352624
  22 H :    0.352695
  23 H :    0.356327
Sum of atomic charges:   -0.0000000

LOEWDIN ATOMIC CHARGES
----------------------
   0 C :    0.041069
   1 C :    0.121441
   2 H :    0.197282
   3 C :    0.116453
   4 H :    0.191969
   5 C :    0.108656
   6 H :    0.193177
   7 C :    0.110397
   8 H :    0.191377
   9 C :    0.295337
  10 H :    0.204818
  11 O :   -0.695332
  12 O :   -0.512060
  13 O :   -0.596748
  14 O :   -0.597292
  15 O :   -0.602941
  16 O :   -0.622151
  17 H :    0.177632
  18 H :    0.198117
  19 H :    0.301338
  20 H :    0.295973
  21 H :    0.295696
  22 H :    0.297029
  23 H :    0.288764

  Mayer bond orders larger than 0.100000
B(  0-C ,  1-C ) :   0.9262 B(  0-C , 16-O ) :   0.9902 B(  0-C , 17-H ) :   0.9827
B(  0-C , 18-H ) :   0.9637 B(  1-C ,  2-H ) :   0.9486 B(  1-C ,  3-C ) :   0.8772
B(  1-C , 11-O ) :   0.7880 B(  3-C ,  4-H ) :   0.9552 B(  3-C ,  5-C ) :   0.8840
B(  3-C , 15-O ) :   0.8391 B(  5-C ,  6-H ) :   0.9719 B(  5-C ,  7-C ) :   0.8840
B(  5-C , 14-O ) :   0.8999 B(  7-C ,  8-H ) :   0.9504 B(  7-C ,  9-C ) :   0.7921
B(  7-C , 13-O ) :   0.8812 B(  9-C , 10-H ) :   0.9933 B(  9-C , 11-O ) :   0.9527
B(  9-C , 12-O ) :   1.0918 B( 12-O , 19-H ) :   0.8427 B( 13-O , 20-H ) :   0.8588
B( 14-O , 21-H ) :   0.8604 B( 15-O , 22-H ) :   0.8600 B( 16-O , 23-H ) :   0.8549

Dispersion correction           -0.007964452
FINAL SINGLE POINT ENERGY      -687.110776923096

DIPOLE MOMENT
-------------

Method             : SCF
Type of density    : Electron Density
Multiplicity       :   1
Irrep              :   0
Energy             :  -687.1221755914901905 Eh
Relativity type    :
Basis              : AO
                                X                 Y                 Z
Electronic contribution:      2.151354012      -0.811379428       0.158109834
Nuclear contribution   :     -0.820330458       0.679714196      -0.957652148
                        -----------------------------------------
Total Dipole Moment    :      1.331023554      -0.131665232      -0.799542315
                        -----------------------------------------
Magnitude (a.u.)       :      1.558277044
Magnitude (Debye)      :      3.960825474

Rotational constants in cm-1:             0.039289             0.026037             0.016376
Rotational constants in MHz :          1177.842225           780.559455           490.935207

                             ****ORCA TERMINATED NORMALLY****
TOTAL RUN TIME: 0 days 0 hours 0 minutes 56 seconds 947 msec
