                         Program Version 6.0.0  -   RELEASE  -
|  1> ! wb97x-v def2-tzvp def2/J RIJCOSX DEFGRID2 scfconv7 GCP(DFT/TZ) printgap
|  2> %output
|  3>     printlevel normal
|  4> end
|  5> * xyz 0 1
|  6> C 1.954219577858571 -3.347318510224598e-05 -0.7661972519434705
|  7> C 1.1195705264383902 -5.615754223342258e-05 0.5164853296717313
|  8> C 0.24232592006418197 1.2582657220190945 0.6360359968115987
|  9> C -0.9211629891597469 1.262058114276403 -0.3598555537464869
| 10> C -1.7743983758013084 1.4937595448208745e-05 -0.21153761696032125
| 11> C -0.921213839157096 -1.2620549584168637 -0.3599144468004013
| 12> C 0.2422722472375625 -1.258348759682778 0.6359803083606204
| 13> H 2.598289842543802 0.8854345719129448 -0.8099338613382929
| 14> H 2.5984632977204303 -0.885375573532625 -0.8098672403876461
| 15> H 1.3327560185525862 -0.00011965827500808725 -1.6668339242226313
| 16> H 1.821875558994547 -9.367045962129301e-05 1.3611940731562766
| 17> H -0.17018251816379246 1.3025749264675295 1.653690219115124
| 18> H 0.8599531378219737 2.155387138356429 0.5027853385091718
| 19> H -1.5366458101226337 2.156492402537075 -0.20623665481000272
| 20> H -0.5355224756387028 1.3193988255367597 -1.3862418917660777
| 21> H -2.2441018018862953 1.0707944356274166e-06 0.7828926169679428
| 22> H -2.5866481447946272 5.011757069668218e-05 -0.9483052794664883
| 23> H -1.5367302938255096 -2.156471180693629 -0.20633575644266636
| 24> H -0.535581236838193 -1.3193652894457852 -1.3863038381883572
| 25> H -0.17025196147798077 -1.3026640839372021 1.6536297960353867
| 26> H 0.8598547965615992 -2.1554997845559876 0.5027162303694734
| 27> *
| 28>
| 29>                          ****END OF INPUT****

CARTESIAN COORDINATES (ANGSTROEM)
---------------------------------
  C      1.954220   -0.000033   -0.766197
  C      1.119571   -0.000056    0.516485
  C      0.242326    1.258266    0.636036
  C     -0.921163    1.262058   -0.359856
  C     -1.774398    0.000015   -0.211538
  C     -0.921214   -1.262055   -0.359914
  C      0.242272   -1.258349    0.635980
  H      2.598290    0.885435   -0.809934
  H      2.598463   -0.885376   -0.809867
  H      1.332756   -0.000120   -1.666834
  H      1.821876   -0.000094    1.361194
  H     -0.170183    1.302575    1.653690
  H      0.859953    2.155387    0.502785
  H     -1.536646    2.156492   -0.206237
  H     -0.535522    1.319399   -1.386242
  H     -2.244102    0.000001    0.782893
  H     -2.586648    0.000050   -0.948305
  H     -1.536730   -2.156471   -0.206336
  H     -0.535581   -1.319365   -1.386304
  H     -0.170252   -1.302664    1.653630
  H      0.859855   -2.155500    0.502716

 Total Charge           Charge          ....    0
 Multiplicity           Mult            ....    1
 Number of Electrons    NEL             ....   56
 Basis Dimension        Dim             ....  301

ORBITAL ENERGIES
----------------

  NO   OCC          E(Eh)            E(eV)
   0   2.0000     -12.042165      -327.6840
   1   2.0000     -12.035079      -327.4911
   2   2.0000     -12.034670      -327.4800
   3   2.0000     -12.033854      -327.4578
   4   2.0000     -12.033240      -327.4411
   5   2.0000     -12.032927      -327.4326
   6   2.0000     -12.028644      -327.3160
   7   2.0000      -1.337599       -36.3979
   8   2.0000      -1.263990       -34.3949
   9   2.0000      -1.242333       -33.8056
  10   2.0000      -1.169825       -31.8326
  11   2.0000      -1.090884       -29.6845
  12   2.0000      -1.072648       -29.1882
  13   2.0000      -0.988565       -26.9002
  14   2.0000      -0.912367       -24.8268
  15   2.0000      -0.875379       -23.8203
  16   2.0000      -0.874890       -23.8070
  17   2.0000      -0.861214       -23.4348
  18   2.0000      -0.844205       -22.9720
  19   2.0000      -0.833821       -22.6894
  20   2.0000      -0.813349       -22.1324
  21   2.0000      -0.796715       -21.6797
  22   2.0000      -0.784590       -21.3498
  23   2.0000      -0.776709       -21.1353
  24   2.0000      -0.765354       -20.8264
  25   2.0000      -0.738977       -20.1086
  26   2.0000      -0.737468       -20.0675
  27   2.0000      -0.731491       -19.9049
  28   0.0000      -0.034845        -0.9482
  29   0.0000      -0.023960        -0.6520
  30   0.0000      -0.022190        -0.6038
  31   0.0000      -0.014828        -0.4035
  32   0.0000      -0.012621        -0.3434

MULLIKEN ATOMIC CHARGES
-----------------------
   0 C :   -0.395474
   1 C :    0.043285
   2 C :   -0.200142
   3 C :   -0.217504
   4 C :   -0.168955
   5 C :   -0.217518
   6 C :   -0.200066
   7 H :    0.111287
   8 H :    0.111290
   9 H :    0.108731
  10 H :    0.067642
  11 H :    0.092578
  12 H :    0.096989
  13 H :    0.099296
  14 H :    0.098434
  15 H :    0.085385
  16 H :    0.097509
  17 H :    0.099295
  18 H :    0.098427
  19 H :    0.092597
  20 H :    0.096913
Sum of atomic charges:   -0.0000000

LOEWDIN ATOMIC CHARGES
----------------------
   0 C :   -0.280964
   1 C :   -0.281380
   2 C :   -0.237589
   3 C :   -0.259877
   4 C :   -0.260295
   5 C :   -0.259878
   6 C :   -0.237586
   7 H :    0.118424
   8 H :    0.118423
   9 H :    0.114435
  10 H :    0.145683
  11 H :    0.134995
  12 H :    0.132013
  13 H :    0.130466
  14 H :    0.131707
  15 H :    0.132715
  16 H :    0.129528
  17 H :    0.130465
  18 H :    0.131706
  19 H :    0.134996
  20 H :    0.132012

  Mayer bond orders larger than 0.100000
B(  0-C ,  1-C ) :   0.9637 B(  0-C ,  7-H ) :   0.9831 B(  0-C ,  8-H ) :   0.9831
B(  0-C ,  9-H ) :   0.9794 B(  1-C ,  2-C ) :   0.9774 B(  1-C ,  6-C ) :   0.9774
B(  1-C , 10-H ) :   0.9695 B(  2-C ,  3-C ) :   0.9784 B(  2-C , 11-H ) :   0.9763
B(  2-C , 12-H ) :   0.9789 B(  3-C ,  4-C ) :   0.9835 B(  3-C , 13-H ) :   0.9766
B(  3-C , 14-H ) :   0.9840 B(  4-C ,  5-C ) :   0.9835 B(  4-C , 15-H ) :   0.9752
B(  4-C , 16-H ) :   0.9761 B(  5-C ,  6-C ) :   0.9784 B(  5-C , 17-H ) :   0.9766
B(  5-C , 18-H ) :   0.9840 B(  6-C , 19-H ) :   0.9763 B(  6-C , 20-H ) :   0.9789

FINAL SINGLE POINT ENERGY      -275.201904321827

DIPOLE MOMENT
-------------

Method             : SCF
Type of density    : Electron Density
Multiplicity       :   1
Irrep              :   0
Energy             :  -275.2169021023273103 Eh
Relativity type    :
Basis              : AO
                                X                 Y                 Z
Electronic contribution:     -0.702946835      -0.000049726       0.947938479
Nuclear contribution   :      0.700754486       0.000047367      -0.919938661
                        -----------------------------------------
Total Dipole Moment    :     -0.002192350      -0.000002359       0.027999817
                        -----------------------------------------
Magnitude (a.u.)       :      0.028085515
Magnitude (Debye)      :      0.071387707

Rotational constants in cm-1:             0.116654             0.084665             0.064416
Rotational constants in MHz :          3497.204394          2538.186878          1931.150525

                             ****ORCA TERMINATED NORMALLY****
TOTAL RUN TIME: 0 days 0 hours 3 minutes 1 seconds 342 msec
