                         Program Version 6.0.0  -   RELEASE  -
|  1> ! wb97x-v def2-tzvp def2/J RIJCOSX DEFGRID2 scfconv7 GCP(DFT/TZ) printgap
|  2> %output
|  3>     printlevel normal
|  4> end
|  5> %cpcm
|  6>     smd true
|  7>     smdsolvent "water"
|  8> end
|  9> * xyz 0 1
| 10> C 1.954219577858571 -3.347318510224598e-05 -0.7661972519434705
| 11> C 1.1195705264383902 -5.615754223342258e-05 0.5164853296717313
| 12> C 0.24232592006418197 1.2582657220190945 0.6360359968115987
| 13> C -0.9211629891597469 1.262058114276403 -0.3598555537464869
| 14> C -1.7743983758013084 1.4937595448208745e-05 -0.21153761696032125
| 15> C -0.921213839157096 -1.2620549584168637 -0.3599144468004013
| 16> C 0.2422722472375625 -1.258348759682778 0.6359803083606204
| 17> H 2.598289842543802 0.8854345719129448 -0.8099338613382929
| 18> H 2.5984632977204303 -0.885375573532625 -0.8098672403876461
| 19> H 1.3327560185525862 -0.00011965827500808725 -1.6668339242226313
| 20> H 1.821875558994547 -9.367045962129301e-05 1.3611940731562766
| 21> H -0.17018251816379246 1.3025749264675295 1.653690219115124
| 22> H 0.8599531378219737 2.155387138356429 0.5027853385091718
| 23> H -1.5366458101226337 2.156492402537075 -0.20623665481000272
| 24> H -0.5355224756387028 1.3193988255367597 -1.3862418917660777
| 25> H -2.2441018018862953 1.0707944356274166e-06 0.7828926169679428
| 26> H -2.5866481447946272 5.011757069668218e-05 -0.9483052794664883
| 27> H -1.5367302938255096 -2.156471180693629 -0.20633575644266636
| 28> H -0.535581236838193 -1.3193652894457852 -1.3863038381883572
| 29> H -0.17025196147798077 -1.3026640839372021 1.6536297960353867
| 30> H 0.8598547965615992 -2.1554997845559876 0.5027162303694734
| 31> *
| 32>
| 33>                          ****END OF INPUT****

CARTESIAN COORDINATES (ANGSTROEM)
---------------------------------
  C      1.954220   -0.000033   -0.766197
  C      1.119571   -0.000056    0.516485
  C      0.242326    1.258266    0.636036
  C     -0.921163    1.262058   -0.359856
  C     -1.774398    0.000015   -0.211538
  C     -0.921214   -1.262055   -0.359914
  C      0.242272   -1.258349    0.635980
  H      2.598290    0.885435   -0.809934
  H      2.598463   -0.885376   -0.809867
  H      1.332756   -0.000120   -1.666834
  H      1.821876   -0.000094    1.361194
  H     -0.170183    1.302575    1.653690
  H      0.859953    2.155387    0.502785
  H     -1.536646    2.156492   -0.206237
  H     -0.535522    1.319399   -1.386242
  H     -2.244102    0.000001    0.782893
  H     -2.586648    0.000050   -0.948305
  H     -1.536730   -2.156471   -0.206336
  H     -0.535581   -1.319365   -1.386304
  H     -0.170252   -1.302664    1.653630
  H      0.859855   -2.155500    0.502716

 Total Charge           Charge          ....    0
 Multiplicity           Mult            ....    1
 Number of Electrons    NEL             ....   56
 Basis Dimension        Dim             ....  301

ORBITAL ENERGIES
----------------

  NO   OCC          E(Eh)            E(eV)
   0   2.0000     -12.034449      -327.4740
   1   2.0000     -12.027338      -327.2805
   2   2.0000     -12.026779      -327.2653
   3   2.0000     -12.026015      -327.2445
   4   2.0000     -12.025329      -327.2258
   5   2.0000     -12.025053      -327.2183
   6   2.0000     -12.020178      -327.0857
   7   2.0000      -1.329848       -36.1870
   8   2.0000      -1.256334       -34.1866
   9   2.0000      -1.234751       -33.5993
  10   2.0000      -1.162182       -31.6246
  11   2.0000      -1.083373       -29.4801
  12   2.0000      -1.065136       -28.9838
  13   2.0000      -0.980947       -26.6929
  14   2.0000      -0.904754       -24.6196
  15   2.0000      -0.867472       -23.6051
  16   2.0000      -0.867116       -23.5954
  17   2.0000      -0.853461       -23.2238
  18   2.0000      -0.836607       -22.7652
  19   2.0000      -0.826014       -22.4770
  20   2.0000      -0.805791       -21.9267
  21   2.0000      -0.788898       -21.4670
  22   2.0000      -0.776701       -21.1351
  23   2.0000      -0.768874       -20.9221
  24   2.0000      -0.757403       -20.6100
  25   2.0000      -0.731184       -19.8965
  26   2.0000      -0.729862       -19.8605
  27   2.0000      -0.723535       -19.6884
  28   0.0000      -0.025552        -0.6953
  29   0.0000      -0.016875        -0.4592
  30   0.0000      -0.014773        -0.4020
  31   0.0000      -0.007446        -0.2026
  32   0.0000      -0.004732        -0.1288

MULLIKEN ATOMIC CHARGES
-----------------------
   0 C :   -0.451455
   1 C :    0.046983
   2 C :   -0.226055
   3 C :   -0.236825
   4 C :   -0.194937
   5 C :   -0.236837
   6 C :   -0.225983
   7 H :    0.125477
   8 H :    0.125480
   9 H :    0.129419
  10 H :    0.076799
  11 H :    0.103092
  12 H :    0.108932
  13 H :    0.110473
  14 H :    0.109389
  15 H :    0.095354
  16 H :    0.108871
  17 H :    0.110472
  18 H :    0.109384
  19 H :    0.103111
  20 H :    0.108857
Sum of atomic charges:   -0.0000000

LOEWDIN ATOMIC CHARGES
----------------------
   0 C :   -0.287890
   1 C :   -0.281837
   2 C :   -0.240752
   3 C :   -0.263135
   4 C :   -0.263682
   5 C :   -0.263136
   6 C :   -0.240749
   7 H :    0.119938
   8 H :    0.119936
   9 H :    0.118054
  10 H :    0.147020
  11 H :    0.136658
  12 H :    0.133411
  13 H :    0.131457
  14 H :    0.134064
  15 H :    0.134375
  16 H :    0.130682
  17 H :    0.131457
  18 H :    0.134063
  19 H :    0.136659
  20 H :    0.133409

  Mayer bond orders larger than 0.100000
B(  0-C ,  1-C ) :   0.9547 B(  0-C ,  7-H ) :   0.9810 B(  0-C ,  8-H ) :   0.9810
B(  0-C ,  9-H ) :   0.9766 B(  1-C ,  2-C ) :   0.9759 B(  1-C ,  6-C ) :   0.9759
B(  1-C , 10-H ) :   0.9688 B(  2-C ,  3-C ) :   0.9795 B(  2-C , 11-H ) :   0.9751
B(  2-C , 12-H ) :   0.9775 B(  3-C ,  4-C ) :   0.9840 B(  3-C , 13-H ) :   0.9749
B(  3-C , 14-H ) :   0.9810 B(  4-C ,  5-C ) :   0.9840 B(  4-C , 15-H ) :   0.9744
B(  4-C , 16-H ) :   0.9741 B(  5-C ,  6-C ) :   0.9795 B(  5-C , 17-H ) :   0.9749
B(  5-C , 18-H ) :   0.9810 B(  6-C , 19-H ) :   0.9750 B(  6-C , 20-H ) :   0.9775

FINAL SINGLE POINT ENERGY      -275.199604932003

DIPOLE MOMENT
-------------

Method             : SCF
Type of density    : Electron Density
Multiplicity       :   1
Irrep              :   0
Energy             :  -275.2146027125025398 Eh
Relativity type    :
Basis              : AO
                                X                 Y                 Z
Electronic contribution:     -0.700691448      -0.000048054       0.946715640
Nuclear contribution   :      0.700754486       0.000047367      -0.919938661
                        -----------------------------------------
Total Dipole Moment    :      0.000063038      -0.000000687       0.026776979
                        -----------------------------------------
Magnitude (a.u.)       :      0.026777053
Magnitude (Debye)      :      0.068061859

Rotational constants in cm-1:             0.116654             0.084665             0.064416
Rotational constants in MHz :          3497.204394          2538.186878          1931.150525

                             ****ORCA TERMINATED NORMALLY****
TOTAL RUN TIME: 0 days 0 hours 2 minutes 54 seconds 124 msec
