                         Program Version 6.0.0  -   RELEASE  -
|  1> ! pbe def2-sv(p) def2/J RI DEFGRID1 loosescf d4 GCP(DFT/SV(P)) printgap
|  2> %output
|  3>     printlevel normal
|  4> end
|  5> * xyz 0 1
|  6> C -2.1563683322 -0.8642415732 -0.3040602084
|  7> C -1.1866017562 -0.3252338846 0.7693496758
|  8> H -1.7489305446 -0.3636142263 1.7113686482
|  9> C -0.7439155114 1.1365570564 0.55696846
| 10> H -1.592262711 1.7051130465 0.14872667
| 11> C 0.4339062911 1.2871020667 -0.4206593204
| 12> H 0.8527172706 2.2906781562 -0.2471233109
| 13> C 1.5476104671 0.2794934154 -0.0787020055
| 14> H 2.2511847527 0.2023953283 -0.9156248555
| 15> C 1.022696456 -1.1562827574 0.1835415144
| 16> H 1.8075218283 -1.6857051974 0.7427046399
| 17> O -0.0856677127 -1.1896432221 1.0440888527
| 18> O 0.8402830665 -1.8741698744 -0.9938019421
| 19> O 2.2990068658 0.7425534105 1.0159862981
| 20> O -0.0504789319 1.1861370278 -1.7362267131
| 21> O -0.3015077427 1.7057044576 1.7695450309
| 22> O -1.6388263188 -0.9860501596 -1.6059577126
| 23> H -3.0428040262 -0.2187405417 -0.3071749811
| 24> H -2.4532793698 -1.8737552941 -0.0103576414
| 25> H -0.0490181141 -1.6726621191 -1.3770798157
| 26> H 1.689554866 0.9665582324 1.7396313501
| 27> H 0.6631538577 1.3636006378 -2.3650023825
| 28> H -1.0252769367 1.7345557187 2.4114430981
| 29> H -1.3215378641 -0.1122978684 -1.9119787795
| 30> *
| 31>
| 32>                          ****END OF INPUT****

CARTESIAN COORDINATES (ANGSTROEM)
---------------------------------
  C     -2.156368   -0.864242   -0.304060
  C     -1.186602   -0.325234    0.769350
  H     -1.748931   -0.363614    1.711369
  C     -0.743916    1.136557    0.556968
  H     -1.592263    1.705113    0.148727
  C      0.433906    1.287102   -0.420659
  H      0.852717    2.290678   -0.247123
  C      1.547610    0.279493   -0.078702
  H      2.251185    0.202395   -0.915625
  C      1.022696   -1.156283    0.183542
  H      1.807522   -1.685705    0.742705
  O     -0.085668   -1.189643    1.044089
  O      0.840283   -1.874170   -0.993802
  O      2.299007    0.742553    1.015986
  O     -0.050479    1.186137   -1.736227
  O     -0.301508    1.705704    1.769545
  O     -1.638826   -0.986050   -1.605958
  H     -3.042804   -0.218741   -0.307175
  H     -2.453279   -1.873755   -0.010358
  H     -0.049018   -1.672662   -1.377080
  H      1.689555    0.966558    1.739631
  H      0.663154    1.363601   -2.365002
  H     -1.025277    1.734556    2.411443
  H     -1.321538   -0.112298   -1.911979

 Total Charge           Charge          ....    0
 Multiplicity           Mult            ....    1
 Number of Electrons    NEL             ....   96
 Basis Dimension        Dim             ....  192

ORBITAL ENERGIES
----------------

  NO   OCC          E(Eh)            E(eV)
   0   2.0000     -18.795787      -511.4594
   1   2.0000     -18.783516      -511.1254
   2   2.0000     -18.767325      -510.6849
   3   2.0000     -18.762752      -510.5604
   4   2.0000     -18.738985      -509.9137
   5   2.0000     -18.721041      -509.4254
   6   2.0000      -9.967995      -271.2429
   7   2.0000      -9.966912      -271.2135
   8   2.0000      -9.960927      -271.0506
   9   2.0000      -9.957800      -270.9655
  10   2.0000      -9.947299      -270.6798
  11   2.0000      -9.935326      -270.3540
  12   2.0000      -0.980070       -26.6691
  13   2.0000      -0.961973       -26.1766
  14   2.0000      -0.954691       -25.9785
  15   2.0000      -0.937670       -25.5153
  16   2.0000      -0.915904       -24.9230
  17   2.0000      -0.885032       -24.0829
  18   2.0000      -0.718988       -19.5647
  19   2.0000      -0.687681       -18.7127
  20   2.0000      -0.631042       -17.1715
  21   2.0000      -0.588526       -16.0146
  22   2.0000      -0.585137       -15.9224
  23   2.0000      -0.542121       -14.7519
  24   2.0000      -0.496194       -13.5021
  25   2.0000      -0.490780       -13.3548
  26   2.0000      -0.480487       -13.0747
  27   2.0000      -0.467299       -12.7159
  28   2.0000      -0.446193       -12.1415
  29   2.0000      -0.430863       -11.7244
  30   2.0000      -0.425505       -11.5786
  31   2.0000      -0.423524       -11.5247
  32   2.0000      -0.398527       -10.8445
  33   2.0000      -0.381208       -10.3732
  34   2.0000      -0.367230        -9.9928
  35   2.0000      -0.356436        -9.6991
  36   2.0000      -0.344265        -9.3679
  37   2.0000      -0.325404        -8.8547
  38   2.0000      -0.300978        -8.1900
  39   2.0000      -0.299542        -8.1510
  40   2.0000      -0.288698        -7.8559
  41   2.0000      -0.277133        -7.5412
  42   2.0000      -0.256631        -6.9833
  43   2.0000      -0.253193        -6.8897
  44   2.0000      -0.246666        -6.7121
  45   2.0000      -0.232933        -6.3384
  46   2.0000      -0.210922        -5.7395
  47   2.0000      -0.187691        -5.1073
  48   0.0000      -0.007105        -0.1933
  49   0.0000       0.002526         0.0687
  50   0.0000       0.041683         1.1342
  51   0.0000       0.054854         1.4926
  52   0.0000       0.068984         1.8771

MULLIKEN ATOMIC CHARGES
-----------------------
   0 C :    0.039836
   1 C :    0.033429
   2 H :    0.059951
   3 C :    0.021952
   4 H :    0.074740
   5 C :    0.035622
   6 H :    0.087983
   7 C :    0.042054
   8 H :    0.065489
   9 C :    0.201507
  10 H :    0.068385
  11 O :   -0.306573
  12 O :   -0.426550
  13 O :   -0.428749
  14 O :   -0.428432
  15 O :   -0.419059
  16 O :   -0.443434
  17 H :    0.079886
  18 H :    0.105295
  19 H :    0.283581
  20 H :    0.302957
  21 H :    0.327713
  22 H :    0.312312
  23 H :    0.310103
Sum of atomic charges:    0.0000000

LOEWDIN ATOMIC CHARGES
----------------------
   0 C :   -0.134471
   1 C :   -0.080518
   2 H :    0.118298
   3 C :   -0.069395
   4 H :    0.107426
   5 C :   -0.073962
   6 H :    0.114067
   7 C :   -0.092585
   8 H :    0.114915
   9 C :   -0.008536
  10 H :    0.109219
  11 O :   -0.142881
  12 O :   -0.342134
  13 O :   -0.318912
  14 O :   -0.303033
  15 O :   -0.305923
  16 O :   -0.326453
  17 H :    0.105954
  18 H :    0.124292
  19 H :    0.262788
  20 H :    0.274307
  21 H :    0.302943
  22 H :    0.292858
  23 H :    0.271736

  Mayer bond orders larger than 0.100000
B(  0-C ,  1-C ) :   1.0212 B(  0-C , 16-O ) :   1.0571 B(  0-C , 17-H ) :   0.9117
B(  0-C , 18-H ) :   0.9154 B(  1-C ,  2-H ) :   0.8817 B(  1-C ,  3-C ) :   0.9753
B(  1-C , 11-O ) :   1.0314 B(  3-C ,  4-H ) :   0.8981 B(  3-C ,  5-C ) :   1.0113
B(  3-C , 15-O ) :   1.0297 B(  5-C ,  6-H ) :   0.8962 B(  5-C ,  7-C ) :   0.9697
B(  5-C , 14-O ) :   1.0057 B(  7-C ,  8-H ) :   0.8911 B(  7-C ,  9-C ) :   0.9565
B(  7-C , 13-O ) :   1.0465 B(  9-C , 10-H ) :   0.9016 B(  9-C , 11-O ) :   1.0289
B(  9-C , 12-O ) :   1.1426 B( 12-O , 19-H ) :   0.7632 B( 13-O , 20-H ) :   0.8198
B( 14-O , 21-H ) :   0.8317 B( 14-O , 23-H ) :   0.1290 B( 15-O , 22-H ) :   0.8401
B( 16-O , 19-H ) :   0.1682 B( 16-O , 23-H ) :   0.7721

Dispersion correction           -0.026578005
FINAL SINGLE POINT ENERGY      -685.703379210289

DIPOLE MOMENT
-------------

Method             : SCF
Type of density    : Electron Density
Multiplicity       :   1
Irrep              :   0
Energy             :  -685.8387909894977383 Eh
Relativity type    :
Basis              : AO
                                X                 Y                 Z
Electronic contribution:      2.474655013      -0.741939913       0.506351454
Nuclear contribution   :     -3.707830634       2.185528533      -0.364444666
                        -----------------------------------------
Total Dipole Moment    :     -1.233175621       1.443588620       0.141906788
                        -----------------------------------------
Magnitude (a.u.)       :      1.903892789
Magnitude (Debye)      :      4.839310884

Rotational constants in cm-1:             0.039880             0.031201             0.027610
Rotational constants in MHz :          1195.582159           935.374626           827.721070

                             ****ORCA TERMINATED NORMALLY****
TOTAL RUN TIME: 0 days 0 hours 0 minutes 12 seconds 691 msec
