                         Program Version 6.0.0  -   RELEASE  -
|  1> ! pbe def2-sv(p) def2/J RI DEFGRID1 loosescf d4 GCP(DFT/SV(P)) printgap
|  2> %output
|  3>     printlevel normal
|  4> end
|  5> * xyz 0 1
|  6> C -2.9865114533 1.2333729247 0.0001404397
|  7> C -1.7553536534 0.3775807803 0.0003006038
|  8> C -1.8331126403 -1.0041682084 -0.0008686022
|  9> C -0.6841127753 -1.779211085 -0.0008885116
| 10> C 0.5623518471 -1.1808884641 8.88103e-05
| 11> C 0.6535117108 0.2210095868 0.0008706128
| 12> C -0.4997011908 0.9822848212 0.0011393078
| 13> O 1.9395966573 0.7162663962 0.0013716463
| 14> C 2.1181571524 2.1174002502 -0.0020120953
| 15> O 1.6870206284 -1.9537680603 0.0001632816
| 16> H -3.0055979404 1.8698186537 -0.8828912293
| 17> H -3.8818068771 0.6186569842 0.0054654022
| 18> H -3.0004545242 1.8780422472 0.877228819
| 19> H -2.7966051932 -1.4900721029 -0.0017066719
| 20> H -0.735913477 -2.8562022363 -0.0017222362
| 21> H -0.4431060388 2.0593463893 0.0020493868
| 22> H 3.1952513245 2.2689268596 -0.0039860533
| 23> H 1.6837574883 2.5717559048 0.8920883608
| 24> H 1.6810221642 2.5676200314 -0.8968660079
| 25> H 2.4639093856 -1.3719331428 0.000625787
| 26> *
| 27>
| 28>                          ****END OF INPUT****

CARTESIAN COORDINATES (ANGSTROEM)
---------------------------------
  C     -2.986511    1.233373    0.000140
  C     -1.755354    0.377581    0.000301
  C     -1.833113   -1.004168   -0.000869
  C     -0.684113   -1.779211   -0.000889
  C      0.562352   -1.180888    0.000089
  C      0.653512    0.221010    0.000871
  C     -0.499701    0.982285    0.001139
  O      1.939597    0.716266    0.001372
  C      2.118157    2.117400   -0.002012
  O      1.687021   -1.953768    0.000163
  H     -3.005598    1.869819   -0.882891
  H     -3.881807    0.618657    0.005465
  H     -3.000455    1.878042    0.877229
  H     -2.796605   -1.490072   -0.001707
  H     -0.735913   -2.856202   -0.001722
  H     -0.443106    2.059346    0.002049
  H      3.195251    2.268927   -0.003986
  H      1.683757    2.571756    0.892088
  H      1.681022    2.567620   -0.896866
  H      2.463909   -1.371933    0.000626

 Total Charge           Charge          ....    0
 Multiplicity           Mult            ....    1
 Number of Electrons    NEL             ....   74
 Basis Dimension        Dim             ....  160

ORBITAL ENERGIES
----------------

  NO   OCC          E(Eh)            E(eV)
   0   2.0000     -18.796550      -511.4801
   1   2.0000     -18.770198      -510.7631
   2   2.0000      -9.948084      -270.7011
   3   2.0000      -9.946639      -270.6618
   4   2.0000      -9.941890      -270.5326
   5   2.0000      -9.890852      -269.1438
   6   2.0000      -9.885661      -269.0025
   7   2.0000      -9.879218      -268.8272
   8   2.0000      -9.878441      -268.8061
   9   2.0000      -9.878211      -268.7998
  10   2.0000      -0.978044       -26.6139
  11   2.0000      -0.944910       -25.7123
  12   2.0000      -0.768955       -20.9243
  13   2.0000      -0.692146       -18.8342
  14   2.0000      -0.675169       -18.3723
  15   2.0000      -0.636633       -17.3237
  16   2.0000      -0.603541       -16.4232
  17   2.0000      -0.543467       -14.7885
  18   2.0000      -0.524975       -14.2853
  19   2.0000      -0.498852       -13.5745
  20   2.0000      -0.465373       -12.6634
  21   2.0000      -0.434182       -11.8147
  22   2.0000      -0.427271       -11.6266
  23   2.0000      -0.397494       -10.8164
  24   2.0000      -0.394469       -10.7341
  25   2.0000      -0.376193       -10.2367
  26   2.0000      -0.374744       -10.1973
  27   2.0000      -0.354590        -9.6489
  28   2.0000      -0.348307        -9.4779
  29   2.0000      -0.326827        -8.8934
  30   2.0000      -0.319969        -8.7068
  31   2.0000      -0.295422        -8.0388
  32   2.0000      -0.294014        -8.0005
  33   2.0000      -0.288611        -7.8535
  34   2.0000      -0.271319        -7.3830
  35   2.0000      -0.207120        -5.6360
  36   2.0000      -0.173165        -4.7121
  37   0.0000      -0.021849        -0.5945
  38   0.0000      -0.008154        -0.2219
  39   0.0000       0.034712         0.9446
  40   0.0000       0.040921         1.1135
  41   0.0000       0.063549         1.7293

MULLIKEN ATOMIC CHARGES
-----------------------
   0 C :   -0.222361
   1 C :    0.077044
   2 C :   -0.116034
   3 C :   -0.161418
   4 C :    0.173920
   5 C :    0.226652
   6 C :   -0.295663
   7 O :   -0.312923
   8 C :   -0.108134
   9 O :   -0.336856
  10 H :    0.108659
  11 H :    0.098869
  12 H :    0.108453
  13 H :    0.031128
  14 H :    0.039647
  15 H :    0.018367
  16 H :    0.124673
  17 H :    0.114262
  18 H :    0.114236
  19 H :    0.317479
Sum of atomic charges:    0.0000000

LOEWDIN ATOMIC CHARGES
----------------------
   0 C :   -0.322066
   1 C :   -0.063921
   2 C :   -0.137137
   3 C :   -0.148046
   4 C :    0.006068
   5 C :   -0.001149
   6 C :   -0.171053
   7 O :   -0.113229
   8 C :   -0.199832
   9 O :   -0.240850
  10 H :    0.127565
  11 H :    0.123514
  12 H :    0.127462
  13 H :    0.120377
  14 H :    0.130974
  15 H :    0.123190
  16 H :    0.122111
  17 H :    0.111378
  18 H :    0.111404
  19 H :    0.293239

  Mayer bond orders larger than 0.100000
B(  0-C ,  1-C ) :   1.0948 B(  0-C , 10-H ) :   0.9378 B(  0-C , 11-H ) :   0.9461
B(  0-C , 12-H ) :   0.9379 B(  1-C ,  2-C ) :   1.4117 B(  1-C ,  6-C ) :   1.2985
B(  2-C ,  3-C ) :   1.3046 B(  2-C , 13-H ) :   0.9647 B(  3-C ,  4-C ) :   1.4016
B(  3-C , 14-H ) :   0.9696 B(  4-C ,  5-C ) :   1.2774 B(  4-C ,  9-O ) :   1.2440
B(  5-C ,  6-C ) :   1.3004 B(  5-C ,  7-O ) :   1.0865 B(  6-C , 15-H ) :   0.9688
B(  7-O ,  8-C ) :   0.9827 B(  8-C , 16-H ) :   0.9586 B(  8-C , 17-H ) :   0.9423
B(  8-C , 18-H ) :   0.9423 B(  9-O , 19-H ) :   0.8231

Dispersion correction           -0.020087622
FINAL SINGLE POINT ENERGY      -460.311100931189

DIPOLE MOMENT
-------------

Method             : SCF
Type of density    : Electron Density
Multiplicity       :   1
Irrep              :   0
Energy             :  -460.3794799094563359 Eh
Relativity type    :
Basis              : AO
                                X                 Y                 Z
Electronic contribution:      4.828021688      -6.559412991       0.007427463
Nuclear contribution   :     -4.486578853       7.595811100      -0.009091053
                        -----------------------------------------
Total Dipole Moment    :      0.341442835       1.036398110      -0.001663590
                        -----------------------------------------
Magnitude (a.u.)       :      1.091195225
Magnitude (Debye)      :      2.773597840

Rotational constants in cm-1:             0.062914             0.039300             0.024412
Rotational constants in MHz :          1886.122510          1178.187164           731.857276

                             ****ORCA TERMINATED NORMALLY****
TOTAL RUN TIME: 0 days 0 hours 0 minutes 9 seconds 874 msec
