                         Program Version 6.0.0  -   RELEASE  -
|  1> ! wb97x-v def2-tzvp def2/J RIJCOSX DEFGRID2 scfconv7 GCP(DFT/TZ) printgap
|  2> %output
|  3>     printlevel normal
|  4> end
|  5> * xyz 0 1
|  6> C -1.9322425040062168 -0.28125218493476395 0.5273151613440282
|  7> C -1.1661185860391692 -0.09322052220641816 -0.7788370172333604
|  8> C 0.10351465123613512 0.7358545181406566 -0.6385055839932701
|  9> S 1.3147650288267267 -0.11393518035533708 0.4894292040980518
| 10> H -2.882951468571645 -0.7928334589076386 0.34828786623205205
| 11> H -1.3657662266964077 -0.8812230370516104 1.247281577199394
| 12> H -2.150314943387786 0.6859529637343884 0.9940454012111242
| 13> H -1.8037030828860525 0.42811448183150197 -1.503606093362813
| 14> H -0.9234447301094443 -1.0680514144540367 -1.2188629468289698
| 15> H 0.5846302355093175 0.8657859062622785 -1.6109660084839301
| 16> H -0.126171282170349 1.7210404136517714 -0.22145341517227127
| 17> H 2.345970456312286 0.716959992495815 0.2528069778585708
| 18> *
| 19>
| 20>                          ****END OF INPUT****

CARTESIAN COORDINATES (ANGSTROEM)
---------------------------------
  C     -1.932243   -0.281252    0.527315
  C     -1.166119   -0.093221   -0.778837
  C      0.103515    0.735855   -0.638506
  S      1.314765   -0.113935    0.489429
  H     -2.882951   -0.792833    0.348288
  H     -1.365766   -0.881223    1.247282
  H     -2.150315    0.685953    0.994045
  H     -1.803703    0.428114   -1.503606
  H     -0.923445   -1.068051   -1.218863
  H      0.584630    0.865786   -1.610966
  H     -0.126171    1.721040   -0.221453
  H      2.345970    0.716960    0.252807

 Total Charge           Charge          ....    0
 Multiplicity           Mult            ....    1
 Number of Electrons    NEL             ....   42
 Basis Dimension        Dim             ....  178

ORBITAL ENERGIES
----------------

  NO   OCC          E(Eh)            E(eV)
   0   2.0000     -94.117419     -2561.0652
   1   2.0000     -12.080557      -328.7287
   2   2.0000     -12.053690      -327.9976
   3   2.0000     -12.037615      -327.5602
   4   2.0000      -9.628739      -262.0113
   5   2.0000      -7.606295      -206.9778
   6   2.0000      -7.605274      -206.9500
   7   2.0000      -7.604768      -206.9362
   8   2.0000      -1.311865       -35.6977
   9   2.0000      -1.232500       -33.5380
  10   2.0000      -1.150611       -31.3097
  11   2.0000      -1.053172       -28.6583
  12   2.0000      -0.895558       -24.3694
  13   2.0000      -0.891038       -24.2464
  14   2.0000      -0.851801       -23.1787
  15   2.0000      -0.824114       -22.4253
  16   2.0000      -0.807192       -21.9648
  17   2.0000      -0.780769       -21.2458
  18   2.0000      -0.772211       -21.0129
  19   2.0000      -0.739948       -20.1350
  20   2.0000      -0.640540       -17.4300
  21   0.0000      -0.197650        -5.3783
  22   0.0000      -0.109519        -2.9802
  23   0.0000      -0.024436        -0.6649
  24   0.0000      -0.009820        -0.2672
  25   0.0000       0.001355         0.0369

MULLIKEN ATOMIC CHARGES
-----------------------
   0 C :   -0.344361
   1 C :   -0.167302
   2 C :   -0.168180
   3 S :   -0.231375
   4 H :    0.114581
   5 H :    0.124625
   6 H :    0.103662
   7 H :    0.096550
   8 H :    0.104365
   9 H :    0.120634
  10 H :    0.112770
  11 H :    0.134032
Sum of atomic charges:   -0.0000000

LOEWDIN ATOMIC CHARGES
----------------------
   0 C :   -0.311929
   1 C :   -0.325444
   2 C :   -0.457178
   3 S :    0.205107
   4 H :    0.117306
   5 H :    0.117166
   6 H :    0.117794
   7 H :    0.135471
   8 H :    0.133660
   9 H :    0.119433
  10 H :    0.118530
  11 H :    0.030084

  Mayer bond orders larger than 0.100000
B(  0-C ,  1-C ) :   0.9886 B(  0-C ,  4-H ) :   0.9800 B(  0-C ,  5-H ) :   0.9757
B(  0-C ,  6-H ) :   0.9758 B(  1-C ,  2-C ) :   0.9975 B(  1-C ,  7-H ) :   0.9685
B(  1-C ,  8-H ) :   0.9740 B(  2-C ,  3-S ) :   1.0520 B(  2-C ,  9-H ) :   0.9704
B(  2-C , 10-H ) :   0.9667 B(  3-S , 11-H ) :   0.9737

FINAL SINGLE POINT ENERGY      -517.279499997628

DIPOLE MOMENT
-------------

Method             : SCF
Type of density    : Electron Density
Multiplicity       :   1
Irrep              :   0
Energy             :  -517.2877441341281610 Eh
Relativity type    :
Basis              : AO
                                X                 Y                 Z
Electronic contribution:      5.705165401      -0.909159011       1.500687727
Nuclear contribution   :     -5.950124478       1.342094662      -1.942258518
                        -----------------------------------------
Total Dipole Moment    :     -0.244959078       0.432935651      -0.441570791
                        -----------------------------------------
Magnitude (a.u.)       :      0.665148849
Magnitude (Debye)      :      1.690674014

Rotational constants in cm-1:             0.377379             0.109723             0.093472
Rotational constants in MHz :         11313.535913          3289.406981          2802.228650

                             ****ORCA TERMINATED NORMALLY****
TOTAL RUN TIME: 0 days 0 hours 0 minutes 46 seconds 296 msec
