                         Program Version 6.0.0  -   RELEASE  -
|  1> ! wb97x-v def2-tzvp def2/J RIJCOSX DEFGRID2 scfconv7 GCP(DFT/TZ) printgap
|  2> %output
|  3>     printlevel normal
|  4> end
|  5> %cpcm
|  6>     smd true
|  7>     smdsolvent "water"
|  8> end
|  9> * xyz 0 1
| 10> C -1.9322425040062168 -0.28125218493476395 0.5273151613440282
| 11> C -1.1661185860391692 -0.09322052220641816 -0.7788370172333604
| 12> C 0.10351465123613512 0.7358545181406566 -0.6385055839932701
| 13> S 1.3147650288267267 -0.11393518035533708 0.4894292040980518
| 14> H -2.882951468571645 -0.7928334589076386 0.34828786623205205
| 15> H -1.3657662266964077 -0.8812230370516104 1.247281577199394
| 16> H -2.150314943387786 0.6859529637343884 0.9940454012111242
| 17> H -1.8037030828860525 0.42811448183150197 -1.503606093362813
| 18> H -0.9234447301094443 -1.0680514144540367 -1.2188629468289698
| 19> H 0.5846302355093175 0.8657859062622785 -1.6109660084839301
| 20> H -0.126171282170349 1.7210404136517714 -0.22145341517227127
| 21> H 2.345970456312286 0.716959992495815 0.2528069778585708
| 22> *
| 23>
| 24>                          ****END OF INPUT****

CARTESIAN COORDINATES (ANGSTROEM)
---------------------------------
  C     -1.932243   -0.281252    0.527315
  C     -1.166119   -0.093221   -0.778837
  C      0.103515    0.735855   -0.638506
  S      1.314765   -0.113935    0.489429
  H     -2.882951   -0.792833    0.348288
  H     -1.365766   -0.881223    1.247282
  H     -2.150315    0.685953    0.994045
  H     -1.803703    0.428114   -1.503606
  H     -0.923445   -1.068051   -1.218863
  H      0.584630    0.865786   -1.610966
  H     -0.126171    1.721040   -0.221453
  H      2.345970    0.716960    0.252807

 Total Charge           Charge          ....    0
 Multiplicity           Mult            ....    1
 Number of Electrons    NEL             ....   42
 Basis Dimension        Dim             ....  178

ORBITAL ENERGIES
----------------

  NO   OCC          E(Eh)            E(eV)
   0   2.0000     -94.115163     -2561.0038
   1   2.0000     -12.069787      -328.4356
   2   2.0000     -12.041561      -327.6675
   3   2.0000     -12.027621      -327.2882
   4   2.0000      -9.626628      -261.9539
   5   2.0000      -7.604191      -206.9206
   6   2.0000      -7.603198      -206.8935
   7   2.0000      -7.602892      -206.8852
   8   2.0000      -1.302137       -35.4329
   9   2.0000      -1.225884       -33.3580
  10   2.0000      -1.142458       -31.0879
  11   2.0000      -1.042650       -28.3720
  12   2.0000      -0.885642       -24.0996
  13   2.0000      -0.879849       -23.9419
  14   2.0000      -0.841241       -22.8913
  15   2.0000      -0.816787       -22.2259
  16   2.0000      -0.796911       -21.6850
  17   2.0000      -0.770466       -20.9654
  18   2.0000      -0.763195       -20.7676
  19   2.0000      -0.734257       -19.9802
  20   2.0000      -0.639304       -17.3963
  21   0.0000      -0.192519        -5.2387
  22   0.0000      -0.101560        -2.7636
  23   0.0000      -0.013516        -0.3678
  24   0.0000       0.003484         0.0948
  25   0.0000       0.012562         0.3418

MULLIKEN ATOMIC CHARGES
-----------------------
   0 C :   -0.392868
   1 C :   -0.168589
   2 C :   -0.188632
   3 S :   -0.306842
   4 H :    0.131909
   5 H :    0.124398
   6 H :    0.122521
   7 H :    0.115585
   8 H :    0.110007
   9 H :    0.146704
  10 H :    0.137125
  11 H :    0.168681
Sum of atomic charges:   -0.0000000

LOEWDIN ATOMIC CHARGES
----------------------
   0 C :   -0.319363
   1 C :   -0.324830
   2 C :   -0.450668
   3 S :    0.170212
   4 H :    0.120426
   5 H :    0.114427
   6 H :    0.120647
   7 H :    0.141369
   8 H :    0.134257
   9 H :    0.126615
  10 H :    0.125097
  11 H :    0.041811

  Mayer bond orders larger than 0.100000
B(  0-C ,  1-C ) :   0.9788 B(  0-C ,  4-H ) :   0.9774 B(  0-C ,  5-H ) :   0.9749
B(  0-C ,  6-H ) :   0.9745 B(  1-C ,  2-C ) :   0.9925 B(  1-C ,  7-H ) :   0.9652
B(  1-C ,  8-H ) :   0.9725 B(  2-C ,  3-S ) :   1.0301 B(  2-C ,  9-H ) :   0.9687
B(  2-C , 10-H ) :   0.9670 B(  3-S , 11-H ) :   0.9686

FINAL SINGLE POINT ENERGY      -517.281177984376

DIPOLE MOMENT
-------------

Method             : SCF
Type of density    : Electron Density
Multiplicity       :   1
Irrep              :   0
Energy             :  -517.2894221208757699 Eh
Relativity type    :
Basis              : AO
                                X                 Y                 Z
Electronic contribution:      5.625362059      -0.726279562       1.314780853
Nuclear contribution   :     -5.950124478       1.342094662      -1.942258518
                        -----------------------------------------
Total Dipole Moment    :     -0.324762420       0.615815100      -0.627477664
                        -----------------------------------------
Magnitude (a.u.)       :      0.937244411
Magnitude (Debye)      :      2.382285969

Rotational constants in cm-1:             0.377379             0.109723             0.093472
Rotational constants in MHz :         11313.535913          3289.406981          2802.228650

                             ****ORCA TERMINATED NORMALLY****
TOTAL RUN TIME: 0 days 0 hours 0 minutes 48 seconds 516 msec
