                         Program Version 6.0.0  -   RELEASE  -
|  1> ! pbe def2-sv(p) def2/J RI DEFGRID1 loosescf d4 GCP(DFT/SV(P)) printgap
|  2> %output
|  3>     printlevel normal
|  4> end
|  5> * xyz 0 1
|  6> C 2.0668097546 0.0325076369 -0.1199444609
|  7> C 0.7597129316 0.6681383516 0.3379886641
|  8> C -0.4570040084 0.0212882793 -0.3298608139
|  9> H -0.3059364286 0.0280902975 -1.4226015298
| 10> C -1.7402563598 0.7823924068 0.0041044807
| 11> O -0.5236259016 -1.3238676898 0.1188798488
| 12> H 2.2083389027 0.1797166013 -1.1884246292
| 13> H 2.0475237895 -1.0353012714 0.0826953094
| 14> H 2.9083181958 0.4743865277 0.4068380219
| 15> H 0.7622871839 1.7334552357 0.1049148596
| 16> H 0.6548214882 0.5485533119 1.4175854005
| 17> H -2.5973128712 0.3223608968 -0.4826599552
| 18> H -1.902736122 0.7751418225 1.0792953044
| 19> H -1.6610784903 1.8110117383 -0.3346483248
| 20> H -1.3008848706 -1.748915331 -0.2665070045
| 21> *
| 22>
| 23>                          ****END OF INPUT****

CARTESIAN COORDINATES (ANGSTROEM)
---------------------------------
  C      2.066810    0.032508   -0.119944
  C      0.759713    0.668138    0.337989
  C     -0.457004    0.021288   -0.329861
  H     -0.305936    0.028090   -1.422602
  C     -1.740256    0.782392    0.004104
  O     -0.523626   -1.323868    0.118880
  H      2.208339    0.179717   -1.188425
  H      2.047524   -1.035301    0.082695
  H      2.908318    0.474387    0.406838
  H      0.762287    1.733455    0.104915
  H      0.654821    0.548553    1.417585
  H     -2.597313    0.322361   -0.482660
  H     -1.902736    0.775142    1.079295
  H     -1.661078    1.811012   -0.334648
  H     -1.300885   -1.748915   -0.266507

 Total Charge           Charge          ....    0
 Multiplicity           Mult            ....    1
 Number of Electrons    NEL             ....   42
 Basis Dimension        Dim             ....   90

ORBITAL ENERGIES
----------------

  NO   OCC          E(Eh)            E(eV)
   0   2.0000     -18.738488      -509.9002
   1   2.0000      -9.934840      -270.3407
   2   2.0000      -9.879136      -268.8249
   3   2.0000      -9.874275      -268.6927
   4   2.0000      -9.864836      -268.4358
   5   2.0000      -0.915653       -24.9162
   6   2.0000      -0.703746       -19.1499
   7   2.0000      -0.647644       -17.6233
   8   2.0000      -0.564213       -15.3530
   9   2.0000      -0.512430       -13.9439
  10   2.0000      -0.461211       -12.5502
  11   2.0000      -0.393755       -10.7146
  12   2.0000      -0.386869       -10.5273
  13   2.0000      -0.373986       -10.1767
  14   2.0000      -0.357589        -9.7305
  15   2.0000      -0.329364        -8.9625
  16   2.0000      -0.302438        -8.2297
  17   2.0000      -0.301768        -8.2115
  18   2.0000      -0.293062        -7.9746
  19   2.0000      -0.264152        -7.1879
  20   2.0000      -0.211403        -5.7526
  21   0.0000       0.024688         0.6718
  22   0.0000       0.064140         1.7453
  23   0.0000       0.071754         1.9525
  24   0.0000       0.082107         2.2342
  25   0.0000       0.095405         2.5961

MULLIKEN ATOMIC CHARGES
-----------------------
   0 C :   -0.261889
   1 C :   -0.169270
   2 C :    0.000082
   3 H :    0.053800
   4 C :   -0.244796
   5 O :   -0.428292
   6 H :    0.089324
   7 H :    0.112964
   8 H :    0.099178
   9 H :    0.082164
  10 H :    0.085958
  11 H :    0.089710
  12 H :    0.102536
  13 H :    0.094632
  14 H :    0.293901
Sum of atomic charges:    0.0000000

LOEWDIN ATOMIC CHARGES
----------------------
   0 C :   -0.342372
   1 C :   -0.235881
   2 C :   -0.057717
   3 H :    0.092546
   4 C :   -0.352718
   5 O :   -0.334994
   6 H :    0.114261
   7 H :    0.123822
   8 H :    0.117293
   9 H :    0.116787
  10 H :    0.120414
  11 H :    0.112322
  12 H :    0.122286
  13 H :    0.122226
  14 H :    0.281726

  Mayer bond orders larger than 0.100000
B(  0-C ,  1-C ) :   1.1606 B(  0-C ,  6-H ) :   0.9538 B(  0-C ,  7-H ) :   0.9484
B(  0-C ,  8-H ) :   0.9539 B(  1-C ,  2-C ) :   1.0796 B(  1-C ,  9-H ) :   0.9264
B(  1-C , 10-H ) :   0.9131 B(  2-C ,  3-H ) :   0.9066 B(  2-C ,  4-C ) :   1.1125
B(  2-C ,  5-O ) :   1.0478 B(  4-C , 11-H ) :   0.9470 B(  4-C , 12-H ) :   0.9428
B(  4-C , 13-H ) :   0.9373 B(  5-O , 14-H ) :   0.8534

Dispersion correction           -0.009464264
FINAL SINGLE POINT ENERGY      -233.093203481469

DIPOLE MOMENT
-------------

Method             : SCF
Type of density    : Electron Density
Multiplicity       :   1
Irrep              :   0
Energy             :  -233.1528244120097213 Eh
Relativity type    :
Basis              : AO
                                X                 Y                 Z
Electronic contribution:     -1.195132910      -2.710163917       0.232175126
Nuclear contribution   :      0.755259021       2.877837109      -0.564428848
                        -----------------------------------------
Total Dipole Moment    :     -0.439873889       0.167673192      -0.332253722
                        -----------------------------------------
Magnitude (a.u.)       :      0.576190831
Magnitude (Debye)      :      1.464560702

Rotational constants in cm-1:             0.268091             0.115843             0.089748
Rotational constants in MHz :          8037.160442          3472.881686          2690.585476

                             ****ORCA TERMINATED NORMALLY****
TOTAL RUN TIME: 0 days 0 hours 0 minutes 5 seconds 450 msec
