                         Program Version 6.0.0  -   RELEASE  -
|  1> ! pbe def2-sv(p) def2/J RI DEFGRID1 loosescf d4 GCP(DFT/SV(P)) printgap
|  2> %output
|  3>     printlevel normal
|  4> end
|  5> * xyz 0 1
|  6> C -3.3345574134 0.5031620151 -0.2242937002
|  7> C -1.8733361043 0.4811275187 0.0876403789
|  8> C -1.1044446945 1.558956957 0.187452593
|  9> C 0.3510741331 1.3953914985 0.480300867
| 10> C 0.9781748906 0.3440866179 -0.4656661399
| 11> H 1.0704577953 0.8149783937 -1.4482457284
| 12> C 0.070057044 -0.8908927231 -0.6149614786
| 13> C -1.1788881192 -0.848020631 0.2818410914
| 14> H -0.8548089424 -0.924600704 1.3352260374
| 15> O -1.9640760581 -1.9763998038 -0.0488928594
| 16> C 2.3679887265 0.0020058091 0.0248665173
| 17> C 2.5789891445 -0.7651562597 1.0829488789
| 18> C 3.491293308 0.6237945148 -0.7462552955
| 19> H -3.6461571881 1.5075183195 -0.4967196602
| 20> H -3.9172976136 0.1834844295 0.6395922426
| 21> H -3.549049754 -0.174976521 -1.0488780576
| 22> H -1.5017089615 2.5537178747 0.0554685454
| 23> H 0.8817196656 2.3415972884 0.3758094778
| 24> H 0.4823567845 1.0509904908 1.5109155038
| 25> H -0.2912730576 -0.9716051901 -1.6413720602
| 26> H 0.619785194 -1.8056733473 -0.3929343605
| 27> H -2.728135031 -2.0144539684 0.5412094123
| 28> H 3.572304812 -0.9868274613 1.4340978085
| 29> H 1.7714262265 -1.2090166122 1.6401098817
| 30> H 3.3736701165 1.7061635469 -0.7718458145
| 31> H 4.4527982612 0.3846122633 -0.3007581481
| 32> H 3.4805181414 0.263902889 -1.7742296415
| 33> *
| 34>
| 35>                          ****END OF INPUT****

CARTESIAN COORDINATES (ANGSTROEM)
---------------------------------
  C     -3.334557    0.503162   -0.224294
  C     -1.873336    0.481128    0.087640
  C     -1.104445    1.558957    0.187453
  C      0.351074    1.395391    0.480301
  C      0.978175    0.344087   -0.465666
  H      1.070458    0.814978   -1.448246
  C      0.070057   -0.890893   -0.614961
  C     -1.178888   -0.848021    0.281841
  H     -0.854809   -0.924601    1.335226
  O     -1.964076   -1.976400   -0.048893
  C      2.367989    0.002006    0.024867
  C      2.578989   -0.765156    1.082949
  C      3.491293    0.623795   -0.746255
  H     -3.646157    1.507518   -0.496720
  H     -3.917298    0.183484    0.639592
  H     -3.549050   -0.174977   -1.048878
  H     -1.501709    2.553718    0.055469
  H      0.881720    2.341597    0.375809
  H      0.482357    1.050990    1.510916
  H     -0.291273   -0.971605   -1.641372
  H      0.619785   -1.805673   -0.392934
  H     -2.728135   -2.014454    0.541209
  H      3.572305   -0.986827    1.434098
  H      1.771426   -1.209017    1.640110
  H      3.373670    1.706164   -0.771846
  H      4.452798    0.384612   -0.300758
  H      3.480518    0.263903   -1.774230

 Total Charge           Charge          ....    0
 Multiplicity           Mult            ....    1
 Number of Electrons    NEL             ....   84
 Basis Dimension        Dim             ....  186

ORBITAL ENERGIES
----------------

  NO   OCC          E(Eh)            E(eV)
   0   2.0000     -18.744966      -510.0764
   1   2.0000      -9.938518      -270.4408
   2   2.0000      -9.898001      -269.3383
   3   2.0000      -9.895611      -269.2733
   4   2.0000      -9.888044      -269.0674
   5   2.0000      -9.887874      -269.0627
   6   2.0000      -9.882571      -268.9184
   7   2.0000      -9.879363      -268.8311
   8   2.0000      -9.879350      -268.8308
   9   2.0000      -9.876238      -268.7461
  10   2.0000      -9.865134      -268.4439
  11   2.0000      -0.923137       -25.1198
  12   2.0000      -0.765042       -20.8179
  13   2.0000      -0.721992       -19.6464
  14   2.0000      -0.674342       -18.3498
  15   2.0000      -0.655439       -17.8354
  16   2.0000      -0.615181       -16.7399
  17   2.0000      -0.608303       -16.5528
  18   2.0000      -0.549207       -14.9447
  19   2.0000      -0.531444       -14.4613
  20   2.0000      -0.484727       -13.1901
  21   2.0000      -0.460082       -12.5195
  22   2.0000      -0.444103       -12.0847
  23   2.0000      -0.424985       -11.5644
  24   2.0000      -0.415188       -11.2978
  25   2.0000      -0.394399       -10.7321
  26   2.0000      -0.382913       -10.4196
  27   2.0000      -0.380815       -10.3625
  28   2.0000      -0.369794       -10.0626
  29   2.0000      -0.355854        -9.6833
  30   2.0000      -0.349247        -9.5035
  31   2.0000      -0.345789        -9.4094
  32   2.0000      -0.326943        -8.8966
  33   2.0000      -0.321719        -8.7544
  34   2.0000      -0.312983        -8.5167
  35   2.0000      -0.310480        -8.4486
  36   2.0000      -0.287223        -7.8157
  37   2.0000      -0.273336        -7.4378
  38   2.0000      -0.263655        -7.1744
  39   2.0000      -0.219793        -5.9809
  40   2.0000      -0.212764        -5.7896
  41   2.0000      -0.201118        -5.4727
  42   0.0000      -0.019045        -0.5182
  43   0.0000      -0.001594        -0.0434
  44   0.0000       0.023008         0.6261
  45   0.0000       0.035083         0.9547
  46   0.0000       0.056215         1.5297

MULLIKEN ATOMIC CHARGES
-----------------------
   0 C :   -0.235222
   1 C :   -0.078126
   2 C :   -0.202630
   3 C :   -0.015186
   4 C :   -0.149015
   5 H :    0.052732
   6 C :   -0.072421
   7 C :    0.062384
   8 H :    0.066543
   9 O :   -0.409906
  10 C :   -0.043912
  11 C :   -0.246329
  12 C :   -0.212096
  13 H :    0.101236
  14 H :    0.101116
  15 H :    0.118727
  16 H :    0.038337
  17 H :    0.076660
  18 H :    0.087942
  19 H :    0.079879
  20 H :    0.094892
  21 H :    0.298744
  22 H :    0.082480
  23 H :    0.089192
  24 H :    0.107369
  25 H :    0.095478
  26 H :    0.111135
Sum of atomic charges:    0.0000000

LOEWDIN ATOMIC CHARGES
----------------------
   0 C :   -0.329511
   1 C :   -0.079763
   2 C :   -0.160232
   3 C :   -0.206775
   4 C :   -0.124581
   5 H :    0.120125
   6 C :   -0.208497
   7 C :   -0.042405
   8 H :    0.104168
   9 O :   -0.319457
  10 C :   -0.046652
  11 C :   -0.272612
  12 C :   -0.321533
  13 H :    0.127202
  14 H :    0.122488
  15 H :    0.130026
  16 H :    0.114739
  17 H :    0.121380
  18 H :    0.126977
  19 H :    0.124633
  20 H :    0.125083
  21 H :    0.283662
  22 H :    0.118200
  23 H :    0.114936
  24 H :    0.126815
  25 H :    0.122344
  26 H :    0.129240

  Mayer bond orders larger than 0.100000
B(  0-C ,  1-C ) :   1.1432 B(  0-C , 13-H ) :   0.9383 B(  0-C , 14-H ) :   0.9268
B(  0-C , 15-H ) :   0.9255 B(  1-C ,  2-C ) :   1.8786 B(  1-C ,  7-C ) :   0.9954
B(  2-C ,  3-C ) :   1.0870 B(  2-C , 16-H ) :   0.9451 B(  3-C ,  4-C ) :   1.1126
B(  3-C , 17-H ) :   0.9090 B(  3-C , 18-H ) :   0.8678 B(  4-C ,  5-H ) :   0.8833
B(  4-C ,  6-C ) :   1.0622 B(  4-C , 10-C ) :   0.9779 B(  6-C ,  7-C ) :   1.1154
B(  6-C , 19-H ) :   0.8975 B(  6-C , 20-H ) :   0.9046 B(  7-C ,  8-H ) :   0.8700
B(  7-C ,  9-O ) :   1.0997 B(  9-O , 21-H ) :   0.8434 B( 10-C , 11-C ) :   2.0433
B( 10-C , 12-C ) :   1.1341 B( 11-C , 22-H ) :   0.9038 B( 11-C , 23-H ) :   0.9025
B( 12-C , 24-H ) :   0.9295 B( 12-C , 25-H ) :   0.9412 B( 12-C , 26-H ) :   0.9272

Dispersion correction           -0.028411725
FINAL SINGLE POINT ENERGY      -464.783060042440

DIPOLE MOMENT
-------------

Method             : SCF
Type of density    : Electron Density
Multiplicity       :   1
Irrep              :   0
Energy             :  -464.8730637701999058 Eh
Relativity type    :
Basis              : AO
                                X                 Y                 Z
Electronic contribution:     -3.247900791      -2.160599565       0.555290511
Nuclear contribution   :      2.988587717       2.522328749      -0.322098251
                        -----------------------------------------
Total Dipole Moment    :     -0.259313075       0.361729184       0.233192260
                        -----------------------------------------
Magnitude (a.u.)       :      0.502463833
Magnitude (Debye)      :      1.277161565

Rotational constants in cm-1:             0.072230             0.022629             0.019302
Rotational constants in MHz :          2165.409989           678.410899           578.665733

                             ****ORCA TERMINATED NORMALLY****
TOTAL RUN TIME: 0 days 0 hours 0 minutes 12 seconds 161 msec
