                         Program Version 6.0.0  -   RELEASE  -
|  1> ! pbe def2-sv(p) def2/J RI DEFGRID1 loosescf d4 GCP(DFT/SV(P)) printgap
|  2> %output
|  3>     printlevel normal
|  4> end
|  5> * xyz 0 1
|  6> C -3.8145291916 -0.6764661445 0.0130228964
|  7> N -2.6782306484 0.2260843243 -0.0036033611
|  8> C -2.8997124338 1.6578844869 -0.0123268666
|  9> C -1.4510260507 -0.3527231843 0.001171186
| 10> O -1.3321644636 -1.5794377759 0.0131166277
| 11> N -0.3896711455 0.5177061301 -0.0096293397
| 12> C 0.9767134705 0.2368638527 -0.005203331
| 13> C 1.4988460118 -1.0534183738 0.0075951463
| 14> C 2.8688156978 -1.2445688059 0.0123869654
| 15> C 3.7358552586 -0.1655412118 0.004355996
| 16> C 3.2202028667 1.1201970322 -0.0088618829
| 17> C 1.8543339346 1.3223740934 -0.0136622092
| 18> H -3.7771443599 -1.340924711 -0.8525154466
| 19> H -4.7359103173 -0.1053799028 -0.0047423618
| 20> H -3.7857954168 -1.3005592189 0.9086050668
| 21> H -2.4792338251 2.1287968771 0.8794359019
| 22> H -3.9699179116 1.8417968882 -0.0147658633
| 23> H -2.4774522098 2.117297808 -0.9091322541
| 24> H -0.6042608643 1.5038827259 -0.0188168276
| 25> H 0.8278017203 -1.896453717 0.0140606493
| 26> H 3.2581832485 -2.2516412481 0.0225092963
| 27> H 4.8030532633 -0.3247524028 0.0083301942
| 28> H 3.8854382923 1.9703614561 -0.0153520772
| 29> H 1.4603707501 2.3281731602 -0.0237972145
| 30> *
| 31>
| 32>                          ****END OF INPUT****

CARTESIAN COORDINATES (ANGSTROEM)
---------------------------------
  C     -3.814529   -0.676466    0.013023
  N     -2.678231    0.226084   -0.003603
  C     -2.899712    1.657884   -0.012327
  C     -1.451026   -0.352723    0.001171
  O     -1.332164   -1.579438    0.013117
  N     -0.389671    0.517706   -0.009629
  C      0.976713    0.236864   -0.005203
  C      1.498846   -1.053418    0.007595
  C      2.868816   -1.244569    0.012387
  C      3.735855   -0.165541    0.004356
  C      3.220203    1.120197   -0.008862
  C      1.854334    1.322374   -0.013662
  H     -3.777144   -1.340925   -0.852515
  H     -4.735910   -0.105380   -0.004742
  H     -3.785795   -1.300559    0.908605
  H     -2.479234    2.128797    0.879436
  H     -3.969918    1.841797   -0.014766
  H     -2.477452    2.117298   -0.909132
  H     -0.604261    1.503883   -0.018817
  H      0.827802   -1.896454    0.014061
  H      3.258183   -2.251641    0.022509
  H      4.803053   -0.324752    0.008330
  H      3.885438    1.970361   -0.015352
  H      1.460371    2.328173   -0.023797

 Total Charge           Charge          ....    0
 Multiplicity           Mult            ....    1
 Number of Electrons    NEL             ....   88
 Basis Dimension        Dim             ....  192

ORBITAL ENERGIES
----------------

  NO   OCC          E(Eh)            E(eV)
   0   2.0000     -18.703541      -508.9492
   1   2.0000     -14.027491      -381.7074
   2   2.0000     -14.024128      -381.6159
   3   2.0000     -10.000773      -272.1349
   4   2.0000      -9.939321      -270.4627
   5   2.0000      -9.935174      -270.3498
   6   2.0000      -9.916794      -269.8497
   7   2.0000      -9.889367      -269.1033
   8   2.0000      -9.887970      -269.0653
   9   2.0000      -9.883144      -268.9340
  10   2.0000      -9.879573      -268.8369
  11   2.0000      -9.874622      -268.7021
  12   2.0000      -0.946057       -25.7435
  13   2.0000      -0.853512       -23.2252
  14   2.0000      -0.845242       -23.0002
  15   2.0000      -0.761907       -20.7325
  16   2.0000      -0.675983       -18.3944
  17   2.0000      -0.664480       -18.0814
  18   2.0000      -0.663185       -18.0462
  19   2.0000      -0.623493       -16.9661
  20   2.0000      -0.561656       -15.2834
  21   2.0000      -0.546791       -14.8789
  22   2.0000      -0.502046       -13.6614
  23   2.0000      -0.496096       -13.4995
  24   2.0000      -0.471929       -12.8418
  25   2.0000      -0.438722       -11.9382
  26   2.0000      -0.438190       -11.9237
  27   2.0000      -0.416825       -11.3424
  28   2.0000      -0.395738       -10.7686
  29   2.0000      -0.381122       -10.3709
  30   2.0000      -0.378701       -10.3050
  31   2.0000      -0.374841       -10.1999
  32   2.0000      -0.368005       -10.0139
  33   2.0000      -0.366372        -9.9695
  34   2.0000      -0.355377        -9.6703
  35   2.0000      -0.336436        -9.1549
  36   2.0000      -0.324051        -8.8179
  37   2.0000      -0.310586        -8.4515
  38   2.0000      -0.295257        -8.0344
  39   2.0000      -0.266886        -7.2623
  40   2.0000      -0.222488        -6.0542
  41   2.0000      -0.203230        -5.5302
  42   2.0000      -0.202936        -5.5222
  43   2.0000      -0.184421        -5.0183
  44   0.0000      -0.027466        -0.7474
  45   0.0000      -0.024634        -0.6703
  46   0.0000       0.013687         0.3724
  47   0.0000       0.038729         1.0539
  48   0.0000       0.045394         1.2352

MULLIKEN ATOMIC CHARGES
-----------------------
   0 C :   -0.148674
   1 N :   -0.267251
   2 C :   -0.205687
   3 C :    0.184340
   4 O :   -0.263748
   5 N :   -0.236195
   6 C :    0.195007
   7 C :   -0.136894
   8 C :   -0.053080
   9 C :   -0.042082
  10 C :   -0.061500
  11 C :   -0.144421
  12 H :    0.120404
  13 H :    0.102513
  14 H :    0.119359
  15 H :    0.121932
  16 H :    0.124506
  17 H :    0.122163
  18 H :    0.223609
  19 H :    0.074094
  20 H :    0.052466
  21 H :    0.046176
  22 H :    0.048493
  23 H :    0.024470
Sum of atomic charges:   -0.0000000

LOEWDIN ATOMIC CHARGES
----------------------
   0 C :   -0.242974
   1 N :   -0.084130
   2 C :   -0.259498
   3 C :    0.035025
   4 O :   -0.228503
   5 N :   -0.130033
   6 C :    0.011930
   7 C :   -0.146096
   8 C :   -0.114529
   9 C :   -0.144766
  10 C :   -0.120839
  11 C :   -0.155660
  12 H :    0.123385
  13 H :    0.114732
  14 H :    0.122585
  15 H :    0.115392
  16 H :    0.131037
  17 H :    0.115559
  18 H :    0.233070
  19 H :    0.141326
  20 H :    0.123982
  21 H :    0.120664
  22 H :    0.122481
  23 H :    0.115859

  Mayer bond orders larger than 0.100000
B(  0-C ,  1-N ) :   1.0086 B(  0-C , 12-H ) :   0.9522 B(  0-C , 13-H ) :   0.9469
B(  0-C , 14-H ) :   0.9528 B(  1-N ,  2-C ) :   1.0215 B(  1-N ,  3-C ) :   1.1415
B(  2-C , 15-H ) :   0.9387 B(  2-C , 16-H ) :   0.9463 B(  2-C , 17-H ) :   0.9387
B(  3-C ,  4-O ) :   1.9387 B(  3-C ,  5-N ) :   1.1131 B(  5-N ,  6-C ) :   1.1044
B(  5-N , 18-H ) :   0.8199 B(  6-C ,  7-C ) :   1.3899 B(  6-C , 11-C ) :   1.3195
B(  7-C ,  8-C ) :   1.3449 B(  7-C , 19-H ) :   0.9419 B(  8-C ,  9-C ) :   1.3695
B(  8-C , 20-H ) :   0.9638 B(  9-C , 10-C ) :   1.3704 B(  9-C , 21-H ) :   0.9670
B( 10-C , 11-C ) :   1.3988 B( 10-C , 22-H ) :   0.9614 B( 11-C , 23-H ) :   0.9533

Dispersion correction           -0.025493261
FINAL SINGLE POINT ENERGY      -533.769852310657

DIPOLE MOMENT
-------------

Method             : SCF
Type of density    : Electron Density
Multiplicity       :   1
Irrep              :   0
Energy             :  -533.8497131681573364 Eh
Relativity type    :
Basis              : AO
                                X                 Y                 Z
Electronic contribution:      6.248076994      -2.878308476      -0.004757028
Nuclear contribution   :     -7.161842527       4.362490805      -0.005677015
                        -----------------------------------------
Total Dipole Moment    :     -0.913765533       1.484182329      -0.010434043
                        -----------------------------------------
Magnitude (a.u.)       :      1.742949656
Magnitude (Debye)      :      4.430225950

Rotational constants in cm-1:             0.087289             0.016239             0.013763
Rotational constants in MHz :          2616.861032           486.840284           412.605607

                             ****ORCA TERMINATED NORMALLY****
TOTAL RUN TIME: 0 days 0 hours 0 minutes 12 seconds 658 msec
