                         Program Version 6.0.0  -   RELEASE  -
|  1> ! pbe def2-sv(p) def2/J RI DEFGRID1 loosescf d4 GCP(DFT/SV(P)) printgap
|  2> %output
|  3>     printlevel normal
|  4> end
|  5> * xyz 0 1
|  6> C -9.8336e-06 -1.3908500525 0.0001344057
|  7> C 1.1999029203 -0.6968082807 0.0001201109
|  8> C 1.1998859768 0.6968123492 0.0001919646
|  9> C -5.761e-06 1.3908454815 5.92898e-05
| 10> C -1.1998923729 0.6968089032 6.01686e-05
| 11> C -1.1999074009 -0.6968060598 3.73648e-05
| 12> Cl -2.686811042 -1.5665027344 -2.53603e-05
| 13> Cl -2.6867928329 1.5665004261 -6.02881e-05
| 14> Cl 2.6867934031 1.5664934719 -3.24703e-05
| 15> Cl 2.6868201921 -1.566491701 -8.56363e-05
| 16> H -1.69026e-05 -2.4682659422 9.94694e-05
| 17> H -9.5576e-06 2.4682569524 -0.0001217111
| 18> *
| 19>
| 20>                          ****END OF INPUT****

CARTESIAN COORDINATES (ANGSTROEM)
---------------------------------
  C     -0.000010   -1.390850    0.000134
  C      1.199903   -0.696808    0.000120
  C      1.199886    0.696812    0.000192
  C     -0.000006    1.390845    0.000059
  C     -1.199892    0.696809    0.000060
  C     -1.199907   -0.696806    0.000037
  Cl    -2.686811   -1.566503   -0.000025
  Cl    -2.686793    1.566500   -0.000060
  Cl     2.686793    1.566493   -0.000032
  Cl     2.686820   -1.566492   -0.000086
  H     -0.000017   -2.468266    0.000099
  H     -0.000010    2.468257   -0.000122

 Total Charge           Charge          ....    0
 Multiplicity           Mult            ....    1
 Number of Electrons    NEL             ....  106
 Basis Dimension        Dim             ....  160

ORBITAL ENERGIES
----------------

  NO   OCC          E(Eh)            E(eV)
   0   2.0000    -100.659134     -2739.0743
   1   2.0000    -100.659104     -2739.0735
   2   2.0000    -100.659044     -2739.0718
   3   2.0000    -100.659032     -2739.0715
   4   2.0000      -9.978525      -271.5295
   5   2.0000      -9.978503      -271.5289
   6   2.0000      -9.978343      -271.5245
   7   2.0000      -9.978268      -271.5225
   8   2.0000      -9.929968      -270.2082
   9   2.0000      -9.929879      -270.2058
  10   2.0000      -9.194946      -250.2072
  11   2.0000      -9.194920      -250.2065
  12   2.0000      -9.194868      -250.2051
  13   2.0000      -9.194863      -250.2049
  14   2.0000      -7.026521      -191.2014
  15   2.0000      -7.026515      -191.2012
  16   2.0000      -7.026505      -191.2009
  17   2.0000      -7.026500      -191.2008
  18   2.0000      -7.014903      -190.8852
  19   2.0000      -7.014902      -190.8852
  20   2.0000      -7.014893      -190.8849
  21   2.0000      -7.014891      -190.8849
  22   2.0000      -7.014031      -190.8615
  23   2.0000      -7.014025      -190.8613
  24   2.0000      -7.013993      -190.8605
  25   2.0000      -7.013992      -190.8604
  26   2.0000      -0.865391       -23.5485
  27   2.0000      -0.835901       -22.7460
  28   2.0000      -0.803417       -21.8621
  29   2.0000      -0.793403       -21.5896
  30   2.0000      -0.756418       -20.5832
  31   2.0000      -0.687262       -18.7013
  32   2.0000      -0.655708       -17.8427
  33   2.0000      -0.588193       -16.0056
  34   2.0000      -0.547364       -14.8945
  35   2.0000      -0.485316       -13.2061
  36   2.0000      -0.481733       -13.1086
  37   2.0000      -0.439751       -11.9662
  38   2.0000      -0.419964       -11.4278
  39   2.0000      -0.417493       -11.3606
  40   2.0000      -0.407795       -11.0967
  41   2.0000      -0.375170       -10.2089
  42   2.0000      -0.369345       -10.0504
  43   2.0000      -0.359501        -9.7825
  44   2.0000      -0.328707        -8.9446
  45   2.0000      -0.310570        -8.4510
  46   2.0000      -0.301823        -8.2130
  47   2.0000      -0.292053        -7.9472
  48   2.0000      -0.278025        -7.5654
  49   2.0000      -0.276641        -7.5278
  50   2.0000      -0.272183        -7.4065
  51   2.0000      -0.242043        -6.5863
  52   2.0000      -0.221552        -6.0287
  53   0.0000      -0.071975        -1.9585
  54   0.0000      -0.067115        -1.8263
  55   0.0000      -0.042737        -1.1629
  56   0.0000      -0.000176        -0.0048
  57   0.0000       0.024702         0.6722

MULLIKEN ATOMIC CHARGES
-----------------------
   0 C :   -0.154344
   1 C :    0.091053
   2 C :    0.091051
   3 C :   -0.154341
   4 C :    0.091048
   5 C :    0.091056
   6 Cl:   -0.042022
   7 Cl:   -0.042025
   8 Cl:   -0.042024
   9 Cl:   -0.042021
  10 H :    0.056287
  11 H :    0.056283
Sum of atomic charges:   -0.0000000

LOEWDIN ATOMIC CHARGES
----------------------
   0 C :   -0.144555
   1 C :   -0.158278
   2 C :   -0.158279
   3 C :   -0.144560
   4 C :   -0.158280
   5 C :   -0.158281
   6 Cl:    0.158539
   7 Cl:    0.158541
   8 Cl:    0.158540
   9 Cl:    0.158537
  10 H :    0.144037
  11 H :    0.144039

  Mayer bond orders larger than 0.100000
B(  0-C ,  1-C ) :   1.3402 B(  0-C ,  3-C ) :   0.1206 B(  0-C ,  5-C ) :   1.3402
B(  0-C , 10-H ) :   0.9735 B(  1-C ,  2-C ) :   1.3975 B(  1-C ,  9-Cl) :   1.0383
B(  2-C ,  3-C ) :   1.3402 B(  2-C ,  8-Cl) :   1.0383 B(  3-C ,  4-C ) :   1.3402
B(  3-C , 11-H ) :   0.9735 B(  4-C ,  5-C ) :   1.3975 B(  4-C ,  7-Cl) :   1.0383
B(  5-C ,  6-Cl) :   1.0383

Dispersion correction           -0.021186023
FINAL SINGLE POINT ENERGY     -2068.839140354139

DIPOLE MOMENT
-------------

Method             : SCF
Type of density    : Electron Density
Multiplicity       :   1
Irrep              :   0
Energy             : -2068.8547319389108452 Eh
Relativity type    :
Basis              : AO
                                X                 Y                 Z
Electronic contribution:      0.000037285       0.000004966      -0.000285648
Nuclear contribution   :     -0.000037871      -0.000007713       0.000252617
                        -----------------------------------------
Total Dipole Moment    :     -0.000000586      -0.000002747      -0.000033030
                        -----------------------------------------
Magnitude (a.u.)       :      0.000033150
Magnitude (Debye)      :      0.000084259

Rotational constants in cm-1:             0.039197             0.015425             0.011069
Rotational constants in MHz :          1175.100576           462.420325           331.837225

                             ****ORCA TERMINATED NORMALLY****
TOTAL RUN TIME: 0 days 0 hours 0 minutes 7 seconds 585 msec
