                         Program Version 6.0.0  -   RELEASE  -
|  1> ! wb97x-v def2-tzvp def2/J RIJCOSX DEFGRID2 scfconv7 GCP(DFT/TZ) printgap
|  2> %output
|  3>     printlevel normal
|  4> end
|  5> * xyz 0 1
|  6> C -1.7318393449450857 -1.2655322106375833 -0.14045912439746996
|  7> C -1.121962090879584 5.247690978287904e-06 0.4104301813107037
|  8> C -1.7318485070023788 1.265524801315951 -0.1404904589436681
|  9> Br 0.8640180348752485 7.387182625004954e-06 -0.01727905195462076
| 10> H -1.6700550542170558 -1.2927551892132043 -1.231918856218693
| 11> H -1.255996343092616 -2.160177156087166 0.2663583547431264
| 12> H -2.7916885897489756 -1.28329808772386 0.14207390151073587
| 13> H -1.1199309146527592 1.9992959239448873e-05 1.501062582064018
| 14> H -1.6700644520871124 1.2927192883021115 -1.2319504975221627
| 15> H -1.2560121107877007 2.160184593761483 0.2663033304838863
| 16> H -2.7916979103974615 1.2832900550030888 0.14204135167027415
| 17> *
| 18>
| 19>                          ****END OF INPUT****

CARTESIAN COORDINATES (ANGSTROEM)
---------------------------------
  C     -1.731839   -1.265532   -0.140459
  C     -1.121962    0.000005    0.410430
  C     -1.731849    1.265525   -0.140490
  Br     0.864018    0.000007   -0.017279
  H     -1.670055   -1.292755   -1.231919
  H     -1.255996   -2.160177    0.266358
  H     -2.791689   -1.283298    0.142074
  H     -1.119931    0.000020    1.501063
  H     -1.670064    1.292719   -1.231950
  H     -1.256012    2.160185    0.266303
  H     -2.791698    1.283290    0.142041

 Total Charge           Charge          ....    0
 Multiplicity           Mult            ....    1
 Number of Electrons    NEL             ....   60
 Basis Dimension        Dim             ....  183

ORBITAL ENERGIES
----------------

  NO   OCC          E(Eh)            E(eV)
   0   2.0000    -494.701031    -13461.4994
   1   2.0000     -66.870706     -1819.6444
   2   2.0000     -60.927493     -1657.9214
   3   2.0000     -60.926051     -1657.8821
   4   2.0000     -60.925934     -1657.8789
   5   2.0000     -12.118597      -329.7638
   6   2.0000     -12.054128      -328.0095
   7   2.0000     -12.053832      -328.0014
   8   2.0000     -10.622386      -289.0498
   9   2.0000      -8.401793      -228.6244
  10   2.0000      -8.395653      -228.4573
  11   2.0000      -8.395566      -228.4550
  12   2.0000      -4.386804      -119.3710
  13   2.0000      -4.384473      -119.3076
  14   2.0000      -4.384355      -119.3044
  15   2.0000      -4.377566      -119.1196
  16   2.0000      -4.377554      -119.1193
  17   2.0000      -1.345328       -36.6082
  18   2.0000      -1.269919       -34.5563
  19   2.0000      -1.202835       -32.7308
  20   2.0000      -1.064736       -28.9729
  21   2.0000      -0.911670       -24.8078
  22   2.0000      -0.884666       -24.0730
  23   2.0000      -0.875196       -23.8153
  24   2.0000      -0.830148       -22.5895
  25   2.0000      -0.811051       -22.0698
  26   2.0000      -0.801033       -21.7972
  27   2.0000      -0.767243       -20.8777
  28   2.0000      -0.708211       -19.2714
  29   2.0000      -0.705641       -19.2015
  30   0.0000      -0.288446        -7.8490
  31   0.0000      -0.029511        -0.8030
  32   0.0000      -0.021687        -0.5901
  33   0.0000      -0.014312        -0.3895
  34   0.0000       0.010494         0.2856

MULLIKEN ATOMIC CHARGES
-----------------------
   0 C :   -0.330048
   1 C :   -0.006247
   2 C :   -0.330047
   3 Br:   -0.185797
   4 H :    0.122860
   5 H :    0.133529
   6 H :    0.110724
   7 H :    0.117914
   8 H :    0.122859
   9 H :    0.133528
  10 H :    0.110726
Sum of atomic charges:   -0.0000000

LOEWDIN ATOMIC CHARGES
----------------------
   0 C :   -0.308164
   1 C :   -0.437822
   2 C :   -0.308164
   3 Br:    0.167187
   4 H :    0.124481
   5 H :    0.123729
   6 H :    0.126063
   7 H :    0.138419
   8 H :    0.124481
   9 H :    0.123729
  10 H :    0.126063

  Mayer bond orders larger than 0.100000
B(  0-C ,  1-C ) :   1.0007 B(  0-C ,  4-H ) :   0.9707 B(  0-C ,  5-H ) :   0.9755
B(  0-C ,  6-H ) :   0.9607 B(  1-C ,  2-C ) :   1.0007 B(  1-C ,  3-Br) :   1.0005
B(  1-C ,  7-H ) :   0.9675 B(  2-C ,  8-H ) :   0.9707 B(  2-C ,  9-H ) :   0.9755
B(  2-C , 10-H ) :   0.9607

FINAL SINGLE POINT ENERGY     -2692.462595473418

DIPOLE MOMENT
-------------

Method             : SCF
Type of density    : Electron Density
Multiplicity       :   1
Irrep              :   0
Energy             : -2692.4716797210185177 Eh
Relativity type    :
Basis              : AO
                                X                 Y                 Z
Electronic contribution:     18.785242990       0.000070259       0.131091961
Nuclear contribution   :    -19.772886915      -0.000071971       0.024039740
                        -----------------------------------------
Total Dipole Moment    :     -0.987643925      -0.000001713       0.155131701
                        -----------------------------------------
Magnitude (a.u.)       :      0.999753153
Magnitude (Debye)      :      2.541170565

Rotational constants in cm-1:             0.269270             0.093334             0.074214
Rotational constants in MHz :          8072.524672          2798.074306          2224.865771

                             ****ORCA TERMINATED NORMALLY****
TOTAL RUN TIME: 0 days 0 hours 0 minutes 49 seconds 132 msec
