                         Program Version 6.0.0  -   RELEASE  -
|  1> ! wb97x-v def2-tzvp def2/J RIJCOSX DEFGRID2 scfconv7 GCP(DFT/TZ) printgap
|  2> %output
|  3>     printlevel normal
|  4> end
|  5> %cpcm
|  6>     smd true
|  7>     smdsolvent "water"
|  8> end
|  9> * xyz 0 1
| 10> C -1.7318393449450857 -1.2655322106375833 -0.14045912439746996
| 11> C -1.121962090879584 5.247690978287904e-06 0.4104301813107037
| 12> C -1.7318485070023788 1.265524801315951 -0.1404904589436681
| 13> Br 0.8640180348752485 7.387182625004954e-06 -0.01727905195462076
| 14> H -1.6700550542170558 -1.2927551892132043 -1.231918856218693
| 15> H -1.255996343092616 -2.160177156087166 0.2663583547431264
| 16> H -2.7916885897489756 -1.28329808772386 0.14207390151073587
| 17> H -1.1199309146527592 1.9992959239448873e-05 1.501062582064018
| 18> H -1.6700644520871124 1.2927192883021115 -1.2319504975221627
| 19> H -1.2560121107877007 2.160184593761483 0.2663033304838863
| 20> H -2.7916979103974615 1.2832900550030888 0.14204135167027415
| 21> *
| 22>
| 23>                          ****END OF INPUT****

CARTESIAN COORDINATES (ANGSTROEM)
---------------------------------
  C     -1.731839   -1.265532   -0.140459
  C     -1.121962    0.000005    0.410430
  C     -1.731849    1.265525   -0.140490
  Br     0.864018    0.000007   -0.017279
  H     -1.670055   -1.292755   -1.231919
  H     -1.255996   -2.160177    0.266358
  H     -2.791689   -1.283298    0.142074
  H     -1.119931    0.000020    1.501063
  H     -1.670064    1.292719   -1.231950
  H     -1.256012    2.160185    0.266303
  H     -2.791698    1.283290    0.142041

 Total Charge           Charge          ....    0
 Multiplicity           Mult            ....    1
 Number of Electrons    NEL             ....   60
 Basis Dimension        Dim             ....  183

ORBITAL ENERGIES
----------------

  NO   OCC          E(Eh)            E(eV)
   0   2.0000    -494.697092    -13461.3922
   1   2.0000     -66.866919     -1819.5414
   2   2.0000     -60.923652     -1657.8169
   3   2.0000     -60.922302     -1657.7801
   4   2.0000     -60.922188     -1657.7770
   5   2.0000     -12.106392      -329.4317
   6   2.0000     -12.037095      -327.5460
   7   2.0000     -12.036801      -327.5380
   8   2.0000     -10.618695      -288.9494
   9   2.0000      -8.397867      -228.5176
  10   2.0000      -8.392185      -228.3630
  11   2.0000      -8.392101      -228.3607
  12   2.0000      -4.382809      -119.2623
  13   2.0000      -4.380665      -119.2040
  14   2.0000      -4.380547      -119.2007
  15   2.0000      -4.374225      -119.0287
  16   2.0000      -4.374213      -119.0284
  17   2.0000      -1.335178       -36.3321
  18   2.0000      -1.261286       -34.3213
  19   2.0000      -1.186582       -32.2885
  20   2.0000      -1.049808       -28.5667
  21   2.0000      -0.896339       -24.3906
  22   2.0000      -0.870359       -23.6837
  23   2.0000      -0.859898       -23.3990
  24   2.0000      -0.812681       -22.1142
  25   2.0000      -0.794668       -21.6240
  26   2.0000      -0.785740       -21.3811
  27   2.0000      -0.756484       -20.5850
  28   2.0000      -0.704970       -19.1832
  29   2.0000      -0.702303       -19.1106
  30   0.0000      -0.278687        -7.5834
  31   0.0000      -0.013264        -0.3609
  32   0.0000      -0.004637        -0.1262
  33   0.0000      -0.000082        -0.0022
  34   0.0000       0.027109         0.7377

MULLIKEN ATOMIC CHARGES
-----------------------
   0 C :   -0.367475
   1 C :    0.012029
   2 C :   -0.367475
   3 Br:   -0.235738
   4 H :    0.132112
   5 H :    0.138988
   6 H :    0.138617
   7 H :    0.139224
   8 H :    0.132110
   9 H :    0.138987
  10 H :    0.138619
Sum of atomic charges:   -0.0000000

LOEWDIN ATOMIC CHARGES
----------------------
   0 C :   -0.309133
   1 C :   -0.426953
   2 C :   -0.309133
   3 Br:    0.132097
   4 H :    0.125629
   5 H :    0.123829
   6 H :    0.134643
   7 H :    0.144918
   8 H :    0.125629
   9 H :    0.123829
  10 H :    0.134644

  Mayer bond orders larger than 0.100000
B(  0-C ,  1-C ) :   1.0032 B(  0-C ,  4-H ) :   0.9673 B(  0-C ,  5-H ) :   0.9722
B(  0-C ,  6-H ) :   0.9581 B(  1-C ,  2-C ) :   1.0032 B(  1-C ,  3-Br) :   0.9591
B(  1-C ,  7-H ) :   0.9624 B(  2-C ,  8-H ) :   0.9673 B(  2-C ,  9-H ) :   0.9722
B(  2-C , 10-H ) :   0.9581

FINAL SINGLE POINT ENERGY     -2692.465026614556

DIPOLE MOMENT
-------------

Method             : SCF
Type of density    : Electron Density
Multiplicity       :   1
Irrep              :   0
Energy             : -2692.4741108621560670 Eh
Relativity type    :
Basis              : AO
                                X                 Y                 Z
Electronic contribution:     18.452599897       0.000069949       0.208217109
Nuclear contribution   :    -19.772886915      -0.000071971       0.024039740
                        -----------------------------------------
Total Dipole Moment    :     -1.320287018      -0.000002023       0.232256849
                        -----------------------------------------
Magnitude (a.u.)       :      1.340559978
Magnitude (Debye)      :      3.407432671

Rotational constants in cm-1:             0.269270             0.093334             0.074214
Rotational constants in MHz :          8072.524672          2798.074306          2224.865771

                             ****ORCA TERMINATED NORMALLY****
TOTAL RUN TIME: 0 days 0 hours 0 minutes 54 seconds 120 msec
