                         Program Version 6.0.0  -   RELEASE  -
|  1> ! wb97x-v def2-tzvp def2/J RIJCOSX DEFGRID2 scfconv7 GCP(DFT/TZ) printgap
|  2> %output
|  3>     printlevel normal
|  4> end
|  5> * xyz 0 1
|  6> C -1.9615528945721994 0.4920728262158704 0.06345863043462811
|  7> C -0.8986919354119652 -0.5834337172446233 -0.1226942466866923
|  8> C 0.5510113347541362 -0.16504687436039805 -0.023930835925636464
|  9> O 1.4589501350280647 -1.0036320045898444 -0.18353386102590555
| 10> N 0.8184119075165921 1.12403571930301 0.24256122037988898
| 11> H -2.9563168921771905 0.05012672378062222 -0.04118541172235429
| 12> H -1.908901636228335 0.9475048235323918 1.0580533998284665
| 13> H -1.8734808072083713 1.2838424615446913 -0.6879417087599088
| 14> H -1.004184774921713 -1.0643028450399035 -1.102461788406403
| 15> H -1.028078209021906 -1.3836534347453149 0.6161394055250489
| 16> H 0.08541837583218737 1.8019912328146956 0.37646676505285803
| 17> H 1.7795481283787737 1.4236346305780263 0.3162144001456233
| 18> *
| 19>
| 20>                          ****END OF INPUT****

CARTESIAN COORDINATES (ANGSTROEM)
---------------------------------
  C     -1.961553    0.492073    0.063459
  C     -0.898692   -0.583434   -0.122694
  C      0.551011   -0.165047   -0.023931
  O      1.458950   -1.003632   -0.183534
  N      0.818412    1.124036    0.242561
  H     -2.956317    0.050127   -0.041185
  H     -1.908902    0.947505    1.058053
  H     -1.873481    1.283842   -0.687942
  H     -1.004185   -1.064303   -1.102462
  H     -1.028078   -1.383653    0.616139
  H      0.085418    1.801991    0.376467
  H      1.779548    1.423635    0.316214

 Total Charge           Charge          ....    0
 Multiplicity           Mult            ....    1
 Number of Electrons    NEL             ....   40
 Basis Dimension        Dim             ....  197

ORBITAL ENERGIES
----------------

  NO   OCC          E(Eh)            E(eV)
   0   2.0000     -21.623040      -588.3928
   1   2.0000     -16.553081      -450.4322
   2   2.0000     -12.149083      -330.5934
   3   2.0000     -12.060250      -328.1761
   4   2.0000     -12.057014      -328.0880
   5   2.0000      -1.671192       -45.4754
   6   2.0000      -1.507168       -41.0121
   7   2.0000      -1.296107       -35.2689
   8   2.0000      -1.175818       -31.9956
   9   2.0000      -1.111881       -30.2558
  10   2.0000      -1.047216       -28.4962
  11   2.0000      -1.013490       -27.5785
  12   2.0000      -0.925477       -25.1835
  13   2.0000      -0.913153       -24.8482
  14   2.0000      -0.866931       -23.5904
  15   2.0000      -0.859265       -23.3818
  16   2.0000      -0.829392       -22.5689
  17   2.0000      -0.795708       -21.6523
  18   2.0000      -0.791315       -21.5328
  19   2.0000      -0.785946       -21.3867
  20   0.0000      -0.268828        -7.3152
  21   0.0000      -0.076536        -2.0827
  22   0.0000      -0.052781        -1.4362
  23   0.0000      -0.032497        -0.8843
  24   0.0000      -0.007538        -0.2051

MULLIKEN ATOMIC CHARGES
-----------------------
   0 C :   -0.400844
   1 C :   -0.132687
   2 C :    0.241343
   3 O :   -0.399587
   4 N :   -0.410589
   5 H :    0.127929
   6 H :    0.120781
   7 H :    0.122338
   8 H :    0.121718
   9 H :    0.121314
  10 H :    0.242412
  11 H :    0.245873
Sum of atomic charges:   -0.0000000

LOEWDIN ATOMIC CHARGES
----------------------
   0 C :   -0.312571
   1 C :   -0.250718
   2 C :   -0.466312
   3 O :    0.012138
   4 N :    0.014796
   5 H :    0.124091
   6 H :    0.116199
   7 H :    0.116596
   8 H :    0.153562
   9 H :    0.153661
  10 H :    0.166241
  11 H :    0.172317

  Mayer bond orders larger than 0.100000
B(  0-C ,  1-C ) :   0.9356 B(  0-C ,  5-H ) :   0.9740 B(  0-C ,  6-H ) :   0.9776
B(  0-C ,  7-H ) :   0.9778 B(  1-C ,  2-C ) :   0.9678 B(  1-C ,  8-H ) :   0.9591
B(  1-C ,  9-H ) :   0.9577 B(  2-C ,  3-O ) :   2.0776 B(  2-C ,  4-N ) :   1.2398
B(  4-N , 10-H ) :   0.9129 B(  4-N , 11-H ) :   0.9043

FINAL SINGLE POINT ENERGY      -248.543517124879

DIPOLE MOMENT
-------------

Method             : SCF
Type of density    : Electron Density
Multiplicity       :   1
Irrep              :   0
Energy             :  -248.5513935390792426 Eh
Relativity type    :
Basis              : AO
                                X                 Y                 Z
Electronic contribution:      5.426231811      -1.597721739      -0.245860781
Nuclear contribution   :     -6.462673326       2.889196315       0.500646290
                        -----------------------------------------
Total Dipole Moment    :     -1.036441515       1.291474576       0.254785509
                        -----------------------------------------
Magnitude (a.u.)       :      1.675420320
Magnitude (Debye)      :      4.258580019

Rotational constants in cm-1:             0.314342             0.128726             0.094539
Rotational constants in MHz :          9423.728596          3859.094076          2834.220654

                             ****ORCA TERMINATED NORMALLY****
TOTAL RUN TIME: 0 days 0 hours 0 minutes 55 seconds 424 msec
