                         Program Version 6.0.0  -   RELEASE  -
|  1> ! wb97x-v def2-tzvp def2/J RIJCOSX DEFGRID2 scfconv7 GCP(DFT/TZ) printgap
|  2> %output
|  3>     printlevel normal
|  4> end
|  5> %cpcm
|  6>     smd true
|  7>     smdsolvent "water"
|  8> end
|  9> * xyz 0 1
| 10> C -1.9615528945721994 0.4920728262158704 0.06345863043462811
| 11> C -0.8986919354119652 -0.5834337172446233 -0.1226942466866923
| 12> C 0.5510113347541362 -0.16504687436039805 -0.023930835925636464
| 13> O 1.4589501350280647 -1.0036320045898444 -0.18353386102590555
| 14> N 0.8184119075165921 1.12403571930301 0.24256122037988898
| 15> H -2.9563168921771905 0.05012672378062222 -0.04118541172235429
| 16> H -1.908901636228335 0.9475048235323918 1.0580533998284665
| 17> H -1.8734808072083713 1.2838424615446913 -0.6879417087599088
| 18> H -1.004184774921713 -1.0643028450399035 -1.102461788406403
| 19> H -1.028078209021906 -1.3836534347453149 0.6161394055250489
| 20> H 0.08541837583218737 1.8019912328146956 0.37646676505285803
| 21> H 1.7795481283787737 1.4236346305780263 0.3162144001456233
| 22> *
| 23>
| 24>                          ****END OF INPUT****

CARTESIAN COORDINATES (ANGSTROEM)
---------------------------------
  C     -1.961553    0.492073    0.063459
  C     -0.898692   -0.583434   -0.122694
  C      0.551011   -0.165047   -0.023931
  O      1.458950   -1.003632   -0.183534
  N      0.818412    1.124036    0.242561
  H     -2.956317    0.050127   -0.041185
  H     -1.908902    0.947505    1.058053
  H     -1.873481    1.283842   -0.687942
  H     -1.004185   -1.064303   -1.102462
  H     -1.028078   -1.383653    0.616139
  H      0.085418    1.801991    0.376467
  H      1.779548    1.423635    0.316214

 Total Charge           Charge          ....    0
 Multiplicity           Mult            ....    1
 Number of Electrons    NEL             ....   40
 Basis Dimension        Dim             ....  197

ORBITAL ENERGIES
----------------

  NO   OCC          E(Eh)            E(eV)
   0   2.0000     -21.641480      -588.8946
   1   2.0000     -16.545831      -450.2349
   2   2.0000     -12.158167      -330.8405
   3   2.0000     -12.049965      -327.8962
   4   2.0000     -12.034725      -327.4815
   5   2.0000      -1.692357       -46.0514
   6   2.0000      -1.501812       -40.8664
   7   2.0000      -1.283693       -34.9311
   8   2.0000      -1.167117       -31.7589
   9   2.0000      -1.104368       -30.0514
  10   2.0000      -1.050222       -28.5780
  11   2.0000      -1.018723       -27.7209
  12   2.0000      -0.927552       -25.2400
  13   2.0000      -0.923053       -25.1175
  14   2.0000      -0.860166       -23.4063
  15   2.0000      -0.850561       -23.1449
  16   2.0000      -0.826578       -22.4923
  17   2.0000      -0.790870       -21.5207
  18   2.0000      -0.785396       -21.3717
  19   2.0000      -0.770193       -20.9580
  20   0.0000      -0.270937        -7.3726
  21   0.0000      -0.061374        -1.6701
  22   0.0000      -0.041943        -1.1413
  23   0.0000      -0.014278        -0.3885
  24   0.0000       0.007997         0.2176

MULLIKEN ATOMIC CHARGES
-----------------------
   0 C :   -0.427949
   1 C :   -0.157191
   2 C :    0.299484
   3 O :   -0.570465
   4 N :   -0.421999
   5 H :    0.141256
   6 H :    0.138986
   7 H :    0.139336
   8 H :    0.137662
   9 H :    0.138242
  10 H :    0.298365
  11 H :    0.284273
Sum of atomic charges:   -0.0000000

LOEWDIN ATOMIC CHARGES
----------------------
   0 C :   -0.307108
   1 C :   -0.249667
   2 C :   -0.458425
   3 O :   -0.091027
   4 N :    0.043759
   5 H :    0.126738
   6 H :    0.123241
   7 H :    0.123285
   8 H :    0.157218
   9 H :    0.157720
  10 H :    0.187984
  11 H :    0.186281

  Mayer bond orders larger than 0.100000
B(  0-C ,  1-C ) :   0.9593 B(  0-C ,  5-H ) :   0.9689 B(  0-C ,  6-H ) :   0.9739
B(  0-C ,  7-H ) :   0.9744 B(  1-C ,  2-C ) :   0.9766 B(  1-C ,  8-H ) :   0.9504
B(  1-C ,  9-H ) :   0.9484 B(  2-C ,  3-O ) :   1.8849 B(  2-C ,  4-N ) :   1.3367
B(  4-N , 10-H ) :   0.8890 B(  4-N , 11-H ) :   0.8860

FINAL SINGLE POINT ENERGY      -248.561234382427

DIPOLE MOMENT
-------------

Method             : SCF
Type of density    : Electron Density
Multiplicity       :   1
Irrep              :   0
Energy             :  -248.5691107966271716 Eh
Relativity type    :
Basis              : AO
                                X                 Y                 Z
Electronic contribution:      5.040997758      -1.032263524      -0.131997832
Nuclear contribution   :     -6.462673326       2.889196315       0.500646290
                        -----------------------------------------
Total Dipole Moment    :     -1.421675568       1.856932791       0.368648458
                        -----------------------------------------
Magnitude (a.u.)       :      2.367543557
Magnitude (Debye)      :      6.017817479

Rotational constants in cm-1:             0.314342             0.128726             0.094539
Rotational constants in MHz :          9423.728596          3859.094076          2834.220654

                             ****ORCA TERMINATED NORMALLY****
TOTAL RUN TIME: 0 days 0 hours 0 minutes 54 seconds 34 msec
