                         Program Version 6.0.0  -   RELEASE  -
|  1> ! pbe def2-sv(p) def2/J RI DEFGRID1 loosescf d4 GCP(DFT/SV(P)) printgap
|  2> %output
|  3>     printlevel normal
|  4> end
|  5> * xyz 0 1
|  6> C -2.0731726708 -1.2429150725 -0.1890269755
|  7> C -1.2445387231 -0.364254546 0.7631697955
|  8> H -1.8337953456 -0.2116574821 1.673944746
|  9> C -0.9353650908 1.0283025061 0.1510735198
| 10> H -1.2194093503 1.0279612804 -0.9115958059
| 11> C 0.5705169244 1.2929635594 0.2369942347
| 12> H 0.8549346062 1.390849995 1.2900761971
| 13> C 1.3216469787 0.107846926 -0.3884840591
| 14> H 0.9834003027 -0.0176633344 -1.4319065831
| 15> C 1.0078883118 -1.1863553584 0.3896426696
| 16> H 1.8550554469 -1.4134101839 1.0468917479
| 17> O -0.0850922941 -1.0207608663 1.263760308
| 18> O 0.8624798525 -2.2876174587 -0.4396512124
| 19> O 2.709003352 0.3244041096 -0.369750802
| 20> O 0.9609922164 2.4944945821 -0.374471403
| 21> O -1.5963678676 2.0637674202 0.8365877712
| 22> O -1.4796383183 -1.2836610262 -1.4758383055
| 23> H -3.0800526245 -0.818990571 -0.2542531702
| 24> H -2.1285540062 -2.2484033913 0.2426420476
| 25> H 0.1227159304 -2.1120541759 -1.0602459364
| 26> H 2.8645522748 1.2747159767 -0.508691421
| 27> H 0.5445772806 2.5728836681 -1.2461451868
| 28> H -2.5427953399 2.049687785 0.6363072536
| 29> H -2.0660639639 -1.7646819825 -2.0780206156
| 30> *
| 31>
| 32>                          ****END OF INPUT****

CARTESIAN COORDINATES (ANGSTROEM)
---------------------------------
  C     -2.073173   -1.242915   -0.189027
  C     -1.244539   -0.364255    0.763170
  H     -1.833795   -0.211657    1.673945
  C     -0.935365    1.028303    0.151074
  H     -1.219409    1.027961   -0.911596
  C      0.570517    1.292964    0.236994
  H      0.854935    1.390850    1.290076
  C      1.321647    0.107847   -0.388484
  H      0.983400   -0.017663   -1.431907
  C      1.007888   -1.186355    0.389643
  H      1.855055   -1.413410    1.046892
  O     -0.085092   -1.020761    1.263760
  O      0.862480   -2.287617   -0.439651
  O      2.709003    0.324404   -0.369751
  O      0.960992    2.494495   -0.374471
  O     -1.596368    2.063767    0.836588
  O     -1.479638   -1.283661   -1.475838
  H     -3.080053   -0.818991   -0.254253
  H     -2.128554   -2.248403    0.242642
  H      0.122716   -2.112054   -1.060246
  H      2.864552    1.274716   -0.508691
  H      0.544577    2.572884   -1.246145
  H     -2.542795    2.049688    0.636307
  H     -2.066064   -1.764682   -2.078021

 Total Charge           Charge          ....    0
 Multiplicity           Mult            ....    1
 Number of Electrons    NEL             ....   96
 Basis Dimension        Dim             ....  192

ORBITAL ENERGIES
----------------

  NO   OCC          E(Eh)            E(eV)
   0   2.0000     -18.800520      -511.5881
   1   2.0000     -18.758787      -510.4525
   2   2.0000     -18.758599      -510.4474
   3   2.0000     -18.758466      -510.4438
   4   2.0000     -18.735477      -509.8182
   5   2.0000     -18.729001      -509.6420
   6   2.0000      -9.967045      -271.2171
   7   2.0000      -9.958758      -270.9916
   8   2.0000      -9.953883      -270.8589
   9   2.0000      -9.950400      -270.7641
  10   2.0000      -9.939416      -270.4653
  11   2.0000      -9.928913      -270.1794
  12   2.0000      -0.975958       -26.5572
  13   2.0000      -0.958498       -26.0821
  14   2.0000      -0.945466       -25.7274
  15   2.0000      -0.931052       -25.3352
  16   2.0000      -0.906913       -24.6784
  17   2.0000      -0.891701       -24.2644
  18   2.0000      -0.710964       -19.3463
  19   2.0000      -0.688661       -18.7394
  20   2.0000      -0.629370       -17.1260
  21   2.0000      -0.577753       -15.7215
  22   2.0000      -0.572207       -15.5705
  23   2.0000      -0.532669       -14.4947
  24   2.0000      -0.502701       -13.6792
  25   2.0000      -0.492162       -13.3924
  26   2.0000      -0.467576       -12.7234
  27   2.0000      -0.462607       -12.5882
  28   2.0000      -0.442987       -12.0543
  29   2.0000      -0.435471       -11.8498
  30   2.0000      -0.420036       -11.4297
  31   2.0000      -0.401667       -10.9299
  32   2.0000      -0.399668       -10.8755
  33   2.0000      -0.389106       -10.5881
  34   2.0000      -0.360344        -9.8055
  35   2.0000      -0.350762        -9.5447
  36   2.0000      -0.332084        -9.0365
  37   2.0000      -0.311249        -8.4695
  38   2.0000      -0.292295        -7.9537
  39   2.0000      -0.288676        -7.8553
  40   2.0000      -0.279943        -7.6176
  41   2.0000      -0.271278        -7.3818
  42   2.0000      -0.265813        -7.2331
  43   2.0000      -0.249404        -6.7866
  44   2.0000      -0.235411        -6.4059
  45   2.0000      -0.212542        -5.7836
  46   2.0000      -0.208464        -5.6726
  47   2.0000      -0.199978        -5.4417
  48   0.0000      -0.008945        -0.2434
  49   0.0000       0.009250         0.2517
  50   0.0000       0.024612         0.6697
  51   0.0000       0.050342         1.3699
  52   0.0000       0.059950         1.6313

MULLIKEN ATOMIC CHARGES
-----------------------
   0 C :   -0.006713
   1 C :    0.052182
   2 H :    0.077780
   3 C :    0.014836
   4 H :    0.047965
   5 C :    0.062122
   6 H :    0.078216
   7 C :    0.013591
   8 H :    0.032992
   9 C :    0.233738
  10 H :    0.074364
  11 O :   -0.304342
  12 O :   -0.414135
  13 O :   -0.413920
  14 O :   -0.411988
  15 O :   -0.393778
  16 O :   -0.435952
  17 H :    0.079303
  18 H :    0.106414
  19 H :    0.290999
  20 H :    0.298177
  21 H :    0.296755
  22 H :    0.298523
  23 H :    0.322871
Sum of atomic charges:    0.0000000

LOEWDIN ATOMIC CHARGES
----------------------
   0 C :   -0.141910
   1 C :   -0.067320
   2 H :    0.127545
   3 C :   -0.081226
   4 H :    0.095877
   5 C :   -0.077920
   6 H :    0.126837
   7 C :   -0.092165
   8 H :    0.092269
   9 C :    0.000271
  10 H :    0.117282
  11 O :   -0.144308
  12 O :   -0.319109
  13 O :   -0.320268
  14 O :   -0.303507
  15 O :   -0.313377
  16 O :   -0.324719
  17 H :    0.105383
  18 H :    0.114810
  19 H :    0.260412
  20 H :    0.277478
  21 H :    0.284130
  22 H :    0.284315
  23 H :    0.299221

  Mayer bond orders larger than 0.100000
B(  0-C ,  1-C ) :   1.0488 B(  0-C , 16-O ) :   1.0110 B(  0-C , 17-H ) :   0.9144
B(  0-C , 18-H ) :   0.9092 B(  1-C ,  2-H ) :   0.8886 B(  1-C ,  3-C ) :   0.9759
B(  1-C , 11-O ) :   1.0723 B(  3-C ,  4-H ) :   0.8733 B(  3-C ,  5-C ) :   1.0239
B(  3-C , 15-O ) :   1.1014 B(  5-C ,  6-H ) :   0.8579 B(  5-C ,  7-C ) :   1.0039
B(  5-C , 14-O ) :   1.0316 B(  7-C ,  8-H ) :   0.8686 B(  7-C ,  9-C ) :   0.9782
B(  7-C , 13-O ) :   1.0946 B(  9-C , 10-H ) :   0.8857 B(  9-C , 11-O ) :   1.0234
B(  9-C , 12-O ) :   1.1383 B( 12-O , 19-H ) :   0.7926 B( 13-O , 20-H ) :   0.8255
B( 14-O , 21-H ) :   0.8470 B( 15-O , 22-H ) :   0.8498 B( 16-O , 19-H ) :   0.1219
B( 16-O , 23-H ) :   0.8374

Dispersion correction           -0.025214618
FINAL SINGLE POINT ENERGY      -685.689733162014

DIPOLE MOMENT
-------------

Method             : SCF
Type of density    : Electron Density
Multiplicity       :   1
Irrep              :   0
Energy             :  -685.8217914628945664 Eh
Relativity type    :
Basis              : AO
                                X                 Y                 Z
Electronic contribution:      2.956551444       0.451944046       1.224269633
Nuclear contribution   :     -5.276061970      -0.249715720      -2.448464094
                        -----------------------------------------
Total Dipole Moment    :     -2.319510527       0.202228326      -1.224194461
                        -----------------------------------------
Magnitude (a.u.)       :      2.630527981
Magnitude (Debye)      :      6.686270760

Rotational constants in cm-1:             0.036202             0.032394             0.021446
Rotational constants in MHz :          1085.294594           971.133167           642.933099

                             ****ORCA TERMINATED NORMALLY****
TOTAL RUN TIME: 0 days 0 hours 0 minutes 11 seconds 965 msec
