                         Program Version 6.0.0  -   RELEASE  -
|  1> ! r2scan-3c def2/J RI DEFGRID2 scfconv6 printgap
|  2> %output
|  3>     printlevel normal
|  4> end
|  5> * xyz 0 1
|  6> C -1.85661939 -2.1737668913 -0.0001102042
|  7> C -1.3904513009 -0.7491505582 -3.67251e-05
|  8> C -2.3019886265 0.2757667202 3.4644e-06
|  9> C -1.8993999278 1.6190350863 5.81661e-05
| 10> C -0.5722127433 1.9381395932 1.24652e-05
| 11> C 0.4051304866 0.9208632895 3.0351e-06
| 12> C -0.0022553424 -0.4406581493 4.64061e-05
| 13> C 0.9992556246 -1.4360389819 0.0001319965
| 14> C 2.3259311832 -1.1048467824 7.1723e-05
| 15> C 2.7239852242 0.2399731221 -9.2343e-05
| 16> C 1.781858368 1.2292060358 -9.0992e-05
| 17> H -2.9425861855 -2.2149966817 -0.0007533481
| 18> H -1.4904885319 -2.6971146707 -0.881965755
| 19> H -1.4915419724 -2.6968054917 0.8823343398
| 20> H -3.3588846437 0.049853025 9.67203e-05
| 21> H -2.6502169607 2.3954349581 0.0001902156
| 22> H -0.2496348 2.9692858545 1.45318e-05
| 23> H 0.7120090029 -2.4755292178 0.0002090816
| 24> H 3.0782971047 -1.8798041439 0.0001250069
| 25> H 3.7758211631 0.4847355962 -0.0001096784
| 26> H 2.0761520688 2.2691539326 -0.0001052721
| 27> *
| 28>
| 29>                          ****END OF INPUT****

CARTESIAN COORDINATES (ANGSTROEM)
---------------------------------
  C     -1.856619   -2.173767   -0.000110
  C     -1.390451   -0.749151   -0.000037
  C     -2.301989    0.275767    0.000003
  C     -1.899400    1.619035    0.000058
  C     -0.572213    1.938140    0.000012
  C      0.405130    0.920863    0.000003
  C     -0.002255   -0.440658    0.000046
  C      0.999256   -1.436039    0.000132
  C      2.325931   -1.104847    0.000072
  C      2.723985    0.239973   -0.000092
  C      1.781858    1.229206   -0.000091
  H     -2.942586   -2.214997   -0.000753
  H     -1.490489   -2.697115   -0.881966
  H     -1.491542   -2.696805    0.882334
  H     -3.358885    0.049853    0.000097
  H     -2.650217    2.395435    0.000190
  H     -0.249635    2.969286    0.000015
  H      0.712009   -2.475529    0.000209
  H      3.078297   -1.879804    0.000125
  H      3.775821    0.484736   -0.000110
  H      2.076152    2.269154   -0.000105

 Total Charge           Charge          ....    0
 Multiplicity           Mult            ....    1
 Number of Electrons    NEL             ....   76
 Basis Dimension        Dim             ....  259

ORBITAL ENERGIES
----------------

  NO   OCC          E(Eh)            E(eV)
   0   2.0000     -10.045536      -273.3529
   1   2.0000     -10.043716      -273.3034
   2   2.0000     -10.042977      -273.2833
   3   2.0000     -10.035866      -273.0898
   4   2.0000     -10.035731      -273.0861
   5   2.0000     -10.035069      -273.0681
   6   2.0000     -10.034924      -273.0642
   7   2.0000     -10.033687      -273.0305
   8   2.0000     -10.032407      -272.9957
   9   2.0000     -10.031242      -272.9640
  10   2.0000     -10.029458      -272.9154
  11   2.0000      -0.846956       -23.0468
  12   2.0000      -0.794702       -21.6249
  13   2.0000      -0.757202       -20.6045
  14   2.0000      -0.711439       -19.3592
  15   2.0000      -0.704675       -19.1752
  16   2.0000      -0.653828       -17.7916
  17   2.0000      -0.592881       -16.1331
  18   2.0000      -0.583179       -15.8691
  19   2.0000      -0.547895       -14.9090
  20   2.0000      -0.484161       -13.1747
  21   2.0000      -0.475903       -12.9500
  22   2.0000      -0.464594       -12.6423
  23   2.0000      -0.420564       -11.4441
  24   2.0000      -0.405963       -11.0468
  25   2.0000      -0.399435       -10.8692
  26   2.0000      -0.389364       -10.5951
  27   2.0000      -0.380602       -10.3567
  28   2.0000      -0.368509       -10.0276
  29   2.0000      -0.358048        -9.7430
  30   2.0000      -0.352925        -9.6036
  31   2.0000      -0.336851        -9.1662
  32   2.0000      -0.306176        -8.3315
  33   2.0000      -0.303752        -8.2655
  34   2.0000      -0.295993        -8.0544
  35   2.0000      -0.260348        -7.0844
  36   2.0000      -0.231374        -6.2960
  37   2.0000      -0.199856        -5.4384
  38   0.0000      -0.065688        -1.7874
  39   0.0000      -0.035545        -0.9672
  40   0.0000       0.002325         0.0633
  41   0.0000       0.065962         1.7949
  42   0.0000       0.076876         2.0919

MULLIKEN ATOMIC CHARGES
-----------------------
   0 C :   -0.577677
   1 C :    0.122910
   2 C :   -0.197009
   3 C :   -0.157452
   4 C :   -0.253056
   5 C :    0.174361
   6 C :    0.183040
   7 C :   -0.260438
   8 C :   -0.156735
   9 C :   -0.153119
  10 C :   -0.223474
  11 H :    0.151082
  12 H :    0.169201
  13 H :    0.169261
  14 H :    0.145314
  15 H :    0.143973
  16 H :    0.143212
  17 H :    0.142985
  18 H :    0.144814
  19 H :    0.145274
  20 H :    0.143534
Sum of atomic charges:    0.0000000

LOEWDIN ATOMIC CHARGES
----------------------
   0 C :   -0.389234
   1 C :   -0.077560
   2 C :   -0.166774
   3 C :   -0.160863
   4 C :   -0.151450
   5 C :   -0.055393
   6 C :   -0.052970
   7 C :   -0.146812
   8 C :   -0.162930
   9 C :   -0.165670
  10 C :   -0.142992
  11 H :    0.160611
  12 H :    0.164785
  13 H :    0.164793
  14 H :    0.167604
  15 H :    0.167640
  16 H :    0.169957
  17 H :    0.172070
  18 H :    0.167254
  19 H :    0.167533
  20 H :    0.170401

  Mayer bond orders larger than 0.100000
B(  0-C ,  1-C ) :   0.7566 B(  0-C , 11-H ) :   0.9871 B(  0-C , 12-H ) :   0.9795
B(  0-C , 13-H ) :   0.9795 B(  1-C ,  2-C ) :   1.4765 B(  1-C ,  6-C ) :   1.2892
B(  2-C ,  3-C ) :   1.3041 B(  2-C , 14-H ) :   0.9244 B(  3-C ,  4-C ) :   1.5155
B(  3-C , 15-H ) :   0.9490 B(  4-C ,  5-C ) :   1.1714 B(  4-C , 16-H ) :   0.9496
B(  5-C ,  6-C ) :   1.4608 B(  5-C , 10-C ) :   1.1761 B(  6-C ,  7-C ) :   1.2473
B(  7-C ,  8-C ) :   1.5127 B(  7-C , 17-H ) :   0.9427 B(  8-C ,  9-C ) :   1.2730
B(  8-C , 18-H ) :   0.9489 B(  9-C , 10-C ) :   1.5057 B(  9-C , 19-H ) :   0.9492
B( 10-C , 20-H ) :   0.9485

Dispersion correction           -0.008329541
FINAL SINGLE POINT ENERGY      -425.086131794799

DIPOLE MOMENT
-------------

Method             : SCF
Type of density    : Electron Density
Multiplicity       :   1
Irrep              :   0
Energy             :  -425.0831921615334750 Eh
Relativity type    :
Basis              : AO
                                X                 Y                 Z
Electronic contribution:      2.326523914       3.412506504       0.000060781
Nuclear contribution   :     -2.383958704      -3.561092651       0.000033626
                        -----------------------------------------
Total Dipole Moment    :     -0.057434790      -0.148586147       0.000094408
                        -----------------------------------------
Magnitude (a.u.)       :      0.159300368
Magnitude (Debye)      :      0.404909356

Rotational constants in cm-1:             0.064142             0.037984             0.023963
Rotational constants in MHz :          1922.930308          1138.727419           718.388528

                             ****ORCA TERMINATED NORMALLY****
TOTAL RUN TIME: 0 days 0 hours 0 minutes 31 seconds 586 msec
