                         Program Version 6.0.0  -   RELEASE  -
|  1> ! r2scan-3c def2/J RI DEFGRID2 scfconv6 printgap
|  2> %output
|  3>     printlevel normal
|  4> end
|  5> %cpcm
|  6>     smd true
|  7>     smdsolvent "water"
|  8> end
|  9> * xyz 0 1
| 10> C -1.85661939 -2.1737668913 -0.0001102042
| 11> C -1.3904513009 -0.7491505582 -3.67251e-05
| 12> C -2.3019886265 0.2757667202 3.4644e-06
| 13> C -1.8993999278 1.6190350863 5.81661e-05
| 14> C -0.5722127433 1.9381395932 1.24652e-05
| 15> C 0.4051304866 0.9208632895 3.0351e-06
| 16> C -0.0022553424 -0.4406581493 4.64061e-05
| 17> C 0.9992556246 -1.4360389819 0.0001319965
| 18> C 2.3259311832 -1.1048467824 7.1723e-05
| 19> C 2.7239852242 0.2399731221 -9.2343e-05
| 20> C 1.781858368 1.2292060358 -9.0992e-05
| 21> H -2.9425861855 -2.2149966817 -0.0007533481
| 22> H -1.4904885319 -2.6971146707 -0.881965755
| 23> H -1.4915419724 -2.6968054917 0.8823343398
| 24> H -3.3588846437 0.049853025 9.67203e-05
| 25> H -2.6502169607 2.3954349581 0.0001902156
| 26> H -0.2496348 2.9692858545 1.45318e-05
| 27> H 0.7120090029 -2.4755292178 0.0002090816
| 28> H 3.0782971047 -1.8798041439 0.0001250069
| 29> H 3.7758211631 0.4847355962 -0.0001096784
| 30> H 2.0761520688 2.2691539326 -0.0001052721
| 31> *
| 32>
| 33>                          ****END OF INPUT****

CARTESIAN COORDINATES (ANGSTROEM)
---------------------------------
  C     -1.856619   -2.173767   -0.000110
  C     -1.390451   -0.749151   -0.000037
  C     -2.301989    0.275767    0.000003
  C     -1.899400    1.619035    0.000058
  C     -0.572213    1.938140    0.000012
  C      0.405130    0.920863    0.000003
  C     -0.002255   -0.440658    0.000046
  C      0.999256   -1.436039    0.000132
  C      2.325931   -1.104847    0.000072
  C      2.723985    0.239973   -0.000092
  C      1.781858    1.229206   -0.000091
  H     -2.942586   -2.214997   -0.000753
  H     -1.490489   -2.697115   -0.881966
  H     -1.491542   -2.696805    0.882334
  H     -3.358885    0.049853    0.000097
  H     -2.650217    2.395435    0.000190
  H     -0.249635    2.969286    0.000015
  H      0.712009   -2.475529    0.000209
  H      3.078297   -1.879804    0.000125
  H      3.775821    0.484736   -0.000110
  H      2.076152    2.269154   -0.000105

 Total Charge           Charge          ....    0
 Multiplicity           Mult            ....    1
 Number of Electrons    NEL             ....   76
 Basis Dimension        Dim             ....  259

ORBITAL ENERGIES
----------------

  NO   OCC          E(Eh)            E(eV)
   0   2.0000     -10.045809      -273.3604
   1   2.0000     -10.044672      -273.3294
   2   2.0000     -10.043900      -273.3084
   3   2.0000     -10.034495      -273.0525
   4   2.0000     -10.034174      -273.0437
   5   2.0000     -10.033719      -273.0314
   6   2.0000     -10.033432      -273.0236
   7   2.0000     -10.032354      -272.9942
   8   2.0000     -10.030863      -272.9537
   9   2.0000     -10.028966      -272.9020
  10   2.0000     -10.019276      -272.6384
  11   2.0000      -0.848299       -23.0834
  12   2.0000      -0.794889       -21.6300
  13   2.0000      -0.755939       -20.5701
  14   2.0000      -0.711494       -19.3607
  15   2.0000      -0.702631       -19.1196
  16   2.0000      -0.649293       -17.6682
  17   2.0000      -0.591307       -16.0903
  18   2.0000      -0.581894       -15.8342
  19   2.0000      -0.545162       -14.8346
  20   2.0000      -0.480822       -13.0838
  21   2.0000      -0.472622       -12.8607
  22   2.0000      -0.462212       -12.5774
  23   2.0000      -0.417371       -11.3572
  24   2.0000      -0.401401       -10.9227
  25   2.0000      -0.394959       -10.7474
  26   2.0000      -0.387089       -10.5332
  27   2.0000      -0.376612       -10.2481
  28   2.0000      -0.364075        -9.9070
  29   2.0000      -0.358325        -9.7505
  30   2.0000      -0.345084        -9.3902
  31   2.0000      -0.332353        -9.0438
  32   2.0000      -0.308986        -8.4079
  33   2.0000      -0.300950        -8.1893
  34   2.0000      -0.292371        -7.9558
  35   2.0000      -0.262606        -7.1459
  36   2.0000      -0.234753        -6.3880
  37   2.0000      -0.201926        -5.4947
  38   0.0000      -0.067346        -1.8326
  39   0.0000      -0.038084        -1.0363
  40   0.0000       0.000381         0.0104
  41   0.0000       0.065356         1.7784
  42   0.0000       0.086937         2.3657

MULLIKEN ATOMIC CHARGES
-----------------------
   0 C :   -0.588220
   1 C :    0.084951
   2 C :   -0.216242
   3 C :   -0.192024
   4 C :   -0.267991
   5 C :    0.122334
   6 C :    0.168016
   7 C :   -0.271515
   8 C :   -0.197356
   9 C :   -0.182471
  10 C :   -0.241726
  11 H :    0.171984
  12 H :    0.184777
  13 H :    0.184827
  14 H :    0.178506
  15 H :    0.175816
  16 H :    0.177084
  17 H :    0.175091
  18 H :    0.177617
  19 H :    0.178197
  20 H :    0.178345
Sum of atomic charges:    0.0000000

LOEWDIN ATOMIC CHARGES
----------------------
   0 C :   -0.392670
   1 C :   -0.082245
   2 C :   -0.176228
   3 C :   -0.170568
   4 C :   -0.162930
   5 C :   -0.070906
   6 C :   -0.067182
   7 C :   -0.152830
   8 C :   -0.171899
   9 C :   -0.174037
  10 C :   -0.151920
  11 H :    0.167074
  12 H :    0.171579
  13 H :    0.171585
  14 H :    0.179397
  15 H :    0.178488
  16 H :    0.181694
  17 H :    0.183953
  18 H :    0.178446
  19 H :    0.178680
  20 H :    0.182517

  Mayer bond orders larger than 0.100000
B(  0-C ,  1-C ) :   0.7926 B(  0-C , 11-H ) :   0.9809 B(  0-C , 12-H ) :   0.9700
B(  0-C , 13-H ) :   0.9700 B(  1-C ,  2-C ) :   1.4595 B(  1-C ,  6-C ) :   1.2423
B(  2-C ,  3-C ) :   1.2627 B(  2-C , 14-H ) :   0.9415 B(  3-C ,  4-C ) :   1.4741
B(  3-C , 15-H ) :   0.9651 B(  4-C ,  5-C ) :   1.1686 B(  4-C , 16-H ) :   0.9632
B(  5-C ,  6-C ) :   1.3700 B(  5-C , 10-C ) :   1.1789 B(  6-C ,  7-C ) :   1.2299
B(  7-C ,  8-C ) :   1.4786 B(  7-C , 17-H ) :   0.9565 B(  8-C ,  9-C ) :   1.2358
B(  8-C , 18-H ) :   0.9625 B(  9-C , 10-C ) :   1.4690 B(  9-C , 19-H ) :   0.9610
B( 10-C , 20-H ) :   0.9578

Dispersion correction           -0.008329541
FINAL SINGLE POINT ENERGY      -425.089604240785

DIPOLE MOMENT
-------------

Method             : SCF
Type of density    : Electron Density
Multiplicity       :   1
Irrep              :   0
Energy             :  -425.0866646075193103 Eh
Relativity type    :
Basis              : AO
                                X                 Y                 Z
Electronic contribution:      2.306103043       3.321963986       0.000097250
Nuclear contribution   :     -2.383958704      -3.561092651       0.000033626
                        -----------------------------------------
Total Dipole Moment    :     -0.077855661      -0.239128665       0.000130877
                        -----------------------------------------
Magnitude (a.u.)       :      0.251483677
Magnitude (Debye)      :      0.639220706

Rotational constants in cm-1:             0.064142             0.037984             0.023963
Rotational constants in MHz :          1922.930308          1138.727419           718.388528

                             ****ORCA TERMINATED NORMALLY****
TOTAL RUN TIME: 0 days 0 hours 0 minutes 35 seconds 810 msec
