                         Program Version 6.0.0  -   RELEASE  -
|  1> ! pbe def2-sv(p) def2/J RI DEFGRID1 loosescf d4 GCP(DFT/SV(P)) printgap
|  2> %output
|  3>     printlevel normal
|  4> end
|  5> * xyz 0 1
|  6> C -2.4892159133 -1.088206212 0.2819254372
|  7> C -1.0699948456 -0.5743769572 0.564662957
|  8> H -0.9153002769 -0.5310958456 1.654637722
|  9> C -0.8245556246 0.8251198089 -0.0263314296
| 10> H -0.9676757141 0.7694722035 -1.1131153419
| 11> C 0.6239758594 1.2505848705 0.2510543245
| 12> H 0.7529436792 1.3438207067 1.3434263929
| 13> C 1.58814841 0.1821613384 -0.2832976312
| 14> H 1.4982566417 0.1480321551 -1.3742786464
| 15> C 1.1937142473 -1.1943745597 0.3050270233
| 16> H 1.3297814414 -1.16992348 1.4010118673
| 17> O -0.1528700805 -1.4946790726 0.0030094528
| 18> O 1.985117611 -2.224553289 -0.1484546425
| 19> O 2.9338815993 0.4769461315 -0.0363533605
| 20> O 0.9171860744 2.4763527018 -0.3685097607
| 21> O -1.666468308 1.7975363897 0.5423985821
| 22> O -2.9675966747 -0.5566266331 -0.9330178208
| 23> H -3.1445497204 -0.7876900722 1.1087884513
| 24> H -2.4287678632 -2.1799284283 0.2447485167
| 25> H 1.864005456 -2.3398374229 -1.1040641831
| 26> H 3.0811797838 0.6118097694 0.9109178041
| 27> H 0.2259558025 3.1105495852 -0.1216360416
| 28> H -2.5575397204 1.6859792208 0.18130441
| 29> H -3.7402563581 -1.0616687197 -1.2210706329
| 30> *
| 31>
| 32>                          ****END OF INPUT****

CARTESIAN COORDINATES (ANGSTROEM)
---------------------------------
  C     -2.489216   -1.088206    0.281925
  C     -1.069995   -0.574377    0.564663
  H     -0.915300   -0.531096    1.654638
  C     -0.824556    0.825120   -0.026331
  H     -0.967676    0.769472   -1.113115
  C      0.623976    1.250585    0.251054
  H      0.752944    1.343821    1.343426
  C      1.588148    0.182161   -0.283298
  H      1.498257    0.148032   -1.374279
  C      1.193714   -1.194375    0.305027
  H      1.329781   -1.169923    1.401012
  O     -0.152870   -1.494679    0.003009
  O      1.985118   -2.224553   -0.148455
  O      2.933882    0.476946   -0.036353
  O      0.917186    2.476353   -0.368510
  O     -1.666468    1.797536    0.542399
  O     -2.967597   -0.556627   -0.933018
  H     -3.144550   -0.787690    1.108788
  H     -2.428768   -2.179928    0.244749
  H      1.864005   -2.339837   -1.104064
  H      3.081180    0.611810    0.910918
  H      0.225956    3.110550   -0.121636
  H     -2.557540    1.685979    0.181304
  H     -3.740256   -1.061669   -1.221071

 Total Charge           Charge          ....    0
 Multiplicity           Mult            ....    1
 Number of Electrons    NEL             ....   96
 Basis Dimension        Dim             ....  192

ORBITAL ENERGIES
----------------

  NO   OCC          E(Eh)            E(eV)
   0   2.0000     -18.770483      -510.7708
   1   2.0000     -18.767353      -510.6856
   2   2.0000     -18.760866      -510.5091
   3   2.0000     -18.753959      -510.3212
   4   2.0000     -18.742430      -510.0074
   5   2.0000     -18.739710      -509.9334
   6   2.0000      -9.982351      -271.6336
   7   2.0000      -9.947304      -270.6799
   8   2.0000      -9.945554      -270.6323
   9   2.0000      -9.938575      -270.4424
  10   2.0000      -9.938067      -270.4286
  11   2.0000      -9.935264      -270.3523
  12   2.0000      -0.979765       -26.6607
  13   2.0000      -0.947265       -25.7764
  14   2.0000      -0.939297       -25.5596
  15   2.0000      -0.926272       -25.2052
  16   2.0000      -0.912794       -24.8384
  17   2.0000      -0.906605       -24.6700
  18   2.0000      -0.702044       -19.1036
  19   2.0000      -0.690376       -18.7861
  20   2.0000      -0.620370       -16.8811
  21   2.0000      -0.581185       -15.8148
  22   2.0000      -0.554514       -15.0891
  23   2.0000      -0.536512       -14.5992
  24   2.0000      -0.502515       -13.6741
  25   2.0000      -0.494684       -13.4610
  26   2.0000      -0.476237       -12.9591
  27   2.0000      -0.470129       -12.7929
  28   2.0000      -0.431652       -11.7459
  29   2.0000      -0.429567       -11.6891
  30   2.0000      -0.413270       -11.2456
  31   2.0000      -0.398254       -10.8370
  32   2.0000      -0.393380       -10.7044
  33   2.0000      -0.392534       -10.6814
  34   2.0000      -0.349741        -9.5169
  35   2.0000      -0.346793        -9.4367
  36   2.0000      -0.320376        -8.7179
  37   2.0000      -0.310154        -8.4397
  38   2.0000      -0.305780        -8.3207
  39   2.0000      -0.293947        -7.9987
  40   2.0000      -0.290756        -7.9119
  41   2.0000      -0.261787        -7.1236
  42   2.0000      -0.248238        -6.7549
  43   2.0000      -0.243264        -6.6196
  44   2.0000      -0.237092        -6.4516
  45   2.0000      -0.222754        -6.0614
  46   2.0000      -0.216274        -5.8851
  47   2.0000      -0.194200        -5.2845
  48   0.0000       0.003392         0.0923
  49   0.0000       0.028812         0.7840
  50   0.0000       0.033015         0.8984
  51   0.0000       0.041149         1.1197
  52   0.0000       0.053613         1.4589

MULLIKEN ATOMIC CHARGES
-----------------------
   0 C :    0.045704
   1 C :    0.017518
   2 H :    0.053971
   3 C :    0.021150
   4 H :    0.073752
   5 C :    0.068130
   6 H :    0.033402
   7 C :    0.064147
   8 H :    0.055361
   9 C :    0.183564
  10 H :    0.031386
  11 O :   -0.304634
  12 O :   -0.365771
  13 O :   -0.398421
  14 O :   -0.405180
  15 O :   -0.427749
  16 O :   -0.438577
  17 H :    0.075290
  18 H :    0.094699
  19 H :    0.302904
  20 H :    0.295661
  21 H :    0.302199
  22 H :    0.312516
  23 H :    0.308978
Sum of atomic charges:    0.0000000

LOEWDIN ATOMIC CHARGES
----------------------
   0 C :   -0.129232
   1 C :   -0.066364
   2 H :    0.104099
   3 C :   -0.084749
   4 H :    0.113173
   5 C :   -0.074836
   6 H :    0.093068
   7 C :   -0.088748
   8 H :    0.117828
   9 C :   -0.006856
  10 H :    0.088830
  11 O :   -0.156408
  12 O :   -0.281731
  13 O :   -0.300624
  14 O :   -0.317222
  15 O :   -0.323045
  16 O :   -0.340349
  17 H :    0.099299
  18 H :    0.113746
  19 H :    0.289640
  20 H :    0.284564
  21 H :    0.283620
  22 H :    0.289174
  23 H :    0.293123

  Mayer bond orders larger than 0.100000
B(  0-C ,  1-C ) :   1.0451 B(  0-C , 16-O ) :   1.0838 B(  0-C , 17-H ) :   0.9138
B(  0-C , 18-H ) :   0.9163 B(  1-C ,  2-H ) :   0.8746 B(  1-C ,  3-C ) :   0.9999
B(  1-C , 11-O ) :   0.9883 B(  3-C ,  4-H ) :   0.8674 B(  3-C ,  5-C ) :   1.0128
B(  3-C , 15-O ) :   1.0718 B(  5-C ,  6-H ) :   0.8710 B(  5-C ,  7-C ) :   1.0005
B(  5-C , 14-O ) :   1.1112 B(  7-C ,  8-H ) :   0.8571 B(  7-C ,  9-C ) :   0.9593
B(  7-C , 13-O ) :   1.0640 B(  9-C , 10-H ) :   0.8724 B(  9-C , 11-O ) :   0.9950
B(  9-C , 12-O ) :   1.1697 B( 12-O , 19-H ) :   0.8434 B( 13-O , 20-H ) :   0.8494
B( 14-O , 21-H ) :   0.8366 B( 15-O , 22-H ) :   0.8369 B( 16-O , 23-H ) :   0.8464

Dispersion correction           -0.023909964
FINAL SINGLE POINT ENERGY      -685.693596149190

DIPOLE MOMENT
-------------

Method             : SCF
Type of density    : Electron Density
Multiplicity       :   1
Irrep              :   0
Energy             :  -685.8227841826437725 Eh
Relativity type    :
Basis              : AO
                                X                 Y                 Z
Electronic contribution:      2.940698361       0.067492682      -1.522912590
Nuclear contribution   :     -4.677151720      -0.368682146       1.778594435
                        -----------------------------------------
Total Dipole Moment    :     -1.736453359      -0.301189464       0.255681845
                        -----------------------------------------
Magnitude (a.u.)       :      1.780830864
Magnitude (Debye)      :      4.526512330

Rotational constants in cm-1:             0.041264             0.026022             0.017382
Rotational constants in MHz :          1237.054082           780.109119           521.109206

                             ****ORCA TERMINATED NORMALLY****
TOTAL RUN TIME: 0 days 0 hours 0 minutes 11 seconds 515 msec
