                         Program Version 6.0.0  -   RELEASE  -
|  1> ! pbe def2-sv(p) def2/J RI DEFGRID1 loosescf d4 GCP(DFT/SV(P)) printgap
|  2> %output
|  3>     printlevel normal
|  4> end
|  5> * xyz 0 1
|  6> C 2.0693665974 -1.0295366776 0.000156937
|  7> C 2.3305047982 0.3407996386 -1.90514e-05
|  8> C 1.3012162478 1.2554502799 1.05903e-05
|  9> C -0.0283529156 0.8243659922 -5.77933e-05
| 10> C -0.3002753594 -0.5636968869 -0.0002777514
| 11> C 0.7699130976 -1.4728339326 -0.0001721194
| 12> C -1.6566874009 -1.0459508415 -0.0001081517
| 13> O -2.6621614144 -0.3425249865 0.0001717699
| 14> O -0.997083829 1.7443620632 0.0001190659
| 15> H 2.8854140197 -1.7334357117 0.0009733088
| 16> H 3.3509446537 0.690584188 -0.0005231724
| 17> H 1.4888419348 2.3172202427 9.49056e-05
| 18> H 0.5469922138 -2.528927577 0.0015127467
| 19> H -1.7628946907 -2.1433161525 -0.0002633311
| 20> H -1.8767166013 1.3009549683 -0.0008421219
| 21> *
| 22>
| 23>                          ****END OF INPUT****

CARTESIAN COORDINATES (ANGSTROEM)
---------------------------------
  C      2.069367   -1.029537    0.000157
  C      2.330505    0.340800   -0.000019
  C      1.301216    1.255450    0.000011
  C     -0.028353    0.824366   -0.000058
  C     -0.300275   -0.563697   -0.000278
  C      0.769913   -1.472834   -0.000172
  C     -1.656687   -1.045951   -0.000108
  O     -2.662161   -0.342525    0.000172
  O     -0.997084    1.744362    0.000119
  H      2.885414   -1.733436    0.000973
  H      3.350945    0.690584   -0.000523
  H      1.488842    2.317220    0.000095
  H      0.546992   -2.528928    0.001513
  H     -1.762895   -2.143316   -0.000263
  H     -1.876717    1.300955   -0.000842

 Total Charge           Charge          ....    0
 Multiplicity           Mult            ....    1
 Number of Electrons    NEL             ....   64
 Basis Dimension        Dim             ....  138

ORBITAL ENERGIES
----------------

  NO   OCC          E(Eh)            E(eV)
   0   2.0000     -18.788924      -511.2726
   1   2.0000     -18.763140      -510.5710
   2   2.0000      -9.980333      -271.5787
   3   2.0000      -9.974564      -271.4217
   4   2.0000      -9.917377      -269.8655
   5   2.0000      -9.916764      -269.8489
   6   2.0000      -9.911630      -269.7092
   7   2.0000      -9.904716      -269.5210
   8   2.0000      -9.902714      -269.4666
   9   2.0000      -0.980187       -26.6723
  10   2.0000      -0.947538       -25.7838
  11   2.0000      -0.790751       -21.5174
  12   2.0000      -0.705824       -19.2065
  13   2.0000      -0.681302       -18.5392
  14   2.0000      -0.599716       -16.3191
  15   2.0000      -0.562434       -15.3046
  16   2.0000      -0.550840       -14.9891
  17   2.0000      -0.481266       -13.0959
  18   2.0000      -0.472671       -12.8620
  19   2.0000      -0.430599       -11.7172
  20   2.0000      -0.420087       -11.4312
  21   2.0000      -0.397879       -10.8268
  22   2.0000      -0.394759       -10.7419
  23   2.0000      -0.387784       -10.5521
  24   2.0000      -0.351738        -9.5713
  25   2.0000      -0.350369        -9.5340
  26   2.0000      -0.341662        -9.2971
  27   2.0000      -0.315039        -8.5726
  28   2.0000      -0.310704        -8.4547
  29   2.0000      -0.250638        -6.8202
  30   2.0000      -0.223214        -6.0740
  31   2.0000      -0.213387        -5.8065
  32   0.0000      -0.100546        -2.7360
  33   0.0000      -0.040405        -1.0995
  34   0.0000      -0.003741        -0.1018
  35   0.0000       0.036936         1.0051
  36   0.0000       0.060754         1.6532

MULLIKEN ATOMIC CHARGES
-----------------------
   0 C :   -0.044670
   1 C :   -0.031411
   2 C :   -0.126246
   3 C :    0.154727
   4 C :    0.023893
   5 C :   -0.103877
   6 C :    0.038718
   7 O :   -0.217778
   8 O :   -0.298601
   9 H :    0.057154
  10 H :    0.067702
  11 H :    0.054066
  12 H :    0.053107
  13 H :    0.053625
  14 H :    0.319592
Sum of atomic charges:   -0.0000000

LOEWDIN ATOMIC CHARGES
----------------------
   0 C :   -0.147842
   1 C :   -0.089416
   2 C :   -0.144563
   3 C :    0.060138
   4 C :   -0.137485
   5 C :   -0.088591
   6 C :    0.008629
   7 O :   -0.160535
   8 O :   -0.204611
   9 H :    0.127322
  10 H :    0.130850
  11 H :    0.136034
  12 H :    0.128385
  13 H :    0.092464
  14 H :    0.289221

  Mayer bond orders larger than 0.100000
B(  0-C ,  1-C ) :   1.3055 B(  0-C ,  5-C ) :   1.4161 B(  0-C ,  9-H ) :   0.9677
B(  1-C ,  2-C ) :   1.3950 B(  1-C , 10-H ) :   0.9648 B(  2-C ,  3-C ) :   1.3392
B(  2-C , 11-H ) :   0.9626 B(  3-C ,  4-C ) :   1.2016 B(  3-C ,  8-O ) :   1.3428
B(  4-C ,  5-C ) :   1.2819 B(  4-C ,  6-C ) :   1.0749 B(  5-C , 12-H ) :   0.9596
B(  6-C ,  7-O ) :   1.9684 B(  6-C , 13-H ) :   0.9242 B(  7-O , 14-H ) :   0.1538
B(  8-O , 14-H ) :   0.7533

Dispersion correction           -0.015932388
FINAL SINGLE POINT ENERGY      -419.939255462498

DIPOLE MOMENT
-------------

Method             : SCF
Type of density    : Electron Density
Multiplicity       :   1
Irrep              :   0
Energy             :  -419.9877722392625401 Eh
Relativity type    :
Basis              : AO
                                X                 Y                 Z
Electronic contribution:     -3.432381448       1.460623070      -0.001164887
Nuclear contribution   :      4.291924804      -1.946495988       0.000897769
                        -----------------------------------------
Total Dipole Moment    :      0.859543356      -0.485872918      -0.000267118
                        -----------------------------------------
Magnitude (a.u.)       :      0.987363836
Magnitude (Debye)      :      2.509679424

Rotational constants in cm-1:             0.107720             0.050111             0.034201
Rotational constants in MHz :          3229.361482          1502.290959          1025.316367

                             ****ORCA TERMINATED NORMALLY****
TOTAL RUN TIME: 0 days 0 hours 0 minutes 7 seconds 860 msec
