                         Program Version 6.0.0  -   RELEASE  -
|  1> ! pbe def2-sv(p) def2/J RI DEFGRID1 loosescf d4 GCP(DFT/SV(P)) printgap
|  2> %output
|  3>     printlevel normal
|  4> end
|  5> * xyz 0 1
|  6> C -2.3617473581 -1.0029977082 0.3397016276
|  7> C -1.0973857336 -0.2503636902 0.7982874839
|  8> H -1.3310999544 0.2116091467 1.7654779444
|  9> C -0.6773012 0.8705381804 -0.1564974525
| 10> H -0.6737532566 0.521244299 -1.2008702132
| 11> C 0.7572423514 1.2834577541 0.1958106597
| 12> H 0.8192107996 1.4864724231 1.2753428957
| 13> C 1.7102953078 0.1224446834 -0.1224534475
| 14> H 1.9714452793 0.169556765 -1.1897935838
| 15> C 0.9858309686 -1.2296593696 0.0983487648
| 16> H 1.6932994293 -1.9558605995 0.5343748303
| 17> O -0.027991864 -1.1614438415 1.0569693452
| 18> O 0.5420534662 -1.6804816516 -1.14685893
| 19> O 2.8473840644 0.2781473717 0.6873147139
| 20> O 1.0586509194 2.4406708178 -0.5435426485
| 21> O -1.5830859906 1.9313175096 -0.0050868078
| 22> O -2.219723687 -1.6707926917 -0.8933690311
| 23> H -3.1875257337 -0.2876978165 0.3148998447
| 24> H -2.5732562764 -1.7791220634 1.0785690037
| 25> H -0.3125712077 -2.1469286715 -1.043045577
| 26> H 3.5238622532 -0.3697570034 0.4444466967
| 27> H 1.941043245 2.7537349137 -0.3011415008
| 28> H -1.1788310585 2.7233930192 -0.3941621896
| 29> H -2.3506373602 -1.0462233359 -1.6198356403
| 30> *
| 31>
| 32>                          ****END OF INPUT****

CARTESIAN COORDINATES (ANGSTROEM)
---------------------------------
  C     -2.361747   -1.002998    0.339702
  C     -1.097386   -0.250364    0.798287
  H     -1.331100    0.211609    1.765478
  C     -0.677301    0.870538   -0.156497
  H     -0.673753    0.521244   -1.200870
  C      0.757242    1.283458    0.195811
  H      0.819211    1.486472    1.275343
  C      1.710295    0.122445   -0.122453
  H      1.971445    0.169557   -1.189794
  C      0.985831   -1.229659    0.098349
  H      1.693299   -1.955861    0.534375
  O     -0.027992   -1.161444    1.056969
  O      0.542053   -1.680482   -1.146859
  O      2.847384    0.278147    0.687315
  O      1.058651    2.440671   -0.543543
  O     -1.583086    1.931318   -0.005087
  O     -2.219724   -1.670793   -0.893369
  H     -3.187526   -0.287698    0.314900
  H     -2.573256   -1.779122    1.078569
  H     -0.312571   -2.146929   -1.043046
  H      3.523862   -0.369757    0.444447
  H      1.941043    2.753735   -0.301142
  H     -1.178831    2.723393   -0.394162
  H     -2.350637   -1.046223   -1.619836

 Total Charge           Charge          ....    0
 Multiplicity           Mult            ....    1
 Number of Electrons    NEL             ....   96
 Basis Dimension        Dim             ....  192

ORBITAL ENERGIES
----------------

  NO   OCC          E(Eh)            E(eV)
   0   2.0000     -18.773958      -510.8654
   1   2.0000     -18.766497      -510.6623
   2   2.0000     -18.761495      -510.5262
   3   2.0000     -18.757050      -510.4053
   4   2.0000     -18.750446      -510.2256
   5   2.0000     -18.741763      -509.9893
   6   2.0000      -9.978505      -271.5289
   7   2.0000      -9.945048      -270.6185
   8   2.0000      -9.944222      -270.5960
   9   2.0000      -9.943191      -270.5680
  10   2.0000      -9.938732      -270.4466
  11   2.0000      -9.936315      -270.3809
  12   2.0000      -0.977612       -26.6022
  13   2.0000      -0.948136       -25.8001
  14   2.0000      -0.942707       -25.6523
  15   2.0000      -0.931383       -25.3442
  16   2.0000      -0.918493       -24.9935
  17   2.0000      -0.897231       -24.4149
  18   2.0000      -0.707259       -19.2455
  19   2.0000      -0.691003       -18.8032
  20   2.0000      -0.624215       -16.9858
  21   2.0000      -0.584134       -15.8951
  22   2.0000      -0.568090       -15.4585
  23   2.0000      -0.521151       -14.1812
  24   2.0000      -0.506414       -13.7802
  25   2.0000      -0.484582       -13.1861
  26   2.0000      -0.471118       -12.8198
  27   2.0000      -0.449657       -12.2358
  28   2.0000      -0.448489       -12.2040
  29   2.0000      -0.433993       -11.8096
  30   2.0000      -0.413700       -11.2573
  31   2.0000      -0.400181       -10.8895
  32   2.0000      -0.397951       -10.8288
  33   2.0000      -0.384737       -10.4692
  34   2.0000      -0.357275        -9.7219
  35   2.0000      -0.351948        -9.5770
  36   2.0000      -0.327592        -8.9142
  37   2.0000      -0.312743        -8.5102
  38   2.0000      -0.304976        -8.2988
  39   2.0000      -0.299791        -8.1577
  40   2.0000      -0.288773        -7.8579
  41   2.0000      -0.268548        -7.3076
  42   2.0000      -0.259949        -7.0736
  43   2.0000      -0.239556        -6.5187
  44   2.0000      -0.232714        -6.3325
  45   2.0000      -0.222934        -6.0663
  46   2.0000      -0.218041        -5.9332
  47   2.0000      -0.199561        -5.4303
  48   0.0000       0.014989         0.4079
  49   0.0000       0.018395         0.5005
  50   0.0000       0.035402         0.9633
  51   0.0000       0.051437         1.3997
  52   0.0000       0.069763         1.8983

MULLIKEN ATOMIC CHARGES
-----------------------
   0 C :    0.061618
   1 C :    0.052059
   2 H :    0.074876
   3 C :    0.024664
   4 H :    0.044543
   5 C :    0.031236
   6 H :    0.065558
   7 C :    0.076586
   8 H :    0.067530
   9 C :    0.171286
  10 H :    0.039937
  11 O :   -0.311898
  12 O :   -0.431107
  13 O :   -0.419741
  14 O :   -0.427123
  15 O :   -0.423095
  16 O :   -0.438235
  17 H :    0.096619
  18 H :    0.097834
  19 H :    0.301805
  20 H :    0.304585
  21 H :    0.313066
  22 H :    0.309566
  23 H :    0.317829
Sum of atomic charges:   -0.0000000

LOEWDIN ATOMIC CHARGES
----------------------
   0 C :   -0.130501
   1 C :   -0.066313
   2 H :    0.123235
   3 C :   -0.078157
   4 H :    0.095486
   5 C :   -0.068221
   6 H :    0.111507
   7 C :   -0.091387
   8 H :    0.109046
   9 C :   -0.002674
  10 H :    0.089018
  11 O :   -0.139675
  12 O :   -0.337503
  13 O :   -0.321650
  14 O :   -0.322528
  15 O :   -0.322551
  16 O :   -0.315327
  17 H :    0.115608
  18 H :    0.120065
  19 H :    0.269578
  20 H :    0.287766
  21 H :    0.294761
  22 H :    0.286652
  23 H :    0.293765

  Mayer bond orders larger than 0.100000
B(  0-C ,  1-C ) :   1.0431 B(  0-C , 16-O ) :   1.0492 B(  0-C , 17-H ) :   0.9175
B(  0-C , 18-H ) :   0.9199 B(  1-C ,  2-H ) :   0.8695 B(  1-C ,  3-C ) :   0.9818
B(  1-C , 11-O ) :   0.9717 B(  3-C ,  4-H ) :   0.8592 B(  3-C ,  5-C ) :   1.0541
B(  3-C , 15-O ) :   1.0764 B(  5-C ,  6-H ) :   0.8656 B(  5-C ,  7-C ) :   1.0316
B(  5-C , 14-O ) :   1.0721 B(  7-C ,  8-H ) :   0.8724 B(  7-C ,  9-C ) :   0.9713
B(  7-C , 13-O ) :   1.0764 B(  9-C , 10-H ) :   0.8931 B(  9-C , 11-O ) :   1.0890
B(  9-C , 12-O ) :   1.0822 B( 12-O , 19-H ) :   0.7799 B( 13-O , 20-H ) :   0.8463
B( 14-O , 21-H ) :   0.8418 B( 15-O , 22-H ) :   0.8279 B( 16-O , 19-H ) :   0.1198
B( 16-O , 23-H ) :   0.8369

Dispersion correction           -0.025021226
FINAL SINGLE POINT ENERGY      -685.698610834340

DIPOLE MOMENT
-------------

Method             : SCF
Type of density    : Electron Density
Multiplicity       :   1
Irrep              :   0
Energy             :  -685.8309106555677772 Eh
Relativity type    :
Basis              : AO
                                X                 Y                 Z
Electronic contribution:      1.834757029       0.103312023       0.068359040
Nuclear contribution   :     -1.547104786       0.265118445      -0.327490805
                        -----------------------------------------
Total Dipole Moment    :      0.287652243       0.368430468      -0.259131765
                        -----------------------------------------
Magnitude (a.u.)       :      0.534447466
Magnitude (Debye)      :      1.358457501

Rotational constants in cm-1:             0.042233             0.028359             0.020505
Rotational constants in MHz :          1266.108623           850.182553           614.710699

                             ****ORCA TERMINATED NORMALLY****
TOTAL RUN TIME: 0 days 0 hours 0 minutes 12 seconds 304 msec
