                         Program Version 6.0.0  -   RELEASE  -
|  1> ! pbe def2-sv(p) def2/J RI DEFGRID1 loosescf d4 GCP(DFT/SV(P)) printgap
|  2> %output
|  3>     printlevel normal
|  4> end
|  5> * xyz 0 1
|  6> C 2.7173342515 2.5103705906 1.1852202416
|  7> C 2.2630754251 1.7139747801 -0.0358659997
|  8> C 3.0728982413 0.4039145331 -0.2068322433
|  9> C 2.0328028049 -0.6607157497 -0.0374434151
| 10> C 2.1226595941 -2.0343610193 -0.0801605655
| 11> C 0.9696946988 -2.7847443267 0.1086399757
| 12> C -0.2476620422 -2.1682837343 0.3398756706
| 13> C -0.3426502969 -0.7831635746 0.3819589797
| 14> C 0.8084603978 -0.0324745194 0.1852813087
| 15> O 0.8787440695 1.3162218616 0.1897812505
| 16> O -1.5422714184 -0.1231966613 0.6604955645
| 17> C -2.6195966815 -0.3630068162 -0.1339922362
| 18> O -2.6009513547 -1.0964190683 -1.105979505
| 19> N -3.6764469844 0.3195413396 0.3135528313
| 20> C -4.9648488696 0.3018338639 -0.3412731153
| 21> C 2.2946118349 2.5747114764 -1.2964920229
| 22> H 2.6579035834 1.8900368552 2.0764399099
| 23> H 3.7404092783 2.8465329346 1.0477405971
| 24> H 2.072104242 3.3738657762 1.3222326192
| 25> H 3.5387656459 0.3499866248 -1.1911775512
| 26> H 3.8553319255 0.3189661368 0.5475271231
| 27> H 3.0701127038 -2.5167698866 -0.2586917506
| 28> H 1.0165884504 -3.8611508294 0.0774559067
| 29> H -1.1427857444 -2.7537911154 0.4797762335
| 30> H -3.5466262271 0.9105127743 1.1207332817
| 31> H -5.221281198 1.2980775402 -0.6999933801
| 32> H -5.7306662725 -0.0460145301 0.350590482
| 33> H -4.899713216 -0.3813874789 -1.1856889236
| 34> H 3.3097672498 2.9049843859 -1.4939667276
| 35> H 1.654445767 3.4430558996 -1.166144233
| 36> H 1.9299038319 2.0023542777 -2.146496099
| 37> *
| 38>
| 39>                          ****END OF INPUT****

CARTESIAN COORDINATES (ANGSTROEM)
---------------------------------
  C      2.717334    2.510371    1.185220
  C      2.263075    1.713975   -0.035866
  C      3.072898    0.403915   -0.206832
  C      2.032803   -0.660716   -0.037443
  C      2.122660   -2.034361   -0.080161
  C      0.969695   -2.784744    0.108640
  C     -0.247662   -2.168284    0.339876
  C     -0.342650   -0.783164    0.381959
  C      0.808460   -0.032475    0.185281
  O      0.878744    1.316222    0.189781
  O     -1.542271   -0.123197    0.660496
  C     -2.619597   -0.363007   -0.133992
  O     -2.600951   -1.096419   -1.105980
  N     -3.676447    0.319541    0.313553
  C     -4.964849    0.301834   -0.341273
  C      2.294612    2.574711   -1.296492
  H      2.657904    1.890037    2.076440
  H      3.740409    2.846533    1.047741
  H      2.072104    3.373866    1.322233
  H      3.538766    0.349987   -1.191178
  H      3.855332    0.318966    0.547527
  H      3.070113   -2.516770   -0.258692
  H      1.016588   -3.861151    0.077456
  H     -1.142786   -2.753791    0.479776
  H     -3.546626    0.910513    1.120733
  H     -5.221281    1.298078   -0.699993
  H     -5.730666   -0.046015    0.350590
  H     -4.899713   -0.381387   -1.185689
  H      3.309767    2.904984   -1.493967
  H      1.654446    3.443056   -1.166144
  H      1.929904    2.002354   -2.146496

 Total Charge           Charge          ....    0
 Multiplicity           Mult            ....    1
 Number of Electrons    NEL             ....  118
 Basis Dimension        Dim             ....  254

ORBITAL ENERGIES
----------------

  NO   OCC          E(Eh)            E(eV)
   0   2.0000     -18.796215      -511.4710
   1   2.0000     -18.780637      -511.0471
   2   2.0000     -18.708190      -509.0757
   3   2.0000     -14.019627      -381.4935
   4   2.0000     -10.017950      -272.6023
   5   2.0000      -9.962283      -271.0875
   6   2.0000      -9.943109      -270.5658
   7   2.0000      -9.939724      -270.4736
   8   2.0000      -9.920277      -269.9445
   9   2.0000      -9.897709      -269.3304
  10   2.0000      -9.893104      -269.2051
  11   2.0000      -9.887020      -269.0395
  12   2.0000      -9.884527      -268.9717
  13   2.0000      -9.882754      -268.9234
  14   2.0000      -9.882005      -268.9030
  15   2.0000      -9.881939      -268.9012
  16   2.0000      -1.002492       -27.2792
  17   2.0000      -0.971977       -26.4488
  18   2.0000      -0.903679       -24.5904
  19   2.0000      -0.842124       -22.9153
  20   2.0000      -0.769532       -20.9400
  21   2.0000      -0.736348       -20.0371
  22   2.0000      -0.690809       -18.7979
  23   2.0000      -0.673666       -18.3314
  24   2.0000      -0.636707       -17.3257
  25   2.0000      -0.627045       -17.0628
  26   2.0000      -0.614332       -16.7168
  27   2.0000      -0.564908       -15.3719
  28   2.0000      -0.548053       -14.9133
  29   2.0000      -0.528307       -14.3760
  30   2.0000      -0.511398       -13.9158
  31   2.0000      -0.496234       -13.5032
  32   2.0000      -0.453811       -12.3488
  33   2.0000      -0.431631       -11.7453
  34   2.0000      -0.429135       -11.6774
  35   2.0000      -0.426365       -11.6020
  36   2.0000      -0.421401       -11.4669
  37   2.0000      -0.413748       -11.2587
  38   2.0000      -0.393533       -10.7086
  39   2.0000      -0.386153       -10.5078
  40   2.0000      -0.373185       -10.1549
  41   2.0000      -0.370586       -10.0842
  42   2.0000      -0.362652        -9.8683
  43   2.0000      -0.358076        -9.7437
  44   2.0000      -0.353963        -9.6318
  45   2.0000      -0.345729        -9.4078
  46   2.0000      -0.338249        -9.2042
  47   2.0000      -0.332654        -9.0520
  48   2.0000      -0.323602        -8.8057
  49   2.0000      -0.316974        -8.6253
  50   2.0000      -0.312741        -8.5101
  51   2.0000      -0.300740        -8.1835
  52   2.0000      -0.284593        -7.7442
  53   2.0000      -0.273715        -7.4482
  54   2.0000      -0.259121        -7.0510
  55   2.0000      -0.215094        -5.8530
  56   2.0000      -0.214672        -5.8415
  57   2.0000      -0.207470        -5.6456
  58   2.0000      -0.179440        -4.8828
  59   0.0000      -0.028935        -0.7874
  60   0.0000      -0.011086        -0.3017
  61   0.0000       0.030260         0.8234
  62   0.0000       0.032507         0.8846
  63   0.0000       0.039123         1.0646

MULLIKEN ATOMIC CHARGES
-----------------------
   0 C :   -0.197116
   1 C :   -0.086412
   2 C :   -0.001004
   3 C :   -0.053907
   4 C :   -0.147813
   5 C :   -0.056244
   6 C :   -0.119803
   7 C :    0.145584
   8 C :    0.187297
   9 O :   -0.252229
  10 O :   -0.254400
  11 C :    0.185976
  12 O :   -0.237978
  13 N :   -0.279157
  14 C :   -0.173719
  15 C :   -0.198952
  16 H :    0.106908
  17 H :    0.102601
  18 H :    0.106969
  19 H :    0.091306
  20 H :    0.089701
  21 H :    0.028654
  22 H :    0.047711
  23 H :    0.045316
  24 H :    0.232783
  25 H :    0.114395
  26 H :    0.113607
  27 H :    0.139955
  28 H :    0.102413
  29 H :    0.107070
  30 H :    0.110488
Sum of atomic charges:   -0.0000000

LOEWDIN ATOMIC CHARGES
----------------------
   0 C :   -0.327384
   1 C :    0.019872
   2 C :   -0.199107
   3 C :   -0.071275
   4 C :   -0.128769
   5 C :   -0.140172
   6 C :   -0.124211
   7 C :    0.013414
   8 C :    0.022305
   9 O :   -0.074551
  10 O :   -0.063222
  11 C :    0.031120
  12 O :   -0.208305
  13 N :   -0.169962
  14 C :   -0.256173
  15 C :   -0.327314
  16 H :    0.124843
  17 H :    0.124417
  18 H :    0.124903
  19 H :    0.131484
  20 H :    0.130881
  21 H :    0.122526
  22 H :    0.123372
  23 H :    0.133910
  24 H :    0.237888
  25 H :    0.117433
  26 H :    0.117427
  27 H :    0.138926
  28 H :    0.124356
  29 H :    0.124961
  30 H :    0.126408

  Mayer bond orders larger than 0.100000
B(  0-C ,  1-C ) :   1.1011 B(  0-C , 16-H ) :   0.9381 B(  0-C , 17-H ) :   0.9405
B(  0-C , 18-H ) :   0.9406 B(  1-C ,  2-C ) :   1.0564 B(  1-C ,  9-O ) :   0.9378
B(  1-C , 15-C ) :   1.1021 B(  2-C ,  3-C ) :   1.0662 B(  2-C , 19-H ) :   0.8791
B(  2-C , 20-H ) :   0.8797 B(  3-C ,  4-C ) :   1.3873 B(  3-C ,  6-C ) :   0.1007
B(  3-C ,  8-C ) :   1.3372 B(  4-C ,  5-C ) :   1.3041 B(  4-C , 21-H ) :   0.9847
B(  5-C ,  6-C ) :   1.3356 B(  5-C , 22-H ) :   0.9639 B(  6-C ,  7-C ) :   1.3821
B(  6-C , 23-H ) :   0.9697 B(  7-C ,  8-C ) :   1.3765 B(  7-C , 10-O ) :   1.0059
B(  8-C ,  9-O ) :   1.1547 B( 10-O , 11-C ) :   1.0796 B( 11-C , 12-O ) :   2.0199
B( 11-C , 13-N ) :   1.2341 B( 13-N , 14-C ) :   1.0219 B( 13-N , 24-H ) :   0.8586
B( 14-C , 25-H ) :   0.9590 B( 14-C , 26-H ) :   0.9592 B( 14-C , 27-H ) :   0.9374
B( 15-C , 28-H ) :   0.9403 B( 15-C , 29-H ) :   0.9408 B( 15-C , 30-H ) :   0.9379

Dispersion correction           -0.035431340
FINAL SINGLE POINT ENERGY      -745.174963166110

DIPOLE MOMENT
-------------

Method             : SCF
Type of density    : Electron Density
Multiplicity       :   1
Irrep              :   0
Energy             :  -745.2768509669688228 Eh
Relativity type    :
Basis              : AO
                                X                 Y                 Z
Electronic contribution:     -5.676568786      -8.273825114       1.618640733
Nuclear contribution   :      5.845930618       9.177792773      -1.052501385
                        -----------------------------------------
Total Dipole Moment    :      0.169361833       0.903967659       0.566139348
                        -----------------------------------------
Magnitude (a.u.)       :      1.079979037
Magnitude (Debye)      :      2.745088556

Rotational constants in cm-1:             0.028923             0.011278             0.008897
Rotational constants in MHz :           867.085842           338.108699           266.711311

                             ****ORCA TERMINATED NORMALLY****
TOTAL RUN TIME: 0 days 0 hours 0 minutes 18 seconds 356 msec
