                         Program Version 6.0.0  -   RELEASE  -
|  1> ! pbe def2-sv(p) def2/J RI DEFGRID1 loosescf d4 GCP(DFT/SV(P)) printgap
|  2> %output
|  3>     printlevel normal
|  4> end
|  5> * xyz 0 1
|  6> C -2.2809617324 -0.9563310113 -0.3116839026
|  7> C -1.1328862163 -0.2358102171 0.407999664
|  8> H -1.5257242848 0.1974679508 1.3371795089
|  9> C -0.5494000981 0.8834002987 -0.4665110147
| 10> H -0.3777689304 0.5005302112 -1.4800746423
| 11> C 0.7924504833 1.319110563 0.1439714122
| 12> H 0.665145278 1.5406393788 1.2104901486
| 13> C 1.7929962287 0.1546377464 0.0319812021
| 14> H 2.2836279665 0.2081294291 -0.9491195157
| 15> C 1.056711659 -1.2076834852 0.0875231928
| 16> H 1.6770618916 -1.9149447243 0.6570531502
| 17> O -0.1363167198 -1.1738345592 0.8245443937
| 18> O 0.8668586444 -1.638786226 -1.2263695109
| 19> O 2.723108804 0.2858467221 1.075437572
| 20> O 1.2788973066 2.5050075287 -0.4206638056
| 21> O -1.4483939136 1.9458073366 -0.6195867806
| 22> O -3.006531139 -1.7987492046 0.5481526105
| 23> H -1.8770724061 -1.5214765616 -1.1615665396
| 24> H -2.9844349487 -0.209433701 -0.6848323036
| 25> H 0.6169372932 -2.5752201299 -1.2448297274
| 26> H 3.5267230393 -0.217235411 0.8810282536
| 27> H 1.2959676724 2.4293049797 -1.3861272405
| 28> H -1.4985726303 2.4589508414 0.200262264
| 29> H -2.3824962035 -2.3770254739 1.010936992
| 30> *
| 31>
| 32>                          ****END OF INPUT****

CARTESIAN COORDINATES (ANGSTROEM)
---------------------------------
  C     -2.280962   -0.956331   -0.311684
  C     -1.132886   -0.235810    0.408000
  H     -1.525724    0.197468    1.337180
  C     -0.549400    0.883400   -0.466511
  H     -0.377769    0.500530   -1.480075
  C      0.792450    1.319111    0.143971
  H      0.665145    1.540639    1.210490
  C      1.792996    0.154638    0.031981
  H      2.283628    0.208129   -0.949120
  C      1.056712   -1.207683    0.087523
  H      1.677062   -1.914945    0.657053
  O     -0.136317   -1.173835    0.824544
  O      0.866859   -1.638786   -1.226370
  O      2.723109    0.285847    1.075438
  O      1.278897    2.505008   -0.420664
  O     -1.448394    1.945807   -0.619587
  O     -3.006531   -1.798749    0.548153
  H     -1.877072   -1.521477   -1.161567
  H     -2.984435   -0.209434   -0.684832
  H      0.616937   -2.575220   -1.244830
  H      3.526723   -0.217235    0.881028
  H      1.295968    2.429305   -1.386127
  H     -1.498573    2.458951    0.200262
  H     -2.382496   -2.377025    1.010937

 Total Charge           Charge          ....    0
 Multiplicity           Mult            ....    1
 Number of Electrons    NEL             ....   96
 Basis Dimension        Dim             ....  192

ORBITAL ENERGIES
----------------

  NO   OCC          E(Eh)            E(eV)
   0   2.0000     -18.776174      -510.9257
   1   2.0000     -18.773661      -510.8573
   2   2.0000     -18.758687      -510.4498
   3   2.0000     -18.756124      -510.3801
   4   2.0000     -18.749361      -510.1961
   5   2.0000     -18.739806      -509.9361
   6   2.0000      -9.992699      -271.9152
   7   2.0000      -9.947181      -270.6766
   8   2.0000      -9.944275      -270.5975
   9   2.0000      -9.943972      -270.5892
  10   2.0000      -9.942364      -270.5455
  11   2.0000      -9.923944      -270.0443
  12   2.0000      -0.987490       -26.8710
  13   2.0000      -0.946457       -25.7544
  14   2.0000      -0.935711       -25.4620
  15   2.0000      -0.925365       -25.1805
  16   2.0000      -0.917595       -24.9690
  17   2.0000      -0.911002       -24.7896
  18   2.0000      -0.706680       -19.2297
  19   2.0000      -0.694218       -18.8906
  20   2.0000      -0.617610       -16.8060
  21   2.0000      -0.593528       -16.1507
  22   2.0000      -0.567751       -15.4493
  23   2.0000      -0.533253       -14.5106
  24   2.0000      -0.512529       -13.9466
  25   2.0000      -0.491652       -13.3785
  26   2.0000      -0.473464       -12.8836
  27   2.0000      -0.462641       -12.5891
  28   2.0000      -0.441503       -12.0139
  29   2.0000      -0.425604       -11.5813
  30   2.0000      -0.411003       -11.1840
  31   2.0000      -0.404081       -10.9956
  32   2.0000      -0.386863       -10.5271
  33   2.0000      -0.380345       -10.3497
  34   2.0000      -0.361333        -9.8324
  35   2.0000      -0.355432        -9.6718
  36   2.0000      -0.334590        -9.1047
  37   2.0000      -0.310643        -8.4530
  38   2.0000      -0.301347        -8.2001
  39   2.0000      -0.290267        -7.8986
  40   2.0000      -0.283496        -7.7143
  41   2.0000      -0.274118        -7.4591
  42   2.0000      -0.262676        -7.1478
  43   2.0000      -0.241988        -6.5848
  44   2.0000      -0.235338        -6.4039
  45   2.0000      -0.222531        -6.0554
  46   2.0000      -0.215736        -5.8705
  47   2.0000      -0.200922        -5.4674
  48   0.0000       0.009623         0.2619
  49   0.0000       0.020715         0.5637
  50   0.0000       0.027113         0.7378
  51   0.0000       0.034365         0.9351
  52   0.0000       0.047108         1.2819

MULLIKEN ATOMIC CHARGES
-----------------------
   0 C :    0.091441
   1 C :    0.032701
   2 H :    0.057094
   3 C :    0.002257
   4 H :    0.068992
   5 C :    0.060001
   6 H :    0.063489
   7 C :    0.069470
   8 H :    0.055859
   9 C :    0.166507
  10 H :    0.048530
  11 O :   -0.327604
  12 O :   -0.396374
  13 O :   -0.403163
  14 O :   -0.403256
  15 O :   -0.400026
  16 O :   -0.435137
  17 H :    0.054205
  18 H :    0.089791
  19 H :    0.306980
  20 H :    0.303054
  21 H :    0.299028
  22 H :    0.302174
  23 H :    0.293986
Sum of atomic charges:   -0.0000000

LOEWDIN ATOMIC CHARGES
----------------------
   0 C :   -0.133154
   1 C :   -0.075296
   2 H :    0.111106
   3 C :   -0.088915
   4 H :    0.115768
   5 C :   -0.072610
   6 H :    0.120847
   7 C :   -0.081074
   8 H :    0.105807
   9 C :   -0.012976
  10 H :    0.095448
  11 O :   -0.152758
  12 O :   -0.313056
  13 O :   -0.309984
  14 O :   -0.305734
  15 O :   -0.302523
  16 O :   -0.339792
  17 H :    0.092657
  18 H :    0.119357
  19 H :    0.287640
  20 H :    0.287997
  21 H :    0.284597
  22 H :    0.288073
  23 H :    0.278575

  Mayer bond orders larger than 0.100000
B(  0-C ,  1-C ) :   1.0686 B(  0-C , 16-O ) :   1.0719 B(  0-C , 17-H ) :   0.9012
B(  0-C , 18-H ) :   0.9094 B(  1-C ,  2-H ) :   0.8766 B(  1-C ,  3-C ) :   0.9518
B(  1-C , 11-O ) :   0.9428 B(  3-C ,  4-H ) :   0.8658 B(  3-C ,  5-C ) :   1.0222
B(  3-C , 15-O ) :   1.0558 B(  5-C ,  6-H ) :   0.8492 B(  5-C ,  7-C ) :   0.9993
B(  5-C , 14-O ) :   1.0759 B(  7-C ,  8-H ) :   0.8792 B(  7-C ,  9-C ) :   0.9705
B(  7-C , 13-O ) :   1.1043 B(  9-C , 10-H ) :   0.8941 B(  9-C , 11-O ) :   1.0870
B(  9-C , 12-O ) :   1.0900 B( 12-O , 19-H ) :   0.8343 B( 13-O , 20-H ) :   0.8471
B( 14-O , 21-H ) :   0.8485 B( 15-O , 22-H ) :   0.8459 B( 16-O , 23-H ) :   0.8468

Dispersion correction           -0.024302284
FINAL SINGLE POINT ENERGY      -685.687611318415

DIPOLE MOMENT
-------------

Method             : SCF
Type of density    : Electron Density
Multiplicity       :   1
Irrep              :   0
Energy             :  -685.8167892484094637 Eh
Relativity type    :
Basis              : AO
                                X                 Y                 Z
Electronic contribution:      1.533851808       0.525859056       1.183766966
Nuclear contribution   :     -0.540594603      -1.386929488      -1.507389251
                        -----------------------------------------
Total Dipole Moment    :      0.993257205      -0.861070432      -0.323622285
                        -----------------------------------------
Magnitude (a.u.)       :      1.353784897
Magnitude (Debye)      :      3.441047745

Rotational constants in cm-1:             0.042275             0.025356             0.018723
Rotational constants in MHz :          1267.385597           760.155109           561.287668

                             ****ORCA TERMINATED NORMALLY****
TOTAL RUN TIME: 0 days 0 hours 0 minutes 11 seconds 773 msec
