                         Program Version 6.0.0  -   RELEASE  -
|  1> ! pbe def2-sv(p) def2/J RI DEFGRID1 loosescf d4 GCP(DFT/SV(P)) printgap
|  2> %output
|  3>     printlevel normal
|  4> end
|  5> * xyz 0 1
|  6> C -2.6604667751 -0.5830032654 -0.7405090253
|  7> C -1.8718623657 -0.5204809356 0.5698368743
|  8> C -0.4031120287 -0.3229154791 0.3041632441
|  9> C 0.4168399597 -1.4464930549 0.2628732307
| 10> C 1.7688708261 -1.3495925588 -0.0037630363
| 11> C 2.3282329737 -0.1047523839 -0.2359280942
| 12> C 1.5239558255 1.0173490272 -0.2010342934
| 13> C 0.1593414215 0.9314464772 0.0608223234
| 14> C -0.6268446341 2.2116416323 0.073863324
| 15> H -2.5454032918 0.3391968638 -1.3045094099
| 16> H -3.7176006954 -0.7397955442 -0.5398477159
| 17> H -2.297817221 -1.4034782402 -1.3557080772
| 18> H -2.0112468576 -1.458824126 1.1103282171
| 19> H -2.2620340334 0.2812228618 1.1980380842
| 20> H -0.0194227083 -2.4184518378 0.4470606675
| 21> H 2.3825745774 -2.2379338297 -0.0287429176
| 22> H 3.3838588786 -0.0103351712 -0.4438554074
| 23> H 1.9576711992 1.9906415999 -0.3836382721
| 24> H -0.473636026 2.7465893001 -0.8620862977
| 25> H -1.6900066696 2.0474997987 0.204544162
| 26> H -0.2736073988 2.8514064919 0.8820322701
| 27> *
| 28>
| 29>                          ****END OF INPUT****

CARTESIAN COORDINATES (ANGSTROEM)
---------------------------------
  C     -2.660467   -0.583003   -0.740509
  C     -1.871862   -0.520481    0.569837
  C     -0.403112   -0.322915    0.304163
  C      0.416840   -1.446493    0.262873
  C      1.768871   -1.349593   -0.003763
  C      2.328233   -0.104752   -0.235928
  C      1.523956    1.017349   -0.201034
  C      0.159341    0.931446    0.060822
  C     -0.626845    2.211642    0.073863
  H     -2.545403    0.339197   -1.304509
  H     -3.717601   -0.739796   -0.539848
  H     -2.297817   -1.403478   -1.355708
  H     -2.011247   -1.458824    1.110328
  H     -2.262034    0.281223    1.198038
  H     -0.019423   -2.418452    0.447061
  H      2.382575   -2.237934   -0.028743
  H      3.383859   -0.010335   -0.443855
  H      1.957671    1.990642   -0.383638
  H     -0.473636    2.746589   -0.862086
  H     -1.690007    2.047500    0.204544
  H     -0.273607    2.851406    0.882032

 Total Charge           Charge          ....    0
 Multiplicity           Mult            ....    1
 Number of Electrons    NEL             ....   66
 Basis Dimension        Dim             ....  150

ORBITAL ENERGIES
----------------

  NO   OCC          E(Eh)            E(eV)
   0   2.0000      -9.897358      -269.3208
   1   2.0000      -9.895304      -269.2649
   2   2.0000      -9.889011      -269.0937
   3   2.0000      -9.882736      -268.9229
   4   2.0000      -9.882262      -268.9100
   5   2.0000      -9.881843      -268.8986
   6   2.0000      -9.881725      -268.8954
   7   2.0000      -9.881394      -268.8864
   8   2.0000      -9.877708      -268.7861
   9   2.0000      -0.776404       -21.1270
  10   2.0000      -0.708092       -19.2682
  11   2.0000      -0.689310       -18.7571
  12   2.0000      -0.645748       -17.5717
  13   2.0000      -0.610226       -16.6051
  14   2.0000      -0.560726       -15.2581
  15   2.0000      -0.530567       -14.4375
  16   2.0000      -0.502320       -13.6688
  17   2.0000      -0.447737       -12.1835
  18   2.0000      -0.428378       -11.6568
  19   2.0000      -0.399439       -10.8693
  20   2.0000      -0.381675       -10.3859
  21   2.0000      -0.377147       -10.2627
  22   2.0000      -0.370440       -10.0802
  23   2.0000      -0.359111        -9.7719
  24   2.0000      -0.347194        -9.4476
  25   2.0000      -0.338060        -9.1991
  26   2.0000      -0.325148        -8.8477
  27   2.0000      -0.307428        -8.3655
  28   2.0000      -0.305523        -8.3137
  29   2.0000      -0.287451        -7.8219
  30   2.0000      -0.279661        -7.6100
  31   2.0000      -0.217009        -5.9051
  32   2.0000      -0.210380        -5.7247
  33   0.0000      -0.029759        -0.8098
  34   0.0000      -0.024890        -0.6773
  35   0.0000       0.040702         1.1076
  36   0.0000       0.054127         1.4729
  37   0.0000       0.063599         1.7306

MULLIKEN ATOMIC CHARGES
-----------------------
   0 C :   -0.268260
   1 C :   -0.152846
   2 C :    0.022621
   3 C :   -0.133496
   4 C :   -0.043186
   5 C :   -0.040450
   6 C :   -0.120772
   7 C :   -0.014057
   8 C :   -0.231516
   9 H :    0.104577
  10 H :    0.104449
  11 H :    0.101351
  12 H :    0.083366
  13 H :    0.095018
  14 H :    0.033135
  15 H :    0.045930
  16 H :    0.047535
  17 H :    0.030459
  18 H :    0.112751
  19 H :    0.107727
  20 H :    0.115663
Sum of atomic charges:   -0.0000000

LOEWDIN ATOMIC CHARGES
----------------------
   0 C :   -0.333869
   1 C :   -0.219637
   2 C :   -0.039703
   3 C :   -0.123087
   4 C :   -0.129474
   5 C :   -0.127740
   6 C :   -0.121822
   7 C :   -0.046990
   8 C :   -0.326887
   9 H :    0.118383
  10 H :    0.118501
  11 H :    0.121009
  12 H :    0.121523
  13 H :    0.120596
  14 H :    0.119081
  15 H :    0.121383
  16 H :    0.121411
  17 H :    0.118843
  18 H :    0.132274
  19 H :    0.122692
  20 H :    0.133510

  Mayer bond orders larger than 0.100000
B(  0-C ,  1-C ) :   1.1475 B(  0-C ,  9-H ) :   0.9537 B(  0-C , 10-H ) :   0.9486
B(  0-C , 11-H ) :   0.9520 B(  1-C ,  2-C ) :   1.0793 B(  1-C , 12-H ) :   0.9054
B(  1-C , 13-H ) :   0.8999 B(  2-C ,  3-C ) :   1.3800 B(  2-C ,  7-C ) :   1.4312
B(  3-C ,  4-C ) :   1.3781 B(  3-C , 14-H ) :   0.9571 B(  4-C ,  5-C ) :   1.3573
B(  4-C , 15-H ) :   0.9650 B(  5-C ,  6-C ) :   1.3821 B(  5-C , 16-H ) :   0.9651
B(  6-C ,  7-C ) :   1.3774 B(  6-C , 17-H ) :   0.9648 B(  7-C ,  8-C ) :   1.1151
B(  8-C , 18-H ) :   0.9354 B(  8-C , 19-H ) :   0.9266 B(  8-C , 20-H ) :   0.9347

Dispersion correction           -0.021509694
FINAL SINGLE POINT ENERGY      -349.370232000742

DIPOLE MOMENT
-------------

Method             : SCF
Type of density    : Electron Density
Multiplicity       :   1
Irrep              :   0
Energy             :  -349.4292936489807744 Eh
Relativity type    :
Basis              : AO
                                X                 Y                 Z
Electronic contribution:      6.903926457      -1.739647548       1.011800975
Nuclear contribution   :     -7.098800702       1.864830452      -1.009828656
                        -----------------------------------------
Total Dipole Moment    :     -0.194874245       0.125182904       0.001972320
                        -----------------------------------------
Magnitude (a.u.)       :      0.231626037
Magnitude (Debye)      :      0.588746596

Rotational constants in cm-1:             0.084505             0.048389             0.033490
Rotational constants in MHz :          2533.400895          1450.660092          1004.003464

                             ****ORCA TERMINATED NORMALLY****
TOTAL RUN TIME: 0 days 0 hours 0 minutes 9 seconds 930 msec
