                         Program Version 6.0.0  -   RELEASE  -
|  1> ! pbe def2-sv(p) def2/J RI DEFGRID1 loosescf d4 GCP(DFT/SV(P)) printgap
|  2> %output
|  3>     printlevel normal
|  4> end
|  5> * xyz 0 1
|  6> C 2.182791302 1.0306134224 -0.4240445754
|  7> C 1.1669806591 -0.0865565494 -0.2401651438
|  8> C 1.6183007821 -1.1201230351 0.7852189941
|  9> O -0.0589206891 0.5329312973 0.2131618917
| 10> C -1.2168702499 -0.032213427 -0.0902131618
| 11> O -1.3201619185 -1.0477182864 -0.7501142605
| 12> C -2.3720410611 0.7337060767 0.4841417499
| 13> H 2.3582026197 1.5259795279 0.5265592041
| 14> H 3.1157096637 0.6159966183 -0.7912514791
| 15> H 1.8127568318 1.7617499072 -1.137338731
| 16> H 0.9505714887 -0.5826666294 -1.1952872618
| 17> H 1.7651496754 -0.6436409612 1.7510256714
| 18> H 2.5502734684 -1.5718341619 0.4614081115
| 19> H 0.8659815416 -1.8998199294 0.8841815686
| 20> H -3.1743094238 0.780167461 -0.2461033335
| 21> H -2.0487555039 1.7264957377 0.7772286537
| 22> H -2.7392986752 0.1978665167 1.3567162567
| 23> *
| 24>
| 25>                          ****END OF INPUT****

CARTESIAN COORDINATES (ANGSTROEM)
---------------------------------
  C      2.182791    1.030613   -0.424045
  C      1.166981   -0.086557   -0.240165
  C      1.618301   -1.120123    0.785219
  O     -0.058921    0.532931    0.213162
  C     -1.216870   -0.032213   -0.090213
  O     -1.320162   -1.047718   -0.750114
  C     -2.372041    0.733706    0.484142
  H      2.358203    1.525980    0.526559
  H      3.115710    0.615997   -0.791251
  H      1.812757    1.761750   -1.137339
  H      0.950571   -0.582667   -1.195287
  H      1.765150   -0.643641    1.751026
  H      2.550273   -1.571834    0.461408
  H      0.865982   -1.899820    0.884182
  H     -3.174309    0.780167   -0.246103
  H     -2.048756    1.726496    0.777229
  H     -2.739299    0.197867    1.356716

 Total Charge           Charge          ....    0
 Multiplicity           Mult            ....    1
 Number of Electrons    NEL             ....   56
 Basis Dimension        Dim             ....  118

ORBITAL ENERGIES
----------------

  NO   OCC          E(Eh)            E(eV)
   0   2.0000     -18.794782      -511.4320
   1   2.0000     -18.727011      -509.5879
   2   2.0000     -10.006275      -272.2846
   3   2.0000      -9.952216      -270.8136
   4   2.0000      -9.892028      -269.1758
   5   2.0000      -9.885768      -269.0054
   6   2.0000      -9.883647      -268.9477
   7   2.0000      -1.002166       -27.2703
   8   2.0000      -0.905100       -24.6290
   9   2.0000      -0.728070       -19.8118
  10   2.0000      -0.667392       -18.1606
  11   2.0000      -0.626537       -17.0489
  12   2.0000      -0.568556       -15.4712
  13   2.0000      -0.494163       -13.4468
  14   2.0000      -0.436103       -11.8670
  15   2.0000      -0.428219       -11.6524
  16   2.0000      -0.412245       -11.2178
  17   2.0000      -0.394958       -10.7474
  18   2.0000      -0.377730       -10.2786
  19   2.0000      -0.370291       -10.0761
  20   2.0000      -0.353742        -9.6258
  21   2.0000      -0.350493        -9.5374
  22   2.0000      -0.337214        -9.1761
  23   2.0000      -0.320195        -8.7130
  24   2.0000      -0.310376        -8.4458
  25   2.0000      -0.286292        -7.7904
  26   2.0000      -0.252644        -6.8748
  27   2.0000      -0.214266        -5.8305
  28   0.0000      -0.016992        -0.4624
  29   0.0000       0.038282         1.0417
  30   0.0000       0.060809         1.6547
  31   0.0000       0.075202         2.0463
  32   0.0000       0.084521         2.2999

MULLIKEN ATOMIC CHARGES
-----------------------
   0 C :   -0.236802
   1 C :   -0.018780
   2 C :   -0.256841
   3 O :   -0.234784
   4 C :    0.085335
   5 O :   -0.218781
   6 C :   -0.248473
   7 H :    0.104128
   8 H :    0.106329
   9 H :    0.111303
  10 H :    0.096392
  11 H :    0.102107
  12 H :    0.107091
  13 H :    0.122032
  14 H :    0.129034
  15 H :    0.116213
  16 H :    0.134496
Sum of atomic charges:   -0.0000000

LOEWDIN ATOMIC CHARGES
----------------------
   0 C :   -0.338100
   1 C :   -0.046026
   2 C :   -0.342624
   3 O :   -0.062794
   4 C :    0.028649
   5 O :   -0.179154
   6 C :   -0.359850
   7 H :    0.123504
   8 H :    0.127562
   9 H :    0.125168
  10 H :    0.118041
  11 H :    0.121996
  12 H :    0.127816
  13 H :    0.129064
  14 H :    0.143961
  15 H :    0.133907
  16 H :    0.148878

  Mayer bond orders larger than 0.100000
B(  0-C ,  1-C ) :   1.1166 B(  0-C ,  7-H ) :   0.9431 B(  0-C ,  8-H ) :   0.9461
B(  0-C ,  9-H ) :   0.9479 B(  1-C ,  2-C ) :   1.1354 B(  1-C ,  3-O ) :   0.8859
B(  1-C , 10-H ) :   0.8967 B(  2-C , 11-H ) :   0.9422 B(  2-C , 12-H ) :   0.9464
B(  2-C , 13-H ) :   0.9415 B(  3-O ,  4-C ) :   1.2143 B(  4-C ,  5-O ) :   2.0344
B(  4-C ,  6-C ) :   1.0828 B(  6-C , 14-H ) :   0.9349 B(  6-C , 15-H ) :   0.9376
B(  6-C , 16-H ) :   0.9268

Dispersion correction           -0.012264241
FINAL SINGLE POINT ENERGY      -346.249029907610

DIPOLE MOMENT
-------------

Method             : SCF
Type of density    : Electron Density
Multiplicity       :   1
Irrep              :   0
Energy             :  -346.3133147878810973 Eh
Relativity type    :
Basis              : AO
                                X                 Y                 Z
Electronic contribution:     -4.684204460      -1.283924606      -1.855149378
Nuclear contribution   :      5.098458025       1.784542945       2.231574257
                        -----------------------------------------
Total Dipole Moment    :      0.414253565       0.500618339       0.376424879
                        -----------------------------------------
Magnitude (a.u.)       :      0.750946354
Magnitude (Debye)      :      1.908753941

Rotational constants in cm-1:             0.158914             0.055537             0.049109
Rotational constants in MHz :          4764.133456          1664.966771          1472.249722

                             ****ORCA TERMINATED NORMALLY****
TOTAL RUN TIME: 0 days 0 hours 0 minutes 8 seconds 447 msec
