                         Program Version 6.0.0  -   RELEASE  -
|  1> ! pbe def2-sv(p) def2/J RI DEFGRID1 loosescf d4 GCP(DFT/SV(P)) printgap
|  2> %output
|  3>     printlevel normal
|  4> end
|  5> * xyz 0 1
|  6> C 3.364096085 -0.0414510608 0.1588321123
|  7> N 1.9429194062 -0.2808687354 0.285168478
|  8> C 1.5842696716 -1.4008723923 1.1233289491
|  9> C 1.0643258768 0.4995442949 -0.3538480134
| 10> O 1.4078578743 1.4420793936 -1.0752334707
| 11> C -0.3899082365 0.1904481534 -0.1634951907
| 12> C -1.0648075128 -0.5763221901 -1.1055616423
| 13> C -2.4236986541 -0.8024816406 -0.9695081406
| 14> C -3.1153421361 -0.2581745703 0.0998374454
| 15> C -2.4472674528 0.5166010919 1.0336869479
| 16> C -1.0880116156 0.7432412056 0.9039800101
| 17> H 3.5101239003 0.8225164479 -0.4863432805
| 18> H 3.8519283091 -0.9118950279 -0.2810105318
| 19> H 3.7968457221 0.1570457335 1.1397402371
| 20> H 2.0460554071 -2.3095763752 0.7338898045
| 21> H 0.5061857642 -1.5286777463 1.1451941012
| 22> H 1.9476633675 -1.2309956021 2.138178913
| 23> H -0.5215973605 -0.9906109975 -1.9420314164
| 24> H -2.9419427377 -1.4020511753 -1.7019928058
| 25> H -4.1751338352 -0.4334516809 0.2027031172
| 26> H -2.9847391178 0.9475375945 1.8643549215
| 27> H -0.5636789734 1.3515037095 1.6260425669
| 28> *
| 29>
| 30>                          ****END OF INPUT****

CARTESIAN COORDINATES (ANGSTROEM)
---------------------------------
  C      3.364096   -0.041451    0.158832
  N      1.942919   -0.280869    0.285168
  C      1.584270   -1.400872    1.123329
  C      1.064326    0.499544   -0.353848
  O      1.407858    1.442079   -1.075233
  C     -0.389908    0.190448   -0.163495
  C     -1.064808   -0.576322   -1.105562
  C     -2.423699   -0.802482   -0.969508
  C     -3.115342   -0.258175    0.099837
  C     -2.447267    0.516601    1.033687
  C     -1.088012    0.743241    0.903980
  H      3.510124    0.822516   -0.486343
  H      3.851928   -0.911895   -0.281011
  H      3.796846    0.157046    1.139740
  H      2.046055   -2.309576    0.733890
  H      0.506186   -1.528678    1.145194
  H      1.947663   -1.230996    2.138179
  H     -0.521597   -0.990611   -1.942031
  H     -2.941943   -1.402051   -1.701993
  H     -4.175134   -0.433452    0.202703
  H     -2.984739    0.947538    1.864355
  H     -0.563679    1.351504    1.626043

 Total Charge           Charge          ....    0
 Multiplicity           Mult            ....    1
 Number of Electrons    NEL             ....   80
 Basis Dimension        Dim             ....  176

ORBITAL ENERGIES
----------------

  NO   OCC          E(Eh)            E(eV)
   0   2.0000     -18.707005      -509.0435
   1   2.0000     -14.029261      -381.7556
   2   2.0000      -9.977445      -271.5001
   3   2.0000      -9.925169      -270.0776
   4   2.0000      -9.915683      -269.8194
   5   2.0000      -9.906760      -269.5766
   6   2.0000      -9.898611      -269.3549
   7   2.0000      -9.898011      -269.3386
   8   2.0000      -9.897434      -269.3229
   9   2.0000      -9.897122      -269.3144
  10   2.0000      -9.895953      -269.2826
  11   2.0000      -0.928598       -25.2684
  12   2.0000      -0.849709       -23.1218
  13   2.0000      -0.781637       -21.2694
  14   2.0000      -0.691789       -18.8245
  15   2.0000      -0.675600       -18.3840
  16   2.0000      -0.655259       -17.8305
  17   2.0000      -0.634874       -17.2758
  18   2.0000      -0.554310       -15.0835
  19   2.0000      -0.548657       -14.9297
  20   2.0000      -0.498760       -13.5719
  21   2.0000      -0.480622       -13.0784
  22   2.0000      -0.441047       -12.0015
  23   2.0000      -0.437675       -11.9097
  24   2.0000      -0.419005       -11.4017
  25   2.0000      -0.410221       -11.1627
  26   2.0000      -0.395456       -10.7609
  27   2.0000      -0.380293       -10.3483
  28   2.0000      -0.365960        -9.9583
  29   2.0000      -0.365497        -9.9457
  30   2.0000      -0.351707        -9.5704
  31   2.0000      -0.342392        -9.3170
  32   2.0000      -0.328528        -8.9397
  33   2.0000      -0.326024        -8.8716
  34   2.0000      -0.311740        -8.4829
  35   2.0000      -0.301784        -8.2120
  36   2.0000      -0.237283        -6.4568
  37   2.0000      -0.235442        -6.4067
  38   2.0000      -0.205071        -5.5803
  39   2.0000      -0.190131        -5.1737
  40   0.0000      -0.040494        -1.1019
  41   0.0000      -0.039857        -1.0846
  42   0.0000      -0.002839        -0.0773
  43   0.0000       0.030300         0.8245
  44   0.0000       0.044200         1.2027

MULLIKEN ATOMIC CHARGES
-----------------------
   0 C :   -0.177632
   1 N :   -0.229227
   2 C :   -0.178347
   3 C :    0.142080
   4 O :   -0.237634
   5 C :   -0.040283
   6 C :   -0.069122
   7 C :   -0.048475
   8 C :   -0.045097
   9 C :   -0.048268
  10 C :   -0.071814
  11 H :    0.144336
  12 H :    0.108396
  13 H :    0.107852
  14 H :    0.107726
  15 H :    0.162193
  16 H :    0.107463
  17 H :    0.050711
  18 H :    0.055511
  19 H :    0.055547
  20 H :    0.055183
  21 H :    0.048902
Sum of atomic charges:   -0.0000000

LOEWDIN ATOMIC CHARGES
----------------------
   0 C :   -0.254052
   1 N :   -0.043138
   2 C :   -0.249536
   3 C :    0.029662
   4 O :   -0.204075
   5 C :   -0.060195
   6 C :   -0.110532
   7 C :   -0.118913
   8 C :   -0.124256
   9 C :   -0.119259
  10 C :   -0.113661
  11 H :    0.137306
  12 H :    0.116751
  13 H :    0.116704
  14 H :    0.115986
  15 H :    0.137518
  16 H :    0.115719
  17 H :    0.127166
  18 H :    0.125236
  19 H :    0.124531
  20 H :    0.125077
  21 H :    0.125963

  Mayer bond orders larger than 0.100000
B(  0-C ,  1-N ) :   0.9995 B(  0-C , 11-H ) :   0.9274 B(  0-C , 12-H ) :   0.9523
B(  0-C , 13-H ) :   0.9520 B(  1-N ,  2-C ) :   1.0163 B(  1-N ,  3-C ) :   1.2072
B(  1-N ,  4-O ) :   0.1053 B(  2-C , 14-H ) :   0.9466 B(  2-C , 15-H ) :   0.9290
B(  2-C , 16-H ) :   0.9474 B(  3-C ,  4-O ) :   2.0297 B(  3-C ,  5-C ) :   0.8914
B(  5-C ,  6-C ) :   1.3965 B(  5-C , 10-C ) :   1.3920 B(  6-C ,  7-C ) :   1.3694
B(  6-C , 17-H ) :   0.9666 B(  7-C ,  8-C ) :   1.3779 B(  7-C , 18-H ) :   0.9640
B(  8-C ,  9-C ) :   1.3789 B(  8-C , 19-H ) :   0.9652 B(  9-C , 10-C ) :   1.3707
B(  9-C , 20-H ) :   0.9638 B( 10-C , 21-H ) :   0.9660

Dispersion correction           -0.024056194
FINAL SINGLE POINT ENERGY      -478.520875551244

DIPOLE MOMENT
-------------

Method             : SCF
Type of density    : Electron Density
Multiplicity       :   1
Irrep              :   0
Energy             :  -478.5868150588197523 Eh
Relativity type    :
Basis              : AO
                                X                 Y                 Z
Electronic contribution:     -4.175417603       4.014673189      -3.265088338
Nuclear contribution   :      4.226741134      -5.166989016       4.149909576
                        -----------------------------------------
Total Dipole Moment    :      0.051323531      -1.152315827       0.884821237
                        -----------------------------------------
Magnitude (a.u.)       :      1.453744988
Magnitude (Debye)      :      3.695126104

Rotational constants in cm-1:             0.081561             0.023148             0.022253
Rotational constants in MHz :          2445.128714           693.968726           667.123129

                             ****ORCA TERMINATED NORMALLY****
TOTAL RUN TIME: 0 days 0 hours 0 minutes 13 seconds 475 msec
