                         Program Version 6.0.0  -   RELEASE  -
|  1> ! pbe def2-sv(p) def2/J RI DEFGRID1 loosescf d4 GCP(DFT/SV(P)) printgap
|  2> %output
|  3>     printlevel normal
|  4> end
|  5> * xyz 0 1
|  6> C -2.5504604275 -0.884688772 0.3457778625
|  7> C -1.1185439712 -0.4190009093 0.6527458208
|  8> H -0.9844531819 -0.3302913873 1.7424634073
|  9> C -0.8283258465 0.9428800234 -0.0095586195
| 10> H -1.0533392271 0.8537082398 -1.0791406381
| 11> C 0.6512643003 1.2916204457 0.1894052996
| 12> H 0.8505087423 1.4327671744 1.2606783417
| 13> C 1.5542782151 0.1472513949 -0.3046887783
| 14> H 1.4651297657 0.0365239559 -1.3964948237
| 15> C 1.1215465635 -1.1808159595 0.3315244661
| 16> H 1.3455030585 -1.130036014 1.4171704957
| 17> O -0.2558103423 -1.4214438097 0.1458144155
| 18> O 1.8067221395 -2.2054122138 -0.281299205
| 19> O 2.8889668536 0.3819424016 0.0593393543
| 20> O 1.0182843328 2.5091224897 -0.4107396845
| 21> O -1.6792935016 1.9504124601 0.4663961644
| 22> O -2.7338085363 -1.1484051627 -1.0195160066
| 23> H -3.2470828841 -0.0853387159 0.6034398391
| 24> H -2.7709654877 -1.7760443644 0.9452747934
| 25> H 1.508245022 -3.0600727212 0.0688183769
| 26> H 3.1180510315 1.2899738429 -0.1986308828
| 27> H 0.6472611916 2.5657875788 -1.3030857577
| 28> H -1.440337676 2.1898822057 1.3736257198
| 29> H -2.0822166004 -1.8134728523 -1.2873528191
| 30> *
| 31>
| 32>                          ****END OF INPUT****

CARTESIAN COORDINATES (ANGSTROEM)
---------------------------------
  C     -2.550460   -0.884689    0.345778
  C     -1.118544   -0.419001    0.652746
  H     -0.984453   -0.330291    1.742463
  C     -0.828326    0.942880   -0.009559
  H     -1.053339    0.853708   -1.079141
  C      0.651264    1.291620    0.189405
  H      0.850509    1.432767    1.260678
  C      1.554278    0.147251   -0.304689
  H      1.465130    0.036524   -1.396495
  C      1.121547   -1.180816    0.331524
  H      1.345503   -1.130036    1.417170
  O     -0.255810   -1.421444    0.145814
  O      1.806722   -2.205412   -0.281299
  O      2.888967    0.381942    0.059339
  O      1.018284    2.509122   -0.410740
  O     -1.679294    1.950412    0.466396
  O     -2.733809   -1.148405   -1.019516
  H     -3.247083   -0.085339    0.603440
  H     -2.770965   -1.776044    0.945275
  H      1.508245   -3.060073    0.068818
  H      3.118051    1.289974   -0.198631
  H      0.647261    2.565788   -1.303086
  H     -1.440338    2.189882    1.373626
  H     -2.082217   -1.813473   -1.287353

 Total Charge           Charge          ....    0
 Multiplicity           Mult            ....    1
 Number of Electrons    NEL             ....   96
 Basis Dimension        Dim             ....  192

ORBITAL ENERGIES
----------------

  NO   OCC          E(Eh)            E(eV)
   0   2.0000     -18.782531      -511.0986
   1   2.0000     -18.764484      -510.6076
   2   2.0000     -18.763222      -510.5732
   3   2.0000     -18.761283      -510.5205
   4   2.0000     -18.748961      -510.1852
   5   2.0000     -18.748516      -510.1731
   6   2.0000      -9.992910      -271.9209
   7   2.0000      -9.951009      -270.7807
   8   2.0000      -9.949970      -270.7524
   9   2.0000      -9.948673      -270.7172
  10   2.0000      -9.942631      -270.5527
  11   2.0000      -9.933459      -270.3032
  12   2.0000      -0.990842       -26.9622
  13   2.0000      -0.953736       -25.9525
  14   2.0000      -0.939239       -25.5580
  15   2.0000      -0.928632       -25.2694
  16   2.0000      -0.919402       -25.0182
  17   2.0000      -0.913962       -24.8702
  18   2.0000      -0.707250       -19.2453
  19   2.0000      -0.695264       -18.9191
  20   2.0000      -0.624405       -16.9909
  21   2.0000      -0.590439       -16.0667
  22   2.0000      -0.567344       -15.4382
  23   2.0000      -0.539590       -14.6830
  24   2.0000      -0.508595       -13.8396
  25   2.0000      -0.492593       -13.4041
  26   2.0000      -0.477093       -12.9824
  27   2.0000      -0.461600       -12.5608
  28   2.0000      -0.452860       -12.3230
  29   2.0000      -0.432867       -11.7789
  30   2.0000      -0.427427       -11.6309
  31   2.0000      -0.414894       -11.2898
  32   2.0000      -0.385637       -10.4937
  33   2.0000      -0.376410       -10.2426
  34   2.0000      -0.368539       -10.0285
  35   2.0000      -0.355073        -9.6620
  36   2.0000      -0.321892        -8.7591
  37   2.0000      -0.317760        -8.6467
  38   2.0000      -0.311393        -8.4734
  39   2.0000      -0.291990        -7.9455
  40   2.0000      -0.287876        -7.8335
  41   2.0000      -0.274094        -7.4585
  42   2.0000      -0.260140        -7.0788
  43   2.0000      -0.249082        -6.7779
  44   2.0000      -0.240364        -6.5406
  45   2.0000      -0.224582        -6.1112
  46   2.0000      -0.216701        -5.8967
  47   2.0000      -0.208788        -5.6814
  48   0.0000       0.012172         0.3312
  49   0.0000       0.017258         0.4696
  50   0.0000       0.029452         0.8014
  51   0.0000       0.038010         1.0343
  52   0.0000       0.056573         1.5394

MULLIKEN ATOMIC CHARGES
-----------------------
   0 C :    0.111045
   1 C :   -0.034552
   2 H :    0.038445
   3 C :    0.057994
   4 H :    0.055669
   5 C :    0.053556
   6 H :    0.047698
   7 C :    0.054722
   8 H :    0.049342
   9 C :    0.199214
  10 H :    0.040339
  11 O :   -0.325569
  12 O :   -0.365379
  13 O :   -0.409518
  14 O :   -0.410767
  15 O :   -0.403391
  16 O :   -0.439088
  17 H :    0.088168
  18 H :    0.077400
  19 H :    0.305252
  20 H :    0.303165
  21 H :    0.305230
  22 H :    0.300801
  23 H :    0.300225
Sum of atomic charges:    0.0000000

LOEWDIN ATOMIC CHARGES
----------------------
   0 C :   -0.122553
   1 C :   -0.082008
   2 H :    0.097621
   3 C :   -0.083449
   4 H :    0.115380
   5 C :   -0.089858
   6 H :    0.109060
   7 C :   -0.085551
   8 H :    0.103828
   9 C :    0.007901
  10 H :    0.083142
  11 O :   -0.160253
  12 O :   -0.284591
  13 O :   -0.315426
  14 O :   -0.311288
  15 O :   -0.302546
  16 O :   -0.330274
  17 H :    0.120852
  18 H :    0.099345
  19 H :    0.289694
  20 H :    0.284018
  21 H :    0.289904
  22 H :    0.286551
  23 H :    0.280503

  Mayer bond orders larger than 0.100000
B(  0-C ,  1-C ) :   1.0362 B(  0-C , 16-O ) :   1.0683 B(  0-C , 17-H ) :   0.9108
B(  0-C , 18-H ) :   0.9174 B(  1-C ,  2-H ) :   0.8714 B(  1-C ,  3-C ) :   0.9745
B(  1-C , 11-O ) :   0.9823 B(  3-C ,  4-H ) :   0.8558 B(  3-C ,  5-C ) :   1.0089
B(  3-C , 15-O ) :   1.0438 B(  5-C ,  6-H ) :   0.8611 B(  5-C ,  7-C ) :   0.9950
B(  5-C , 14-O ) :   1.0618 B(  7-C ,  8-H ) :   0.8638 B(  7-C ,  9-C ) :   0.9828
B(  7-C , 13-O ) :   1.0854 B(  9-C , 10-H ) :   0.8876 B(  9-C , 11-O ) :   0.9972
B(  9-C , 12-O ) :   1.2026 B( 12-O , 19-H ) :   0.8408 B( 13-O , 20-H ) :   0.8330
B( 14-O , 21-H ) :   0.8456 B( 15-O , 22-H ) :   0.8466 B( 16-O , 23-H ) :   0.8388

Dispersion correction           -0.023938801
FINAL SINGLE POINT ENERGY      -685.698186198817

DIPOLE MOMENT
-------------

Method             : SCF
Type of density    : Electron Density
Multiplicity       :   1
Irrep              :   0
Energy             :  -685.8276168120891043 Eh
Relativity type    :
Basis              : AO
                                X                 Y                 Z
Electronic contribution:      2.449134530      -0.323643542      -1.436501043
Nuclear contribution   :     -2.464754772       0.163647407       1.998624616
                        -----------------------------------------
Total Dipole Moment    :     -0.015620242      -0.159996135       0.562123573
                        -----------------------------------------
Magnitude (a.u.)       :      0.584658590
Magnitude (Debye)      :      1.486084034

Rotational constants in cm-1:             0.038795             0.027362             0.017725
Rotational constants in MHz :          1163.037674           820.300990           531.369584

                             ****ORCA TERMINATED NORMALLY****
TOTAL RUN TIME: 0 days 0 hours 0 minutes 12 seconds 46 msec
