                         Program Version 6.0.0  -   RELEASE  -
|  1> ! pbe def2-sv(p) def2/J RI DEFGRID1 loosescf d4 GCP(DFT/SV(P)) printgap
|  2> %output
|  3>     printlevel normal
|  4> end
|  5> * xyz 0 1
|  6> C -4.3675168728 -1.3576739828 -0.3187249271
|  7> N -3.3390004434 -0.6818171108 0.4395726353
|  8> C -2.2033880097 -0.2388149784 -0.1057267543
|  9> O -1.8737643427 -0.3553403212 -1.2718362173
| 10> O -1.4417574136 0.382931852 0.8357046565
| 11> C -0.1922259892 0.8763409919 0.4366940369
| 12> C -0.0412681233 2.2279824486 0.284907011
| 13> C 1.2067322188 2.7586699379 -0.0719791091
| 14> C 2.2732147666 1.9316739926 -0.2830551374
| 15> C 2.1441588325 0.5348274158 -0.1349970757
| 16> C 0.8891627941 -0.016152733 0.2393025587
| 17> C 0.773688601 -1.411703866 0.4034151379
| 18> C 1.8480909571 -2.2292454969 0.1898460543
| 19> C 3.0862087303 -1.6895927952 -0.1906075453
| 20> C 3.2311564472 -0.339497524 -0.3456951209
| 21> H -5.2936405589 -0.7846166382 -0.2940039624
| 22> H -4.5423155987 -2.3522071176 0.0897369847
| 23> H -4.0212473338 -1.4428769785 -1.3468330104
| 24> H -3.4942880433 -0.5028503361 1.4201740357
| 25> H -0.8887527796 2.8769660185 0.4417387358
| 26> H 1.3069781071 3.8265079548 -0.1854271784
| 27> H 3.2333053485 2.3345409104 -0.567513393
| 28> H -0.1785616579 -1.8273370929 0.6993388022
| 29> H 1.748609291 -3.2966455018 0.3148048622
| 30> H 3.9225464158 -2.3512302085 -0.3564381434
| 31> H 4.1825983884 0.0821896228 -0.6330848818
| 32> *
| 33>
| 34>                          ****END OF INPUT****

CARTESIAN COORDINATES (ANGSTROEM)
---------------------------------
  C     -4.367517   -1.357674   -0.318725
  N     -3.339000   -0.681817    0.439573
  C     -2.203388   -0.238815   -0.105727
  O     -1.873764   -0.355340   -1.271836
  O     -1.441757    0.382932    0.835705
  C     -0.192226    0.876341    0.436694
  C     -0.041268    2.227982    0.284907
  C      1.206732    2.758670   -0.071979
  C      2.273215    1.931674   -0.283055
  C      2.144159    0.534827   -0.134997
  C      0.889163   -0.016153    0.239303
  C      0.773689   -1.411704    0.403415
  C      1.848091   -2.229245    0.189846
  C      3.086209   -1.689593   -0.190608
  C      3.231156   -0.339498   -0.345695
  H     -5.293641   -0.784617   -0.294004
  H     -4.542316   -2.352207    0.089737
  H     -4.021247   -1.442877   -1.346833
  H     -3.494288   -0.502850    1.420174
  H     -0.888753    2.876966    0.441739
  H      1.306978    3.826508   -0.185427
  H      3.233305    2.334541   -0.567513
  H     -0.178562   -1.827337    0.699339
  H      1.748609   -3.296646    0.314805
  H      3.922546   -2.351230   -0.356438
  H      4.182598    0.082190   -0.633085

 Total Charge           Charge          ....    0
 Multiplicity           Mult            ....    1
 Number of Electrons    NEL             ....  106
 Basis Dimension        Dim             ....  232

ORBITAL ENERGIES
----------------

  NO   OCC          E(Eh)            E(eV)
   0   2.0000     -18.800939      -511.5996
   1   2.0000     -18.715358      -509.2708
   2   2.0000     -14.024712      -381.6318
   3   2.0000     -10.022018      -272.7130
   4   2.0000      -9.952440      -270.8197
   5   2.0000      -9.924285      -270.0535
   6   2.0000      -9.904155      -269.5058
   7   2.0000      -9.902898      -269.4716
   8   2.0000      -9.895825      -269.2791
   9   2.0000      -9.894039      -269.2305
  10   2.0000      -9.893606      -269.2187
  11   2.0000      -9.893159      -269.2066
  12   2.0000      -9.893123      -269.2056
  13   2.0000      -9.892955      -269.2010
  14   2.0000      -9.892716      -269.1945
  15   2.0000      -1.007672       -27.4201
  16   2.0000      -0.909306       -24.7435
  17   2.0000      -0.847339       -23.0573
  18   2.0000      -0.793902       -21.6032
  19   2.0000      -0.745816       -20.2947
  20   2.0000      -0.699542       -19.0355
  21   2.0000      -0.669456       -18.2168
  22   2.0000      -0.663812       -18.0632
  23   2.0000      -0.635541       -17.2940
  24   2.0000      -0.572319       -15.5736
  25   2.0000      -0.557018       -15.1572
  26   2.0000      -0.553062       -15.0496
  27   2.0000      -0.532056       -14.4780
  28   2.0000      -0.503614       -13.7040
  29   2.0000      -0.464321       -12.6348
  30   2.0000      -0.450305       -12.2534
  31   2.0000      -0.440895       -11.9974
  32   2.0000      -0.434103       -11.8126
  33   2.0000      -0.422317       -11.4918
  34   2.0000      -0.402221       -10.9450
  35   2.0000      -0.393543       -10.7089
  36   2.0000      -0.382286       -10.4025
  37   2.0000      -0.379609       -10.3297
  38   2.0000      -0.369424       -10.0525
  39   2.0000      -0.364264        -9.9121
  40   2.0000      -0.353709        -9.6249
  41   2.0000      -0.352438        -9.5903
  42   2.0000      -0.339023        -9.2253
  43   2.0000      -0.331568        -9.0224
  44   2.0000      -0.303817        -8.2673
  45   2.0000      -0.298055        -8.1105
  46   2.0000      -0.293828        -7.9955
  47   2.0000      -0.262207        -7.1350
  48   2.0000      -0.247372        -6.7313
  49   2.0000      -0.227140        -6.1808
  50   2.0000      -0.219692        -5.9781
  51   2.0000      -0.219310        -5.9677
  52   2.0000      -0.193831        -5.2744
  53   0.0000      -0.068420        -1.8618
  54   0.0000      -0.039777        -1.0824
  55   0.0000      -0.002532        -0.0689
  56   0.0000       0.026285         0.7152
  57   0.0000       0.031351         0.8531

MULLIKEN ATOMIC CHARGES
-----------------------
   0 C :   -0.173977
   1 N :   -0.283131
   2 C :    0.187619
   3 O :   -0.231119
   4 O :   -0.264604
   5 C :    0.180732
   6 C :   -0.118123
   7 C :   -0.040999
   8 C :   -0.110002
   9 C :    0.130166
  10 C :    0.129109
  11 C :   -0.125205
  12 C :   -0.041567
  13 C :   -0.035745
  14 C :   -0.131345
  15 H :    0.115141
  16 H :    0.114739
  17 H :    0.141939
  18 H :    0.232196
  19 H :    0.038349
  20 H :    0.054557
  21 H :    0.037661
  22 H :    0.049786
  23 H :    0.051445
  24 H :    0.052753
  25 H :    0.039623
Sum of atomic charges:   -0.0000000

LOEWDIN ATOMIC CHARGES
----------------------
   0 C :   -0.255862
   1 N :   -0.170882
   2 C :    0.026084
   3 O :   -0.206166
   4 O :   -0.069991
   5 C :    0.055131
   6 C :   -0.132124
   7 C :   -0.119745
   8 C :   -0.115540
   9 C :   -0.020354
  10 C :   -0.028428
  11 C :   -0.103731
  12 C :   -0.121105
  13 C :   -0.122734
  14 C :   -0.109894
  15 H :    0.117979
  16 H :    0.117903
  17 H :    0.139856
  18 H :    0.237609
  19 H :    0.130899
  20 H :    0.126383
  21 H :    0.124504
  22 H :    0.126579
  23 H :    0.124639
  24 H :    0.124568
  25 H :    0.124422

  Mayer bond orders larger than 0.100000
B(  0-C ,  1-N ) :   1.0197 B(  0-C , 15-H ) :   0.9589 B(  0-C , 16-H ) :   0.9592
B(  0-C , 17-H ) :   0.9370 B(  1-N ,  2-C ) :   1.2336 B(  1-N , 18-H ) :   0.8579
B(  2-C ,  3-O ) :   2.0269 B(  2-C ,  4-O ) :   1.0593 B(  4-O ,  5-C ) :   0.9950
B(  5-C ,  6-C ) :   1.5009 B(  5-C , 10-C ) :   1.2388 B(  6-C ,  7-C ) :   1.2141
B(  6-C , 19-H ) :   0.9628 B(  7-C ,  8-C ) :   1.4450 B(  7-C , 20-H ) :   0.9614
B(  8-C ,  9-C ) :   1.2360 B(  8-C , 21-H ) :   0.9673 B(  9-C , 10-C ) :   1.2527
B(  9-C , 14-C ) :   1.2391 B( 10-C , 11-C ) :   1.2598 B( 11-C , 12-C ) :   1.4572
B( 11-C , 22-H ) :   0.9500 B( 12-C , 13-C ) :   1.2565 B( 12-C , 23-H ) :   0.9619
B( 13-C , 14-C ) :   1.4624 B( 13-C , 24-H ) :   0.9624 B( 14-C , 25-H ) :   0.9651

Dispersion correction           -0.032606120
FINAL SINGLE POINT ENERGY      -667.735410537637

DIPOLE MOMENT
-------------

Method             : SCF
Type of density    : Electron Density
Multiplicity       :   1
Irrep              :   0
Energy             :  -667.8108551245634317 Eh
Relativity type    :
Basis              : AO
                                X                 Y                 Z
Electronic contribution:      3.225734642       3.068399525       1.164609076
Nuclear contribution   :     -3.843359759      -3.228354816      -0.395738481
                        -----------------------------------------
Total Dipole Moment    :     -0.617625118      -0.159955291       0.768870595
                        -----------------------------------------
Magnitude (a.u.)       :      0.999103834
Magnitude (Debye)      :      2.539520128

Rotational constants in cm-1:             0.036507             0.014512             0.011152
Rotational constants in MHz :          1094.464524           435.069256           334.328110

                             ****ORCA TERMINATED NORMALLY****
TOTAL RUN TIME: 0 days 0 hours 0 minutes 12 seconds 271 msec
