                         Program Version 6.0.0  -   RELEASE  -
|  1> ! r2scan-3c def2/J RI DEFGRID2 scfconv6 printgap
|  2> %output
|  3>     printlevel normal
|  4> end
|  5> * xyz 0 1
|  6> C -2.3824344577 -4.922e-05 0.0055460072
|  7> N -0.9666782365 2.33995e-05 -0.2925891059
|  8> C -0.3140628991 1.1935512618 0.2182032229
|  9> C 1.1412754875 1.2399727804 -0.2362441023
| 10> C 1.880990801 -4.23938e-05 0.2534206887
| 11> C 1.1412905589 -1.2399587563 -0.2363225361
| 12> C -0.3140063093 -1.1935095514 0.2182681322
| 13> H -2.8389077934 -0.8851592432 -0.4342583465
| 14> H -2.8389363804 0.8849857241 -0.434388193
| 15> H -2.5887205408 -0.0001134187 1.0888941947
| 16> H -0.8512021689 2.0641437551 -0.1667667504
| 17> H -0.3570535237 1.2285754429 1.3247076027
| 18> H 1.1663476637 1.2698915168 -1.3261072076
| 19> H 1.6118531496 2.1462759945 0.1473644905
| 20> H 2.9079639163 4.14997e-05 -0.1145151291
| 21> H 1.9119123526 -5.60965e-05 1.3460741379
| 22> H 1.1663399639 -1.2698131676 -1.3261778403
| 23> H 1.6118357626 -2.1463257906 0.1471959416
| 24> H -0.8513404895 -2.0639841085 -0.1665340141
| 25> H -0.3570169104 -1.2283597209 1.3246701508
| 26> *
| 27>
| 28>                          ****END OF INPUT****

CARTESIAN COORDINATES (ANGSTROEM)
---------------------------------
  C     -2.382434   -0.000049    0.005546
  N     -0.966678    0.000023   -0.292589
  C     -0.314063    1.193551    0.218203
  C      1.141275    1.239973   -0.236244
  C      1.880991   -0.000042    0.253421
  C      1.141291   -1.239959   -0.236323
  C     -0.314006   -1.193510    0.218268
  H     -2.838908   -0.885159   -0.434258
  H     -2.838936    0.884986   -0.434388
  H     -2.588721   -0.000113    1.088894
  H     -0.851202    2.064144   -0.166767
  H     -0.357054    1.228575    1.324708
  H      1.166348    1.269892   -1.326107
  H      1.611853    2.146276    0.147364
  H      2.907964    0.000041   -0.114515
  H      1.911912   -0.000056    1.346074
  H      1.166340   -1.269813   -1.326178
  H      1.611836   -2.146326    0.147196
  H     -0.851340   -2.063984   -0.166534
  H     -0.357017   -1.228360    1.324670

 Total Charge           Charge          ....    0
 Multiplicity           Mult            ....    1
 Number of Electrons    NEL             ....   56
 Basis Dimension        Dim             ....  203

ORBITAL ENERGIES
----------------

  NO   OCC          E(Eh)            E(eV)
   0   2.0000     -14.145185      -384.9101
   1   2.0000     -10.045618      -273.3552
   2   2.0000     -10.045607      -273.3549
   3   2.0000     -10.040598      -273.2186
   4   2.0000     -10.021614      -272.7020
   5   2.0000     -10.020192      -272.6633
   6   2.0000     -10.020178      -272.6629
   7   2.0000      -0.891795       -24.2670
   8   2.0000      -0.761346       -20.7173
   9   2.0000      -0.714482       -19.4421
  10   2.0000      -0.654697       -17.8152
  11   2.0000      -0.586919       -15.9709
  12   2.0000      -0.573168       -15.5967
  13   2.0000      -0.516025       -14.0418
  14   2.0000      -0.455748       -12.4015
  15   2.0000      -0.427629       -11.6364
  16   2.0000      -0.417447       -11.3593
  17   2.0000      -0.410268       -11.1639
  18   2.0000      -0.387359       -10.5406
  19   2.0000      -0.371243       -10.1020
  20   2.0000      -0.352887        -9.6025
  21   2.0000      -0.350186        -9.5290
  22   2.0000      -0.324715        -8.8360
  23   2.0000      -0.312453        -8.5023
  24   2.0000      -0.294877        -8.0240
  25   2.0000      -0.277587        -7.5535
  26   2.0000      -0.277321        -7.5463
  27   2.0000      -0.181944        -4.9510
  28   0.0000       0.082975         2.2579
  29   0.0000       0.107212         2.9174
  30   0.0000       0.119871         3.2619
  31   0.0000       0.119937         3.2637
  32   0.0000       0.123249         3.3538

MULLIKEN ATOMIC CHARGES
-----------------------
   0 C :   -0.355777
   1 N :   -0.136747
   2 C :   -0.265981
   3 C :   -0.305702
   4 C :   -0.237256
   5 C :   -0.305699
   6 C :   -0.265914
   7 H :    0.144263
   8 H :    0.144268
   9 H :    0.130575
  10 H :    0.138192
  11 H :    0.142380
  12 H :    0.156123
  13 H :    0.144613
  14 H :    0.147744
  15 H :    0.143582
  16 H :    0.156128
  17 H :    0.144610
  18 H :    0.138184
  19 H :    0.142416
Sum of atomic charges:   -0.0000000

LOEWDIN ATOMIC CHARGES
----------------------
   0 C :   -0.146375
   1 N :   -1.009435
   2 C :   -0.054357
   3 C :   -0.275682
   4 C :   -0.302858
   5 C :   -0.275676
   6 C :   -0.054347
   7 H :    0.172855
   8 H :    0.172868
   9 H :    0.151955
  10 H :    0.178039
  11 H :    0.159626
  12 H :    0.161721
  13 H :    0.155637
  14 H :    0.155224
  15 H :    0.155766
  16 H :    0.161725
  17 H :    0.155637
  18 H :    0.178039
  19 H :    0.159638

  Mayer bond orders larger than 0.100000
B(  0-C ,  1-N ) :   0.9371 B(  0-C ,  7-H ) :   0.9719 B(  0-C ,  8-H ) :   0.9719
B(  0-C ,  9-H ) :   0.9497 B(  1-N ,  2-C ) :   0.9676 B(  1-N ,  6-C ) :   0.9675
B(  2-C ,  3-C ) :   0.9420 B(  2-C , 10-H ) :   0.9428 B(  2-C , 11-H ) :   0.9747
B(  3-C ,  4-C ) :   0.9142 B(  3-C , 12-H ) :   0.9825 B(  3-C , 13-H ) :   0.9599
B(  4-C ,  5-C ) :   0.9142 B(  4-C , 14-H ) :   0.9572 B(  4-C , 15-H ) :   0.9816
B(  5-C ,  6-C ) :   0.9420 B(  5-C , 16-H ) :   0.9825 B(  5-C , 17-H ) :   0.9599
B(  6-C , 18-H ) :   0.9428 B(  6-C , 19-H ) :   0.9747

Dispersion correction           -0.005747910
FINAL SINGLE POINT ENERGY      -291.111264474857

DIPOLE MOMENT
-------------

Method             : SCF
Type of density    : Electron Density
Multiplicity       :   1
Irrep              :   0
Energy             :  -291.1206350078145420 Eh
Relativity type    :
Basis              : AO
                                X                 Y                 Z
Electronic contribution:      0.316271801      -0.000175792      -1.112146559
Nuclear contribution   :     -0.293233502       0.000096184       1.321360215
                        -----------------------------------------
Total Dipole Moment    :      0.023038299      -0.000079608       0.209213656
                        -----------------------------------------
Magnitude (a.u.)       :      0.210478320
Magnitude (Debye)      :      0.534993374

Rotational constants in cm-1:             0.150574             0.077549             0.056337
Rotational constants in MHz :          4514.081127          2324.847241          1688.933423

                             ****ORCA TERMINATED NORMALLY****
TOTAL RUN TIME: 0 days 0 hours 0 minutes 20 seconds 38 msec
