                         Program Version 6.0.0  -   RELEASE  -
|  1> ! r2scan-3c def2/J RI DEFGRID2 scfconv6 printgap
|  2> %output
|  3>     printlevel normal
|  4> end
|  5> %cpcm
|  6>     smd true
|  7>     smdsolvent "water"
|  8> end
|  9> * xyz 0 1
| 10> C -2.3824344577 -4.922e-05 0.0055460072
| 11> N -0.9666782365 2.33995e-05 -0.2925891059
| 12> C -0.3140628991 1.1935512618 0.2182032229
| 13> C 1.1412754875 1.2399727804 -0.2362441023
| 14> C 1.880990801 -4.23938e-05 0.2534206887
| 15> C 1.1412905589 -1.2399587563 -0.2363225361
| 16> C -0.3140063093 -1.1935095514 0.2182681322
| 17> H -2.8389077934 -0.8851592432 -0.4342583465
| 18> H -2.8389363804 0.8849857241 -0.434388193
| 19> H -2.5887205408 -0.0001134187 1.0888941947
| 20> H -0.8512021689 2.0641437551 -0.1667667504
| 21> H -0.3570535237 1.2285754429 1.3247076027
| 22> H 1.1663476637 1.2698915168 -1.3261072076
| 23> H 1.6118531496 2.1462759945 0.1473644905
| 24> H 2.9079639163 4.14997e-05 -0.1145151291
| 25> H 1.9119123526 -5.60965e-05 1.3460741379
| 26> H 1.1663399639 -1.2698131676 -1.3261778403
| 27> H 1.6118357626 -2.1463257906 0.1471959416
| 28> H -0.8513404895 -2.0639841085 -0.1665340141
| 29> H -0.3570169104 -1.2283597209 1.3246701508
| 30> *
| 31>
| 32>                          ****END OF INPUT****

CARTESIAN COORDINATES (ANGSTROEM)
---------------------------------
  C     -2.382434   -0.000049    0.005546
  N     -0.966678    0.000023   -0.292589
  C     -0.314063    1.193551    0.218203
  C      1.141275    1.239973   -0.236244
  C      1.880991   -0.000042    0.253421
  C      1.141291   -1.239959   -0.236323
  C     -0.314006   -1.193510    0.218268
  H     -2.838908   -0.885159   -0.434258
  H     -2.838936    0.884986   -0.434388
  H     -2.588721   -0.000113    1.088894
  H     -0.851202    2.064144   -0.166767
  H     -0.357054    1.228575    1.324708
  H      1.166348    1.269892   -1.326107
  H      1.611853    2.146276    0.147364
  H      2.907964    0.000041   -0.114515
  H      1.911912   -0.000056    1.346074
  H      1.166340   -1.269813   -1.326178
  H      1.611836   -2.146326    0.147196
  H     -0.851340   -2.063984   -0.166534
  H     -0.357017   -1.228360    1.324670

 Total Charge           Charge          ....    0
 Multiplicity           Mult            ....    1
 Number of Electrons    NEL             ....   56
 Basis Dimension        Dim             ....  203

ORBITAL ENERGIES
----------------

  NO   OCC          E(Eh)            E(eV)
   0   2.0000     -14.144356      -384.8875
   1   2.0000     -10.039502      -273.1887
   2   2.0000     -10.039489      -273.1884
   3   2.0000     -10.034189      -273.0442
   4   2.0000     -10.014681      -272.5133
   5   2.0000     -10.014399      -272.5057
   6   2.0000     -10.014360      -272.5046
   7   2.0000      -0.888756       -24.1843
   8   2.0000      -0.755826       -20.5671
   9   2.0000      -0.709178       -19.2977
  10   2.0000      -0.649336       -17.6693
  11   2.0000      -0.581609       -15.8264
  12   2.0000      -0.567420       -15.4403
  13   2.0000      -0.510840       -13.9007
  14   2.0000      -0.450289       -12.2530
  15   2.0000      -0.422606       -11.4997
  16   2.0000      -0.412144       -11.2150
  17   2.0000      -0.404632       -11.0106
  18   2.0000      -0.381631       -10.3847
  19   2.0000      -0.366117        -9.9625
  20   2.0000      -0.346826        -9.4376
  21   2.0000      -0.343960        -9.3596
  22   2.0000      -0.318558        -8.6684
  23   2.0000      -0.306862        -8.3501
  24   2.0000      -0.288861        -7.8603
  25   2.0000      -0.271281        -7.3819
  26   2.0000      -0.271244        -7.3809
  27   2.0000      -0.182529        -4.9669
  28   0.0000       0.088554         2.4097
  29   0.0000       0.113805         3.0968
  30   0.0000       0.125767         3.4223
  31   0.0000       0.126065         3.4304
  32   0.0000       0.127997         3.4830

MULLIKEN ATOMIC CHARGES
-----------------------
   0 C :   -0.391048
   1 N :   -0.161321
   2 C :   -0.283013
   3 C :   -0.336880
   4 C :   -0.234207
   5 C :   -0.336884
   6 C :   -0.282937
   7 H :    0.160729
   8 H :    0.160731
   9 H :    0.141080
  10 H :    0.156278
  11 H :    0.151751
  12 H :    0.161399
  13 H :    0.157425
  14 H :    0.156678
  15 H :    0.153326
  16 H :    0.161408
  17 H :    0.157422
  18 H :    0.156271
  19 H :    0.151790
Sum of atomic charges:   -0.0000000

LOEWDIN ATOMIC CHARGES
----------------------
   0 C :   -0.152168
   1 N :   -1.030821
   2 C :   -0.056527
   3 C :   -0.279561
   4 C :   -0.305531
   5 C :   -0.279557
   6 C :   -0.056513
   7 H :    0.177216
   8 H :    0.177226
   9 H :    0.156260
  10 H :    0.182363
  11 H :    0.163956
  12 H :    0.160505
  13 H :    0.159821
  14 H :    0.157483
  15 H :    0.159185
  16 H :    0.160509
  17 H :    0.159821
  18 H :    0.182364
  19 H :    0.163970

  Mayer bond orders larger than 0.100000
B(  0-C ,  1-N ) :   0.9338 B(  0-C ,  7-H ) :   0.9671 B(  0-C ,  8-H ) :   0.9671
B(  0-C ,  9-H ) :   0.9497 B(  1-N ,  2-C ) :   0.9669 B(  1-N ,  6-C ) :   0.9668
B(  2-C ,  3-C ) :   0.9324 B(  2-C , 10-H ) :   0.9445 B(  2-C , 11-H ) :   0.9726
B(  3-C ,  4-C ) :   0.8996 B(  3-C , 12-H ) :   0.9886 B(  3-C , 13-H ) :   0.9567
B(  4-C ,  5-C ) :   0.8996 B(  4-C , 14-H ) :   0.9573 B(  4-C , 15-H ) :   0.9758
B(  5-C ,  6-C ) :   0.9324 B(  5-C , 16-H ) :   0.9886 B(  5-C , 17-H ) :   0.9567
B(  6-C , 18-H ) :   0.9445 B(  6-C , 19-H ) :   0.9726

Dispersion correction           -0.005747910
FINAL SINGLE POINT ENERGY      -291.115861353630

DIPOLE MOMENT
-------------

Method             : SCF
Type of density    : Electron Density
Multiplicity       :   1
Irrep              :   0
Energy             :  -291.1252318865875282 Eh
Relativity type    :
Basis              : AO
                                X                 Y                 Z
Electronic contribution:      0.313980063      -0.000213106      -0.938120180
Nuclear contribution   :     -0.293233502       0.000096184       1.321360215
                        -----------------------------------------
Total Dipole Moment    :      0.020746561      -0.000116922       0.383240035
                        -----------------------------------------
Magnitude (a.u.)       :      0.383801195
Magnitude (Debye)      :      0.975545111

Rotational constants in cm-1:             0.150574             0.077549             0.056337
Rotational constants in MHz :          4514.081127          2324.847241          1688.933423

                             ****ORCA TERMINATED NORMALLY****
TOTAL RUN TIME: 0 days 0 hours 0 minutes 24 seconds 7 msec
