                         Program Version 6.0.0  -   RELEASE  -
|  1> ! pbe def2-sv(p) def2/J RI DEFGRID1 loosescf d4 GCP(DFT/SV(P)) printgap
|  2> %output
|  3>     printlevel normal
|  4> end
|  5> * xyz 0 1
|  6> C 2.0948390472 -0.5260866945 -0.6028771437
|  7> C 0.9197181425 -0.4873804146 0.3738716849
|  8> H 1.3138090096 -0.6925376606 1.3761039808
|  9> C -0.0765671653 -1.6005815683 0.0011531193
| 10> C -1.4879788235 -1.2792171031 0.477574899
| 11> C -2.0324551248 -0.0567331193 -0.2711076137
| 12> C -0.9077449619 0.9241040192 -0.6256686341
| 13> C 0.1979272986 0.8787738285 0.4294679547
| 14> H -0.2818654784 0.960019893 1.4114113946
| 15> C 1.1439283509 2.0695047073 0.2923348418
| 16> H 1.7789541658 -0.2283600127 -1.6001136434
| 17> H 2.9008325569 0.1275351195 -0.282594966
| 18> H 2.4846837504 -1.5404424696 -0.6594118061
| 19> H -0.0961795766 -1.7231123445 -1.0837058297
| 20> H 0.2586276003 -2.5466551702 0.4305572113
| 21> H -2.1428052058 -2.1365578456 0.3127608958
| 22> H -1.467173415 -1.086879539 1.5520148539
| 23> H -2.5322918219 -0.3769153682 -1.1870890345
| 24> H -2.7782649325 0.4427200042 0.3501165803
| 25> H -0.4810472268 0.6739463266 -1.5983260882
| 26> H -1.3112641832 1.9354917642 -0.6990781131
| 27> H 0.6008002111 2.9932862496 0.4808207347
| 28> H 1.56560602 2.1236810709 -0.7074375729
| 29> H 1.9552444655 1.9997228511 1.0131969824
| 30> *
| 31>
| 32>                          ****END OF INPUT****

CARTESIAN COORDINATES (ANGSTROEM)
---------------------------------
  C      2.094839   -0.526087   -0.602877
  C      0.919718   -0.487380    0.373872
  H      1.313809   -0.692538    1.376104
  C     -0.076567   -1.600582    0.001153
  C     -1.487979   -1.279217    0.477575
  C     -2.032455   -0.056733   -0.271108
  C     -0.907745    0.924104   -0.625669
  C      0.197927    0.878774    0.429468
  H     -0.281865    0.960020    1.411411
  C      1.143928    2.069505    0.292335
  H      1.778954   -0.228360   -1.600114
  H      2.900833    0.127535   -0.282595
  H      2.484684   -1.540442   -0.659412
  H     -0.096180   -1.723112   -1.083706
  H      0.258628   -2.546655    0.430557
  H     -2.142805   -2.136558    0.312761
  H     -1.467173   -1.086880    1.552015
  H     -2.532292   -0.376915   -1.187089
  H     -2.778265    0.442720    0.350117
  H     -0.481047    0.673946   -1.598326
  H     -1.311264    1.935492   -0.699078
  H      0.600800    2.993286    0.480821
  H      1.565606    2.123681   -0.707438
  H      1.955244    1.999723    1.013197

 Total Charge           Charge          ....    0
 Multiplicity           Mult            ....    1
 Number of Electrons    NEL             ....   64
 Basis Dimension        Dim             ....  144

ORBITAL ENERGIES
----------------

  NO   OCC          E(Eh)            E(eV)
   0   2.0000      -9.886187      -269.0168
   1   2.0000      -9.884962      -268.9835
   2   2.0000      -9.875768      -268.7333
   3   2.0000      -9.875379      -268.7227
   4   2.0000      -9.874535      -268.6998
   5   2.0000      -9.874048      -268.6865
   6   2.0000      -9.868458      -268.5344
   7   2.0000      -9.868165      -268.5264
   8   2.0000      -0.757196       -20.6043
   9   2.0000      -0.684715       -18.6320
  10   2.0000      -0.673961       -18.3394
  11   2.0000      -0.614132       -16.7114
  12   2.0000      -0.584020       -15.8920
  13   2.0000      -0.538118       -14.6429
  14   2.0000      -0.510720       -13.8974
  15   2.0000      -0.453082       -12.3290
  16   2.0000      -0.441897       -12.0246
  17   2.0000      -0.413038       -11.2393
  18   2.0000      -0.394901       -10.7458
  19   2.0000      -0.379838       -10.3359
  20   2.0000      -0.358691        -9.7605
  21   2.0000      -0.353479        -9.6187
  22   2.0000      -0.338904        -9.2221
  23   2.0000      -0.322409        -8.7732
  24   2.0000      -0.317650        -8.6437
  25   2.0000      -0.308618        -8.3979
  26   2.0000      -0.303042        -8.2462
  27   2.0000      -0.297392        -8.0924
  28   2.0000      -0.289287        -7.8719
  29   2.0000      -0.252744        -6.8775
  30   2.0000      -0.250306        -6.8112
  31   2.0000      -0.247456        -6.7336
  32   0.0000       0.029268         0.7964
  33   0.0000       0.046971         1.2781
  34   0.0000       0.053361         1.4520
  35   0.0000       0.071469         1.9448
  36   0.0000       0.092070         2.5054

MULLIKEN ATOMIC CHARGES
-----------------------
   0 C :   -0.244473
   1 C :   -0.148948
   2 H :    0.059951
   3 C :   -0.129997
   4 C :   -0.135502
   5 C :   -0.146678
   6 C :   -0.128236
   7 C :   -0.160851
   8 H :    0.060935
   9 C :   -0.217772
  10 H :    0.096853
  11 H :    0.100334
  12 H :    0.099395
  13 H :    0.066445
  14 H :    0.080206
  15 H :    0.081606
  16 H :    0.073692
  17 H :    0.077076
  18 H :    0.078196
  19 H :    0.071870
  20 H :    0.077474
  21 H :    0.094541
  22 H :    0.096749
  23 H :    0.097132
Sum of atomic charges:    0.0000000

LOEWDIN ATOMIC CHARGES
----------------------
   0 C :   -0.330025
   1 C :   -0.143181
   2 H :    0.113140
   3 C :   -0.219631
   4 C :   -0.230105
   5 C :   -0.227819
   6 C :   -0.220690
   7 C :   -0.146794
   8 H :    0.113296
   9 C :   -0.327728
  10 H :    0.114863
  11 H :    0.116481
  12 H :    0.118809
  13 H :    0.113109
  14 H :    0.116550
  15 H :    0.116755
  16 H :    0.113833
  17 H :    0.115040
  18 H :    0.114995
  19 H :    0.112846
  20 H :    0.115424
  21 H :    0.117087
  22 H :    0.117259
  23 H :    0.116486

  Mayer bond orders larger than 0.100000
B(  0-C ,  1-C ) :   1.1315 B(  0-C , 10-H ) :   0.9432 B(  0-C , 11-H ) :   0.9369
B(  0-C , 12-H ) :   0.9461 B(  1-C ,  2-H ) :   0.8875 B(  1-C ,  3-C ) :   1.1016
B(  1-C ,  7-C ) :   1.0595 B(  3-C ,  4-C ) :   1.1943 B(  3-C , 13-H ) :   0.9008
B(  3-C , 14-H ) :   0.9141 B(  4-C ,  5-C ) :   1.1408 B(  4-C , 15-H ) :   0.9207
B(  4-C , 16-H ) :   0.9050 B(  5-C ,  6-C ) :   1.1448 B(  5-C , 17-H ) :   0.9192
B(  5-C , 18-H ) :   0.9199 B(  6-C ,  7-C ) :   1.1385 B(  6-C , 19-H ) :   0.8961
B(  6-C , 20-H ) :   0.9208 B(  7-C ,  8-H ) :   0.8821 B(  7-C ,  9-C ) :   1.1377
B(  9-C , 21-H ) :   0.9444 B(  9-C , 22-H ) :   0.9355 B(  9-C , 23-H ) :   0.9484

Dispersion correction           -0.022840297
FINAL SINGLE POINT ENERGY      -313.693824806334

DIPOLE MOMENT
-------------

Method             : SCF
Type of density    : Electron Density
Multiplicity       :   1
Irrep              :   0
Energy             :  -313.7744695928264491 Eh
Relativity type    :
Basis              : AO
                                X                 Y                 Z
Electronic contribution:     -1.668481962      -0.878743451       0.883339023
Nuclear contribution   :      1.658358851       0.867747213      -0.835691638
                        -----------------------------------------
Total Dipole Moment    :     -0.010123111      -0.010996237       0.047647386
                        -----------------------------------------
Magnitude (a.u.)       :      0.049936640
Magnitude (Debye)      :      0.126928851

Rotational constants in cm-1:             0.090804             0.062940             0.043927
Rotational constants in MHz :          2722.240149          1886.884736          1316.911118

                             ****ORCA TERMINATED NORMALLY****
TOTAL RUN TIME: 0 days 0 hours 0 minutes 10 seconds 405 msec
