                         Program Version 6.0.0  -   RELEASE  -
|  1> ! pbe def2-sv(p) def2/J RI DEFGRID1 loosescf d4 GCP(DFT/SV(P)) printgap
|  2> %output
|  3>     printlevel normal
|  4> end
|  5> * xyz 0 1
|  6> C 1.3338845789 1.2366088597 0.2081544324
|  7> C 0.490451607 0.118656652 -0.4108764793
|  8> C 0.9141307404 -1.2624620559 0.0785799923
|  9> C -0.9639560675 0.3757116328 -0.1592872273
| 10> O -1.7732418847 -0.4335665024 0.2236944184
| 11> H 1.2341008502 1.2269866962 1.2907915268
| 12> H 1.0195872237 2.2086343058 -0.1624852232
| 13> H 2.3800681606 1.0893090605 -0.0428964033
| 14> H 0.6049150028 0.1685554385 -1.5017638015
| 15> H 1.9446410192 -1.4642826325 -0.1979231317
| 16> H 0.273817544 -2.0268433569 -0.3547743808
| 17> H 0.8219188402 -1.3200157353 1.1606642172
| 18> H -1.2770163703 1.4169340193 -0.3650191532
| 19> *
| 20>
| 21>                          ****END OF INPUT****

CARTESIAN COORDINATES (ANGSTROEM)
---------------------------------
  C      1.333885    1.236609    0.208154
  C      0.490452    0.118657   -0.410876
  C      0.914131   -1.262462    0.078580
  C     -0.963956    0.375712   -0.159287
  O     -1.773242   -0.433567    0.223694
  H      1.234101    1.226987    1.290792
  H      1.019587    2.208634   -0.162485
  H      2.380068    1.089309   -0.042896
  H      0.604915    0.168555   -1.501764
  H      1.944641   -1.464283   -0.197923
  H      0.273818   -2.026843   -0.354774
  H      0.821919   -1.320016    1.160664
  H     -1.277016    1.416934   -0.365019

 Total Charge           Charge          ....    0
 Multiplicity           Mult            ....    1
 Number of Electrons    NEL             ....   40
 Basis Dimension        Dim             ....   86

ORBITAL ENERGIES
----------------

  NO   OCC          E(Eh)            E(eV)
   0   2.0000     -18.750460      -510.2260
   1   2.0000      -9.969950      -271.2961
   2   2.0000      -9.910558      -269.6800
   3   2.0000      -9.891810      -269.1698
   4   2.0000      -9.879380      -268.8316
   5   2.0000      -0.945211       -25.7205
   6   2.0000      -0.734525       -19.9874
   7   2.0000      -0.624021       -16.9805
   8   2.0000      -0.582478       -15.8500
   9   2.0000      -0.489381       -13.3167
  10   2.0000      -0.443331       -12.0636
  11   2.0000      -0.411229       -11.1901
  12   2.0000      -0.393015       -10.6945
  13   2.0000      -0.361001        -9.8233
  14   2.0000      -0.350121        -9.5273
  15   2.0000      -0.342076        -9.3084
  16   2.0000      -0.329302        -8.9608
  17   2.0000      -0.307975        -8.3804
  18   2.0000      -0.304702        -8.2914
  19   2.0000      -0.203910        -5.5487
  20   0.0000      -0.060257        -1.6397
  21   0.0000       0.036359         0.9894
  22   0.0000       0.069777         1.8987
  23   0.0000       0.074911         2.0384
  24   0.0000       0.093870         2.5543

MULLIKEN ATOMIC CHARGES
-----------------------
   0 C :   -0.274102
   1 C :   -0.179294
   2 C :   -0.241963
   3 C :    0.035596
   4 O :   -0.155786
   5 H :    0.112317
   6 H :    0.110786
   7 H :    0.114793
   8 H :    0.105864
   9 H :    0.099850
  10 H :    0.116317
  11 H :    0.105909
  12 H :    0.049714
Sum of atomic charges:    0.0000000

LOEWDIN ATOMIC CHARGES
----------------------
   0 C :   -0.325428
   1 C :   -0.201856
   2 C :   -0.328262
   3 C :    0.010466
   4 O :   -0.115663
   5 H :    0.124079
   6 H :    0.121201
   7 H :    0.126254
   8 H :    0.140867
   9 H :    0.120025
  10 H :    0.127009
  11 H :    0.124024
  12 H :    0.077283

  Mayer bond orders larger than 0.100000
B(  0-C ,  1-C ) :   1.0837 B(  0-C ,  5-H ) :   0.9526 B(  0-C ,  6-H ) :   0.9475
B(  0-C ,  7-H ) :   0.9505 B(  1-C ,  2-C ) :   1.1138 B(  1-C ,  3-C ) :   0.9349
B(  1-C ,  8-H ) :   0.8708 B(  2-C ,  9-H ) :   0.9503 B(  2-C , 10-H ) :   0.9449
B(  2-C , 11-H ) :   0.9521 B(  3-C ,  4-O ) :   2.1989 B(  3-C , 12-H ) :   0.9146

Dispersion correction           -0.008470763
FINAL SINGLE POINT ENERGY      -231.920870480922

DIPOLE MOMENT
-------------

Method             : SCF
Type of density    : Electron Density
Multiplicity       :   1
Irrep              :   0
Energy             :  -231.9655964874975780 Eh
Relativity type    :
Basis              : AO
                                X                 Y                 Z
Electronic contribution:     -5.746193864      -0.748135634      -0.136287567
Nuclear contribution   :      6.542749512       1.212500399      -0.159359140
                        -----------------------------------------
Total Dipole Moment    :      0.796555647       0.464364765      -0.295646707
                        -----------------------------------------
Magnitude (a.u.)       :      0.968267788
Magnitude (Debye)      :      2.461141128

Rotational constants in cm-1:             0.257493             0.135954             0.098700
Rotational constants in MHz :          7719.431027          4075.796047          2958.952718

                             ****ORCA TERMINATED NORMALLY****
TOTAL RUN TIME: 0 days 0 hours 0 minutes 4 seconds 594 msec
