                         Program Version 6.0.0  -   RELEASE  -
|  1> ! wb97x-v def2-tzvp def2/J RIJCOSX DEFGRID2 scfconv7 GCP(DFT/TZ) printgap
|  2> %output
|  3>     printlevel normal
|  4> end
|  5> * xyz 0 1
|  6> C -2.565000947475894 -0.9756625033548998 0.008308653555888192
|  7> C -1.241473414259375 -0.27520095032089126 -0.011708752988695335
|  8> C -1.1559377419610364 1.1187014954554524 -0.006479067808232635
|  9> C 0.09579176783606345 1.7151366126226584 0.0031531372499104364
| 10> N 1.2524368136579045 1.0372166687045314 0.006758661073225992
| 11> C 1.1799188618526717 -0.3077487862457074 -0.0010650858443640207
| 12> C -0.04025742735466972 -0.9842425178005231 -0.011828923819860079
| 13> C 2.4785894950334626 -1.0551978298183293 0.003016958885933141
| 14> H -2.9441463743090477 -1.0343498275706198 1.0355512681274042
| 15> H -3.307877586217834 -0.4310889446451217 -0.5808920654138712
| 16> H -2.481496973412346 -1.9959247815058276 -0.3739571315442506
| 17> H -2.052276976375627 1.7313413591606686 -0.011976360770334846
| 18> H 0.17675450423724062 2.8006107018513924 0.006269224320248932
| 19> H -0.05133197305126889 -2.0703842259354697 -0.021978980449099416
| 20> H 2.3173471475465277 -2.134345407550301 -0.04168567994096241
| 21> H 3.096920157034392 -0.7572708677044935 -0.850143647349253
| 22> H 3.0490477362945647 -0.8261543203611599 0.9096894811588153
| 23> *
| 24>
| 25>                          ****END OF INPUT****

CARTESIAN COORDINATES (ANGSTROEM)
---------------------------------
  C     -2.565001   -0.975663    0.008309
  C     -1.241473   -0.275201   -0.011709
  C     -1.155938    1.118701   -0.006479
  C      0.095792    1.715137    0.003153
  N      1.252437    1.037217    0.006759
  C      1.179919   -0.307749   -0.001065
  C     -0.040257   -0.984243   -0.011829
  C      2.478589   -1.055198    0.003017
  H     -2.944146   -1.034350    1.035551
  H     -3.307878   -0.431089   -0.580892
  H     -2.481497   -1.995925   -0.373957
  H     -2.052277    1.731341   -0.011976
  H      0.176755    2.800611    0.006269
  H     -0.051332   -2.070384   -0.021979
  H      2.317347   -2.134345   -0.041686
  H      3.096920   -0.757271   -0.850144
  H      3.049048   -0.826154    0.909689

 Total Charge           Charge          ....    0
 Multiplicity           Mult            ....    1
 Number of Electrons    NEL             ....   58
 Basis Dimension        Dim             ....  302

ORBITAL ENERGIES
----------------

  NO   OCC          E(Eh)            E(eV)
   0   2.0000     -16.515340      -449.4053
   1   2.0000     -12.089198      -328.9638
   2   2.0000     -12.079832      -328.7089
   3   2.0000     -12.076801      -328.6265
   4   2.0000     -12.053540      -327.9935
   5   2.0000     -12.049898      -327.8944
   6   2.0000     -12.049502      -327.8836
   7   2.0000     -12.039432      -327.6096
   8   2.0000      -1.511262       -41.1235
   9   2.0000      -1.354485       -36.8574
  10   2.0000      -1.308811       -35.6146
  11   2.0000      -1.229074       -33.4448
  12   2.0000      -1.203336       -32.7444
  13   2.0000      -1.139423       -31.0053
  14   2.0000      -1.091996       -29.7147
  15   2.0000      -1.000095       -27.2140
  16   2.0000      -0.956718       -26.0336
  17   2.0000      -0.917255       -24.9598
  18   2.0000      -0.875765       -23.8308
  19   2.0000      -0.869821       -23.6690
  20   2.0000      -0.857288       -23.3280
  21   2.0000      -0.846043       -23.0220
  22   2.0000      -0.842255       -22.9189
  23   2.0000      -0.819878       -22.3100
  24   2.0000      -0.812946       -22.1214
  25   2.0000      -0.797753       -21.7080
  26   2.0000      -0.758690       -20.6450
  27   2.0000      -0.685735       -18.6598
  28   2.0000      -0.642091       -17.4722
  29   0.0000      -0.287364        -7.8196
  30   0.0000      -0.240639        -6.5481
  31   0.0000      -0.096316        -2.6209
  32   0.0000      -0.056798        -1.5456
  33   0.0000      -0.033050        -0.8993

MULLIKEN ATOMIC CHARGES
-----------------------
   0 C :   -0.362891
   1 C :    0.124701
   2 C :   -0.146514
   3 C :   -0.057230
   4 N :   -0.243541
   5 C :    0.200797
   6 C :   -0.254673
   7 C :   -0.351321
   8 H :    0.131618
   9 H :    0.126144
  10 H :    0.122963
  11 H :    0.117627
  12 H :    0.116704
  13 H :    0.115130
  14 H :    0.109566
  15 H :    0.126045
  16 H :    0.124876
Sum of atomic charges:   -0.0000000

LOEWDIN ATOMIC CHARGES
----------------------
   0 C :   -0.244914
   1 C :   -0.154864
   2 C :   -0.137634
   3 C :   -0.198185
   4 N :    0.136060
   5 C :   -0.234095
   6 C :   -0.109298
   7 C :   -0.252153
   8 H :    0.133049
   9 H :    0.128439
  10 H :    0.126691
  11 H :    0.144179
  12 H :    0.134664
  13 H :    0.145386
  14 H :    0.121056
  15 H :    0.130735
  16 H :    0.130882

  Mayer bond orders larger than 0.100000
B(  0-C ,  1-C ) :   0.9207 B(  0-C ,  8-H ) :   0.9589 B(  0-C ,  9-H ) :   0.9870
B(  0-C , 10-H ) :   0.9950 B(  1-C ,  2-C ) :   1.3898 B(  1-C ,  6-C ) :   1.4157
B(  2-C ,  3-C ) :   1.4204 B(  2-C , 11-H ) :   0.9678 B(  3-C ,  4-N ) :   1.5253
B(  3-C , 12-H ) :   0.9906 B(  4-N ,  5-C ) :   1.4388 B(  5-C ,  6-C ) :   1.4514
B(  5-C ,  7-C ) :   0.9341 B(  6-C , 13-H ) :   0.9469 B(  7-C , 14-H ) :   1.0004
B(  7-C , 15-H ) :   0.9695 B(  7-C , 16-H ) :   0.9669

FINAL SINGLE POINT ENERGY      -326.933527881192

DIPOLE MOMENT
-------------

Method             : SCF
Type of density    : Electron Density
Multiplicity       :   1
Irrep              :   0
Energy             :  -326.9432773502916234 Eh
Relativity type    :
Basis              : AO
                                X                 Y                 Z
Electronic contribution:      1.317241653       3.923395381      -0.052651172
Nuclear contribution   :     -2.080675234      -4.467034446       0.069157792
                        -----------------------------------------
Total Dipole Moment    :     -0.763433581      -0.543639064       0.016506620
                        -----------------------------------------
Magnitude (a.u.)       :      0.937361581
Magnitude (Debye)      :      2.382583792

Rotational constants in cm-1:             0.126331             0.059351             0.040995
Rotational constants in MHz :          3787.315187          1779.300684          1229.013425

                             ****ORCA TERMINATED NORMALLY****
TOTAL RUN TIME: 0 days 0 hours 2 minutes 24 seconds 320 msec
