                         Program Version 6.0.0  -   RELEASE  -
|  1> ! wb97x-v def2-tzvp def2/J RIJCOSX DEFGRID2 scfconv7 GCP(DFT/TZ) printgap
|  2> %output
|  3>     printlevel normal
|  4> end
|  5> %cpcm
|  6>     smd true
|  7>     smdsolvent "water"
|  8> end
|  9> * xyz 0 1
| 10> C -2.565000947475894 -0.9756625033548998 0.008308653555888192
| 11> C -1.241473414259375 -0.27520095032089126 -0.011708752988695335
| 12> C -1.1559377419610364 1.1187014954554524 -0.006479067808232635
| 13> C 0.09579176783606345 1.7151366126226584 0.0031531372499104364
| 14> N 1.2524368136579045 1.0372166687045314 0.006758661073225992
| 15> C 1.1799188618526717 -0.3077487862457074 -0.0010650858443640207
| 16> C -0.04025742735466972 -0.9842425178005231 -0.011828923819860079
| 17> C 2.4785894950334626 -1.0551978298183293 0.003016958885933141
| 18> H -2.9441463743090477 -1.0343498275706198 1.0355512681274042
| 19> H -3.307877586217834 -0.4310889446451217 -0.5808920654138712
| 20> H -2.481496973412346 -1.9959247815058276 -0.3739571315442506
| 21> H -2.052276976375627 1.7313413591606686 -0.011976360770334846
| 22> H 0.17675450423724062 2.8006107018513924 0.006269224320248932
| 23> H -0.05133197305126889 -2.0703842259354697 -0.021978980449099416
| 24> H 2.3173471475465277 -2.134345407550301 -0.04168567994096241
| 25> H 3.096920157034392 -0.7572708677044935 -0.850143647349253
| 26> H 3.0490477362945647 -0.8261543203611599 0.9096894811588153
| 27> *
| 28>
| 29>                          ****END OF INPUT****

CARTESIAN COORDINATES (ANGSTROEM)
---------------------------------
  C     -2.565001   -0.975663    0.008309
  C     -1.241473   -0.275201   -0.011709
  C     -1.155938    1.118701   -0.006479
  C      0.095792    1.715137    0.003153
  N      1.252437    1.037217    0.006759
  C      1.179919   -0.307749   -0.001065
  C     -0.040257   -0.984243   -0.011829
  C      2.478589   -1.055198    0.003017
  H     -2.944146   -1.034350    1.035551
  H     -3.307878   -0.431089   -0.580892
  H     -2.481497   -1.995925   -0.373957
  H     -2.052277    1.731341   -0.011976
  H      0.176755    2.800611    0.006269
  H     -0.051332   -2.070384   -0.021979
  H      2.317347   -2.134345   -0.041686
  H      3.096920   -0.757271   -0.850144
  H      3.049048   -0.826154    0.909689

 Total Charge           Charge          ....    0
 Multiplicity           Mult            ....    1
 Number of Electrons    NEL             ....   58
 Basis Dimension        Dim             ....  302

ORBITAL ENERGIES
----------------

  NO   OCC          E(Eh)            E(eV)
   0   2.0000     -16.520286      -449.5398
   1   2.0000     -12.089195      -328.9637
   2   2.0000     -12.079228      -328.6925
   3   2.0000     -12.073027      -328.5238
   4   2.0000     -12.045166      -327.7656
   5   2.0000     -12.044768      -327.7548
   6   2.0000     -12.037428      -327.5551
   7   2.0000     -12.033715      -327.4540
   8   2.0000      -1.515445       -41.2374
   9   2.0000      -1.350399       -36.7462
  10   2.0000      -1.307850       -35.5884
  11   2.0000      -1.221062       -33.2268
  12   2.0000      -1.197568       -32.5875
  13   2.0000      -1.138525       -30.9808
  14   2.0000      -1.087015       -29.5792
  15   2.0000      -0.997592       -27.1459
  16   2.0000      -0.952521       -25.9194
  17   2.0000      -0.911386       -24.8001
  18   2.0000      -0.871613       -23.7178
  19   2.0000      -0.863441       -23.4954
  20   2.0000      -0.854550       -23.2535
  21   2.0000      -0.835715       -22.7410
  22   2.0000      -0.830816       -22.6076
  23   2.0000      -0.814397       -22.1609
  24   2.0000      -0.801995       -21.8234
  25   2.0000      -0.797675       -21.7058
  26   2.0000      -0.763159       -20.7666
  27   2.0000      -0.683916       -18.6103
  28   2.0000      -0.641163       -17.4469
  29   0.0000      -0.287347        -7.8191
  30   0.0000      -0.239393        -6.5142
  31   0.0000      -0.093685        -2.5493
  32   0.0000      -0.048454        -1.3185
  33   0.0000      -0.030477        -0.8293

MULLIKEN ATOMIC CHARGES
-----------------------
   0 C :   -0.393594
   1 C :    0.116966
   2 C :   -0.198582
   3 C :   -0.068004
   4 N :   -0.327789
   5 C :    0.226538
   6 C :   -0.296420
   7 C :   -0.412041
   8 H :    0.149780
   9 H :    0.147561
  10 H :    0.146492
  11 H :    0.163368
  12 H :    0.156090
  13 H :    0.162933
  14 H :    0.143157
  15 H :    0.141524
  16 H :    0.142023
Sum of atomic charges:   -0.0000000

LOEWDIN ATOMIC CHARGES
----------------------
   0 C :   -0.243050
   1 C :   -0.152382
   2 C :   -0.137319
   3 C :   -0.210869
   4 N :    0.092161
   5 C :   -0.242245
   6 C :   -0.106827
   7 C :   -0.257900
   8 H :    0.139173
   9 H :    0.134303
  10 H :    0.132699
  11 H :    0.155804
  12 H :    0.142230
  13 H :    0.157885
  14 H :    0.130461
  15 H :    0.132567
  16 H :    0.133308

  Mayer bond orders larger than 0.100000
B(  0-C ,  1-C ) :   0.9367 B(  0-C ,  8-H ) :   0.9519 B(  0-C ,  9-H ) :   0.9796
B(  0-C , 10-H ) :   0.9880 B(  1-C ,  2-C ) :   1.3721 B(  1-C ,  6-C ) :   1.3957
B(  2-C ,  3-C ) :   1.4449 B(  2-C , 11-H ) :   0.9672 B(  3-C ,  4-N ) :   1.5125
B(  3-C , 12-H ) :   0.9712 B(  4-N ,  5-C ) :   1.4092 B(  5-C ,  6-C ) :   1.4518
B(  5-C ,  7-C ) :   0.9251 B(  6-C , 13-H ) :   0.9545 B(  7-C , 14-H ) :   0.9922
B(  7-C , 15-H ) :   0.9683 B(  7-C , 16-H ) :   0.9652

FINAL SINGLE POINT ENERGY      -326.940301242159

DIPOLE MOMENT
-------------

Method             : SCF
Type of density    : Electron Density
Multiplicity       :   1
Irrep              :   0
Energy             :  -326.9500507112591663 Eh
Relativity type    :
Basis              : AO
                                X                 Y                 Z
Electronic contribution:      0.935447744       3.644428523      -0.046511275
Nuclear contribution   :     -2.080675234      -4.467034446       0.069157792
                        -----------------------------------------
Total Dipole Moment    :     -1.145227490      -0.822605922       0.022646516
                        -----------------------------------------
Magnitude (a.u.)       :      1.410226710
Magnitude (Debye)      :      3.584511430

Rotational constants in cm-1:             0.126331             0.059351             0.040995
Rotational constants in MHz :          3787.315187          1779.300684          1229.013425

                             ****ORCA TERMINATED NORMALLY****
TOTAL RUN TIME: 0 days 0 hours 2 minutes 29 seconds 323 msec
