                         Program Version 6.0.0  -   RELEASE  -
|  1> ! r2scan-3c def2/J RI DEFGRID2 scfconv6 printgap
|  2> %output
|  3>     printlevel normal
|  4> end
|  5> * xyz 0 1
|  6> C -2.9823165437 1.2434909785 -0.009486353
|  7> C -1.7459398758 0.39533735 0.0070547028
|  8> C -1.8355083185 -0.9862562045 0.005604038
|  9> C -0.6905826811 -1.7666437283 0.0015653575
| 10> C 0.5630278543 -1.1823125144 -0.0014054947
| 11> C 0.6686006019 0.2200235529 -0.0001092999
| 12> C -0.485664691 0.985669424 0.0037231383
| 13> O 1.9447112554 0.7172840847 -0.0013968449
| 14> C 2.1175317587 2.1192403035 0.0030444969
| 15> O 1.7184640948 -1.9102439388 -0.003539841
| 16> H -2.7627508765 2.2576474856 0.3121751507
| 17> H -3.3913562776 1.2855149591 -1.0184989277
| 18> H -3.7433952942 0.8222079703 0.6426730686
| 19> H -2.8034599226 -1.4632068961 0.0086573972
| 20> H -0.7735047148 -2.8436395118 0.002375578
| 21> H -0.4174090779 2.0617806372 0.0042737165
| 22> H 1.6813927756 2.5747185378 -0.8903911075
| 23> H 3.1943267274 2.2729070049 0.0033958898
| 24> H 1.6817359302 2.5689931491 0.8995496494
| 25> H 1.5103453422 -2.8569571605 -0.0049018667
| 26> *
| 27>
| 28>                          ****END OF INPUT****

CARTESIAN COORDINATES (ANGSTROEM)
---------------------------------
  C     -2.982317    1.243491   -0.009486
  C     -1.745940    0.395337    0.007055
  C     -1.835508   -0.986256    0.005604
  C     -0.690583   -1.766644    0.001565
  C      0.563028   -1.182313   -0.001405
  C      0.668601    0.220024   -0.000109
  C     -0.485665    0.985669    0.003723
  O      1.944711    0.717284   -0.001397
  C      2.117532    2.119240    0.003044
  O      1.718464   -1.910244   -0.003540
  H     -2.762751    2.257647    0.312175
  H     -3.391356    1.285515   -1.018499
  H     -3.743395    0.822208    0.642673
  H     -2.803460   -1.463207    0.008657
  H     -0.773505   -2.843640    0.002376
  H     -0.417409    2.061781    0.004274
  H      1.681393    2.574719   -0.890391
  H      3.194327    2.272907    0.003396
  H      1.681736    2.568993    0.899550
  H      1.510345   -2.856957   -0.004902

 Total Charge           Charge          ....    0
 Multiplicity           Mult            ....    1
 Number of Electrons    NEL             ....   74
 Basis Dimension        Dim             ....  250

ORBITAL ENERGIES
----------------

  NO   OCC          E(Eh)            E(eV)
   0   2.0000     -18.979916      -516.4698
   1   2.0000     -18.978113      -516.4207
   2   2.0000     -10.089101      -274.5384
   3   2.0000     -10.088484      -274.5216
   4   2.0000     -10.082741      -274.3653
   5   2.0000     -10.034577      -273.0547
   6   2.0000     -10.030604      -272.9466
   7   2.0000     -10.027418      -272.8599
   8   2.0000     -10.023909      -272.7644
   9   2.0000     -10.022676      -272.7309
  10   2.0000      -1.033163       -28.1138
  11   2.0000      -1.013253       -27.5720
  12   2.0000      -0.820460       -22.3258
  13   2.0000      -0.737653       -20.0726
  14   2.0000      -0.718462       -19.5504
  15   2.0000      -0.671992       -18.2858
  16   2.0000      -0.642691       -17.4885
  17   2.0000      -0.585157       -15.9229
  18   2.0000      -0.551075       -14.9955
  19   2.0000      -0.515064       -14.0156
  20   2.0000      -0.477785       -13.0012
  21   2.0000      -0.461708       -12.5637
  22   2.0000      -0.434794       -11.8313
  23   2.0000      -0.421442       -11.4680
  24   2.0000      -0.407580       -11.0908
  25   2.0000      -0.391001       -10.6397
  26   2.0000      -0.388405       -10.5690
  27   2.0000      -0.371755       -10.1160
  28   2.0000      -0.369543       -10.0558
  29   2.0000      -0.347007        -9.4425
  30   2.0000      -0.328256        -8.9323
  31   2.0000      -0.312716        -8.5094
  32   2.0000      -0.308040        -8.3822
  33   2.0000      -0.293387        -7.9835
  34   2.0000      -0.283246        -7.7075
  35   2.0000      -0.217509        -5.9187
  36   2.0000      -0.181106        -4.9281
  37   0.0000      -0.020103        -0.5470
  38   0.0000      -0.007557        -0.2056
  39   0.0000       0.047683         1.2975
  40   0.0000       0.073160         1.9908
  41   0.0000       0.082561         2.2466

MULLIKEN ATOMIC CHARGES
-----------------------
   0 C :   -0.536684
   1 C :    0.210749
   2 C :   -0.234451
   3 C :   -0.316049
   4 C :    0.302061
   5 C :    0.172489
   6 C :   -0.345107
   7 O :   -0.182123
   8 C :   -0.322693
   9 O :   -0.408892
  10 H :    0.147187
  11 H :    0.166419
  12 H :    0.151782
  13 H :    0.146309
  14 H :    0.136654
  15 H :    0.146633
  16 H :    0.150919
  17 H :    0.155152
  18 H :    0.151074
  19 H :    0.308569
Sum of atomic charges:   -0.0000000

LOEWDIN ATOMIC CHARGES
----------------------
   0 C :   -0.389279
   1 C :   -0.108935
   2 C :   -0.177540
   3 C :   -0.161797
   4 C :    0.201032
   5 C :    0.206291
   6 C :   -0.164767
   7 O :   -0.663505
   8 C :   -0.051564
   9 O :   -0.479467
  10 H :    0.157357
  11 H :    0.163381
  12 H :    0.161273
  13 H :    0.168253
  14 H :    0.168824
  15 H :    0.176625
  16 H :    0.163744
  17 H :    0.180666
  18 H :    0.163821
  19 H :    0.285588

  Mayer bond orders larger than 0.100000
B(  0-C ,  1-C ) :   0.7610 B(  0-C , 10-H ) :   0.9965 B(  0-C , 11-H ) :   0.9711
B(  0-C , 12-H ) :   0.9877 B(  1-C ,  2-C ) :   1.4410 B(  1-C ,  6-C ) :   1.3842
B(  2-C ,  3-C ) :   1.4019 B(  2-C , 13-H ) :   0.9319 B(  3-C ,  4-C ) :   1.2814
B(  3-C , 14-H ) :   0.9472 B(  4-C ,  5-C ) :   1.5006 B(  4-C ,  9-O ) :   0.9059
B(  5-C ,  6-C ) :   1.3664 B(  5-C ,  7-O ) :   1.0598 B(  5-C ,  9-O ) :   0.1323
B(  6-C , 15-H ) :   0.9074 B(  7-O ,  8-C ) :   0.8565 B(  8-C , 16-H ) :   0.9633
B(  8-C , 17-H ) :   0.9679 B(  8-C , 18-H ) :   0.9633 B(  9-O , 19-H ) :   0.8845

Dispersion correction           -0.006537708
FINAL SINGLE POINT ENERGY      -461.198830812336

DIPOLE MOMENT
-------------

Method             : SCF
Type of density    : Electron Density
Multiplicity       :   1
Irrep              :   0
Energy             :  -461.2023032099037891 Eh
Relativity type    :
Basis              : AO
                                X                 Y                 Z
Electronic contribution:      5.070740903      -6.102696101       0.024750283
Nuclear contribution   :     -5.409694905       6.249265684      -0.038248628
                        -----------------------------------------
Total Dipole Moment    :     -0.338954002       0.146569582      -0.013498345
                        -----------------------------------------
Magnitude (a.u.)       :      0.369533034
Magnitude (Debye)      :      0.939278326

Rotational constants in cm-1:             0.062152             0.039494             0.024371
Rotational constants in MHz :          1863.283848          1183.992507           730.614281

                             ****ORCA TERMINATED NORMALLY****
TOTAL RUN TIME: 0 days 0 hours 0 minutes 31 seconds 51 msec
