                         Program Version 6.0.0  -   RELEASE  -
|  1> ! r2scan-3c def2/J RI DEFGRID2 scfconv6 printgap
|  2> %output
|  3>     printlevel normal
|  4> end
|  5> %cpcm
|  6>     smd true
|  7>     smdsolvent "water"
|  8> end
|  9> * xyz 0 1
| 10> C -2.9823165437 1.2434909785 -0.009486353
| 11> C -1.7459398758 0.39533735 0.0070547028
| 12> C -1.8355083185 -0.9862562045 0.005604038
| 13> C -0.6905826811 -1.7666437283 0.0015653575
| 14> C 0.5630278543 -1.1823125144 -0.0014054947
| 15> C 0.6686006019 0.2200235529 -0.0001092999
| 16> C -0.485664691 0.985669424 0.0037231383
| 17> O 1.9447112554 0.7172840847 -0.0013968449
| 18> C 2.1175317587 2.1192403035 0.0030444969
| 19> O 1.7184640948 -1.9102439388 -0.003539841
| 20> H -2.7627508765 2.2576474856 0.3121751507
| 21> H -3.3913562776 1.2855149591 -1.0184989277
| 22> H -3.7433952942 0.8222079703 0.6426730686
| 23> H -2.8034599226 -1.4632068961 0.0086573972
| 24> H -0.7735047148 -2.8436395118 0.002375578
| 25> H -0.4174090779 2.0617806372 0.0042737165
| 26> H 1.6813927756 2.5747185378 -0.8903911075
| 27> H 3.1943267274 2.2729070049 0.0033958898
| 28> H 1.6817359302 2.5689931491 0.8995496494
| 29> H 1.5103453422 -2.8569571605 -0.0049018667
| 30> *
| 31>
| 32>                          ****END OF INPUT****

CARTESIAN COORDINATES (ANGSTROEM)
---------------------------------
  C     -2.982317    1.243491   -0.009486
  C     -1.745940    0.395337    0.007055
  C     -1.835508   -0.986256    0.005604
  C     -0.690583   -1.766644    0.001565
  C      0.563028   -1.182313   -0.001405
  C      0.668601    0.220024   -0.000109
  C     -0.485665    0.985669    0.003723
  O      1.944711    0.717284   -0.001397
  C      2.117532    2.119240    0.003044
  O      1.718464   -1.910244   -0.003540
  H     -2.762751    2.257647    0.312175
  H     -3.391356    1.285515   -1.018499
  H     -3.743395    0.822208    0.642673
  H     -2.803460   -1.463207    0.008657
  H     -0.773505   -2.843640    0.002376
  H     -0.417409    2.061781    0.004274
  H      1.681393    2.574719   -0.890391
  H      3.194327    2.272907    0.003396
  H      1.681736    2.568993    0.899550
  H      1.510345   -2.856957   -0.004902

 Total Charge           Charge          ....    0
 Multiplicity           Mult            ....    1
 Number of Electrons    NEL             ....   74
 Basis Dimension        Dim             ....  250

ORBITAL ENERGIES
----------------

  NO   OCC          E(Eh)            E(eV)
   0   2.0000     -18.987279      -516.6701
   1   2.0000     -18.981399      -516.5101
   2   2.0000     -10.093058      -274.6461
   3   2.0000     -10.091883      -274.6141
   4   2.0000     -10.072641      -274.0905
   5   2.0000     -10.037255      -273.1276
   6   2.0000     -10.030833      -272.9528
   7   2.0000     -10.028288      -272.8836
   8   2.0000     -10.023660      -272.7576
   9   2.0000     -10.016687      -272.5679
  10   2.0000      -1.039214       -28.2785
  11   2.0000      -1.017458       -27.6864
  12   2.0000      -0.823694       -22.4139
  13   2.0000      -0.738107       -20.0849
  14   2.0000      -0.719491       -19.5783
  15   2.0000      -0.669353       -18.2140
  16   2.0000      -0.640689       -17.4340
  17   2.0000      -0.583965       -15.8905
  18   2.0000      -0.551055       -14.9950
  19   2.0000      -0.514464       -13.9993
  20   2.0000      -0.477061       -12.9815
  21   2.0000      -0.464164       -12.6305
  22   2.0000      -0.434223       -11.8158
  23   2.0000      -0.419001       -11.4016
  24   2.0000      -0.403639       -10.9836
  25   2.0000      -0.389367       -10.5952
  26   2.0000      -0.386678       -10.5220
  27   2.0000      -0.373211       -10.1556
  28   2.0000      -0.369949       -10.0668
  29   2.0000      -0.343238        -9.3400
  30   2.0000      -0.328958        -8.9514
  31   2.0000      -0.312297        -8.4980
  32   2.0000      -0.311700        -8.4818
  33   2.0000      -0.297450        -8.0940
  34   2.0000      -0.287292        -7.8176
  35   2.0000      -0.222388        -6.0515
  36   2.0000      -0.187611        -5.1051
  37   0.0000      -0.024009        -0.6533
  38   0.0000      -0.012202        -0.3320
  39   0.0000       0.051197         1.3932
  40   0.0000       0.088788         2.4160
  41   0.0000       0.096359         2.6221

MULLIKEN ATOMIC CHARGES
-----------------------
   0 C :   -0.553112
   1 C :    0.153152
   2 C :   -0.252454
   3 C :   -0.322184
   4 C :    0.238787
   5 C :    0.152124
   6 C :   -0.329891
   7 O :   -0.235824
   8 C :   -0.329323
   9 O :   -0.465826
  10 H :    0.168553
  11 H :    0.180462
  12 H :    0.168110
  13 H :    0.177347
  14 H :    0.183190
  15 H :    0.183936
  16 H :    0.170759
  17 H :    0.173103
  18 H :    0.170848
  19 H :    0.368245
Sum of atomic charges:   -0.0000000

LOEWDIN ATOMIC CHARGES
----------------------
   0 C :   -0.393993
   1 C :   -0.117355
   2 C :   -0.189004
   3 C :   -0.160506
   4 C :    0.185696
   5 C :    0.191278
   6 C :   -0.166640
   7 O :   -0.700320
   8 C :   -0.046857
   9 O :   -0.505039
  10 H :    0.164634
  11 H :    0.169150
  12 H :    0.167002
  13 H :    0.179161
  14 H :    0.187281
  15 H :    0.191539
  16 H :    0.174141
  17 H :    0.187413
  18 H :    0.174199
  19 H :    0.308219

  Mayer bond orders larger than 0.100000
B(  0-C ,  1-C ) :   0.7895 B(  0-C , 10-H ) :   0.9887 B(  0-C , 11-H ) :   0.9645
B(  0-C , 12-H ) :   0.9805 B(  1-C ,  2-C ) :   1.3897 B(  1-C ,  6-C ) :   1.3582
B(  2-C ,  3-C ) :   1.3488 B(  2-C , 13-H ) :   0.9511 B(  3-C ,  4-C ) :   1.2814
B(  3-C , 14-H ) :   0.9684 B(  4-C ,  5-C ) :   1.4515 B(  4-C ,  9-O ) :   0.9130
B(  5-C ,  6-C ) :   1.3536 B(  5-C ,  7-O ) :   1.0295 B(  5-C ,  9-O ) :   0.1258
B(  6-C , 15-H ) :   0.9193 B(  7-O ,  8-C ) :   0.8488 B(  8-C , 16-H ) :   0.9548
B(  8-C , 17-H ) :   0.9604 B(  8-C , 18-H ) :   0.9547 B(  9-O , 19-H ) :   0.8539

Dispersion correction           -0.006537708
FINAL SINGLE POINT ENERGY      -461.210703615447

DIPOLE MOMENT
-------------

Method             : SCF
Type of density    : Electron Density
Multiplicity       :   1
Irrep              :   0
Energy             :  -461.2141760130144235 Eh
Relativity type    :
Basis              : AO
                                X                 Y                 Z
Electronic contribution:      4.751150085      -6.042104480       0.019360310
Nuclear contribution   :     -5.409694905       6.249265684      -0.038248628
                        -----------------------------------------
Total Dipole Moment    :     -0.658544820       0.207161204      -0.018888318
                        -----------------------------------------
Magnitude (a.u.)       :      0.690618428
Magnitude (Debye)      :      1.755412539

Rotational constants in cm-1:             0.062152             0.039494             0.024371
Rotational constants in MHz :          1863.283848          1183.992507           730.614281

                             ****ORCA TERMINATED NORMALLY****
TOTAL RUN TIME: 0 days 0 hours 0 minutes 40 seconds 496 msec
