                         Program Version 6.0.0  -   RELEASE  -
|  1> ! pbe def2-sv(p) def2/J RI DEFGRID1 loosescf d4 GCP(DFT/SV(P)) printgap
|  2> %output
|  3>     printlevel normal
|  4> end
|  5> * xyz 0 1
|  6> C -2.4309201616 -0.9191662865 -0.894872486
|  7> C -1.7169029586 0.0120542002 0.046221585
|  8> C -2.3852446684 0.8151460341 0.8670279647
|  9> C -0.2426668984 0.0164837057 0.0202628935
| 10> C 0.4792516462 -1.1747557622 0.0332495123
| 11> C 1.8620111436 -1.1614610641 0.0271869207
| 12> C 2.5481350708 0.0411437067 -0.002348057
| 13> C 1.8413269893 1.2321626333 -0.0170165367
| 14> C 0.4587753131 1.2199536014 -0.0016531167
| 15> H -2.9171869223 -0.3397805338 -1.6785630767
| 16> H -1.7400947307 -1.6108860203 -1.3673729851
| 17> H -3.1995288731 -1.4830829083 -0.3710568342
| 18> H -1.8824596216 1.4799386851 1.5481696546
| 19> H -3.4617819953 0.8205190561 0.8970292576
| 20> H -0.0442265938 -2.1187090005 0.0738565509
| 21> H 2.4070601348 -2.0937999283 0.0458102688
| 22> H 3.6277184694 0.0501107033 -0.013273871
| 23> H 2.3697851068 2.1738110199 -0.0419440807
| 24> H -0.0900689117 2.1499309236 -0.022868996
| 25> *
| 26>
| 27>                          ****END OF INPUT****

CARTESIAN COORDINATES (ANGSTROEM)
---------------------------------
  C     -2.430920   -0.919166   -0.894872
  C     -1.716903    0.012054    0.046222
  C     -2.385245    0.815146    0.867028
  C     -0.242667    0.016484    0.020263
  C      0.479252   -1.174756    0.033250
  C      1.862011   -1.161461    0.027187
  C      2.548135    0.041144   -0.002348
  C      1.841327    1.232163   -0.017017
  C      0.458775    1.219954   -0.001653
  H     -2.917187   -0.339781   -1.678563
  H     -1.740095   -1.610886   -1.367373
  H     -3.199529   -1.483083   -0.371057
  H     -1.882460    1.479939    1.548170
  H     -3.461782    0.820519    0.897029
  H     -0.044227   -2.118709    0.073857
  H      2.407060   -2.093800    0.045810
  H      3.627718    0.050111   -0.013274
  H      2.369785    2.173811   -0.041944
  H     -0.090069    2.149931   -0.022869

 Total Charge           Charge          ....    0
 Multiplicity           Mult            ....    1
 Number of Electrons    NEL             ....   64
 Basis Dimension        Dim             ....  146

ORBITAL ENERGIES
----------------

  NO   OCC          E(Eh)            E(eV)
   0   2.0000      -9.904731      -269.5214
   1   2.0000      -9.903401      -269.4852
   2   2.0000      -9.892257      -269.1820
   3   2.0000      -9.891299      -269.1559
   4   2.0000      -9.890860      -269.1440
   5   2.0000      -9.890576      -269.1363
   6   2.0000      -9.889855      -269.1166
   7   2.0000      -9.883354      -268.9397
   8   2.0000      -9.872413      -268.6420
   9   2.0000      -0.781415       -21.2634
  10   2.0000      -0.726894       -19.7798
  11   2.0000      -0.670309       -18.2400
  12   2.0000      -0.657896       -17.9023
  13   2.0000      -0.615126       -16.7384
  14   2.0000      -0.549880       -14.9630
  15   2.0000      -0.539663       -14.6850
  16   2.0000      -0.490810       -13.3556
  17   2.0000      -0.452740       -12.3197
  18   2.0000      -0.412773       -11.2321
  19   2.0000      -0.409892       -11.1537
  20   2.0000      -0.392872       -10.6906
  21   2.0000      -0.383178       -10.4268
  22   2.0000      -0.375721       -10.2239
  23   2.0000      -0.364634        -9.9222
  24   2.0000      -0.336956        -9.1690
  25   2.0000      -0.328316        -8.9339
  26   2.0000      -0.324214        -8.8223
  27   2.0000      -0.298974        -8.1355
  28   2.0000      -0.291767        -7.9394
  29   2.0000      -0.246455        -6.7064
  30   2.0000      -0.229439        -6.2434
  31   2.0000      -0.204467        -5.5638
  32   0.0000      -0.051843        -1.4107
  33   0.0000      -0.034769        -0.9461
  34   0.0000       0.002351         0.0640
  35   0.0000       0.042858         1.1662
  36   0.0000       0.062259         1.6941

MULLIKEN ATOMIC CHARGES
-----------------------
   0 C :   -0.226053
   1 C :   -0.068668
   2 C :   -0.221005
   3 C :    0.117016
   4 C :   -0.115197
   5 C :   -0.051151
   6 C :   -0.047287
   7 C :   -0.048881
   8 C :   -0.110641
   9 H :    0.120522
  10 H :    0.110396
  11 H :    0.112340
  12 H :    0.096136
  13 H :    0.084271
  14 H :    0.046714
  15 H :    0.051770
  16 H :    0.053117
  17 H :    0.052105
  18 H :    0.044495
Sum of atomic charges:    0.0000000

LOEWDIN ATOMIC CHARGES
----------------------
   0 C :   -0.324999
   1 C :   -0.048523
   2 C :   -0.250208
   3 C :   -0.029164
   4 C :   -0.117180
   5 C :   -0.121321
   6 C :   -0.125794
   7 C :   -0.121202
   8 C :   -0.113708
   9 H :    0.137850
  10 H :    0.124503
  11 H :    0.131114
  12 H :    0.121615
  13 H :    0.117965
  14 H :    0.123593
  15 H :    0.123521
  16 H :    0.123252
  17 H :    0.123703
  18 H :    0.124985

  Mayer bond orders larger than 0.100000
B(  0-C ,  1-C ) :   1.1018 B(  0-C ,  9-H ) :   0.9345 B(  0-C , 10-H ) :   0.9370
B(  0-C , 11-H ) :   0.9389 B(  1-C ,  2-C ) :   1.9985 B(  1-C ,  3-C ) :   1.0066
B(  2-C , 12-H ) :   0.9094 B(  2-C , 13-H ) :   0.9160 B(  3-C ,  4-C ) :   1.3613
B(  3-C ,  8-C ) :   1.3840 B(  4-C ,  5-C ) :   1.3814 B(  4-C , 14-H ) :   0.9561
B(  5-C ,  6-C ) :   1.3758 B(  5-C , 15-H ) :   0.9630 B(  6-C ,  7-C ) :   1.3758
B(  6-C , 16-H ) :   0.9657 B(  7-C ,  8-C ) :   1.3639 B(  7-C , 17-H ) :   0.9635
B(  8-C , 18-H ) :   0.9611

Dispersion correction           -0.019899684
FINAL SINGLE POINT ENERGY      -348.162149243996

DIPOLE MOMENT
-------------

Method             : SCF
Type of density    : Electron Density
Multiplicity       :   1
Irrep              :   0
Energy             :  -348.2118504812750643 Eh
Relativity type    :
Basis              : AO
                                X                 Y                 Z
Electronic contribution:      4.596473142       0.817444216       0.757765056
Nuclear contribution   :     -4.625906061      -0.911850979      -0.872697557
                        -----------------------------------------
Total Dipole Moment    :     -0.029432919      -0.094406762      -0.114932501
                        -----------------------------------------
Magnitude (a.u.)       :      0.151619304
Magnitude (Debye)      :      0.385385643

Rotational constants in cm-1:             0.120629             0.039694             0.032260
Rotational constants in MHz :          3616.367056          1189.993446           967.133676

                             ****ORCA TERMINATED NORMALLY****
TOTAL RUN TIME: 0 days 0 hours 0 minutes 7 seconds 718 msec
