                         Program Version 6.0.0  -   RELEASE  -
|  1> ! r2scan-3c def2/J RI DEFGRID2 scfconv6 printgap
|  2> %output
|  3>     printlevel normal
|  4> end
|  5> * xyz 0 1
|  6> C -2.5623883398 -0.6731554552 -0.3153859236
|  7> C -1.1804594665 -0.2931066649 0.2254849052
|  8> H -1.2238500614 -0.2431380783 1.3237426104
|  9> C -0.7225914072 1.0692969203 -0.3122750703
| 10> H -0.7465211497 1.0322285598 -1.4153514562
| 11> C 0.7175543744 1.3378103676 0.1483427753
| 12> H 0.7232991804 1.4662662917 1.2370949796
| 13> C 1.6362777707 0.1617012078 -0.2136457475
| 14> H 1.708266 0.0820961063 -1.3124796727
| 15> C 1.0299447627 -1.1508944556 0.3241837168
| 16> H 1.0237861864 -1.1089507693 1.4249830381
| 17> O -0.2807293814 -1.3104936702 -0.1764533893
| 18> O 1.7551520946 -2.2695720781 -0.0114842803
| 19> O 2.9132884821 0.3188986712 0.34539982
| 20> O 1.2097203556 2.5515829992 -0.3680218378
| 21> O -1.6037846822 2.0552148888 0.155990794
| 22> O -3.0722015208 -1.8286278529 0.2936090202
| 23> H -2.4877811386 -0.8073549024 -1.4019115745
| 24> H -3.2593598878 0.1360102907 -0.0935921673
| 25> H 1.7253956373 -2.4089442767 -0.9717883155
| 26> H 3.1917695728 1.2424384384 0.2322878746
| 27> H 1.2248234308 2.517755758 -1.33707657
| 28> H -1.1806287552 2.9241786941 0.0622622629
| 29> H -2.4362034251 -2.5477645379 0.1649372094
| 30> *
| 31>
| 32>                          ****END OF INPUT****

CARTESIAN COORDINATES (ANGSTROEM)
---------------------------------
  C     -2.562388   -0.673155   -0.315386
  C     -1.180459   -0.293107    0.225485
  H     -1.223850   -0.243138    1.323743
  C     -0.722591    1.069297   -0.312275
  H     -0.746521    1.032229   -1.415351
  C      0.717554    1.337810    0.148343
  H      0.723299    1.466266    1.237095
  C      1.636278    0.161701   -0.213646
  H      1.708266    0.082096   -1.312480
  C      1.029945   -1.150894    0.324184
  H      1.023786   -1.108951    1.424983
  O     -0.280729   -1.310494   -0.176453
  O      1.755152   -2.269572   -0.011484
  O      2.913288    0.318899    0.345400
  O      1.209720    2.551583   -0.368022
  O     -1.603785    2.055215    0.155991
  O     -3.072202   -1.828628    0.293609
  H     -2.487781   -0.807355   -1.401912
  H     -3.259360    0.136010   -0.093592
  H      1.725396   -2.408944   -0.971788
  H      3.191770    1.242438    0.232288
  H      1.224823    2.517756   -1.337077
  H     -1.180629    2.924179    0.062262
  H     -2.436203   -2.547765    0.164937

 Total Charge           Charge          ....    0
 Multiplicity           Mult            ....    1
 Number of Electrons    NEL             ....   96
 Basis Dimension        Dim             ....  318

ORBITAL ENERGIES
----------------

  NO   OCC          E(Eh)            E(eV)
   0   2.0000     -18.988321      -516.6985
   1   2.0000     -18.978965      -516.4439
   2   2.0000     -18.970572      -516.2155
   3   2.0000     -18.968865      -516.1690
   4   2.0000     -18.964619      -516.0535
   5   2.0000     -18.949879      -515.6524
   6   2.0000     -10.146478      -276.0997
   7   2.0000     -10.106206      -275.0039
   8   2.0000     -10.103158      -274.9209
   9   2.0000     -10.101273      -274.8696
  10   2.0000     -10.097977      -274.7799
  11   2.0000     -10.080644      -274.3083
  12   2.0000      -1.058551       -28.8046
  13   2.0000      -1.033508       -28.1232
  14   2.0000      -1.009967       -27.4826
  15   2.0000      -0.998088       -27.1594
  16   2.0000      -0.994730       -27.0680
  17   2.0000      -0.982178       -26.7264
  18   2.0000      -0.761977       -20.7344
  19   2.0000      -0.742962       -20.2170
  20   2.0000      -0.662776       -18.0351
  21   2.0000      -0.626619       -17.0512
  22   2.0000      -0.606349       -16.4996
  23   2.0000      -0.580331       -15.7916
  24   2.0000      -0.526951       -14.3391
  25   2.0000      -0.522220       -14.2103
  26   2.0000      -0.501006       -13.6331
  27   2.0000      -0.481537       -13.1033
  28   2.0000      -0.479195       -13.0395
  29   2.0000      -0.459540       -12.5047
  30   2.0000      -0.454472       -12.3668
  31   2.0000      -0.440563       -11.9883
  32   2.0000      -0.420422       -11.4403
  33   2.0000      -0.399739       -10.8774
  34   2.0000      -0.391352       -10.6492
  35   2.0000      -0.368940       -10.0394
  36   2.0000      -0.354504        -9.6465
  37   2.0000      -0.346818        -9.4374
  38   2.0000      -0.336272        -9.1504
  39   2.0000      -0.328212        -8.9311
  40   2.0000      -0.317786        -8.6474
  41   2.0000      -0.308923        -8.4062
  42   2.0000      -0.286711        -7.8018
  43   2.0000      -0.269047        -7.3212
  44   2.0000      -0.267488        -7.2787
  45   2.0000      -0.246955        -6.7200
  46   2.0000      -0.242509        -6.5990
  47   2.0000      -0.236777        -6.4430
  48   0.0000       0.017348         0.4721
  49   0.0000       0.047592         1.2951
  50   0.0000       0.054420         1.4808
  51   0.0000       0.067229         1.8294
  52   0.0000       0.071990         1.9589

MULLIKEN ATOMIC CHARGES
-----------------------
   0 C :   -0.285002
   1 C :   -0.061102
   2 H :    0.186012
   3 C :    0.057801
   4 H :    0.161992
   5 C :   -0.132657
   6 H :    0.183188
   7 C :    0.112435
   8 H :    0.153959
   9 C :   -0.165606
  10 H :    0.159615
  11 O :   -0.202360
  12 O :   -0.346849
  13 O :   -0.411095
  14 O :   -0.431167
  15 O :   -0.432200
  16 O :   -0.412239
  17 H :    0.139167
  18 H :    0.168564
  19 H :    0.312312
  20 H :    0.313047
  21 H :    0.304812
  22 H :    0.313133
  23 H :    0.314239
Sum of atomic charges:   -0.0000000

LOEWDIN ATOMIC CHARGES
----------------------
   0 C :    0.043678
   1 C :    0.118246
   2 H :    0.190635
   3 C :    0.102022
   4 H :    0.175584
   5 C :    0.092033
   6 H :    0.204651
   7 C :    0.105625
   8 H :    0.173787
   9 C :    0.300934
  10 H :    0.200684
  11 O :   -0.687966
  12 O :   -0.465524
  13 O :   -0.562320
  14 O :   -0.580829
  15 O :   -0.582339
  16 O :   -0.587127
  17 H :    0.167150
  18 H :    0.196715
  19 H :    0.280363
  20 H :    0.282710
  21 H :    0.273738
  22 H :    0.282692
  23 H :    0.274856

  Mayer bond orders larger than 0.100000
B(  0-C ,  1-C ) :   0.9348 B(  0-C , 16-O ) :   1.0117 B(  0-C , 17-H ) :   0.9946
B(  0-C , 18-H ) :   0.9638 B(  1-C ,  2-H ) :   0.9558 B(  1-C ,  3-C ) :   0.8340
B(  1-C , 11-O ) :   0.7831 B(  3-C ,  4-H ) :   0.9586 B(  3-C ,  5-C ) :   0.8815
B(  3-C , 15-O ) :   0.8459 B(  5-C ,  6-H ) :   0.9768 B(  5-C ,  7-C ) :   0.8967
B(  5-C , 14-O ) :   1.0521 B(  7-C ,  8-H ) :   0.9357 B(  7-C ,  9-C ) :   0.8166
B(  7-C , 13-O ) :   0.8686 B(  9-C , 10-H ) :   1.0056 B(  9-C , 11-O ) :   0.9299
B(  9-C , 12-O ) :   1.1363 B( 12-O , 19-H ) :   0.8753 B( 13-O , 20-H ) :   0.8729
B( 14-O , 21-H ) :   0.8849 B( 15-O , 22-H ) :   0.8743 B( 16-O , 23-H ) :   0.8760

Dispersion correction           -0.007987891
FINAL SINGLE POINT ENERGY      -687.075396881107

DIPOLE MOMENT
-------------

Method             : SCF
Type of density    : Electron Density
Multiplicity       :   1
Irrep              :   0
Energy             :  -687.0866916690708877 Eh
Relativity type    :
Basis              : AO
                                X                 Y                 Z
Electronic contribution:      2.120821261      -1.243860167       0.808829424
Nuclear contribution   :     -1.615954888       2.136395970      -1.954318251
                        -----------------------------------------
Total Dipole Moment    :      0.504866372       0.892535803      -1.145488827
                        -----------------------------------------
Magnitude (a.u.)       :      1.537418247
Magnitude (Debye)      :      3.907806626

Rotational constants in cm-1:             0.039073             0.026025             0.016361
Rotational constants in MHz :          1171.383167           780.211329           490.490077

                             ****ORCA TERMINATED NORMALLY****
TOTAL RUN TIME: 0 days 0 hours 0 minutes 48 seconds 204 msec
