                         Program Version 6.0.0  -   RELEASE  -
|  1> ! r2scan-3c def2/J RI DEFGRID2 scfconv6 printgap
|  2> %output
|  3>     printlevel normal
|  4> end
|  5> %cpcm
|  6>     smd true
|  7>     smdsolvent "water"
|  8> end
|  9> * xyz 0 1
| 10> C -2.5623883398 -0.6731554552 -0.3153859236
| 11> C -1.1804594665 -0.2931066649 0.2254849052
| 12> H -1.2238500614 -0.2431380783 1.3237426104
| 13> C -0.7225914072 1.0692969203 -0.3122750703
| 14> H -0.7465211497 1.0322285598 -1.4153514562
| 15> C 0.7175543744 1.3378103676 0.1483427753
| 16> H 0.7232991804 1.4662662917 1.2370949796
| 17> C 1.6362777707 0.1617012078 -0.2136457475
| 18> H 1.708266 0.0820961063 -1.3124796727
| 19> C 1.0299447627 -1.1508944556 0.3241837168
| 20> H 1.0237861864 -1.1089507693 1.4249830381
| 21> O -0.2807293814 -1.3104936702 -0.1764533893
| 22> O 1.7551520946 -2.2695720781 -0.0114842803
| 23> O 2.9132884821 0.3188986712 0.34539982
| 24> O 1.2097203556 2.5515829992 -0.3680218378
| 25> O -1.6037846822 2.0552148888 0.155990794
| 26> O -3.0722015208 -1.8286278529 0.2936090202
| 27> H -2.4877811386 -0.8073549024 -1.4019115745
| 28> H -3.2593598878 0.1360102907 -0.0935921673
| 29> H 1.7253956373 -2.4089442767 -0.9717883155
| 30> H 3.1917695728 1.2424384384 0.2322878746
| 31> H 1.2248234308 2.517755758 -1.33707657
| 32> H -1.1806287552 2.9241786941 0.0622622629
| 33> H -2.4362034251 -2.5477645379 0.1649372094
| 34> *
| 35>
| 36>                          ****END OF INPUT****

CARTESIAN COORDINATES (ANGSTROEM)
---------------------------------
  C     -2.562388   -0.673155   -0.315386
  C     -1.180459   -0.293107    0.225485
  H     -1.223850   -0.243138    1.323743
  C     -0.722591    1.069297   -0.312275
  H     -0.746521    1.032229   -1.415351
  C      0.717554    1.337810    0.148343
  H      0.723299    1.466266    1.237095
  C      1.636278    0.161701   -0.213646
  H      1.708266    0.082096   -1.312480
  C      1.029945   -1.150894    0.324184
  H      1.023786   -1.108951    1.424983
  O     -0.280729   -1.310494   -0.176453
  O      1.755152   -2.269572   -0.011484
  O      2.913288    0.318899    0.345400
  O      1.209720    2.551583   -0.368022
  O     -1.603785    2.055215    0.155991
  O     -3.072202   -1.828628    0.293609
  H     -2.487781   -0.807355   -1.401912
  H     -3.259360    0.136010   -0.093592
  H      1.725396   -2.408944   -0.971788
  H      3.191770    1.242438    0.232288
  H      1.224823    2.517756   -1.337077
  H     -1.180629    2.924179    0.062262
  H     -2.436203   -2.547765    0.164937

 Total Charge           Charge          ....    0
 Multiplicity           Mult            ....    1
 Number of Electrons    NEL             ....   96
 Basis Dimension        Dim             ....  318

ORBITAL ENERGIES
----------------

  NO   OCC          E(Eh)            E(eV)
   0   2.0000     -18.974670      -516.3270
   1   2.0000     -18.970042      -516.2011
   2   2.0000     -18.965201      -516.0694
   3   2.0000     -18.960819      -515.9501
   4   2.0000     -18.960636      -515.9451
   5   2.0000     -18.956436      -515.8309
   6   2.0000     -10.138148      -275.8730
   7   2.0000     -10.088837      -274.5312
   8   2.0000     -10.088083      -274.5107
   9   2.0000     -10.087400      -274.4921
  10   2.0000     -10.086259      -274.4611
  11   2.0000     -10.076244      -274.1885
  12   2.0000      -1.054172       -28.6855
  13   2.0000      -1.015741       -27.6397
  14   2.0000      -1.004132       -27.3238
  15   2.0000      -0.995581       -27.0911
  16   2.0000      -0.985949       -26.8290
  17   2.0000      -0.982208       -26.7272
  18   2.0000      -0.748455       -20.3665
  19   2.0000      -0.733556       -19.9611
  20   2.0000      -0.654364       -17.8062
  21   2.0000      -0.614484       -16.7210
  22   2.0000      -0.595815       -16.2129
  23   2.0000      -0.569508       -15.4971
  24   2.0000      -0.517900       -14.0928
  25   2.0000      -0.508783       -13.8447
  26   2.0000      -0.491940       -13.3864
  27   2.0000      -0.474626       -12.9152
  28   2.0000      -0.466916       -12.7054
  29   2.0000      -0.449236       -12.2243
  30   2.0000      -0.443635       -12.0719
  31   2.0000      -0.432532       -11.7698
  32   2.0000      -0.413409       -11.2494
  33   2.0000      -0.395701       -10.7676
  34   2.0000      -0.382529       -10.4092
  35   2.0000      -0.365759        -9.9528
  36   2.0000      -0.348522        -9.4838
  37   2.0000      -0.343725        -9.3532
  38   2.0000      -0.328775        -8.9464
  39   2.0000      -0.323912        -8.8141
  40   2.0000      -0.313289        -8.5250
  41   2.0000      -0.304149        -8.2763
  42   2.0000      -0.284437        -7.7399
  43   2.0000      -0.262314        -7.1379
  44   2.0000      -0.261182        -7.1071
  45   2.0000      -0.247151        -6.7253
  46   2.0000      -0.237203        -6.4546
  47   2.0000      -0.230963        -6.2848
  48   0.0000       0.039836         1.0840
  49   0.0000       0.065970         1.7951
  50   0.0000       0.079120         2.1530
  51   0.0000       0.088072         2.3966
  52   0.0000       0.094894         2.5822

MULLIKEN ATOMIC CHARGES
-----------------------
   0 C :   -0.282682
   1 C :   -0.058161
   2 H :    0.200897
   3 C :    0.038511
   4 H :    0.189517
   5 C :   -0.097107
   6 H :    0.196257
   7 C :    0.085469
   8 H :    0.186483
   9 C :   -0.126285
  10 H :    0.177279
  11 O :   -0.245294
  12 O :   -0.427281
  13 O :   -0.491230
  14 O :   -0.480735
  15 O :   -0.500830
  16 O :   -0.486728
  17 H :    0.161449
  18 H :    0.174143
  19 H :    0.368807
  20 H :    0.352662
  21 H :    0.356743
  22 H :    0.351902
  23 H :    0.356215
Sum of atomic charges:   -0.0000000

LOEWDIN ATOMIC CHARGES
----------------------
   0 C :    0.040197
   1 C :    0.118911
   2 H :    0.196212
   3 C :    0.108545
   4 H :    0.189822
   5 C :    0.098824
   6 H :    0.208591
   7 C :    0.111175
   8 H :    0.191063
   9 C :    0.297352
  10 H :    0.207470
  11 O :   -0.698252
  12 O :   -0.499794
  13 O :   -0.597552
  14 O :   -0.589606
  15 O :   -0.609261
  16 O :   -0.623280
  17 H :    0.177255
  18 H :    0.197426
  19 H :    0.299696
  20 H :    0.297003
  21 H :    0.293506
  22 H :    0.296070
  23 H :    0.288629

  Mayer bond orders larger than 0.100000
B(  0-C ,  1-C ) :   0.9262 B(  0-C , 16-O ) :   0.9899 B(  0-C , 17-H ) :   0.9830
B(  0-C , 18-H ) :   0.9639 B(  1-C ,  2-H ) :   0.9483 B(  1-C ,  3-C ) :   0.8620
B(  1-C , 11-O ) :   0.7864 B(  3-C ,  4-H ) :   0.9522 B(  3-C ,  5-C ) :   0.8864
B(  3-C , 15-O ) :   0.8404 B(  5-C ,  6-H ) :   0.9692 B(  5-C ,  7-C ) :   0.9009
B(  5-C , 14-O ) :   1.0357 B(  7-C ,  8-H ) :   0.9369 B(  7-C ,  9-C ) :   0.8365
B(  7-C , 13-O ) :   0.8601 B(  9-C , 10-H ) :   0.9905 B(  9-C , 11-O ) :   0.9293
B(  9-C , 12-O ) :   1.1131 B( 12-O , 19-H ) :   0.8462 B( 13-O , 20-H ) :   0.8546
B( 14-O , 21-H ) :   0.8601 B( 15-O , 22-H ) :   0.8562 B( 16-O , 23-H ) :   0.8544

Dispersion correction           -0.007987891
FINAL SINGLE POINT ENERGY      -687.112611874208

DIPOLE MOMENT
-------------

Method             : SCF
Type of density    : Electron Density
Multiplicity       :   1
Irrep              :   0
Energy             :  -687.1239066621716347 Eh
Relativity type    :
Basis              : AO
                                X                 Y                 Z
Electronic contribution:      2.287937473      -0.866448314       0.227402242
Nuclear contribution   :     -1.615954888       2.136395970      -1.954318251
                        -----------------------------------------
Total Dipole Moment    :      0.671982585       1.269947656      -1.726916009
                        -----------------------------------------
Magnitude (a.u.)       :      2.246456442
Magnitude (Debye)      :      5.710038491

Rotational constants in cm-1:             0.039073             0.026025             0.016361
Rotational constants in MHz :          1171.383167           780.211329           490.490077

                             ****ORCA TERMINATED NORMALLY****
TOTAL RUN TIME: 0 days 0 hours 0 minutes 56 seconds 502 msec
