                         Program Version 6.0.0  -   RELEASE  -
|  1> ! pbe def2-sv(p) def2/J RI DEFGRID1 loosescf d4 GCP(DFT/SV(P)) printgap
|  2> %output
|  3>     printlevel normal
|  4> end
|  5> * xyz 0 1
|  6> C -2.7407149061 -0.2854279989 -5.57808e-05
|  7> C -2.3666647356 1.0660450184 8.41065e-05
|  8> C -1.0454319204 1.4181848243 9.97644e-05
|  9> C -0.0286031178 0.4383303209 7.9663e-06
| 10> C -0.4091496995 -0.9320778114 -2.00948e-05
| 11> C -1.7822808239 -1.2585753137 -9.38987e-05
| 12> C 0.5802794601 -1.935729838 3.08978e-05
| 13> C 1.9053040886 -1.600663584 6.79711e-05
| 14> C 2.2960935962 -0.2587061403 2.17014e-05
| 15> C 1.3600072479 0.7495284753 -7.4346e-06
| 16> O 1.8257801767 2.0274314678 -7.54058e-05
| 17> H -3.7879651466 -0.5473264864 -0.0002446288
| 18> H -3.1302129429 1.829178598 0.0001056874
| 19> H -0.7920783889 2.4689943475 0.0001643607
| 20> H -2.0597778912 -2.302534455 -0.0002242508
| 21> H 0.2712904802 -2.9700495145 6.05425e-05
| 22> H 2.6654377854 -2.3668020296 8.05519e-05
| 23> H 3.3405251584 0.0113156029 -4.16867e-05
| 24> H 1.0987786998 2.6667938911 -0.0003147272
| 25> *
| 26>
| 27>                          ****END OF INPUT****

CARTESIAN COORDINATES (ANGSTROEM)
---------------------------------
  C     -2.740715   -0.285428   -0.000056
  C     -2.366665    1.066045    0.000084
  C     -1.045432    1.418185    0.000100
  C     -0.028603    0.438330    0.000008
  C     -0.409150   -0.932078   -0.000020
  C     -1.782281   -1.258575   -0.000094
  C      0.580279   -1.935730    0.000031
  C      1.905304   -1.600664    0.000068
  C      2.296094   -0.258706    0.000022
  C      1.360007    0.749528   -0.000007
  O      1.825780    2.027431   -0.000075
  H     -3.787965   -0.547326   -0.000245
  H     -3.130213    1.829179    0.000106
  H     -0.792078    2.468994    0.000164
  H     -2.059778   -2.302534   -0.000224
  H      0.271290   -2.970050    0.000061
  H      2.665438   -2.366802    0.000081
  H      3.340525    0.011316   -0.000042
  H      1.098779    2.666794   -0.000315

 Total Charge           Charge          ....    0
 Multiplicity           Mult            ....    1
 Number of Electrons    NEL             ....   76
 Basis Dimension        Dim             ....  170

ORBITAL ENERGIES
----------------

  NO   OCC          E(Eh)            E(eV)
   0   2.0000     -18.784980      -511.1653
   1   2.0000      -9.955903      -270.9139
   2   2.0000      -9.908113      -269.6135
   3   2.0000      -9.906057      -269.5575
   4   2.0000      -9.905415      -269.5400
   5   2.0000      -9.898758      -269.3589
   6   2.0000      -9.896902      -269.3084
   7   2.0000      -9.896295      -269.2919
   8   2.0000      -9.893808      -269.2242
   9   2.0000      -9.886498      -269.0253
  10   2.0000      -9.886346      -269.0211
  11   2.0000      -0.966767       -26.3071
  12   2.0000      -0.794876       -21.6297
  13   2.0000      -0.746061       -20.3014
  14   2.0000      -0.694419       -18.8961
  15   2.0000      -0.671357       -18.2685
  16   2.0000      -0.649135       -17.6639
  17   2.0000      -0.569858       -15.5066
  18   2.0000      -0.562263       -15.2999
  19   2.0000      -0.540853       -14.7173
  20   2.0000      -0.505750       -13.7621
  21   2.0000      -0.460291       -12.5252
  22   2.0000      -0.449032       -12.2188
  23   2.0000      -0.433976       -11.8091
  24   2.0000      -0.404309       -11.0018
  25   2.0000      -0.392259       -10.6739
  26   2.0000      -0.379807       -10.3351
  27   2.0000      -0.375926       -10.2295
  28   2.0000      -0.356924        -9.7124
  29   2.0000      -0.335269        -9.1231
  30   2.0000      -0.332117        -9.0374
  31   2.0000      -0.329266        -8.9598
  32   2.0000      -0.301474        -8.2035
  33   2.0000      -0.293805        -7.9948
  34   2.0000      -0.289731        -7.8840
  35   2.0000      -0.243885        -6.6365
  36   2.0000      -0.227875        -6.2008
  37   2.0000      -0.182216        -4.9583
  38   0.0000      -0.066523        -1.8102
  39   0.0000      -0.041693        -1.1345
  40   0.0000       0.002179         0.0593
  41   0.0000       0.012389         0.3371
  42   0.0000       0.047278         1.2865

MULLIKEN ATOMIC CHARGES
-----------------------
   0 C :   -0.037654
   1 C :   -0.051683
   2 C :   -0.183132
   3 C :    0.129768
   4 C :    0.146461
   5 C :   -0.129883
   6 C :   -0.131753
   7 C :   -0.031583
   8 C :   -0.145056
   9 C :    0.139915
  10 O :   -0.323661
  11 H :    0.053586
  12 H :    0.051663
  13 H :    0.020318
  14 H :    0.041683
  15 H :    0.033511
  16 H :    0.053407
  17 H :    0.043112
  18 H :    0.320983
Sum of atomic charges:    0.0000000

LOEWDIN ATOMIC CHARGES
----------------------
   0 C :   -0.125472
   1 C :   -0.124783
   2 C :   -0.126984
   3 C :   -0.056389
   4 C :   -0.019250
   5 C :   -0.105519
   6 C :   -0.139174
   7 C :   -0.114856
   8 C :   -0.156356
   9 C :    0.035249
  10 O :   -0.227188
  11 H :    0.125298
  12 H :    0.124717
  13 H :    0.112211
  14 H :    0.125256
  15 H :    0.122476
  16 H :    0.125893
  17 H :    0.131232
  18 H :    0.293639

  Mayer bond orders larger than 0.100000
B(  0-C ,  1-C ) :   1.2644 B(  0-C ,  5-C ) :   1.4587 B(  0-C , 11-H ) :   0.9629
B(  1-C ,  2-C ) :   1.5018 B(  1-C , 12-H ) :   0.9588 B(  2-C ,  3-C ) :   1.1886
B(  2-C , 13-H ) :   0.9466 B(  3-C ,  4-C ) :   1.2692 B(  3-C ,  9-C ) :   1.1540
B(  4-C ,  5-C ) :   1.2425 B(  4-C ,  6-C ) :   1.2410 B(  5-C , 14-H ) :   0.9646
B(  6-C ,  7-C ) :   1.4235 B(  6-C , 15-H ) :   0.9689 B(  7-C ,  8-C ) :   1.2541
B(  7-C , 16-H ) :   0.9648 B(  8-C ,  9-C ) :   1.4474 B(  8-C , 17-H ) :   0.9582
B(  9-C , 10-O ) :   1.2455 B( 10-O , 18-H ) :   0.8288

Dispersion correction           -0.023567173
FINAL SINGLE POINT ENERGY      -460.131048515290

DIPOLE MOMENT
-------------

Method             : SCF
Type of density    : Electron Density
Multiplicity       :   1
Irrep              :   0
Energy             :  -460.1826473817909573 Eh
Relativity type    :
Basis              : AO
                                X                 Y                 Z
Electronic contribution:      1.752442220       1.363094821       0.000183999
Nuclear contribution   :     -2.218943860      -1.105564020      -0.000389661
                        -----------------------------------------
Total Dipole Moment    :     -0.466501639       0.257530800      -0.000205663
                        -----------------------------------------
Magnitude (a.u.)       :      0.532865776
Magnitude (Debye)      :      1.354437163

Rotational constants in cm-1:             0.065721             0.037774             0.023987
Rotational constants in MHz :          1970.279456          1132.424126           719.112199

                             ****ORCA TERMINATED NORMALLY****
TOTAL RUN TIME: 0 days 0 hours 0 minutes 9 seconds 734 msec
