                         Program Version 6.0.0  -   RELEASE  -
|  1> ! wb97x-v def2-tzvp def2/J RIJCOSX DEFGRID2 scfconv7 GCP(DFT/TZ) printgap
|  2> %output
|  3>     printlevel normal
|  4> end
|  5> * xyz 0 1
|  6> C 2.0757000968418353 0.010394638124120257 -0.09354474087456593
|  7> C 0.7596154003362665 0.6606946076734508 0.32393156422567587
|  8> C -0.463020382783191 0.05205791218381787 -0.3456820865313999
|  9> H -0.3278533049152292 0.09271216596848063 -1.4383406860786228
| 10> C -1.745693548732133 0.7759360482135181 0.030308373428728448
| 11> O -0.5292310922195316 -1.3377113611851388 0.06054587310899372
| 12> H 2.208354655975232 0.060221898767975554 -1.1802327331532851
| 13> H 2.116146789923227 -1.0420067666649897 0.20233661227673116
| 14> H 2.926520446300972 0.5187762675794301 0.3708423898655039
| 15> H 0.7771548477163465 1.7274467001306215 0.07189579373384282
| 16> H 0.6292776696106209 0.5937491251067902 1.4124854093828247
| 17> H -2.6148705551021996 0.2842280723909357 -0.41952652002724944
| 18> H -1.8756486038514684 0.787474076019255 1.1180681934649905
| 19> H -1.719662364563738 1.8102494173966277 -0.32810134288541726
| 20> H -1.2978117009732377 -1.7252631815420691 -0.37733252385568655
| 21> *
| 22>
| 23>                          ****END OF INPUT****

CARTESIAN COORDINATES (ANGSTROEM)
---------------------------------
  C      2.075700    0.010395   -0.093545
  C      0.759615    0.660695    0.323932
  C     -0.463020    0.052058   -0.345682
  H     -0.327853    0.092712   -1.438341
  C     -1.745694    0.775936    0.030308
  O     -0.529231   -1.337711    0.060546
  H      2.208355    0.060222   -1.180233
  H      2.116147   -1.042007    0.202337
  H      2.926520    0.518776    0.370842
  H      0.777155    1.727447    0.071896
  H      0.629278    0.593749    1.412485
  H     -2.614871    0.284228   -0.419527
  H     -1.875649    0.787474    1.118068
  H     -1.719662    1.810249   -0.328101
  H     -1.297812   -1.725263   -0.377333

 Total Charge           Charge          ....    0
 Multiplicity           Mult            ....    1
 Number of Electrons    NEL             ....   42
 Basis Dimension        Dim             ....  215

ORBITAL ENERGIES
----------------

  NO   OCC          E(Eh)            E(eV)
   0   2.0000     -21.665376      -589.5449
   1   2.0000     -12.095333      -329.1307
   2   2.0000     -12.039062      -327.5995
   3   2.0000     -12.038204      -327.5762
   4   2.0000     -12.027297      -327.2794
   5   2.0000      -1.663757       -45.2731
   6   2.0000      -1.305252       -35.5177
   7   2.0000      -1.228020       -33.4161
   8   2.0000      -1.137766       -30.9602
   9   2.0000      -1.077276       -29.3142
  10   2.0000      -1.013840       -27.5880
  11   2.0000      -0.944810       -25.7096
  12   2.0000      -0.919927       -25.0325
  13   2.0000      -0.864834       -23.5333
  14   2.0000      -0.852173       -23.1888
  15   2.0000      -0.843824       -22.9616
  16   2.0000      -0.818257       -22.2659
  17   2.0000      -0.799117       -21.7451
  18   2.0000      -0.784911       -21.3585
  19   2.0000      -0.767126       -20.8746
  20   2.0000      -0.751809       -20.4578
  21   0.0000      -0.141556        -3.8519
  22   0.0000      -0.049623        -1.3503
  23   0.0000      -0.026292        -0.7154
  24   0.0000      -0.005587        -0.1520
  25   0.0000      -0.002892        -0.0787

MULLIKEN ATOMIC CHARGES
-----------------------
   0 C :   -0.336279
   1 C :   -0.148452
   2 C :    0.093044
   3 H :    0.062990
   4 C :   -0.348672
   5 O :   -0.451870
   6 H :    0.094316
   7 H :    0.128267
   8 H :    0.110315
   9 H :    0.085082
  10 H :    0.092086
  11 H :    0.102455
  12 H :    0.117402
  13 H :    0.106007
  14 H :    0.293310
Sum of atomic charges:    0.0000000

LOEWDIN ATOMIC CHARGES
----------------------
   0 C :   -0.304974
   1 C :   -0.272589
   2 C :   -0.368173
   3 H :    0.128895
   4 C :   -0.292350
   5 O :   -0.038381
   6 H :    0.115018
   7 H :    0.121366
   8 H :    0.114911
   9 H :    0.136045
  10 H :    0.136837
  11 H :    0.114405
  12 H :    0.122238
  13 H :    0.121550
  14 H :    0.165201

  Mayer bond orders larger than 0.100000
B(  0-C ,  1-C ) :   0.9902 B(  0-C ,  6-H ) :   0.9776 B(  0-C ,  7-H ) :   0.9796
B(  0-C ,  8-H ) :   0.9833 B(  1-C ,  2-C ) :   0.9827 B(  1-C ,  9-H ) :   0.9702
B(  1-C , 10-H ) :   0.9688 B(  2-C ,  3-H ) :   0.9666 B(  2-C ,  4-C ) :   0.9843
B(  2-C ,  5-O ) :   1.0037 B(  4-C , 11-H ) :   0.9800 B(  4-C , 12-H ) :   0.9767
B(  4-C , 13-H ) :   0.9741 B(  5-O , 14-H ) :   0.9076

FINAL SINGLE POINT ENERGY      -233.681438958589

DIPOLE MOMENT
-------------

Method             : SCF
Type of density    : Electron Density
Multiplicity       :   1
Irrep              :   0
Energy             :  -233.6920061155894075 Eh
Relativity type    :
Basis              : AO
                                X                 Y                 Z
Electronic contribution:     -1.188525517      -2.603675649       0.086026404
Nuclear contribution   :      0.777295454       2.929162552      -0.452725638
                        -----------------------------------------
Total Dipole Moment    :     -0.411230063       0.325486903      -0.366699234
                        -----------------------------------------
Magnitude (a.u.)       :      0.639937666
Magnitude (Debye)      :      1.626592281

Rotational constants in cm-1:             0.267180             0.114922             0.088843
Rotational constants in MHz :          8009.860560          3445.284652          2663.444186

                             ****ORCA TERMINATED NORMALLY****
TOTAL RUN TIME: 0 days 0 hours 1 minutes 2 seconds 173 msec
