                         Program Version 6.0.0  -   RELEASE  -
|  1> ! wb97x-v def2-tzvp def2/J RIJCOSX DEFGRID2 scfconv7 GCP(DFT/TZ) printgap
|  2> %output
|  3>     printlevel normal
|  4> end
|  5> %cpcm
|  6>     smd true
|  7>     smdsolvent "water"
|  8> end
|  9> * xyz 0 1
| 10> C 2.0757000968418353 0.010394638124120257 -0.09354474087456593
| 11> C 0.7596154003362665 0.6606946076734508 0.32393156422567587
| 12> C -0.463020382783191 0.05205791218381787 -0.3456820865313999
| 13> H -0.3278533049152292 0.09271216596848063 -1.4383406860786228
| 14> C -1.745693548732133 0.7759360482135181 0.030308373428728448
| 15> O -0.5292310922195316 -1.3377113611851388 0.06054587310899372
| 16> H 2.208354655975232 0.060221898767975554 -1.1802327331532851
| 17> H 2.116146789923227 -1.0420067666649897 0.20233661227673116
| 18> H 2.926520446300972 0.5187762675794301 0.3708423898655039
| 19> H 0.7771548477163465 1.7274467001306215 0.07189579373384282
| 20> H 0.6292776696106209 0.5937491251067902 1.4124854093828247
| 21> H -2.6148705551021996 0.2842280723909357 -0.41952652002724944
| 22> H -1.8756486038514684 0.787474076019255 1.1180681934649905
| 23> H -1.719662364563738 1.8102494173966277 -0.32810134288541726
| 24> H -1.2978117009732377 -1.7252631815420691 -0.37733252385568655
| 25> *
| 26>
| 27>                          ****END OF INPUT****

CARTESIAN COORDINATES (ANGSTROEM)
---------------------------------
  C      2.075700    0.010395   -0.093545
  C      0.759615    0.660695    0.323932
  C     -0.463020    0.052058   -0.345682
  H     -0.327853    0.092712   -1.438341
  C     -1.745694    0.775936    0.030308
  O     -0.529231   -1.337711    0.060546
  H      2.208355    0.060222   -1.180233
  H      2.116147   -1.042007    0.202337
  H      2.926520    0.518776    0.370842
  H      0.777155    1.727447    0.071896
  H      0.629278    0.593749    1.412485
  H     -2.614871    0.284228   -0.419527
  H     -1.875649    0.787474    1.118068
  H     -1.719662    1.810249   -0.328101
  H     -1.297812   -1.725263   -0.377333

 Total Charge           Charge          ....    0
 Multiplicity           Mult            ....    1
 Number of Electrons    NEL             ....   42
 Basis Dimension        Dim             ....  215

ORBITAL ENERGIES
----------------

  NO   OCC          E(Eh)            E(eV)
   0   2.0000     -21.668403      -589.6272
   1   2.0000     -12.089076      -328.9605
   2   2.0000     -12.033008      -327.4348
   3   2.0000     -12.026181      -327.2490
   4   2.0000     -12.025081      -327.2191
   5   2.0000      -1.667104       -45.3642
   6   2.0000      -1.299892       -35.3719
   7   2.0000      -1.221983       -33.2518
   8   2.0000      -1.133068       -30.8324
   9   2.0000      -1.075606       -29.2687
  10   2.0000      -1.014037       -27.5933
  11   2.0000      -0.946782       -25.7632
  12   2.0000      -0.920493       -25.0479
  13   2.0000      -0.861007       -23.4292
  14   2.0000      -0.848321       -23.0840
  15   2.0000      -0.839174       -22.8351
  16   2.0000      -0.808174       -21.9915
  17   2.0000      -0.792583       -21.5673
  18   2.0000      -0.779260       -21.2047
  19   2.0000      -0.763583       -20.7782
  20   2.0000      -0.746022       -20.3003
  21   0.0000      -0.136833        -3.7234
  22   0.0000      -0.029101        -0.7919
  23   0.0000      -0.019680        -0.5355
  24   0.0000       0.003054         0.0831
  25   0.0000       0.009879         0.2688

MULLIKEN ATOMIC CHARGES
-----------------------
   0 C :   -0.387193
   1 C :   -0.164156
   2 C :    0.104049
   3 H :    0.088961
   4 C :   -0.400434
   5 O :   -0.562636
   6 H :    0.118778
   7 H :    0.119299
   8 H :    0.130539
   9 H :    0.109498
  10 H :    0.102560
  11 H :    0.134760
  12 H :    0.122137
  13 H :    0.127989
  14 H :    0.355850
Sum of atomic charges:    0.0000000

LOEWDIN ATOMIC CHARGES
----------------------
   0 C :   -0.314706
   1 C :   -0.276491
   2 C :   -0.363336
   3 H :    0.136644
   4 C :   -0.294608
   5 O :   -0.079447
   6 H :    0.119360
   7 H :    0.115579
   8 H :    0.119004
   9 H :    0.142897
  10 H :    0.137023
  11 H :    0.122217
  12 H :    0.121959
  13 H :    0.127134
  14 H :    0.186772

  Mayer bond orders larger than 0.100000
B(  0-C ,  1-C ) :   0.9775 B(  0-C ,  6-H ) :   0.9760 B(  0-C ,  7-H ) :   0.9803
B(  0-C ,  8-H ) :   0.9810 B(  1-C ,  2-C ) :   0.9788 B(  1-C ,  9-H ) :   0.9679
B(  1-C , 10-H ) :   0.9665 B(  2-C ,  3-H ) :   0.9721 B(  2-C ,  4-C ) :   0.9931
B(  2-C ,  5-O ) :   0.9623 B(  4-C , 11-H ) :   0.9776 B(  4-C , 12-H ) :   0.9702
B(  4-C , 13-H ) :   0.9711 B(  5-O , 14-H ) :   0.8715

FINAL SINGLE POINT ENERGY      -233.688306502111

DIPOLE MOMENT
-------------

Method             : SCF
Type of density    : Electron Density
Multiplicity       :   1
Irrep              :   0
Energy             :  -233.6988736591110296 Eh
Relativity type    :
Basis              : AO
                                X                 Y                 Z
Electronic contribution:     -1.349918169      -2.412570458      -0.107683245
Nuclear contribution   :      0.777295454       2.929162552      -0.452725638
                        -----------------------------------------
Total Dipole Moment    :     -0.572622716       0.516592094      -0.560408883
                        -----------------------------------------
Magnitude (a.u.)       :      0.953321709
Magnitude (Debye)      :      2.423151215

Rotational constants in cm-1:             0.267180             0.114922             0.088843
Rotational constants in MHz :          8009.860560          3445.284652          2663.444186

                             ****ORCA TERMINATED NORMALLY****
TOTAL RUN TIME: 0 days 0 hours 1 minutes 9 seconds 206 msec
