                         Program Version 6.0.0  -   RELEASE  -
|  1> ! pbe def2-sv(p) def2/J RI DEFGRID1 loosescf d4 GCP(DFT/SV(P)) printgap
|  2> %output
|  3>     printlevel normal
|  4> end
|  5> * xyz 0 1
|  6> C -2.4017317431 -0.0914149707 0.4397970659
|  7> C -1.2518453242 -0.6660875123 -0.3849018197
|  8> C 0.0125553767 0.1278851135 -0.1781048904
|  9> O 0.0869684631 1.3381668406 -0.2182309815
| 10> O 1.0508324442 -0.66862945 0.0470452123
| 11> C 2.3455940955 -0.0915161134 0.2472402491
| 12> H -2.5162039219 0.9681505125 0.2253791512
| 13> H -3.3266835873 -0.6047520333 0.1974809903
| 14> H -2.2044301424 -0.2073971158 1.5022704858
| 15> H -1.5000113183 -0.6020639118 -1.4464392778
| 16> H -1.0553672156 -1.7063113758 -0.1294718341
| 17> H 2.6627480528 -0.3242290338 1.2622840129
| 18> H 2.2951713767 0.9881991362 0.1026021117
| 19> H 3.0205166381 -0.5462951507 -0.4747752534
| 20> *
| 21>
| 22>                          ****END OF INPUT****

CARTESIAN COORDINATES (ANGSTROEM)
---------------------------------
  C     -2.401732   -0.091415    0.439797
  C     -1.251845   -0.666088   -0.384902
  C      0.012555    0.127885   -0.178105
  O      0.086968    1.338167   -0.218231
  O      1.050832   -0.668629    0.047045
  C      2.345594   -0.091516    0.247240
  H     -2.516204    0.968151    0.225379
  H     -3.326684   -0.604752    0.197481
  H     -2.204430   -0.207397    1.502270
  H     -1.500011   -0.602064   -1.446439
  H     -1.055367   -1.706311   -0.129472
  H      2.662748   -0.324229    1.262284
  H      2.295171    0.988199    0.102602
  H      3.020517   -0.546295   -0.474775

 Total Charge           Charge          ....    0
 Multiplicity           Mult            ....    1
 Number of Electrons    NEL             ....   48
 Basis Dimension        Dim             ....  100

ORBITAL ENERGIES
----------------

  NO   OCC          E(Eh)            E(eV)
   0   2.0000     -18.799888      -511.5710
   1   2.0000     -18.731542      -509.7112
   2   2.0000     -10.005636      -272.2672
   3   2.0000      -9.939891      -270.4782
   4   2.0000      -9.899089      -269.3679
   5   2.0000      -9.882188      -268.9080
   6   2.0000      -1.004510       -27.3341
   7   2.0000      -0.909216       -24.7410
   8   2.0000      -0.713232       -19.4080
   9   2.0000      -0.659341       -17.9416
  10   2.0000      -0.572483       -15.5780
  11   2.0000      -0.503293       -13.6953
  12   2.0000      -0.449197       -12.2233
  13   2.0000      -0.436196       -11.8695
  14   2.0000      -0.419257       -11.4086
  15   2.0000      -0.399206       -10.8629
  16   2.0000      -0.376448       -10.2437
  17   2.0000      -0.359592        -9.7850
  18   2.0000      -0.329920        -8.9776
  19   2.0000      -0.322861        -8.7855
  20   2.0000      -0.307539        -8.3686
  21   2.0000      -0.294112        -8.0032
  22   2.0000      -0.255448        -6.9511
  23   2.0000      -0.220338        -5.9957
  24   0.0000      -0.019148        -0.5210
  25   0.0000       0.047546         1.2938
  26   0.0000       0.063460         1.7268
  27   0.0000       0.083179         2.2634
  28   0.0000       0.093217         2.5366

MULLIKEN ATOMIC CHARGES
-----------------------
   0 C :   -0.291850
   1 C :   -0.166188
   2 C :    0.097465
   3 O :   -0.205001
   4 O :   -0.238554
   5 C :   -0.133020
   6 H :    0.124456
   7 H :    0.107749
   8 H :    0.107873
   9 H :    0.118080
  10 H :    0.100249
  11 H :    0.122287
  12 H :    0.133941
  13 H :    0.122513
Sum of atomic charges:    0.0000000

LOEWDIN ATOMIC CHARGES
----------------------
   0 C :   -0.334063
   1 C :   -0.254479
   2 C :    0.036381
   3 O :   -0.172276
   4 O :   -0.074275
   5 C :   -0.209848
   6 H :    0.128197
   7 H :    0.121717
   8 H :    0.121758
   9 H :    0.143182
  10 H :    0.128271
  11 H :    0.120372
  12 H :    0.124374
  13 H :    0.120689

  Mayer bond orders larger than 0.100000
B(  0-C ,  1-C ) :   1.1437 B(  0-C ,  6-H ) :   0.9471 B(  0-C ,  7-H ) :   0.9529
B(  0-C ,  8-H ) :   0.9594 B(  1-C ,  2-C ) :   1.0148 B(  1-C ,  9-H ) :   0.8989
B(  1-C , 10-H ) :   0.9163 B(  2-C ,  3-O ) :   2.0648 B(  2-C ,  4-O ) :   1.2214
B(  4-O ,  5-C ) :   0.9358 B(  5-C , 11-H ) :   0.9607 B(  5-C , 12-H ) :   0.9286
B(  5-C , 13-H ) :   0.9608

Dispersion correction           -0.009034003
FINAL SINGLE POINT ENERGY      -307.026142668663

DIPOLE MOMENT
-------------

Method             : SCF
Type of density    : Electron Density
Multiplicity       :   1
Irrep              :   0
Energy             :  -307.0806723785556187 Eh
Relativity type    :
Basis              : AO
                                X                 Y                 Z
Electronic contribution:      2.711621845       1.261618118      -1.091752569
Nuclear contribution   :     -2.445109718      -1.898954819       1.160163814
                        -----------------------------------------
Total Dipole Moment    :      0.266512127      -0.637336701       0.068411245
                        -----------------------------------------
Magnitude (a.u.)       :      0.694195133
Magnitude (Debye)      :      1.764503801

Rotational constants in cm-1:             0.281593             0.072750             0.063094
Rotational constants in MHz :          8441.941160          2180.997911          1891.502662

                             ****ORCA TERMINATED NORMALLY****
TOTAL RUN TIME: 0 days 0 hours 0 minutes 6 seconds 814 msec
