                         Program Version 6.0.0  -   RELEASE  -
|  1> ! r2scan-3c def2/J RI DEFGRID2 scfconv6 printgap
|  2> %output
|  3>     printlevel normal
|  4> end
|  5> * xyz 0 1
|  6> C 4.4810960407 -0.283743633 -0.0355484233
|  7> C 3.6582912365 -1.1775415107 0.628706519
|  8> C 2.2906746567 -0.9691807501 0.6780702696
|  9> C 1.7465420228 0.1387924834 0.0431690383
| 10> C 2.5693808275 1.0433628288 -0.6182996252
| 11> C 3.9343208822 0.8292648108 -0.6535580857
| 12> N 0.3480942753 0.395787248 0.079665858
| 13> C -0.5878853425 -0.6301007616 -0.0802031738
| 14> O -0.237495454 -1.8005217897 -0.2688217684
| 15> C -1.942086772 -0.1902303286 -0.0247021276
| 16> C -2.3127205359 1.1321291684 0.1432860992
| 17> C -1.2074936781 2.0398017809 0.2529310693
| 18> N 0.0236321804 1.6709717153 0.2161567771
| 19> N -3.576279113 1.5537221861 0.1963063129
| 20> Cl -3.1474424353 -1.4368384679 -0.2086669558
| 21> H 5.5457498098 -0.4540416389 -0.0687016884
| 22> H 4.0785585607 -2.0415290226 1.1195793655
| 23> H 1.6508511212 -1.6646341002 1.1968352128
| 24> H 2.1287731521 1.9047705625 -1.0929055971
| 25> H 4.5709617064 1.5308457811 -1.1690569509
| 26> H -1.3717976331 3.0978583803 0.3752443234
| 27> H -3.7836174056 2.5293091408 0.3164812058
| 28> H -4.3157529839 0.8763692582 0.1121490569
| 29> *
| 30>
| 31>                          ****END OF INPUT****

CARTESIAN COORDINATES (ANGSTROEM)
---------------------------------
  C      4.481096   -0.283744   -0.035548
  C      3.658291   -1.177542    0.628707
  C      2.290675   -0.969181    0.678070
  C      1.746542    0.138792    0.043169
  C      2.569381    1.043363   -0.618300
  C      3.934321    0.829265   -0.653558
  N      0.348094    0.395787    0.079666
  C     -0.587885   -0.630101   -0.080203
  O     -0.237495   -1.800522   -0.268822
  C     -1.942087   -0.190230   -0.024702
  C     -2.312721    1.132129    0.143286
  C     -1.207494    2.039802    0.252931
  N      0.023632    1.670972    0.216157
  N     -3.576279    1.553722    0.196306
  Cl    -3.147442   -1.436838   -0.208667
  H      5.545750   -0.454042   -0.068702
  H      4.078559   -2.041529    1.119579
  H      1.650851   -1.664634    1.196835
  H      2.128773    1.904771   -1.092906
  H      4.570962    1.530846   -1.169057
  H     -1.371798    3.097858    0.375244
  H     -3.783617    2.529309    0.316481
  H     -4.315753    0.876369    0.112149

 Total Charge           Charge          ....    0
 Multiplicity           Mult            ....    1
 Number of Electrons    NEL             ....  114
 Basis Dimension        Dim             ....  353

ORBITAL ENERGIES
----------------

  NO   OCC          E(Eh)            E(eV)
   0   2.0000    -101.228946     -2754.5797
   1   2.0000     -18.907589      -514.5016
   2   2.0000     -14.260905      -388.0590
   3   2.0000     -14.217422      -386.8757
   4   2.0000     -14.212665      -386.7463
   5   2.0000     -10.138063      -275.8707
   6   2.0000     -10.121090      -275.4089
   7   2.0000     -10.102785      -274.9108
   8   2.0000     -10.091554      -274.6051
   9   2.0000     -10.082546      -274.3600
  10   2.0000     -10.039788      -273.1965
  11   2.0000     -10.038497      -273.1614
  12   2.0000     -10.037753      -273.1411
  13   2.0000     -10.036953      -273.1194
  14   2.0000     -10.036338      -273.1026
  15   2.0000      -9.383936      -255.3499
  16   2.0000      -7.130332      -194.0262
  17   2.0000      -7.120249      -193.7518
  18   2.0000      -7.119708      -193.7371
  19   2.0000      -1.046601       -28.4795
  20   2.0000      -0.975748       -26.5515
  21   2.0000      -0.941979       -25.6325
  22   2.0000      -0.857097       -23.3228
  23   2.0000      -0.837945       -22.8016
  24   2.0000      -0.814140       -22.1539
  25   2.0000      -0.751557       -20.4509
  26   2.0000      -0.722112       -19.6497
  27   2.0000      -0.721067       -19.6212
  28   2.0000      -0.644675       -17.5425
  29   2.0000      -0.642715       -17.4892
  30   2.0000      -0.584606       -15.9079
  31   2.0000      -0.582030       -15.8378
  32   2.0000      -0.560518       -15.2525
  33   2.0000      -0.523146       -14.2355
  34   2.0000      -0.515473       -14.0267
  35   2.0000      -0.483330       -13.1521
  36   2.0000      -0.468595       -12.7511
  37   2.0000      -0.460262       -12.5244
  38   2.0000      -0.437592       -11.9075
  39   2.0000      -0.421081       -11.4582
  40   2.0000      -0.407784       -11.0964
  41   2.0000      -0.402673       -10.9573
  42   2.0000      -0.394713       -10.7407
  43   2.0000      -0.384752       -10.4696
  44   2.0000      -0.377879       -10.2826
  45   2.0000      -0.356004        -9.6874
  46   2.0000      -0.346574        -9.4307
  47   2.0000      -0.333513        -9.0753
  48   2.0000      -0.319269        -8.6877
  49   2.0000      -0.307032        -8.3548
  50   2.0000      -0.294676        -8.0185
  51   2.0000      -0.284335        -7.7372
  52   2.0000      -0.265306        -7.2193
  53   2.0000      -0.240138        -6.5345
  54   2.0000      -0.223664        -6.0862
  55   2.0000      -0.215106        -5.8533
  56   2.0000      -0.206384        -5.6160
  57   0.0000      -0.085740        -2.3331
  58   0.0000      -0.037035        -1.0078
  59   0.0000      -0.032830        -0.8933
  60   0.0000      -0.017274        -0.4701
  61   0.0000       0.001153         0.0314

MULLIKEN ATOMIC CHARGES
-----------------------
   0 C :   -0.150499
   1 C :   -0.151067
   2 C :   -0.226018
   3 C :    0.080600
   4 C :   -0.245300
   5 C :   -0.135691
   6 N :    0.529204
   7 C :    0.115596
   8 O :   -0.434203
   9 C :   -0.183356
  10 C :    0.642482
  11 C :   -0.420608
  12 N :   -0.277044
  13 N :   -0.473738
  14 Cl:   -0.125461
  15 H :    0.147036
  16 H :    0.148839
  17 H :    0.177422
  18 H :    0.161117
  19 H :    0.148057
  20 H :    0.136119
  21 H :    0.261531
  22 H :    0.274983
Sum of atomic charges:    0.0000000

LOEWDIN ATOMIC CHARGES
----------------------
   0 C :   -0.161240
   1 C :   -0.156700
   2 C :   -0.088325
   3 C :    0.191113
   4 C :   -0.101219
   5 C :   -0.160058
   6 N :   -0.514788
   7 C :    0.372524
   8 O :   -0.484014
   9 C :   -0.110828
  10 C :    0.157671
  11 C :    0.146861
  12 N :   -0.341988
  13 N :   -0.548347
  14 Cl:    0.184101
  15 H :    0.167417
  16 H :    0.169950
  17 H :    0.195346
  18 H :    0.187004
  19 H :    0.168843
  20 H :    0.198537
  21 H :    0.262670
  22 H :    0.265468

  Mayer bond orders larger than 0.100000
B(  0-C ,  1-C ) :   1.4112 B(  0-C ,  5-C ) :   1.4104 B(  0-C , 15-H ) :   0.9457
B(  1-C ,  2-C ) :   1.3982 B(  1-C , 16-H ) :   0.9531 B(  2-C ,  3-C ) :   1.4720
B(  2-C , 17-H ) :   0.9159 B(  3-C ,  4-C ) :   1.3648 B(  3-C ,  6-N ) :   0.9835
B(  4-C ,  5-C ) :   1.3757 B(  4-C , 18-H ) :   0.9430 B(  5-C , 19-H ) :   0.9484
B(  6-N ,  7-C ) :   1.0213 B(  6-N , 11-C ) :   0.1619 B(  6-N , 12-N ) :   1.2744
B(  7-C ,  8-O ) :   1.9000 B(  7-C ,  9-C ) :   0.9735 B(  9-C , 10-C ) :   1.2989
B(  9-C , 13-N ) :   0.1299 B(  9-C , 14-Cl) :   1.0906 B( 10-C , 11-C ) :   0.9044
B( 10-C , 13-N ) :   1.0168 B( 11-C , 12-N ) :   1.6071 B( 11-C , 20-H ) :   1.0010
B( 13-N , 21-H ) :   0.9275 B( 13-N , 22-H ) :   0.9086

Dispersion correction           -0.010498700
FINAL SINGLE POINT ENERGY     -1085.383310197544

DIPOLE MOMENT
-------------

Method             : SCF
Type of density    : Electron Density
Multiplicity       :   1
Irrep              :   0
Energy             : -1085.3891324031749264 Eh
Relativity type    :
Basis              : AO
                                X                 Y                 Z
Electronic contribution:    -13.092271225      -5.503767114      -0.730474677
Nuclear contribution   :     12.181357863       7.343450004       1.019606787
                        -----------------------------------------
Total Dipole Moment    :     -0.910913362       1.839682890       0.289132110
                        -----------------------------------------
Magnitude (a.u.)       :      2.073112073
Magnitude (Debye)      :      5.269432120

Rotational constants in cm-1:             0.044130             0.010718             0.008903
Rotational constants in MHz :          1322.983908           321.307830           266.893952

                             ****ORCA TERMINATED NORMALLY****
TOTAL RUN TIME: 0 days 0 hours 0 minutes 47 seconds 173 msec
