                         Program Version 6.0.0  -   RELEASE  -
|  1> ! r2scan-3c def2/J RI DEFGRID2 scfconv6 printgap
|  2> %output
|  3>     printlevel normal
|  4> end
|  5> %cpcm
|  6>     smd true
|  7>     smdsolvent "water"
|  8> end
|  9> * xyz 0 1
| 10> C 4.4810960407 -0.283743633 -0.0355484233
| 11> C 3.6582912365 -1.1775415107 0.628706519
| 12> C 2.2906746567 -0.9691807501 0.6780702696
| 13> C 1.7465420228 0.1387924834 0.0431690383
| 14> C 2.5693808275 1.0433628288 -0.6182996252
| 15> C 3.9343208822 0.8292648108 -0.6535580857
| 16> N 0.3480942753 0.395787248 0.079665858
| 17> C -0.5878853425 -0.6301007616 -0.0802031738
| 18> O -0.237495454 -1.8005217897 -0.2688217684
| 19> C -1.942086772 -0.1902303286 -0.0247021276
| 20> C -2.3127205359 1.1321291684 0.1432860992
| 21> C -1.2074936781 2.0398017809 0.2529310693
| 22> N 0.0236321804 1.6709717153 0.2161567771
| 23> N -3.576279113 1.5537221861 0.1963063129
| 24> Cl -3.1474424353 -1.4368384679 -0.2086669558
| 25> H 5.5457498098 -0.4540416389 -0.0687016884
| 26> H 4.0785585607 -2.0415290226 1.1195793655
| 27> H 1.6508511212 -1.6646341002 1.1968352128
| 28> H 2.1287731521 1.9047705625 -1.0929055971
| 29> H 4.5709617064 1.5308457811 -1.1690569509
| 30> H -1.3717976331 3.0978583803 0.3752443234
| 31> H -3.7836174056 2.5293091408 0.3164812058
| 32> H -4.3157529839 0.8763692582 0.1121490569
| 33> *
| 34>
| 35>                          ****END OF INPUT****

CARTESIAN COORDINATES (ANGSTROEM)
---------------------------------
  C      4.481096   -0.283744   -0.035548
  C      3.658291   -1.177542    0.628707
  C      2.290675   -0.969181    0.678070
  C      1.746542    0.138792    0.043169
  C      2.569381    1.043363   -0.618300
  C      3.934321    0.829265   -0.653558
  N      0.348094    0.395787    0.079666
  C     -0.587885   -0.630101   -0.080203
  O     -0.237495   -1.800522   -0.268822
  C     -1.942087   -0.190230   -0.024702
  C     -2.312721    1.132129    0.143286
  C     -1.207494    2.039802    0.252931
  N      0.023632    1.670972    0.216157
  N     -3.576279    1.553722    0.196306
  Cl    -3.147442   -1.436838   -0.208667
  H      5.545750   -0.454042   -0.068702
  H      4.078559   -2.041529    1.119579
  H      1.650851   -1.664634    1.196835
  H      2.128773    1.904771   -1.092906
  H      4.570962    1.530846   -1.169057
  H     -1.371798    3.097858    0.375244
  H     -3.783617    2.529309    0.316481
  H     -4.315753    0.876369    0.112149

 Total Charge           Charge          ....    0
 Multiplicity           Mult            ....    1
 Number of Electrons    NEL             ....  114
 Basis Dimension        Dim             ....  353

ORBITAL ENERGIES
----------------

  NO   OCC          E(Eh)            E(eV)
   0   2.0000    -101.233134     -2754.6936
   1   2.0000     -18.925820      -514.9977
   2   2.0000     -14.263253      -388.1229
   3   2.0000     -14.216512      -386.8509
   4   2.0000     -14.193790      -386.2327
   5   2.0000     -10.149185      -276.1734
   6   2.0000     -10.116239      -275.2768
   7   2.0000     -10.101846      -274.8852
   8   2.0000     -10.087521      -274.4954
   9   2.0000     -10.084920      -274.4246
  10   2.0000     -10.041779      -273.2507
  11   2.0000     -10.041764      -273.2503
  12   2.0000     -10.039327      -273.1840
  13   2.0000     -10.038953      -273.1738
  14   2.0000     -10.036837      -273.1162
  15   2.0000      -9.388325      -255.4693
  16   2.0000      -7.134607      -194.1425
  17   2.0000      -7.124670      -193.8721
  18   2.0000      -7.124137      -193.8576
  19   2.0000      -1.050448       -28.5841
  20   2.0000      -0.991810       -26.9885
  21   2.0000      -0.927000       -25.2250
  22   2.0000      -0.857936       -23.3456
  23   2.0000      -0.840537       -22.8722
  24   2.0000      -0.816071       -22.2064
  25   2.0000      -0.751864       -20.4593
  26   2.0000      -0.725131       -19.7318
  27   2.0000      -0.721525       -19.6337
  28   2.0000      -0.643351       -17.5065
  29   2.0000      -0.639342       -17.3974
  30   2.0000      -0.583796       -15.8859
  31   2.0000      -0.580874       -15.8064
  32   2.0000      -0.552823       -15.0431
  33   2.0000      -0.523469       -14.2443
  34   2.0000      -0.505123       -13.7451
  35   2.0000      -0.470801       -12.8111
  36   2.0000      -0.463846       -12.6219
  37   2.0000      -0.462415       -12.5830
  38   2.0000      -0.436024       -11.8648
  39   2.0000      -0.422640       -11.5006
  40   2.0000      -0.412100       -11.2138
  41   2.0000      -0.407090       -11.0775
  42   2.0000      -0.398381       -10.8405
  43   2.0000      -0.392819       -10.6891
  44   2.0000      -0.377094       -10.2612
  45   2.0000      -0.362906        -9.8752
  46   2.0000      -0.351445        -9.5633
  47   2.0000      -0.333607        -9.0779
  48   2.0000      -0.319901        -8.7049
  49   2.0000      -0.311292        -8.4707
  50   2.0000      -0.299967        -8.1625
  51   2.0000      -0.288602        -7.8533
  52   2.0000      -0.267352        -7.2750
  53   2.0000      -0.246487        -6.7073
  54   2.0000      -0.237226        -6.4552
  55   2.0000      -0.218773        -5.9531
  56   2.0000      -0.212324        -5.7776
  57   0.0000      -0.083515        -2.2725
  58   0.0000      -0.041766        -1.1365
  59   0.0000      -0.038088        -1.0364
  60   0.0000      -0.019526        -0.5313
  61   0.0000      -0.000580        -0.0158

MULLIKEN ATOMIC CHARGES
-----------------------
   0 C :   -0.179338
   1 C :   -0.179581
   2 C :   -0.275920
   3 C :    0.070366
   4 C :   -0.272766
   5 C :   -0.169513
   6 N :    0.563089
   7 C :    0.119841
   8 O :   -0.534996
   9 C :   -0.197483
  10 C :    0.648020
  11 C :   -0.373082
  12 N :   -0.324150
  13 N :   -0.515438
  14 Cl:   -0.149601
  15 H :    0.182404
  16 H :    0.183359
  17 H :    0.195618
  18 H :    0.190535
  19 H :    0.184054
  20 H :    0.188624
  21 H :    0.326396
  22 H :    0.319562
Sum of atomic charges:    0.0000000

LOEWDIN ATOMIC CHARGES
----------------------
   0 C :   -0.167081
   1 C :   -0.163178
   2 C :   -0.108134
   3 C :    0.178207
   4 C :   -0.109612
   5 C :   -0.162358
   6 N :   -0.519024
   7 C :    0.370756
   8 O :   -0.572945
   9 C :   -0.120661
  10 C :    0.171578
  11 C :    0.178255
  12 N :   -0.354469
  13 N :   -0.503837
  14 Cl:    0.166073
  15 H :    0.179535
  16 H :    0.181546
  17 H :    0.198777
  18 H :    0.196390
  19 H :    0.181661
  20 H :    0.220416
  21 H :    0.282655
  22 H :    0.275450

  Mayer bond orders larger than 0.100000
B(  0-C ,  1-C ) :   1.3801 B(  0-C ,  5-C ) :   1.3770 B(  0-C , 15-H ) :   0.9519
B(  1-C ,  2-C ) :   1.3693 B(  1-C , 16-H ) :   0.9589 B(  2-C ,  3-C ) :   1.4036
B(  2-C , 17-H ) :   0.9377 B(  3-C ,  4-C ) :   1.3190 B(  3-C ,  6-N ) :   0.9608
B(  4-C ,  5-C ) :   1.3535 B(  4-C , 18-H ) :   0.9582 B(  5-C , 19-H ) :   0.9551
B(  6-N ,  7-C ) :   1.0465 B(  6-N , 11-C ) :   0.1531 B(  6-N , 12-N ) :   1.2570
B(  7-C ,  8-O ) :   1.8489 B(  7-C ,  9-C ) :   1.0028 B(  9-C , 10-C ) :   1.2583
B(  9-C , 13-N ) :   0.1432 B(  9-C , 14-Cl) :   1.0463 B( 10-C , 11-C ) :   0.9415
B( 10-C , 13-N ) :   1.0458 B( 11-C , 12-N ) :   1.6179 B( 11-C , 20-H ) :   0.9673
B( 13-N , 21-H ) :   0.8970 B( 13-N , 22-H ) :   0.8926

Dispersion correction           -0.010498700
FINAL SINGLE POINT ENERGY     -1085.404972750826

DIPOLE MOMENT
-------------

Method             : SCF
Type of density    : Electron Density
Multiplicity       :   1
Irrep              :   0
Energy             : -1085.4107949564568116 Eh
Relativity type    :
Basis              : AO
                                X                 Y                 Z
Electronic contribution:    -13.637029549      -4.346148490      -0.576291497
Nuclear contribution   :     12.181357863       7.343450004       1.019606787
                        -----------------------------------------
Total Dipole Moment    :     -1.455671686       2.997301514       0.443315291
                        -----------------------------------------
Magnitude (a.u.)       :      3.361446842
Magnitude (Debye)      :      8.544118859

Rotational constants in cm-1:             0.044130             0.010718             0.008903
Rotational constants in MHz :          1322.983908           321.307830           266.893952

                             ****ORCA TERMINATED NORMALLY****
TOTAL RUN TIME: 0 days 0 hours 1 minutes 7 seconds 735 msec
