                         Program Version 6.0.0  -   RELEASE  -
|  1> ! pbe def2-sv(p) def2/J RI DEFGRID1 loosescf d4 GCP(DFT/SV(P)) printgap
|  2> %output
|  3>     printlevel normal
|  4> end
|  5> * xyz 0 1
|  6> C -1.8821243306 -1.0079391284 -0.7536211086
|  7> C -1.2824450621 -0.163888288 0.3861698761
|  8> H -2.05879876 -0.0141273148 1.143448373
|  9> C -0.7872078653 1.2135359743 -0.1248086478
| 10> H -0.9174403225 1.260183799 -1.2132294163
| 11> C 0.7067472119 1.3615868306 0.1936957405
| 12> H 0.8548871801 1.416792436 1.2792650807
| 13> C 1.4400338923 0.1150773356 -0.329788959
| 14> H 1.2217824872 -0.0105351139 -1.4035047324
| 15> C 0.923501682 -1.1237469546 0.4333539252
| 16> H 1.6424378434 -1.3554705747 1.2313718596
| 17> O -0.2720689242 -0.8678953332 1.1066855102
| 18> O 0.7491434134 -2.2283037689 -0.4148754328
| 19> O 2.8267188107 0.2133727794 -0.1341114946
| 20> O 1.2787363744 2.5338120189 -0.3253630119
| 21> O -1.5544600986 2.2802413476 0.3635803754
| 22> O -2.3316278654 -2.2579901109 -0.3021321138
| 23> H -1.140922246 -1.1371449609 -1.5521843715
| 24> H -2.7566962724 -0.4887390039 -1.1498903489
| 25> H 1.5927977681 -2.6745397198 -0.5691332562
| 26> H 3.0859392641 1.1411843157 -0.2647859966
| 27> H 0.9263690641 2.7163495012 -1.2086322035
| 28> H -1.4356335877 2.3693153411 1.3203373282
| 29> H -1.565391531 -2.7389320646 0.0471917012
| 30> *
| 31>
| 32>                          ****END OF INPUT****

CARTESIAN COORDINATES (ANGSTROEM)
---------------------------------
  C     -1.882124   -1.007939   -0.753621
  C     -1.282445   -0.163888    0.386170
  H     -2.058799   -0.014127    1.143448
  C     -0.787208    1.213536   -0.124809
  H     -0.917440    1.260184   -1.213229
  C      0.706747    1.361587    0.193696
  H      0.854887    1.416792    1.279265
  C      1.440034    0.115077   -0.329789
  H      1.221782   -0.010535   -1.403505
  C      0.923502   -1.123747    0.433354
  H      1.642438   -1.355471    1.231372
  O     -0.272069   -0.867895    1.106686
  O      0.749143   -2.228304   -0.414875
  O      2.826719    0.213373   -0.134111
  O      1.278736    2.533812   -0.325363
  O     -1.554460    2.280241    0.363580
  O     -2.331628   -2.257990   -0.302132
  H     -1.140922   -1.137145   -1.552184
  H     -2.756696   -0.488739   -1.149890
  H      1.592798   -2.674540   -0.569133
  H      3.085939    1.141184   -0.264786
  H      0.926369    2.716350   -1.208632
  H     -1.435634    2.369315    1.320337
  H     -1.565392   -2.738932    0.047192

 Total Charge           Charge          ....    0
 Multiplicity           Mult            ....    1
 Number of Electrons    NEL             ....   96
 Basis Dimension        Dim             ....  192

ORBITAL ENERGIES
----------------

  NO   OCC          E(Eh)            E(eV)
   0   2.0000     -18.777187      -510.9532
   1   2.0000     -18.772217      -510.8180
   2   2.0000     -18.771149      -510.7889
   3   2.0000     -18.758484      -510.4443
   4   2.0000     -18.755596      -510.3657
   5   2.0000     -18.733702      -509.7700
   6   2.0000      -9.994463      -271.9632
   7   2.0000      -9.954206      -270.8677
   8   2.0000      -9.952256      -270.8146
   9   2.0000      -9.945463      -270.6298
  10   2.0000      -9.945092      -270.6197
  11   2.0000      -9.927079      -270.1296
  12   2.0000      -0.989178       -26.9169
  13   2.0000      -0.957672       -26.0596
  14   2.0000      -0.938391       -25.5349
  15   2.0000      -0.924483       -25.1565
  16   2.0000      -0.923131       -25.1197
  17   2.0000      -0.908030       -24.7088
  18   2.0000      -0.711780       -19.3685
  19   2.0000      -0.694220       -18.8907
  20   2.0000      -0.621825       -16.9207
  21   2.0000      -0.593690       -16.1551
  22   2.0000      -0.575217       -15.6524
  23   2.0000      -0.526134       -14.3168
  24   2.0000      -0.518155       -14.0997
  25   2.0000      -0.500586       -13.6216
  26   2.0000      -0.472524       -12.8580
  27   2.0000      -0.458671       -12.4811
  28   2.0000      -0.444877       -12.1057
  29   2.0000      -0.433599       -11.7988
  30   2.0000      -0.424401       -11.5485
  31   2.0000      -0.403660       -10.9842
  32   2.0000      -0.400936       -10.9100
  33   2.0000      -0.380981       -10.3670
  34   2.0000      -0.366587        -9.9753
  35   2.0000      -0.354607        -9.6494
  36   2.0000      -0.323851        -8.8124
  37   2.0000      -0.315841        -8.5945
  38   2.0000      -0.310458        -8.4480
  39   2.0000      -0.297315        -8.0903
  40   2.0000      -0.285478        -7.7682
  41   2.0000      -0.275535        -7.4977
  42   2.0000      -0.269106        -7.3228
  43   2.0000      -0.249484        -6.7888
  44   2.0000      -0.233319        -6.3489
  45   2.0000      -0.229620        -6.2483
  46   2.0000      -0.217545        -5.9197
  47   2.0000      -0.198550        -5.4028
  48   0.0000       0.012990         0.3535
  49   0.0000       0.019240         0.5236
  50   0.0000       0.024077         0.6552
  51   0.0000       0.040485         1.1017
  52   0.0000       0.056403         1.5348

MULLIKEN ATOMIC CHARGES
-----------------------
   0 C :    0.026580
   1 C :    0.031973
   2 H :    0.069117
   3 C :    0.043354
   4 H :    0.052106
   5 C :    0.043025
   6 H :    0.061073
   7 C :    0.021378
   8 H :    0.042134
   9 C :    0.220503
  10 H :    0.073232
  11 O :   -0.304848
  12 O :   -0.410220
  13 O :   -0.420351
  14 O :   -0.409929
  15 O :   -0.405827
  16 O :   -0.442042
  17 H :    0.084795
  18 H :    0.095388
  19 H :    0.313372
  20 H :    0.304925
  21 H :    0.305289
  22 H :    0.303925
  23 H :    0.301048
Sum of atomic charges:    0.0000000

LOEWDIN ATOMIC CHARGES
----------------------
   0 C :   -0.141534
   1 C :   -0.074805
   2 H :    0.120754
   3 C :   -0.078593
   4 H :    0.110419
   5 C :   -0.089017
   6 H :    0.116917
   7 C :   -0.097895
   8 H :    0.096178
   9 C :    0.008164
  10 H :    0.108044
  11 O :   -0.130757
  12 O :   -0.320342
  13 O :   -0.325841
  14 O :   -0.306689
  15 O :   -0.309742
  16 O :   -0.336206
  17 H :    0.097999
  18 H :    0.119198
  19 H :    0.298881
  20 H :    0.281903
  21 H :    0.289622
  22 H :    0.287658
  23 H :    0.275687

  Mayer bond orders larger than 0.100000
B(  0-C ,  1-C ) :   1.0412 B(  0-C , 16-O ) :   1.0838 B(  0-C , 17-H ) :   0.8992
B(  0-C , 18-H ) :   0.9135 B(  1-C ,  2-H ) :   0.8870 B(  1-C ,  3-C ) :   0.9441
B(  1-C , 11-O ) :   1.0219 B(  3-C ,  4-H ) :   0.8702 B(  3-C ,  5-C ) :   1.0147
B(  3-C , 15-O ) :   1.0568 B(  5-C ,  6-H ) :   0.8576 B(  5-C ,  7-C ) :   0.9998
B(  5-C , 14-O ) :   1.0548 B(  7-C ,  8-H ) :   0.8648 B(  7-C ,  9-C ) :   0.9752
B(  7-C , 13-O ) :   1.0947 B(  9-C , 10-H ) :   0.8949 B(  9-C , 11-O ) :   1.0800
B(  9-C , 12-O ) :   1.0528 B( 12-O , 19-H ) :   0.8380 B( 13-O , 20-H ) :   0.8234
B( 14-O , 21-H ) :   0.8440 B( 15-O , 22-H ) :   0.8483 B( 16-O , 23-H ) :   0.8334

Dispersion correction           -0.024788034
FINAL SINGLE POINT ENERGY      -685.689664803031

DIPOLE MOMENT
-------------

Method             : SCF
Type of density    : Electron Density
Multiplicity       :   1
Irrep              :   0
Energy             :  -685.8201866049529372 Eh
Relativity type    :
Basis              : AO
                                X                 Y                 Z
Electronic contribution:      1.372356788      -0.113833433       1.950194233
Nuclear contribution   :     -0.506303877       0.449549334      -2.190727507
                        -----------------------------------------
Total Dipole Moment    :      0.866052912       0.335715902      -0.240533273
                        -----------------------------------------
Magnitude (a.u.)       :      0.959483751
Magnitude (Debye)      :      2.438813879

Rotational constants in cm-1:             0.040016             0.028522             0.018692
Rotational constants in MHz :          1199.647042           855.061833           560.367536

                             ****ORCA TERMINATED NORMALLY****
TOTAL RUN TIME: 0 days 0 hours 0 minutes 11 seconds 833 msec
