                         Program Version 6.0.0  -   RELEASE  -
|  1> ! r2scan-3c def2/J RI DEFGRID2 scfconv6 printgap
|  2> %output
|  3>     printlevel normal
|  4> end
|  5> * xyz 0 1
|  6> C -3.9190573187 1.4584563247 0.0234160242
|  7> C -3.3009623219 1.1104215865 1.2128368609
|  8> C -2.0019845927 0.633342962 1.2070041162
|  9> C -1.3136743517 0.4998774446 0.0075318872
| 10> C -1.9369871618 0.8494433431 -1.183991011
| 11> C -3.2353719758 1.3279337456 -1.1738999369
| 12> C 0.0726986458 -0.0209587009 -0.0009696408
| 13> C 1.150416144 0.8423015842 0.1528867834
| 14> C 2.4412740729 0.3432612984 0.1436142181
| 15> C 2.6875551024 -1.0108030832 -0.0149291818
| 16> C 1.6193713072 -1.877079371 -0.1677346632
| 17> C 0.3269872859 -1.3800618618 -0.1608275262
| 18> Cl -1.0110730332 -2.4730382161 -0.3524273843
| 19> Cl 3.7754693265 1.4382264384 0.335553907
| 20> H -4.9325728709 1.8297149369 0.0293627095
| 21> H -3.831503816 1.2090084342 2.1477574878
| 22> H -1.5162872114 0.3573979103 2.1311805078
| 23> H -1.4004920577 0.7425417732 -2.1150783351
| 24> H -3.7142203388 1.5980274032 -2.1028458534
| 25> H 0.9714027209 1.898199986 0.2776041301
| 26> H 3.6980268883 -1.3841142763 -0.0185019536
| 27> H 1.7884379085 -2.9339578352 -0.2914710407
| 28> *
| 29>
| 30>                          ****END OF INPUT****

CARTESIAN COORDINATES (ANGSTROEM)
---------------------------------
  C     -3.919057    1.458456    0.023416
  C     -3.300962    1.110422    1.212837
  C     -2.001985    0.633343    1.207004
  C     -1.313674    0.499877    0.007532
  C     -1.936987    0.849443   -1.183991
  C     -3.235372    1.327934   -1.173900
  C      0.072699   -0.020959   -0.000970
  C      1.150416    0.842302    0.152887
  C      2.441274    0.343261    0.143614
  C      2.687555   -1.010803   -0.014929
  C      1.619371   -1.877079   -0.167735
  C      0.326987   -1.380062   -0.160828
  Cl    -1.011073   -2.473038   -0.352427
  Cl     3.775469    1.438226    0.335554
  H     -4.932573    1.829715    0.029363
  H     -3.831504    1.209008    2.147757
  H     -1.516287    0.357398    2.131181
  H     -1.400492    0.742542   -2.115078
  H     -3.714220    1.598027   -2.102846
  H      0.971403    1.898200    0.277604
  H      3.698027   -1.384114   -0.018502
  H      1.788438   -2.933958   -0.291471

 Total Charge           Charge          ....    0
 Multiplicity           Mult            ....    1
 Number of Electrons    NEL             ....  114
 Basis Dimension        Dim             ....  322

ORBITAL ENERGIES
----------------

  NO   OCC          E(Eh)            E(eV)
   0   2.0000    -101.225718     -2754.4918
   1   2.0000    -101.223565     -2754.4332
   2   2.0000     -10.111037      -275.1353
   3   2.0000     -10.110299      -275.1152
   4   2.0000     -10.072057      -274.0746
   5   2.0000     -10.062539      -273.8156
   6   2.0000     -10.061412      -273.7849
   7   2.0000     -10.061044      -273.7749
   8   2.0000     -10.057009      -273.6651
   9   2.0000     -10.043726      -273.3037
  10   2.0000     -10.043660      -273.3019
  11   2.0000     -10.042692      -273.2755
  12   2.0000     -10.042584      -273.2726
  13   2.0000     -10.041593      -273.2456
  14   2.0000      -9.381658      -255.2879
  15   2.0000      -9.379394      -255.2263
  16   2.0000      -7.127873      -193.9593
  17   2.0000      -7.125702      -193.9002
  18   2.0000      -7.117918      -193.6884
  19   2.0000      -7.117456      -193.6758
  20   2.0000      -7.115734      -193.6290
  21   2.0000      -7.115031      -193.6098
  22   2.0000      -0.886105       -24.1121
  23   2.0000      -0.851313       -23.1654
  24   2.0000      -0.835471       -22.7343
  25   2.0000      -0.794897       -21.6302
  26   2.0000      -0.765198       -20.8221
  27   2.0000      -0.725171       -19.7329
  28   2.0000      -0.716838       -19.5061
  29   2.0000      -0.691512       -18.8170
  30   2.0000      -0.618111       -16.8197
  31   2.0000      -0.589502       -16.0412
  32   2.0000      -0.584914       -15.9163
  33   2.0000      -0.556881       -15.1535
  34   2.0000      -0.507435       -13.8080
  35   2.0000      -0.485872       -13.2212
  36   2.0000      -0.472037       -12.8448
  37   2.0000      -0.448171       -12.1954
  38   2.0000      -0.436354       -11.8738
  39   2.0000      -0.430311       -11.7093
  40   2.0000      -0.418259       -11.3814
  41   2.0000      -0.404904       -11.0180
  42   2.0000      -0.399277       -10.8649
  43   2.0000      -0.389865       -10.6088
  44   2.0000      -0.366971        -9.9858
  45   2.0000      -0.363421        -9.8892
  46   2.0000      -0.347893        -9.4666
  47   2.0000      -0.346881        -9.4391
  48   2.0000      -0.322866        -8.7856
  49   2.0000      -0.322396        -8.7729
  50   2.0000      -0.294915        -8.0251
  51   2.0000      -0.292842        -7.9686
  52   2.0000      -0.288863        -7.8604
  53   2.0000      -0.259898        -7.0722
  54   2.0000      -0.245382        -6.6772
  55   2.0000      -0.241357        -6.5677
  56   2.0000      -0.227383        -6.1874
  57   0.0000      -0.060233        -1.6390
  58   0.0000      -0.053488        -1.4555
  59   0.0000      -0.041711        -1.1350
  60   0.0000      -0.035828        -0.9749
  61   0.0000      -0.002490        -0.0678

MULLIKEN ATOMIC CHARGES
-----------------------
   0 C :   -0.126514
   1 C :   -0.162154
   2 C :   -0.184015
   3 C :    0.125136
   4 C :   -0.181500
   5 C :   -0.162711
   6 C :    0.069443
   7 C :   -0.285364
   8 C :    0.203672
   9 C :   -0.194623
  10 C :   -0.193925
  11 C :    0.108464
  12 Cl:   -0.126361
  13 Cl:   -0.144630
  14 H :    0.147930
  15 H :    0.146309
  16 H :    0.156306
  17 H :    0.156579
  18 H :    0.146277
  19 H :    0.172933
  20 H :    0.164550
  21 H :    0.164198
Sum of atomic charges:   -0.0000000

LOEWDIN ATOMIC CHARGES
----------------------
   0 C :   -0.161526
   1 C :   -0.156066
   2 C :   -0.139666
   3 C :   -0.084816
   4 C :   -0.139649
   5 C :   -0.156000
   6 C :   -0.076003
   7 C :   -0.140968
   8 C :   -0.165073
   9 C :   -0.164884
  10 C :   -0.157279
  11 C :   -0.149178
  12 Cl:    0.153317
  13 Cl:    0.129159
  14 H :    0.168044
  15 H :    0.168890
  16 H :    0.175739
  17 H :    0.175859
  18 H :    0.168890
  19 H :    0.188501
  20 H :    0.181108
  21 H :    0.181605

  Mayer bond orders larger than 0.100000
B(  0-C ,  1-C ) :   1.4214 B(  0-C ,  5-C ) :   1.4205 B(  0-C , 14-H ) :   0.9453
B(  1-C ,  2-C ) :   1.4322 B(  1-C , 15-H ) :   0.9490 B(  2-C ,  3-C ) :   1.4265
B(  2-C , 16-H ) :   0.9456 B(  3-C ,  4-C ) :   1.4252 B(  3-C ,  6-C ) :   0.7633
B(  4-C ,  5-C ) :   1.4337 B(  4-C , 17-H ) :   0.9449 B(  5-C , 18-H ) :   0.9490
B(  6-C ,  7-C ) :   1.4022 B(  6-C , 11-C ) :   1.3821 B(  7-C ,  8-C ) :   1.3837
B(  7-C , 19-H ) :   0.9378 B(  8-C ,  9-C ) :   1.3876 B(  8-C , 13-Cl) :   0.9123
B(  9-C , 10-C ) :   1.3692 B(  9-C , 20-H ) :   0.9415 B( 10-C , 11-C ) :   1.3445
B( 10-C , 21-H ) :   0.9416 B( 11-C , 12-Cl) :   1.0139

Dispersion correction           -0.010710937
FINAL SINGLE POINT ENERGY     -1382.333206393429

DIPOLE MOMENT
-------------

Method             : SCF
Type of density    : Electron Density
Multiplicity       :   1
Irrep              :   0
Energy             : -1382.3292725993114800 Eh
Relativity type    :
Basis              : AO
                                X                 Y                 Z
Electronic contribution:     11.841598007      -4.484797535      -0.085448364
Nuclear contribution   :    -12.095052482       4.500685644       0.077068993
                        -----------------------------------------
Total Dipole Moment    :     -0.253454475       0.015888109      -0.008379371
                        -----------------------------------------
Magnitude (a.u.)       :      0.254090174
Magnitude (Debye)      :      0.645845897

Rotational constants in cm-1:             0.029462             0.011477             0.009033
Rotational constants in MHz :           883.236172           344.078058           270.801671

                             ****ORCA TERMINATED NORMALLY****
TOTAL RUN TIME: 0 days 0 hours 0 minutes 49 seconds 562 msec
