                         Program Version 6.0.0  -   RELEASE  -
|  1> ! r2scan-3c def2/J RI DEFGRID2 scfconv6 printgap
|  2> %output
|  3>     printlevel normal
|  4> end
|  5> %cpcm
|  6>     smd true
|  7>     smdsolvent "water"
|  8> end
|  9> * xyz 0 1
| 10> C -3.9190573187 1.4584563247 0.0234160242
| 11> C -3.3009623219 1.1104215865 1.2128368609
| 12> C -2.0019845927 0.633342962 1.2070041162
| 13> C -1.3136743517 0.4998774446 0.0075318872
| 14> C -1.9369871618 0.8494433431 -1.183991011
| 15> C -3.2353719758 1.3279337456 -1.1738999369
| 16> C 0.0726986458 -0.0209587009 -0.0009696408
| 17> C 1.150416144 0.8423015842 0.1528867834
| 18> C 2.4412740729 0.3432612984 0.1436142181
| 19> C 2.6875551024 -1.0108030832 -0.0149291818
| 20> C 1.6193713072 -1.877079371 -0.1677346632
| 21> C 0.3269872859 -1.3800618618 -0.1608275262
| 22> Cl -1.0110730332 -2.4730382161 -0.3524273843
| 23> Cl 3.7754693265 1.4382264384 0.335553907
| 24> H -4.9325728709 1.8297149369 0.0293627095
| 25> H -3.831503816 1.2090084342 2.1477574878
| 26> H -1.5162872114 0.3573979103 2.1311805078
| 27> H -1.4004920577 0.7425417732 -2.1150783351
| 28> H -3.7142203388 1.5980274032 -2.1028458534
| 29> H 0.9714027209 1.898199986 0.2776041301
| 30> H 3.6980268883 -1.3841142763 -0.0185019536
| 31> H 1.7884379085 -2.9339578352 -0.2914710407
| 32> *
| 33>
| 34>                          ****END OF INPUT****

CARTESIAN COORDINATES (ANGSTROEM)
---------------------------------
  C     -3.919057    1.458456    0.023416
  C     -3.300962    1.110422    1.212837
  C     -2.001985    0.633343    1.207004
  C     -1.313674    0.499877    0.007532
  C     -1.936987    0.849443   -1.183991
  C     -3.235372    1.327934   -1.173900
  C      0.072699   -0.020959   -0.000970
  C      1.150416    0.842302    0.152887
  C      2.441274    0.343261    0.143614
  C      2.687555   -1.010803   -0.014929
  C      1.619371   -1.877079   -0.167735
  C      0.326987   -1.380062   -0.160828
  Cl    -1.011073   -2.473038   -0.352427
  Cl     3.775469    1.438226    0.335554
  H     -4.932573    1.829715    0.029363
  H     -3.831504    1.209008    2.147757
  H     -1.516287    0.357398    2.131181
  H     -1.400492    0.742542   -2.115078
  H     -3.714220    1.598027   -2.102846
  H      0.971403    1.898200    0.277604
  H      3.698027   -1.384114   -0.018502
  H      1.788438   -2.933958   -0.291471

 Total Charge           Charge          ....    0
 Multiplicity           Mult            ....    1
 Number of Electrons    NEL             ....  114
 Basis Dimension        Dim             ....  322

ORBITAL ENERGIES
----------------

  NO   OCC          E(Eh)            E(eV)
   0   2.0000    -101.227054     -2754.5282
   1   2.0000    -101.226455     -2754.5119
   2   2.0000     -10.106766      -275.0191
   3   2.0000     -10.106568      -275.0137
   4   2.0000     -10.067137      -273.9407
   5   2.0000     -10.055195      -273.6158
   6   2.0000     -10.054871      -273.6070
   7   2.0000     -10.053989      -273.5830
   8   2.0000     -10.052402      -273.5398
   9   2.0000     -10.037972      -273.1471
  10   2.0000     -10.037956      -273.1467
  11   2.0000     -10.036510      -273.1073
  12   2.0000     -10.036414      -273.1047
  13   2.0000     -10.035341      -273.0755
  14   2.0000      -9.383026      -255.3251
  15   2.0000      -9.382331      -255.3062
  16   2.0000      -7.129130      -193.9935
  17   2.0000      -7.128502      -193.9764
  18   2.0000      -7.119370      -193.7279
  19   2.0000      -7.118855      -193.7139
  20   2.0000      -7.118738      -193.7107
  21   2.0000      -7.118036      -193.6916
  22   2.0000      -0.883162       -24.0321
  23   2.0000      -0.850768       -23.1506
  24   2.0000      -0.832326       -22.6487
  25   2.0000      -0.794130       -21.6094
  26   2.0000      -0.759588       -20.6694
  27   2.0000      -0.719981       -19.5917
  28   2.0000      -0.711769       -19.3682
  29   2.0000      -0.688583       -18.7373
  30   2.0000      -0.612152       -16.6575
  31   2.0000      -0.583305       -15.8725
  32   2.0000      -0.578387       -15.7387
  33   2.0000      -0.551445       -15.0056
  34   2.0000      -0.502232       -13.6664
  35   2.0000      -0.478801       -13.0288
  36   2.0000      -0.467317       -12.7163
  37   2.0000      -0.441881       -12.0242
  38   2.0000      -0.431093       -11.7306
  39   2.0000      -0.423519       -11.5245
  40   2.0000      -0.412688       -11.2298
  41   2.0000      -0.397082       -10.8051
  42   2.0000      -0.392049       -10.6682
  43   2.0000      -0.386390       -10.5142
  44   2.0000      -0.363170        -9.8824
  45   2.0000      -0.357022        -9.7151
  46   2.0000      -0.348843        -9.4925
  47   2.0000      -0.343791        -9.3550
  48   2.0000      -0.316244        -8.6054
  49   2.0000      -0.314996        -8.5715
  50   2.0000      -0.296011        -8.0549
  51   2.0000      -0.292866        -7.9693
  52   2.0000      -0.291115        -7.9216
  53   2.0000      -0.254540        -6.9264
  54   2.0000      -0.243339        -6.6216
  55   2.0000      -0.239075        -6.5056
  56   2.0000      -0.226534        -6.1643
  57   0.0000      -0.055453        -1.5090
  58   0.0000      -0.049779        -1.3545
  59   0.0000      -0.038853        -1.0573
  60   0.0000      -0.032672        -0.8890
  61   0.0000       0.000137         0.0037

MULLIKEN ATOMIC CHARGES
-----------------------
   0 C :   -0.155913
   1 C :   -0.204649
   2 C :   -0.211079
   3 C :    0.103753
   4 C :   -0.210246
   5 C :   -0.205411
   6 C :    0.112268
   7 C :   -0.289421
   8 C :    0.186569
   9 C :   -0.212190
  10 C :   -0.218789
  11 C :    0.097015
  12 Cl:   -0.149275
  13 Cl:   -0.160763
  14 H :    0.181591
  15 H :    0.179585
  16 H :    0.187838
  17 H :    0.188263
  18 H :    0.179534
  19 H :    0.202361
  20 H :    0.199830
  21 H :    0.199126
Sum of atomic charges:   -0.0000000

LOEWDIN ATOMIC CHARGES
----------------------
   0 C :   -0.171281
   1 C :   -0.165540
   2 C :   -0.148524
   3 C :   -0.090773
   4 C :   -0.148937
   5 C :   -0.165710
   6 C :   -0.073335
   7 C :   -0.140300
   8 C :   -0.172091
   9 C :   -0.162561
  10 C :   -0.154626
  11 C :   -0.154078
  12 Cl:    0.136718
  13 Cl:    0.115885
  14 H :    0.178812
  15 H :    0.179860
  16 H :    0.185497
  17 H :    0.185542
  18 H :    0.179842
  19 H :    0.198213
  20 H :    0.193401
  21 H :    0.193987

  Mayer bond orders larger than 0.100000
B(  0-C ,  1-C ) :   1.3870 B(  0-C ,  5-C ) :   1.3864 B(  0-C , 14-H ) :   0.9506
B(  1-C ,  2-C ) :   1.4062 B(  1-C , 15-H ) :   0.9573 B(  2-C ,  3-C ) :   1.4023
B(  2-C , 16-H ) :   0.9495 B(  3-C ,  4-C ) :   1.3996 B(  3-C ,  6-C ) :   0.7398
B(  4-C ,  5-C ) :   1.4077 B(  4-C , 17-H ) :   0.9490 B(  5-C , 18-H ) :   0.9572
B(  6-C ,  7-C ) :   1.4207 B(  6-C , 11-C ) :   1.3650 B(  7-C ,  8-C ) :   1.3712
B(  7-C , 19-H ) :   0.9272 B(  8-C ,  9-C ) :   1.3555 B(  8-C , 13-Cl) :   0.9110
B(  9-C , 10-C ) :   1.3908 B(  9-C , 20-H ) :   0.9400 B( 10-C , 11-C ) :   1.3173
B( 10-C , 21-H ) :   0.9408 B( 11-C , 12-Cl) :   0.9906

Dispersion correction           -0.010710937
FINAL SINGLE POINT ENERGY     -1382.336688551572

DIPOLE MOMENT
-------------

Method             : SCF
Type of density    : Electron Density
Multiplicity       :   1
Irrep              :   0
Energy             : -1382.3327547574551772 Eh
Relativity type    :
Basis              : AO
                                X                 Y                 Z
Electronic contribution:     11.909777235      -4.482582141      -0.081663167
Nuclear contribution   :    -12.095052482       4.500685644       0.077068993
                        -----------------------------------------
Total Dipole Moment    :     -0.185275247       0.018103503      -0.004594174
                        -----------------------------------------
Magnitude (a.u.)       :      0.186214286
Magnitude (Debye)      :      0.473319100

Rotational constants in cm-1:             0.029462             0.011477             0.009033
Rotational constants in MHz :           883.236172           344.078058           270.801671

                             ****ORCA TERMINATED NORMALLY****
TOTAL RUN TIME: 0 days 0 hours 0 minutes 57 seconds 700 msec
