                         Program Version 6.0.0  -   RELEASE  -
|  1> ! wb97x-v def2-tzvp def2/J RIJCOSX DEFGRID2 scfconv7 GCP(DFT/TZ) printgap
|  2> %output
|  3>     printlevel normal
|  4> end
|  5> * xyz 0 1
|  6> C -2.574221132232989 -0.8894010566575393 0.32210679168604417
|  7> C -1.1448039586229017 -0.45966804832742153 0.555217416129343
|  8> H -0.9818886517248069 -0.42540089532763353 1.6451550530356411
|  9> C -0.8089992201055523 0.9094998232198146 -0.04034694705159883
| 10> H -0.9924396026898412 0.8888863185036154 -1.124190330498116
| 11> C 0.6589940533320161 1.22948286220215 0.2019500949357842
| 12> H 0.8241254044186017 1.3399902694507517 1.2856286918652102
| 13> C 1.544048906179392 0.10551025882056027 -0.3172610303229622
| 14> H 1.4457238644306445 0.03253450797739529 -1.4109813477901263
| 15> C 1.0952828808090054 -1.219302809008998 0.291627715924224
| 16> H 1.2120493139797175 -1.2062428858341088 1.3881023081769575
| 17> O -0.2817611465792123 -1.4476646564215478 -0.033943510760211196
| 18> O 1.8510657336946483 -2.249715213707551 -0.28724804168419366
| 19> O 2.8891565818227143 0.416987156226409 0.05281606280178792
| 20> O 0.9376761457563197 2.4675789547122298 -0.4632446858484658
| 21> O -1.6568084203487086 1.8732414039154524 0.5912193179203378
| 22> O -2.860206417249054 -0.8621915089331553 -1.0838070381881408
| 23> H -3.239335149806489 -0.21060498092197838 0.8704368081071481
| 24> H -2.704436180512985 -1.9027981401352567 0.7248928815498614
| 25> H 1.8091352737735036 -3.0213152069119364 0.29350849161332493
| 26> H 3.4687025930105557 -0.2097884250477952 -0.40033818556515105
| 27> H 1.8279313513042064 2.742149801138743 -0.20705125369385793
| 28> H -1.4052616188954639 2.7416221385176214 0.24868715101843344
| 29> H -3.7740283780120376 -1.1518956200268542 -1.1950561374278454
| 30> *
| 31>
| 32>                          ****END OF INPUT****

CARTESIAN COORDINATES (ANGSTROEM)
---------------------------------
  C     -2.574221   -0.889401    0.322107
  C     -1.144804   -0.459668    0.555217
  H     -0.981889   -0.425401    1.645155
  C     -0.808999    0.909500   -0.040347
  H     -0.992440    0.888886   -1.124190
  C      0.658994    1.229483    0.201950
  H      0.824125    1.339990    1.285629
  C      1.544049    0.105510   -0.317261
  H      1.445724    0.032535   -1.410981
  C      1.095283   -1.219303    0.291628
  H      1.212049   -1.206243    1.388102
  O     -0.281761   -1.447665   -0.033944
  O      1.851066   -2.249715   -0.287248
  O      2.889157    0.416987    0.052816
  O      0.937676    2.467579   -0.463245
  O     -1.656808    1.873241    0.591219
  O     -2.860206   -0.862192   -1.083807
  H     -3.239335   -0.210605    0.870437
  H     -2.704436   -1.902798    0.724893
  H      1.809135   -3.021315    0.293508
  H      3.468703   -0.209788   -0.400338
  H      1.827931    2.742150   -0.207051
  H     -1.405262    2.741622    0.248687
  H     -3.774028   -1.151896   -1.195056

 Total Charge           Charge          ....    0
 Multiplicity           Mult            ....    1
 Number of Electrons    NEL             ....   96
 Basis Dimension        Dim             ....  444

ORBITAL ENERGIES
----------------

  NO   OCC          E(Eh)            E(eV)
   0   2.0000     -21.696195      -590.3835
   1   2.0000     -21.684884      -590.0757
   2   2.0000     -21.683467      -590.0371
   3   2.0000     -21.680516      -589.9568
   4   2.0000     -21.672226      -589.7312
   5   2.0000     -21.670389      -589.6813
   6   2.0000     -12.156097      -330.7842
   7   2.0000     -12.107535      -329.4628
   8   2.0000     -12.104996      -329.3937
   9   2.0000     -12.103768      -329.3603
  10   2.0000     -12.098344      -329.2127
  11   2.0000     -12.094445      -329.1066
  12   2.0000      -1.722201       -46.8635
  13   2.0000      -1.689653       -45.9778
  14   2.0000      -1.683154       -45.8010
  15   2.0000      -1.678749       -45.6811
  16   2.0000      -1.672235       -45.5038
  17   2.0000      -1.669487       -45.4291
  18   2.0000      -1.334100       -36.3027
  19   2.0000      -1.321406       -35.9573
  20   2.0000      -1.235443       -33.6181
  21   2.0000      -1.196551       -32.5598
  22   2.0000      -1.160699       -31.5842
  23   2.0000      -1.115488       -30.3540
  24   2.0000      -1.087774       -29.5998
  25   2.0000      -1.067119       -29.0378
  26   2.0000      -1.044870       -28.4324
  27   2.0000      -1.042773       -28.3753
  28   2.0000      -1.030137       -28.0314
  29   2.0000      -1.018161       -27.7056
  30   2.0000      -0.999063       -27.1859
  31   2.0000      -0.981611       -26.7110
  32   2.0000      -0.967764       -26.3342
  33   2.0000      -0.966092       -26.2887
  34   2.0000      -0.963428       -26.2162
  35   2.0000      -0.942270       -25.6405
  36   2.0000      -0.932544       -25.3758
  37   2.0000      -0.925394       -25.1813
  38   2.0000      -0.920310       -25.0429
  39   2.0000      -0.907336       -24.6899
  40   2.0000      -0.895114       -24.3573
  41   2.0000      -0.884638       -24.0722
  42   2.0000      -0.845672       -23.0119
  43   2.0000      -0.829234       -22.5646
  44   2.0000      -0.812273       -22.1031
  45   2.0000      -0.800125       -21.7725
  46   2.0000      -0.794643       -21.6233
  47   2.0000      -0.770266       -20.9600
  48   0.0000      -0.232962        -6.3392
  49   0.0000      -0.192690        -5.2434
  50   0.0000      -0.170165        -4.6304
  51   0.0000      -0.149634        -4.0717
  52   0.0000      -0.125753        -3.4219

MULLIKEN ATOMIC CHARGES
-----------------------
   0 C :   -0.068829
   1 C :    0.096550
   2 H :    0.072206
   3 C :    0.076014
   4 H :    0.104265
   5 C :    0.050765
   6 H :    0.084485
   7 C :    0.072480
   8 H :    0.090892
   9 C :    0.068869
  10 H :    0.063523
  11 O :   -0.253142
  12 O :   -0.412387
  13 O :   -0.456123
  14 O :   -0.459736
  15 O :   -0.456735
  16 O :   -0.443085
  17 H :    0.110394
  18 H :    0.092443
  19 H :    0.315835
  20 H :    0.317941
  21 H :    0.319141
  22 H :    0.316648
  23 H :    0.297583
Sum of atomic charges:   -0.0000000

LOEWDIN ATOMIC CHARGES
----------------------
   0 C :   -0.311307
   1 C :   -0.295045
   2 H :    0.145056
   3 C :   -0.297997
   4 H :    0.149833
   5 C :   -0.312773
   6 H :    0.142981
   7 C :   -0.313757
   8 H :    0.147892
   9 C :   -0.412623
  10 H :    0.121019
  11 O :    0.193386
  12 O :    0.012836
  13 O :   -0.017863
  14 O :   -0.018705
  15 O :   -0.012117
  16 O :   -0.043799
  17 H :    0.125426
  18 H :    0.119589
  19 H :    0.178739
  20 H :    0.176841
  21 H :    0.176647
  22 H :    0.176656
  23 H :    0.169085

  Mayer bond orders larger than 0.100000
B(  0-C ,  1-C ) :   0.9790 B(  0-C , 16-O ) :   1.0984 B(  0-C , 17-H ) :   0.9606
B(  0-C , 18-H ) :   0.9668 B(  1-C ,  2-H ) :   0.9544 B(  1-C ,  3-C ) :   0.9612
B(  1-C , 11-O ) :   0.9921 B(  3-C ,  4-H ) :   0.9626 B(  3-C ,  5-C ) :   0.9547
B(  3-C , 15-O ) :   1.0588 B(  5-C ,  6-H ) :   0.9725 B(  5-C ,  7-C ) :   0.9529
B(  5-C , 14-O ) :   1.0766 B(  7-C ,  8-H ) :   0.9646 B(  7-C ,  9-C ) :   0.9310
B(  7-C , 13-O ) :   1.1094 B(  9-C , 10-H ) :   0.9801 B(  9-C , 11-O ) :   1.0318
B(  9-C , 12-O ) :   1.1984 B( 12-O , 19-H ) :   0.8929 B( 13-O , 20-H ) :   0.8887
B( 14-O , 21-H ) :   0.8886 B( 15-O , 22-H ) :   0.8863 B( 16-O , 23-H ) :   0.9054

FINAL SINGLE POINT ENERGY      -687.247786662341

DIPOLE MOMENT
-------------

Method             : SCF
Type of density    : Electron Density
Multiplicity       :   1
Irrep              :   0
Energy             :  -687.2665578205410384 Eh
Relativity type    :
Basis              : AO
                                X                 Y                 Z
Electronic contribution:      2.257199715      -0.215932830      -1.544011065
Nuclear contribution   :     -2.137832076      -0.286698862       2.302230340
                        -----------------------------------------
Total Dipole Moment    :      0.119367639      -0.502631692       0.758219275
                        -----------------------------------------
Magnitude (a.u.)       :      0.917487722
Magnitude (Debye)      :      2.332068457

Rotational constants in cm-1:             0.039814             0.026398             0.017479
Rotational constants in MHz :          1193.598489           791.400343           524.018573

                             ****ORCA TERMINATED NORMALLY****
TOTAL RUN TIME: 0 days 0 hours 4 minutes 37 seconds 608 msec
