                         Program Version 6.0.0  -   RELEASE  -
|  1> ! wb97x-v def2-tzvp def2/J RIJCOSX DEFGRID2 scfconv7 GCP(DFT/TZ) printgap
|  2> %output
|  3>     printlevel normal
|  4> end
|  5> %cpcm
|  6>     smd true
|  7>     smdsolvent "water"
|  8> end
|  9> * xyz 0 1
| 10> C -2.574221132232989 -0.8894010566575393 0.32210679168604417
| 11> C -1.1448039586229017 -0.45966804832742153 0.555217416129343
| 12> H -0.9818886517248069 -0.42540089532763353 1.6451550530356411
| 13> C -0.8089992201055523 0.9094998232198146 -0.04034694705159883
| 14> H -0.9924396026898412 0.8888863185036154 -1.124190330498116
| 15> C 0.6589940533320161 1.22948286220215 0.2019500949357842
| 16> H 0.8241254044186017 1.3399902694507517 1.2856286918652102
| 17> C 1.544048906179392 0.10551025882056027 -0.3172610303229622
| 18> H 1.4457238644306445 0.03253450797739529 -1.4109813477901263
| 19> C 1.0952828808090054 -1.219302809008998 0.291627715924224
| 20> H 1.2120493139797175 -1.2062428858341088 1.3881023081769575
| 21> O -0.2817611465792123 -1.4476646564215478 -0.033943510760211196
| 22> O 1.8510657336946483 -2.249715213707551 -0.28724804168419366
| 23> O 2.8891565818227143 0.416987156226409 0.05281606280178792
| 24> O 0.9376761457563197 2.4675789547122298 -0.4632446858484658
| 25> O -1.6568084203487086 1.8732414039154524 0.5912193179203378
| 26> O -2.860206417249054 -0.8621915089331553 -1.0838070381881408
| 27> H -3.239335149806489 -0.21060498092197838 0.8704368081071481
| 28> H -2.704436180512985 -1.9027981401352567 0.7248928815498614
| 29> H 1.8091352737735036 -3.0213152069119364 0.29350849161332493
| 30> H 3.4687025930105557 -0.2097884250477952 -0.40033818556515105
| 31> H 1.8279313513042064 2.742149801138743 -0.20705125369385793
| 32> H -1.4052616188954639 2.7416221385176214 0.24868715101843344
| 33> H -3.7740283780120376 -1.1518956200268542 -1.1950561374278454
| 34> *
| 35>
| 36>                          ****END OF INPUT****

CARTESIAN COORDINATES (ANGSTROEM)
---------------------------------
  C     -2.574221   -0.889401    0.322107
  C     -1.144804   -0.459668    0.555217
  H     -0.981889   -0.425401    1.645155
  C     -0.808999    0.909500   -0.040347
  H     -0.992440    0.888886   -1.124190
  C      0.658994    1.229483    0.201950
  H      0.824125    1.339990    1.285629
  C      1.544049    0.105510   -0.317261
  H      1.445724    0.032535   -1.410981
  C      1.095283   -1.219303    0.291628
  H      1.212049   -1.206243    1.388102
  O     -0.281761   -1.447665   -0.033944
  O      1.851066   -2.249715   -0.287248
  O      2.889157    0.416987    0.052816
  O      0.937676    2.467579   -0.463245
  O     -1.656808    1.873241    0.591219
  O     -2.860206   -0.862192   -1.083807
  H     -3.239335   -0.210605    0.870437
  H     -2.704436   -1.902798    0.724893
  H      1.809135   -3.021315    0.293508
  H      3.468703   -0.209788   -0.400338
  H      1.827931    2.742150   -0.207051
  H     -1.405262    2.741622    0.248687
  H     -3.774028   -1.151896   -1.195056

 Total Charge           Charge          ....    0
 Multiplicity           Mult            ....    1
 Number of Electrons    NEL             ....   96
 Basis Dimension        Dim             ....  444

ORBITAL ENERGIES
----------------

  NO   OCC          E(Eh)            E(eV)
   0   2.0000     -21.691897      -590.2665
   1   2.0000     -21.689896      -590.2121
   2   2.0000     -21.683654      -590.0422
   3   2.0000     -21.681649      -589.9877
   4   2.0000     -21.680973      -589.9693
   5   2.0000     -21.676187      -589.8390
   6   2.0000     -12.150931      -330.6437
   7   2.0000     -12.105097      -329.3964
   8   2.0000     -12.102437      -329.3241
   9   2.0000     -12.101356      -329.2946
  10   2.0000     -12.100501      -329.2714
  11   2.0000     -12.091531      -329.0273
  12   2.0000      -1.722319       -46.8667
  13   2.0000      -1.690398       -45.9981
  14   2.0000      -1.686311       -45.8869
  15   2.0000      -1.680674       -45.7335
  16   2.0000      -1.678176       -45.6655
  17   2.0000      -1.675146       -45.5830
  18   2.0000      -1.334192       -36.3052
  19   2.0000      -1.320574       -35.9346
  20   2.0000      -1.234541       -33.5936
  21   2.0000      -1.197362       -32.5819
  22   2.0000      -1.161798       -31.6141
  23   2.0000      -1.117359       -30.4049
  24   2.0000      -1.087354       -29.5884
  25   2.0000      -1.067622       -29.0515
  26   2.0000      -1.046119       -28.4663
  27   2.0000      -1.043554       -28.3965
  28   2.0000      -1.034832       -28.1592
  29   2.0000      -1.020994       -27.7827
  30   2.0000      -1.000915       -27.2363
  31   2.0000      -0.985770       -26.8242
  32   2.0000      -0.973216       -26.4826
  33   2.0000      -0.969907       -26.3925
  34   2.0000      -0.968118       -26.3438
  35   2.0000      -0.946728       -25.7618
  36   2.0000      -0.938697       -25.5433
  37   2.0000      -0.926344       -25.2071
  38   2.0000      -0.925236       -25.1770
  39   2.0000      -0.911494       -24.8030
  40   2.0000      -0.899082       -24.4653
  41   2.0000      -0.883311       -24.0361
  42   2.0000      -0.847270       -23.0554
  43   2.0000      -0.829643       -22.5757
  44   2.0000      -0.811710       -22.0878
  45   2.0000      -0.798933       -21.7401
  46   2.0000      -0.793971       -21.6050
  47   2.0000      -0.769451       -20.9378
  48   0.0000      -0.232868        -6.3366
  49   0.0000      -0.190838        -5.1930
  50   0.0000      -0.170088        -4.6283
  51   0.0000      -0.147878        -4.0240
  52   0.0000      -0.124588        -3.3902

MULLIKEN ATOMIC CHARGES
-----------------------
   0 C :   -0.084674
   1 C :    0.125221
   2 H :    0.115479
   3 C :    0.062427
   4 H :    0.102152
   5 C :    0.090458
   6 H :    0.108034
   7 C :    0.075064
   8 H :    0.101595
   9 C :    0.075386
  10 H :    0.105998
  11 O :   -0.333233
  12 O :   -0.489023
  13 O :   -0.525233
  14 O :   -0.532427
  15 O :   -0.532265
  16 O :   -0.547612
  17 H :    0.126196
  18 H :    0.127844
  19 H :    0.377343
  20 H :    0.364315
  21 H :    0.363783
  22 H :    0.360479
  23 H :    0.362694
Sum of atomic charges:   -0.0000000

LOEWDIN ATOMIC CHARGES
----------------------
   0 C :   -0.306555
   1 C :   -0.294207
   2 H :    0.159710
   3 C :   -0.300786
   4 H :    0.147696
   5 C :   -0.306959
   6 H :    0.153049
   7 C :   -0.311523
   8 H :    0.151199
   9 C :   -0.403421
  10 H :    0.137785
  11 O :    0.160187
  12 O :   -0.011639
  13 O :   -0.038997
  14 O :   -0.043661
  15 O :   -0.038806
  16 O :   -0.083130
  17 H :    0.130610
  18 H :    0.129808
  19 H :    0.201196
  20 H :    0.193322
  21 H :    0.191896
  22 H :    0.191129
  23 H :    0.192097

  Mayer bond orders larger than 0.100000
B(  0-C ,  1-C ) :   0.9595 B(  0-C , 16-O ) :   1.0514 B(  0-C , 17-H ) :   0.9697
B(  0-C , 18-H ) :   0.9762 B(  1-C ,  2-H ) :   0.9482 B(  1-C ,  3-C ) :   0.9688
B(  1-C , 11-O ) :   0.9548 B(  3-C ,  4-H ) :   0.9597 B(  3-C ,  5-C ) :   0.9768
B(  3-C , 15-O ) :   1.0310 B(  5-C ,  6-H ) :   0.9574 B(  5-C ,  7-C ) :   0.9711
B(  5-C , 14-O ) :   1.0515 B(  7-C ,  8-H ) :   0.9563 B(  7-C ,  9-C ) :   0.9531
B(  7-C , 13-O ) :   1.0899 B(  9-C , 10-H ) :   0.9804 B(  9-C , 11-O ) :   1.0108
B(  9-C , 12-O ) :   1.1960 B( 12-O , 19-H ) :   0.8533 B( 13-O , 20-H ) :   0.8583
B( 14-O , 21-H ) :   0.8599 B( 15-O , 22-H ) :   0.8580 B( 16-O , 23-H ) :   0.8669

FINAL SINGLE POINT ENERGY      -687.286779558736

DIPOLE MOMENT
-------------

Method             : SCF
Type of density    : Electron Density
Multiplicity       :   1
Irrep              :   0
Energy             :  -687.3055507169360681 Eh
Relativity type    :
Basis              : AO
                                X                 Y                 Z
Electronic contribution:      2.356852009      -0.362697907      -1.033945222
Nuclear contribution   :     -2.137832076      -0.286698862       2.302230340
                        -----------------------------------------
Total Dipole Moment    :      0.219019933      -0.649396769       1.268285118
                        -----------------------------------------
Magnitude (a.u.)       :      1.441607795
Magnitude (Debye)      :      3.664275811

Rotational constants in cm-1:             0.039814             0.026398             0.017479
Rotational constants in MHz :          1193.598489           791.400343           524.018573

                             ****ORCA TERMINATED NORMALLY****
TOTAL RUN TIME: 0 days 0 hours 5 minutes 13 seconds 24 msec
