                         Program Version 6.0.0  -   RELEASE  -
|  1> ! pbe def2-sv(p) def2/J RI DEFGRID1 loosescf d4 GCP(DFT/SV(P)) printgap
|  2> %output
|  3>     printlevel normal
|  4> end
|  5> * xyz 0 1
|  6> C -2.5646098831 -0.6602404142 -0.3263467868
|  7> C -1.1845471614 -0.2916172858 0.226209849
|  8> H -1.2386105125 -0.2333520569 1.3233993879
|  9> C -0.7054753733 1.0606582409 -0.3160133397
| 10> H -0.7125498206 1.0162150486 -1.4189029097
| 11> C 0.7344129039 1.3377259797 0.1601534932
| 12> H 0.7362843251 1.4480315407 1.2508651314
| 13> C 1.6350293889 0.1593018726 -0.2180553759
| 14> H 1.6851972541 0.0822968821 -1.3182330001
| 15> C 1.0145723745 -1.1456024956 0.3316512957
| 16> H 1.0158438428 -1.0946884135 1.4339923399
| 17> O -0.2894995296 -1.3226360207 -0.1572830478
| 18> O 1.7709038783 -2.2488635755 -0.0195245671
| 19> O 2.9177886017 0.3585307655 0.3143699032
| 20> O 1.1824060824 2.5737498301 -0.3339603414
| 21> O -1.5816068239 2.0616527731 0.127448075
| 22> O -3.1043693221 -1.7941711691 0.2975367745
| 23> H -2.4785286477 -0.814999308 -1.409122023
| 24> H -3.2488048603 0.1659206576 -0.1291827461
| 25> H 1.5148040736 -2.5431344047 -0.9084513983
| 26> H 3.4089177591 -0.4773360613 0.2740567953
| 27> H 1.4795731708 2.4818147087 -1.2509117145
| 28> H -1.1317207115 2.9185087595 0.0416554322
| 29> H -2.4891210379 -2.5327657467 0.1792196568
| 30> *
| 31>
| 32>                          ****END OF INPUT****

CARTESIAN COORDINATES (ANGSTROEM)
---------------------------------
  C     -2.564610   -0.660240   -0.326347
  C     -1.184547   -0.291617    0.226210
  H     -1.238611   -0.233352    1.323399
  C     -0.705475    1.060658   -0.316013
  H     -0.712550    1.016215   -1.418903
  C      0.734413    1.337726    0.160153
  H      0.736284    1.448032    1.250865
  C      1.635029    0.159302   -0.218055
  H      1.685197    0.082297   -1.318233
  C      1.014572   -1.145602    0.331651
  H      1.015844   -1.094688    1.433992
  O     -0.289500   -1.322636   -0.157283
  O      1.770904   -2.248864   -0.019525
  O      2.917789    0.358531    0.314370
  O      1.182406    2.573750   -0.333960
  O     -1.581607    2.061653    0.127448
  O     -3.104369   -1.794171    0.297537
  H     -2.478529   -0.814999   -1.409122
  H     -3.248805    0.165921   -0.129183
  H      1.514804   -2.543134   -0.908451
  H      3.408918   -0.477336    0.274057
  H      1.479573    2.481815   -1.250912
  H     -1.131721    2.918509    0.041655
  H     -2.489121   -2.532766    0.179220

 Total Charge           Charge          ....    0
 Multiplicity           Mult            ....    1
 Number of Electrons    NEL             ....   96
 Basis Dimension        Dim             ....  192

ORBITAL ENERGIES
----------------

  NO   OCC          E(Eh)            E(eV)
   0   2.0000     -18.788636      -511.2648
   1   2.0000     -18.778966      -511.0016
   2   2.0000     -18.765084      -510.6239
   3   2.0000     -18.758003      -510.4312
   4   2.0000     -18.755656      -510.3673
   5   2.0000     -18.744265      -510.0574
   6   2.0000      -9.999379      -272.0969
   7   2.0000      -9.950835      -270.7760
   8   2.0000      -9.950518      -270.7674
   9   2.0000      -9.948721      -270.7185
  10   2.0000      -9.947120      -270.6749
  11   2.0000      -9.930342      -270.2184
  12   2.0000      -1.000788       -27.2328
  13   2.0000      -0.953822       -25.9548
  14   2.0000      -0.943048       -25.6616
  15   2.0000      -0.928859       -25.2755
  16   2.0000      -0.922769       -25.1098
  17   2.0000      -0.917152       -24.9570
  18   2.0000      -0.711087       -19.3497
  19   2.0000      -0.698031       -18.9944
  20   2.0000      -0.618785       -16.8380
  21   2.0000      -0.592761       -16.1298
  22   2.0000      -0.569206       -15.4889
  23   2.0000      -0.552260       -15.0278
  24   2.0000      -0.507557       -13.8113
  25   2.0000      -0.500553       -13.6207
  26   2.0000      -0.475232       -12.9317
  27   2.0000      -0.460750       -12.5376
  28   2.0000      -0.452947       -12.3253
  29   2.0000      -0.437285       -11.8991
  30   2.0000      -0.427602       -11.6356
  31   2.0000      -0.413878       -11.2622
  32   2.0000      -0.399915       -10.8822
  33   2.0000      -0.373932       -10.1752
  34   2.0000      -0.362831        -9.8731
  35   2.0000      -0.348944        -9.4952
  36   2.0000      -0.332125        -9.0376
  37   2.0000      -0.330301        -8.9879
  38   2.0000      -0.312410        -8.5011
  39   2.0000      -0.304684        -8.2909
  40   2.0000      -0.291463        -7.9311
  41   2.0000      -0.276653        -7.5281
  42   2.0000      -0.265399        -7.2219
  43   2.0000      -0.245843        -6.6897
  44   2.0000      -0.244019        -6.6401
  45   2.0000      -0.221838        -6.0365
  46   2.0000      -0.219205        -5.9649
  47   2.0000      -0.211137        -5.7453
  48   0.0000       0.007036         0.1915
  49   0.0000       0.017535         0.4772
  50   0.0000       0.036157         0.9839
  51   0.0000       0.045227         1.2307
  52   0.0000       0.054735         1.4894

MULLIKEN ATOMIC CHARGES
-----------------------
   0 C :    0.099315
   1 C :   -0.012582
   2 H :    0.065170
   3 C :    0.059340
   4 H :    0.032615
   5 C :    0.071207
   6 H :    0.070332
   7 C :    0.041054
   8 H :    0.022473
   9 C :    0.166782
  10 H :    0.063059
  11 O :   -0.320068
  12 O :   -0.386681
  13 O :   -0.402543
  14 O :   -0.408829
  15 O :   -0.414326
  16 O :   -0.431752
  17 H :    0.062547
  18 H :    0.104641
  19 H :    0.306854
  20 H :    0.303462
  21 H :    0.304022
  22 H :    0.306803
  23 H :    0.297105
Sum of atomic charges:   -0.0000000

LOEWDIN ATOMIC CHARGES
----------------------
   0 C :   -0.124098
   1 C :   -0.069648
   2 H :    0.111843
   3 C :   -0.076296
   4 H :    0.092688
   5 C :   -0.078874
   6 H :    0.122280
   7 C :   -0.098820
   8 H :    0.089685
   9 C :   -0.003713
  10 H :    0.101973
  11 O :   -0.155328
  12 O :   -0.294509
  13 O :   -0.316126
  14 O :   -0.305933
  15 O :   -0.317700
  16 O :   -0.333777
  17 H :    0.098364
  18 H :    0.126818
  19 H :    0.290928
  20 H :    0.284811
  21 H :    0.288427
  22 H :    0.285846
  23 H :    0.281159

  Mayer bond orders larger than 0.100000
B(  0-C ,  1-C ) :   1.0572 B(  0-C , 16-O ) :   1.0814 B(  0-C , 17-H ) :   0.9042
B(  0-C , 18-H ) :   0.9125 B(  1-C ,  2-H ) :   0.8693 B(  1-C ,  3-C ) :   0.9965
B(  1-C , 11-O ) :   0.9660 B(  3-C ,  4-H ) :   0.8613 B(  3-C ,  5-C ) :   0.9981
B(  3-C , 15-O ) :   1.0806 B(  5-C ,  6-H ) :   0.8687 B(  5-C ,  7-C ) :   1.0055
B(  5-C , 14-O ) :   1.0486 B(  7-C ,  8-H ) :   0.8514 B(  7-C ,  9-C ) :   0.9830
B(  7-C , 13-O ) :   1.1035 B(  9-C , 10-H ) :   0.8800 B(  9-C , 11-O ) :   1.0193
B(  9-C , 12-O ) :   1.1166 B( 12-O , 19-H ) :   0.8393 B( 13-O , 20-H ) :   0.8326
B( 14-O , 21-H ) :   0.8460 B( 15-O , 22-H ) :   0.8266 B( 16-O , 23-H ) :   0.8478

Dispersion correction           -0.023632312
FINAL SINGLE POINT ENERGY      -685.700348554434

DIPOLE MOMENT
-------------

Method             : SCF
Type of density    : Electron Density
Multiplicity       :   1
Irrep              :   0
Energy             :  -685.8304564534086012 Eh
Relativity type    :
Basis              : AO
                                X                 Y                 Z
Electronic contribution:      2.098263026      -0.692720497       0.692077983
Nuclear contribution   :     -1.355254781       0.385251642      -1.808797121
                        -----------------------------------------
Total Dipole Moment    :      0.743008245      -0.307468854      -1.116719138
                        -----------------------------------------
Magnitude (a.u.)       :      1.376103187
Magnitude (Debye)      :      3.497776328

Rotational constants in cm-1:             0.039122             0.026006             0.016335
Rotational constants in MHz :          1172.857376           779.626224           489.711707

                             ****ORCA TERMINATED NORMALLY****
TOTAL RUN TIME: 0 days 0 hours 0 minutes 11 seconds 936 msec
