                         Program Version 6.0.0  -   RELEASE  -
|  1> ! r2scan-3c def2/J RI DEFGRID2 scfconv6 printgap
|  2> %output
|  3>     printlevel normal
|  4> end
|  5> * xyz 0 1
|  6> C 1.4447053548 0.0313251369 1.1803082153
|  7> C 0.6819506425 0.4579123937 -0.0783142107
|  8> C 1.3913433048 -0.0316818526 -1.3378930986
|  9> C -0.7510454881 -0.0400372073 -0.0337156434
| 10> O -1.2242000335 -0.7346063894 -0.9120874719
| 11> C -1.5550246777 0.374419387 1.1654932255
| 12> H 2.4782142369 0.3582595478 1.1035839742
| 13> H 1.0114592294 0.4679826297 2.0744099941
| 14> H 1.4352034717 -1.052148423 1.2751307756
| 15> H 0.6305422026 1.5524958318 -0.1007568155
| 16> H 1.4611926799 -1.1171797562 -1.3305924606
| 17> H 2.3923895417 0.3860856719 -1.3967581505
| 18> H 0.832944458 0.2607567049 -2.2241516767
| 19> H -2.6154038502 0.3035094005 0.9382377434
| 20> H -1.2994620774 1.3793146866 1.4846175782
| 21> H -1.3365201532 -0.3153478907 1.9786957237
| 22> *
| 23>
| 24>                          ****END OF INPUT****

CARTESIAN COORDINATES (ANGSTROEM)
---------------------------------
  C      1.444705    0.031325    1.180308
  C      0.681951    0.457912   -0.078314
  C      1.391343   -0.031682   -1.337893
  C     -0.751045   -0.040037   -0.033716
  O     -1.224200   -0.734606   -0.912087
  C     -1.555025    0.374419    1.165493
  H      2.478214    0.358260    1.103584
  H      1.011459    0.467983    2.074410
  H      1.435203   -1.052148    1.275131
  H      0.630542    1.552496   -0.100757
  H      1.461193   -1.117180   -1.330592
  H      2.392390    0.386086   -1.396758
  H      0.832944    0.260757   -2.224152
  H     -2.615404    0.303509    0.938238
  H     -1.299462    1.379315    1.484618
  H     -1.336520   -0.315348    1.978696

 Total Charge           Charge          ....    0
 Multiplicity           Mult            ....    1
 Number of Electrons    NEL             ....   48
 Basis Dimension        Dim             ....  169

ORBITAL ENERGIES
----------------

  NO   OCC          E(Eh)            E(eV)
   0   2.0000     -18.937288      -515.3098
   1   2.0000     -10.116413      -275.2816
   2   2.0000     -10.047398      -273.4036
   3   2.0000     -10.034043      -273.0402
   4   2.0000     -10.033911      -273.0366
   5   2.0000     -10.016646      -272.5668
   6   2.0000      -1.003118       -27.2962
   7   2.0000      -0.778922       -21.1955
   8   2.0000      -0.711168       -19.3519
   9   2.0000      -0.657490       -17.8912
  10   2.0000      -0.592632       -16.1263
  11   2.0000      -0.490363       -13.3435
  12   2.0000      -0.449097       -12.2206
  13   2.0000      -0.433705       -11.8017
  14   2.0000      -0.416499       -11.3335
  15   2.0000      -0.399831       -10.8799
  16   2.0000      -0.378283       -10.2936
  17   2.0000      -0.368484       -10.0270
  18   2.0000      -0.359406        -9.7799
  19   2.0000      -0.330416        -8.9911
  20   2.0000      -0.327469        -8.9109
  21   2.0000      -0.312901        -8.5145
  22   2.0000      -0.311558        -8.4779
  23   2.0000      -0.212376        -5.7790
  24   0.0000      -0.044918        -1.2223
  25   0.0000       0.071295         1.9400
  26   0.0000       0.115033         3.1302
  27   0.0000       0.121887         3.3167
  28   0.0000       0.126159         3.4330

MULLIKEN ATOMIC CHARGES
-----------------------
   0 C :   -0.486442
   1 C :    0.005613
   2 C :   -0.508819
   3 C :    0.272677
   4 O :   -0.346789
   5 C :   -0.540712
   6 H :    0.151995
   7 H :    0.153574
   8 H :    0.162639
   9 H :    0.151780
  10 H :    0.159020
  11 H :    0.142770
  12 H :    0.161557
  13 H :    0.178580
  14 H :    0.161434
  15 H :    0.181124
Sum of atomic charges:   -0.0000000

LOEWDIN ATOMIC CHARGES
----------------------
   0 C :   -0.395865
   1 C :   -0.224100
   2 C :   -0.397410
   3 C :    0.222214
   4 O :   -0.466304
   5 C :   -0.387323
   6 H :    0.158278
   7 H :    0.155543
   8 H :    0.159692
   9 H :    0.172679
  10 H :    0.163664
  11 H :    0.150527
  12 H :    0.166292
  13 H :    0.176776
  14 H :    0.165142
  15 H :    0.180196

  Mayer bond orders larger than 0.100000
B(  0-C ,  1-C ) :   0.8593 B(  0-C ,  6-H ) :   0.9678 B(  0-C ,  7-H ) :   0.9639
B(  0-C ,  8-H ) :   0.9818 B(  1-C ,  2-C ) :   0.9356 B(  1-C ,  3-C ) :   0.8934
B(  1-C ,  4-O ) :  -0.1070 B(  1-C ,  9-H ) :   0.9175 B(  2-C , 10-H ) :   0.9818
B(  2-C , 11-H ) :   0.9746 B(  2-C , 12-H ) :   0.9678 B(  3-C ,  4-O ) :   1.9409
B(  3-C ,  5-C ) :   0.9069 B(  5-C , 13-H ) :   0.9735 B(  5-C , 14-H ) :   0.9658
B(  5-C , 15-H ) :   0.9457

Dispersion correction           -0.003926737
FINAL SINGLE POINT ENERGY      -271.705254416410

DIPOLE MOMENT
-------------

Method             : SCF
Type of density    : Electron Density
Multiplicity       :   1
Irrep              :   0
Energy             :  -271.7089017060756078 Eh
Relativity type    :
Basis              : AO
                                X                 Y                 Z
Electronic contribution:     -4.185139824      -1.444628038      -2.712652571
Nuclear contribution   :      4.663812529       2.075328916       3.553767244
                        -----------------------------------------
Total Dipole Moment    :      0.478672705       0.630700878       0.841114673
                        -----------------------------------------
Magnitude (a.u.)       :      1.155155855
Magnitude (Debye)      :      2.936172843

Rotational constants in cm-1:             0.156567             0.104955             0.070481
Rotational constants in MHz :          4693.753576          3146.470564          2112.967460

                             ****ORCA TERMINATED NORMALLY****
TOTAL RUN TIME: 0 days 0 hours 0 minutes 20 seconds 646 msec
