                         Program Version 6.0.0  -   RELEASE  -
|  1> ! r2scan-3c def2/J RI DEFGRID2 scfconv6 printgap
|  2> %output
|  3>     printlevel normal
|  4> end
|  5> %cpcm
|  6>     smd true
|  7>     smdsolvent "water"
|  8> end
|  9> * xyz 0 1
| 10> C 1.4447053548 0.0313251369 1.1803082153
| 11> C 0.6819506425 0.4579123937 -0.0783142107
| 12> C 1.3913433048 -0.0316818526 -1.3378930986
| 13> C -0.7510454881 -0.0400372073 -0.0337156434
| 14> O -1.2242000335 -0.7346063894 -0.9120874719
| 15> C -1.5550246777 0.374419387 1.1654932255
| 16> H 2.4782142369 0.3582595478 1.1035839742
| 17> H 1.0114592294 0.4679826297 2.0744099941
| 18> H 1.4352034717 -1.052148423 1.2751307756
| 19> H 0.6305422026 1.5524958318 -0.1007568155
| 20> H 1.4611926799 -1.1171797562 -1.3305924606
| 21> H 2.3923895417 0.3860856719 -1.3967581505
| 22> H 0.832944458 0.2607567049 -2.2241516767
| 23> H -2.6154038502 0.3035094005 0.9382377434
| 24> H -1.2994620774 1.3793146866 1.4846175782
| 25> H -1.3365201532 -0.3153478907 1.9786957237
| 26> *
| 27>
| 28>                          ****END OF INPUT****

CARTESIAN COORDINATES (ANGSTROEM)
---------------------------------
  C      1.444705    0.031325    1.180308
  C      0.681951    0.457912   -0.078314
  C      1.391343   -0.031682   -1.337893
  C     -0.751045   -0.040037   -0.033716
  O     -1.224200   -0.734606   -0.912087
  C     -1.555025    0.374419    1.165493
  H      2.478214    0.358260    1.103584
  H      1.011459    0.467983    2.074410
  H      1.435203   -1.052148    1.275131
  H      0.630542    1.552496   -0.100757
  H      1.461193   -1.117180   -1.330592
  H      2.392390    0.386086   -1.396758
  H      0.832944    0.260757   -2.224152
  H     -2.615404    0.303509    0.938238
  H     -1.299462    1.379315    1.484618
  H     -1.336520   -0.315348    1.978696

 Total Charge           Charge          ....    0
 Multiplicity           Mult            ....    1
 Number of Electrons    NEL             ....   48
 Basis Dimension        Dim             ....  169

ORBITAL ENERGIES
----------------

  NO   OCC          E(Eh)            E(eV)
   0   2.0000     -18.946105      -515.5497
   1   2.0000     -10.122150      -275.4377
   2   2.0000     -10.038114      -273.1510
   3   2.0000     -10.021804      -272.7072
   4   2.0000     -10.018079      -272.6058
   5   2.0000     -10.010830      -272.4085
   6   2.0000      -1.014562       -27.6076
   7   2.0000      -0.769800       -20.9473
   8   2.0000      -0.702023       -19.1030
   9   2.0000      -0.646670       -17.5968
  10   2.0000      -0.584841       -15.9143
  11   2.0000      -0.486412       -13.2360
  12   2.0000      -0.445904       -12.1337
  13   2.0000      -0.425892       -11.5891
  14   2.0000      -0.415761       -11.3134
  15   2.0000      -0.393235       -10.7005
  16   2.0000      -0.371377       -10.1057
  17   2.0000      -0.356598        -9.7035
  18   2.0000      -0.348178        -9.4744
  19   2.0000      -0.331839        -9.0298
  20   2.0000      -0.322998        -8.7892
  21   2.0000      -0.305429        -8.3112
  22   2.0000      -0.302680        -8.2363
  23   2.0000      -0.221738        -6.0338
  24   0.0000      -0.046696        -1.2707
  25   0.0000       0.082200         2.2368
  26   0.0000       0.128281         3.4907
  27   0.0000       0.135763         3.6943
  28   0.0000       0.137153         3.7321

MULLIKEN ATOMIC CHARGES
-----------------------
   0 C :   -0.520306
   1 C :    0.036862
   2 C :   -0.573274
   3 C :    0.310035
   4 O :   -0.452492
   5 C :   -0.571678
   6 H :    0.166336
   7 H :    0.170974
   8 H :    0.172357
   9 H :    0.181830
  10 H :    0.168456
  11 H :    0.164128
  12 H :    0.163499
  13 H :    0.181449
  14 H :    0.191396
  15 H :    0.210427
Sum of atomic charges:   -0.0000000

LOEWDIN ATOMIC CHARGES
----------------------
   0 C :   -0.396354
   1 C :   -0.216370
   2 C :   -0.408233
   3 C :    0.241164
   4 O :   -0.543144
   5 C :   -0.384843
   6 H :    0.162718
   7 H :    0.162588
   8 H :    0.162639
   9 H :    0.186576
  10 H :    0.162166
  11 H :    0.158772
  12 H :    0.162673
  13 H :    0.177198
  14 H :    0.179289
  15 H :    0.193159

  Mayer bond orders larger than 0.100000
B(  0-C ,  1-C ) :   0.8552 B(  0-C ,  6-H ) :   0.9648 B(  0-C ,  7-H ) :   0.9595
B(  0-C ,  8-H ) :   0.9776 B(  1-C ,  2-C ) :   0.8921 B(  1-C ,  3-C ) :   0.9109
B(  1-C ,  9-H ) :   0.9063 B(  2-C , 10-H ) :   0.9852 B(  2-C , 11-H ) :   0.9681
B(  2-C , 12-H ) :   0.9722 B(  3-C ,  4-O ) :   1.8640 B(  3-C ,  5-C ) :   0.9284
B(  5-C , 13-H ) :   0.9708 B(  5-C , 14-H ) :   0.9519 B(  5-C , 15-H ) :   0.9313

Dispersion correction           -0.003926737
FINAL SINGLE POINT ENERGY      -271.711557472003

DIPOLE MOMENT
-------------

Method             : SCF
Type of density    : Electron Density
Multiplicity       :   1
Irrep              :   0
Energy             :  -271.7152047616685877 Eh
Relativity type    :
Basis              : AO
                                X                 Y                 Z
Electronic contribution:     -3.962112146      -1.112419242      -2.275142965
Nuclear contribution   :      4.663812529       2.075328916       3.553767244
                        -----------------------------------------
Total Dipole Moment    :      0.701700383       0.962909674       1.278624280
                        -----------------------------------------
Magnitude (a.u.)       :      1.747700923
Magnitude (Debye)      :      4.442302712

Rotational constants in cm-1:             0.156567             0.104955             0.070481
Rotational constants in MHz :          4693.753576          3146.470564          2112.967460

                             ****ORCA TERMINATED NORMALLY****
TOTAL RUN TIME: 0 days 0 hours 0 minutes 22 seconds 883 msec
