                         Program Version 6.0.0  -   RELEASE  -
|  1> ! pbe def2-sv(p) def2/J RI DEFGRID1 loosescf d4 GCP(DFT/SV(P)) printgap
|  2> %output
|  3>     printlevel normal
|  4> end
|  5> * xyz 0 1
|  6> C -2.4429986137 -1.0502330405 -0.3479514423
|  7> C -1.0798616464 -0.5626232499 0.1521892722
|  8> H -1.1197545687 -0.5445755324 1.2533105478
|  9> C -0.7259247914 0.8454818474 -0.3658166508
| 10> H -0.6548689927 0.7989645784 -1.4601701866
| 11> C 0.6488131759 1.2560467952 0.2051732424
| 12> H 0.6000116103 1.3085318692 1.2991413717
| 13> C 1.6824389065 0.1855563086 -0.1813613071
| 14> H 1.8053324554 0.1852807463 -1.2774147693
| 15> C 1.1790344944 -1.2099106103 0.2561486208
| 16> H 1.156317742 -1.2372689113 1.3597067916
| 17> O -0.0940373332 -1.4847716115 -0.2724795932
| 18> O 2.0472765817 -2.2068085829 -0.1512211951
| 19> O 2.9049161289 0.476109402 0.444683838
| 20> O 1.0246987222 2.545876644 -0.1912621674
| 21> O -1.7227173419 1.7911886213 -0.1087740316
| 22> O -3.4167446983 -0.6323961565 0.5776081561
| 23> H -2.3997611784 -2.1449496188 -0.4110055712
| 24> H -2.6389895803 -0.6371615157 -1.3430785267
| 25> H 1.8203378737 -2.4760581016 -1.05562466
| 26> H 3.5014437884 -0.2810787234 0.3342909093
| 27> H 1.0881488383 2.5937543108 -1.1562003449
| 28> H -1.8608683925 1.8817697413 0.844477895
| 29> H -4.2973711611 -0.829095588 0.2293102711
| 30> *
| 31>
| 32>                          ****END OF INPUT****

CARTESIAN COORDINATES (ANGSTROEM)
---------------------------------
  C     -2.442999   -1.050233   -0.347951
  C     -1.079862   -0.562623    0.152189
  H     -1.119755   -0.544576    1.253311
  C     -0.725925    0.845482   -0.365817
  H     -0.654869    0.798965   -1.460170
  C      0.648813    1.256047    0.205173
  H      0.600012    1.308532    1.299141
  C      1.682439    0.185556   -0.181361
  H      1.805332    0.185281   -1.277415
  C      1.179034   -1.209911    0.256149
  H      1.156318   -1.237269    1.359707
  O     -0.094037   -1.484772   -0.272480
  O      2.047277   -2.206809   -0.151221
  O      2.904916    0.476109    0.444684
  O      1.024699    2.545877   -0.191262
  O     -1.722717    1.791189   -0.108774
  O     -3.416745   -0.632396    0.577608
  H     -2.399761   -2.144950   -0.411006
  H     -2.638990   -0.637162   -1.343079
  H      1.820338   -2.476058   -1.055625
  H      3.501444   -0.281079    0.334291
  H      1.088149    2.593754   -1.156200
  H     -1.860868    1.881770    0.844478
  H     -4.297371   -0.829096    0.229310

 Total Charge           Charge          ....    0
 Multiplicity           Mult            ....    1
 Number of Electrons    NEL             ....   96
 Basis Dimension        Dim             ....  192

ORBITAL ENERGIES
----------------

  NO   OCC          E(Eh)            E(eV)
   0   2.0000     -18.781572      -511.0725
   1   2.0000     -18.770453      -510.7700
   2   2.0000     -18.756255      -510.3836
   3   2.0000     -18.750039      -510.2145
   4   2.0000     -18.748192      -510.1642
   5   2.0000     -18.743137      -510.0267
   6   2.0000      -9.991330      -271.8779
   7   2.0000      -9.949477      -270.7390
   8   2.0000      -9.943328      -270.5717
   9   2.0000      -9.940631      -270.4983
  10   2.0000      -9.939739      -270.4740
  11   2.0000      -9.937424      -270.4111
  12   2.0000      -0.993453       -27.0332
  13   2.0000      -0.941326       -25.6148
  14   2.0000      -0.935537       -25.4573
  15   2.0000      -0.926992       -25.2247
  16   2.0000      -0.920504       -25.0482
  17   2.0000      -0.910991       -24.7893
  18   2.0000      -0.703420       -19.1410
  19   2.0000      -0.693449       -18.8697
  20   2.0000      -0.617495       -16.8029
  21   2.0000      -0.587828       -15.9956
  22   2.0000      -0.557035       -15.1577
  23   2.0000      -0.551041       -14.9946
  24   2.0000      -0.508702       -13.8425
  25   2.0000      -0.489516       -13.3204
  26   2.0000      -0.468959       -12.7610
  27   2.0000      -0.458594       -12.4790
  28   2.0000      -0.453479       -12.3398
  29   2.0000      -0.434214       -11.8156
  30   2.0000      -0.422183       -11.4882
  31   2.0000      -0.400525       -10.8988
  32   2.0000      -0.391800       -10.6614
  33   2.0000      -0.375435       -10.2161
  34   2.0000      -0.358976        -9.7682
  35   2.0000      -0.346934        -9.4406
  36   2.0000      -0.324288        -8.8243
  37   2.0000      -0.322851        -8.7852
  38   2.0000      -0.301577        -8.2063
  39   2.0000      -0.293218        -7.9789
  40   2.0000      -0.284959        -7.7541
  41   2.0000      -0.279385        -7.6024
  42   2.0000      -0.257482        -7.0064
  43   2.0000      -0.250368        -6.8129
  44   2.0000      -0.229438        -6.2433
  45   2.0000      -0.220570        -6.0020
  46   2.0000      -0.208774        -5.6810
  47   2.0000      -0.199014        -5.4154
  48   0.0000       0.014887         0.4051
  49   0.0000       0.017216         0.4685
  50   0.0000       0.032368         0.8808
  51   0.0000       0.038214         1.0398
  52   0.0000       0.053256         1.4492

MULLIKEN ATOMIC CHARGES
-----------------------
   0 C :    0.096869
   1 C :   -0.015276
   2 H :    0.061056
   3 C :    0.045280
   4 H :    0.045594
   5 C :    0.093712
   6 H :    0.052625
   7 C :    0.046132
   8 H :    0.019620
   9 C :    0.168951
  10 H :    0.058120
  11 O :   -0.307753
  12 O :   -0.389283
  13 O :   -0.401675
  14 O :   -0.396038
  15 O :   -0.395567
  16 O :   -0.437031
  17 H :    0.078830
  18 H :    0.069406
  19 H :    0.306148
  20 H :    0.300562
  21 H :    0.295404
  22 H :    0.301023
  23 H :    0.303293
Sum of atomic charges:   -0.0000000

LOEWDIN ATOMIC CHARGES
----------------------
   0 C :   -0.119342
   1 C :   -0.065944
   2 H :    0.106412
   3 C :   -0.083665
   4 H :    0.107716
   5 C :   -0.078276
   6 H :    0.114691
   7 C :   -0.098095
   8 H :    0.089699
   9 C :   -0.004998
  10 H :    0.098735
  11 O :   -0.149827
  12 O :   -0.296794
  13 O :   -0.314829
  14 O :   -0.302674
  15 O :   -0.299861
  16 O :   -0.341123
  17 H :    0.101006
  18 H :    0.102127
  19 H :    0.290511
  20 H :    0.283348
  21 H :    0.284348
  22 H :    0.287828
  23 H :    0.289005

  Mayer bond orders larger than 0.100000
B(  0-C ,  1-C ) :   1.0333 B(  0-C , 16-O ) :   1.0956 B(  0-C , 17-H ) :   0.9144
B(  0-C , 18-H ) :   0.9067 B(  1-C ,  2-H ) :   0.8817 B(  1-C ,  3-C ) :   1.0032
B(  1-C , 11-O ) :   0.9836 B(  3-C ,  4-H ) :   0.8575 B(  3-C ,  5-C ) :   0.9817
B(  3-C , 15-O ) :   1.0808 B(  5-C ,  6-H ) :   0.8704 B(  5-C ,  7-C ) :   0.9845
B(  5-C , 14-O ) :   1.0807 B(  7-C ,  8-H ) :   0.8545 B(  7-C ,  9-C ) :   0.9744
B(  7-C , 13-O ) :   1.0967 B(  9-C , 10-H ) :   0.8796 B(  9-C , 11-O ) :   1.0182
B(  9-C , 12-O ) :   1.1146 B( 12-O , 19-H ) :   0.8400 B( 13-O , 20-H ) :   0.8353
B( 14-O , 21-H ) :   0.8505 B( 15-O , 22-H ) :   0.8447 B( 16-O , 23-H ) :   0.8486

Dispersion correction           -0.023690301
FINAL SINGLE POINT ENERGY      -685.689073907023

DIPOLE MOMENT
-------------

Method             : SCF
Type of density    : Electron Density
Multiplicity       :   1
Irrep              :   0
Energy             :  -685.8179632388124674 Eh
Relativity type    :
Basis              : AO
                                X                 Y                 Z
Electronic contribution:      2.237540175       0.428030695       0.449943437
Nuclear contribution   :     -2.803517611      -1.289197626      -1.293306760
                        -----------------------------------------
Total Dipole Moment    :     -0.565977436      -0.861166932      -0.843363323
                        -----------------------------------------
Magnitude (a.u.)       :      1.331615799
Magnitude (Debye)      :      3.384698375

Rotational constants in cm-1:             0.042442             0.024430             0.016415
Rotational constants in MHz :          1272.388232           732.399978           492.095856

                             ****ORCA TERMINATED NORMALLY****
TOTAL RUN TIME: 0 days 0 hours 0 minutes 11 seconds 588 msec
