                         Program Version 6.0.0  -   RELEASE  -
|  1> ! pbe def2-sv(p) def2/J RI DEFGRID1 loosescf d4 GCP(DFT/SV(P)) printgap
|  2> %output
|  3>     printlevel normal
|  4> end
|  5> * xyz 0 1
|  6> C -1.919545115 -0.2306584807 0.5348300886
|  7> C -1.1881998985 -0.0611900089 -0.7905415274
|  8> C 0.1120927251 0.7123893473 -0.636658196
|  9> S 1.3453800977 -0.1565069575 0.4039882411
| 10> H -1.2863452067 -0.7482708882 1.2525263602
| 11> H -2.1849328553 0.7391368014 0.9502421512
| 12> H -2.8288539205 -0.8088620094 0.3960007607
| 13> H -1.8211375257 0.4861078953 -1.4928824197
| 14> H -0.9780158143 -1.0424710361 -1.2217568428
| 15> H 0.581397829 0.9050996043 -1.6006038271
| 16> H -0.0544637339 1.6596545448 -0.1241485976
| 17> H 1.4694155284 -1.2227806036 -0.3775447331
| 18> *
| 19>
| 20>                          ****END OF INPUT****

CARTESIAN COORDINATES (ANGSTROEM)
---------------------------------
  C     -1.919545   -0.230658    0.534830
  C     -1.188200   -0.061190   -0.790542
  C      0.112093    0.712389   -0.636658
  S      1.345380   -0.156507    0.403988
  H     -1.286345   -0.748271    1.252526
  H     -2.184933    0.739137    0.950242
  H     -2.828854   -0.808862    0.396001
  H     -1.821138    0.486108   -1.492882
  H     -0.978016   -1.042471   -1.221757
  H      0.581398    0.905100   -1.600604
  H     -0.054464    1.659655   -0.124149
  H      1.469416   -1.222781   -0.377545

 Total Charge           Charge          ....    0
 Multiplicity           Mult            ....    1
 Number of Electrons    NEL             ....   42
 Basis Dimension        Dim             ....   76

ORBITAL ENERGIES
----------------

  NO   OCC          E(Eh)            E(eV)
   0   2.0000     -88.013294     -2394.9635
   1   2.0000      -9.917128      -269.8588
   2   2.0000      -9.893196      -269.2076
   3   2.0000      -9.872012      -268.6311
   4   2.0000      -7.659738      -208.4321
   5   2.0000      -5.688196      -154.7837
   6   2.0000      -5.684136      -154.6732
   7   2.0000      -5.675928      -154.4498
   8   2.0000      -0.734848       -19.9962
   9   2.0000      -0.662384       -18.0244
  10   2.0000      -0.588021       -16.0009
  11   2.0000      -0.521398       -14.1880
  12   2.0000      -0.414931       -11.2909
  13   2.0000      -0.411066       -11.1857
  14   2.0000      -0.385651       -10.4941
  15   2.0000      -0.341682        -9.2976
  16   2.0000      -0.323892        -8.8135
  17   2.0000      -0.311390        -8.4734
  18   2.0000      -0.301264        -8.1978
  19   2.0000      -0.274582        -7.4718
  20   2.0000      -0.193981        -5.2785
  21   0.0000       0.006639         0.1807
  22   0.0000       0.043830         1.1927
  23   0.0000       0.048787         1.3276
  24   0.0000       0.078683         2.1411
  25   0.0000       0.084251         2.2926

MULLIKEN ATOMIC CHARGES
-----------------------
   0 C :   -0.284330
   1 C :   -0.157610
   2 C :   -0.286615
   3 S :   -0.177548
   4 H :    0.113433
   5 H :    0.096818
   6 H :    0.104550
   7 H :    0.093341
   8 H :    0.089031
   9 H :    0.133808
  10 H :    0.134063
  11 H :    0.141060
Sum of atomic charges:   -0.0000000

LOEWDIN ATOMIC CHARGES
----------------------
   0 C :   -0.349034
   1 C :   -0.251707
   2 C :   -0.331536
   3 S :    0.020172
   4 H :    0.117185
   5 H :    0.116962
   6 H :    0.119666
   7 H :    0.120247
   8 H :    0.114476
   9 H :    0.121579
  10 H :    0.126698
  11 H :    0.075292

  Mayer bond orders larger than 0.100000
B(  0-C ,  1-C ) :   1.1469 B(  0-C ,  4-H ) :   0.9434 B(  0-C ,  5-H ) :   0.9553
B(  0-C ,  6-H ) :   0.9534 B(  1-C ,  2-C ) :   1.0810 B(  1-C ,  7-H ) :   0.9149
B(  1-C ,  8-H ) :   0.9296 B(  2-C ,  3-S ) :   1.0686 B(  2-C ,  9-H ) :   0.9299
B(  2-C , 10-H ) :   0.9271 B(  3-S , 11-H ) :   0.9075

Dispersion correction           -0.008308562
FINAL SINGLE POINT ENERGY      -516.700435657359

DIPOLE MOMENT
-------------

Method             : SCF
Type of density    : Electron Density
Multiplicity       :   1
Irrep              :   0
Energy             :  -516.7420418349986448 Eh
Relativity type    :
Basis              : AO
                                X                 Y                 Z
Electronic contribution:      6.349690219      -0.001067511       1.582024597
Nuclear contribution   :     -6.702003226      -0.025937002      -2.092501359
                        -----------------------------------------
Total Dipole Moment    :     -0.352313007      -0.027004513      -0.510476763
                        -----------------------------------------
Magnitude (a.u.)       :      0.620838324
Magnitude (Debye)      :      1.578045609

Rotational constants in cm-1:             0.379421             0.110215             0.095733
Rotational constants in MHz :         11374.754445          3304.147594          2870.008703

                             ****ORCA TERMINATED NORMALLY****
TOTAL RUN TIME: 0 days 0 hours 0 minutes 4 seconds 277 msec
