                         Program Version 6.0.0  -   RELEASE  -
|  1> ! wb97x-v def2-tzvp def2/J RIJCOSX DEFGRID2 scfconv7 GCP(DFT/TZ) printgap
|  2> %output
|  3>     printlevel normal
|  4> end
|  5> * xyz 0 1
|  6> C -0.6962577869830971 -1.2138265521373188 -1.315759368780282e-05
|  7> C 0.6962754562736786 -1.2138370841453605 -6.754203695473457e-06
|  8> C 1.3714160494288807 -1.8797656190202642e-05 1.9563502854702436e-05
|  9> C 0.6962978665649527 1.2138118860097693 2.1619962448316032e-05
| 10> C -0.6962356437758958 1.2138265344343409 -1.3383990208566563e-05
| 11> C -1.3713778724610872 6.098817788851699e-06 -1.5619752154746148e-05
| 12> Br -3.2871202753754614 2.4273164985157338e-05 -8.69328900928433e-05
| 13> Br 3.287155524181917 -3.872283219996844e-05 7.820666724613058e-05
| 14> H -1.2329630700139071 -2.1552877318027757 -3.604383713195378e-05
| 15> H 1.232955561771544 -2.1553101472685667 1.1548946398099125e-05
| 16> H 1.2329958350322165 2.1552748119552376 3.2446541334207916e-05
| 17> H -1.2329221534020933 2.155297020923074 -1.200018827834429e-05
| 18> *
| 19>
| 20>                          ****END OF INPUT****

CARTESIAN COORDINATES (ANGSTROEM)
---------------------------------
  C     -0.696258   -1.213827   -0.000013
  C      0.696275   -1.213837   -0.000007
  C      1.371416   -0.000019    0.000020
  C      0.696298    1.213812    0.000022
  C     -0.696236    1.213827   -0.000013
  C     -1.371378    0.000006   -0.000016
  Br    -3.287120    0.000024   -0.000087
  Br     3.287156   -0.000039    0.000078
  H     -1.232963   -2.155288   -0.000036
  H      1.232956   -2.155310    0.000012
  H      1.232996    2.155275    0.000032
  H     -1.232922    2.155297   -0.000012

 Total Charge           Charge          ....    0
 Multiplicity           Mult            ....    1
 Number of Electrons    NEL             ....  110
 Basis Dimension        Dim             ....  306

ORBITAL ENERGIES
----------------

  NO   OCC          E(Eh)            E(eV)
   0   2.0000    -494.732208    -13462.3478
   1   2.0000    -494.732205    -13462.3477
   2   2.0000     -66.901449     -1820.4810
   3   2.0000     -66.901436     -1820.4806
   4   2.0000     -60.958137     -1658.7552
   5   2.0000     -60.958100     -1658.7542
   6   2.0000     -60.956812     -1658.7192
   7   2.0000     -60.956786     -1658.7185
   8   2.0000     -60.956769     -1658.7180
   9   2.0000     -60.956751     -1658.7175
  10   2.0000     -12.127242      -329.9990
  11   2.0000     -12.126959      -329.9913
  12   2.0000     -12.084674      -328.8407
  13   2.0000     -12.084106      -328.8253
  14   2.0000     -12.082486      -328.7812
  15   2.0000     -12.082269      -328.7753
  16   2.0000     -10.653295      -289.8909
  17   2.0000     -10.653262      -289.8900
  18   2.0000      -8.433200      -229.4790
  19   2.0000      -8.432962      -229.4726
  20   2.0000      -8.426475      -229.2960
  21   2.0000      -8.426260      -229.2902
  22   2.0000      -8.426162      -229.2875
  23   2.0000      -8.426152      -229.2873
  24   2.0000      -4.418257      -120.2269
  25   2.0000      -4.418251      -120.2267
  26   2.0000      -4.415684      -120.1569
  27   2.0000      -4.415578      -120.1540
  28   2.0000      -4.415403      -120.1492
  29   2.0000      -4.415372      -120.1484
  30   2.0000      -4.408031      -119.9486
  31   2.0000      -4.408024      -119.9484
  32   2.0000      -4.408003      -119.9479
  33   2.0000      -4.407992      -119.9476
  34   2.0000      -1.429955       -38.9110
  35   2.0000      -1.372247       -37.3407
  36   2.0000      -1.333672       -36.2911
  37   2.0000      -1.310004       -35.6470
  38   2.0000      -1.267808       -34.4988
  39   2.0000      -1.147930       -31.2368
  40   2.0000      -1.116510       -30.3818
  41   2.0000      -0.994805       -27.0700
  42   2.0000      -0.982617       -26.7384
  43   2.0000      -0.938208       -25.5299
  44   2.0000      -0.909214       -24.7410
  45   2.0000      -0.888348       -24.1732
  46   2.0000      -0.849262       -23.1096
  47   2.0000      -0.837010       -22.7762
  48   2.0000      -0.822890       -22.3920
  49   2.0000      -0.767175       -20.8759
  50   2.0000      -0.740510       -20.1503
  51   2.0000      -0.739325       -20.1181
  52   2.0000      -0.733052       -19.9474
  53   2.0000      -0.670949       -18.2574
  54   2.0000      -0.662541       -18.0287
  55   0.0000      -0.302313        -8.2263
  56   0.0000      -0.299676        -8.1546
  57   0.0000      -0.281930        -7.6717
  58   0.0000      -0.267678        -7.2839
  59   0.0000      -0.105201        -2.8627

MULLIKEN ATOMIC CHARGES
-----------------------
   0 C :   -0.150982
   1 C :   -0.151010
   2 C :    0.068943
   3 C :   -0.151012
   4 C :   -0.150992
   5 C :    0.068976
   6 Br:   -0.060460
   7 Br:   -0.060465
   8 H :    0.146736
   9 H :    0.146759
  10 H :    0.146773
  11 H :    0.146734
Sum of atomic charges:    0.0000000

LOEWDIN ATOMIC CHARGES
----------------------
   0 C :   -0.132637
   1 C :   -0.132645
   2 C :   -0.366978
   3 C :   -0.132645
   4 C :   -0.132636
   5 C :   -0.366954
   6 Br:    0.330639
   7 Br:    0.330648
   8 H :    0.150802
   9 H :    0.150802
  10 H :    0.150803
  11 H :    0.150801

  Mayer bond orders larger than 0.100000
B(  0-C ,  1-C ) :   1.3904 B(  0-C ,  5-C ) :   1.3806 B(  0-C ,  8-H ) :   0.9643
B(  1-C ,  2-C ) :   1.3807 B(  1-C ,  9-H ) :   0.9643 B(  2-C ,  3-C ) :   1.3807
B(  2-C ,  7-Br) :   1.0612 B(  3-C ,  4-C ) :   1.3904 B(  3-C , 10-H ) :   0.9643
B(  4-C ,  5-C ) :   1.3806 B(  4-C , 11-H ) :   0.9643 B(  5-C ,  6-Br) :   1.0612

FINAL SINGLE POINT ENERGY     -5378.892871497152

DIPOLE MOMENT
-------------

Method             : SCF
Type of density    : Electron Density
Multiplicity       :   1
Irrep              :   0
Energy             : -5378.9010576574519291 Eh
Relativity type    :
Basis              : AO
                                X                 Y                 Z
Electronic contribution:     -0.000024843      -0.000005693      -0.000027330
Nuclear contribution   :      0.000004966       0.000006957       0.000027341
                        -----------------------------------------
Total Dipole Moment    :     -0.000019877       0.000001265       0.000000011
                        -----------------------------------------
Magnitude (a.u.)       :      0.000019917
Magnitude (Debye)      :      0.000050625

Rotational constants in cm-1:             0.188319             0.009359             0.008916
Rotational constants in MHz :          5645.657686           280.566483           267.283564

                             ****ORCA TERMINATED NORMALLY****
TOTAL RUN TIME: 0 days 0 hours 3 minutes 8 seconds 714 msec
