                         Program Version 6.0.0  -   RELEASE  -
|  1> ! wb97x-v def2-tzvp def2/J RIJCOSX DEFGRID2 scfconv7 GCP(DFT/TZ) printgap
|  2> %output
|  3>     printlevel normal
|  4> end
|  5> %cpcm
|  6>     smd true
|  7>     smdsolvent "water"
|  8> end
|  9> * xyz 0 1
| 10> C -0.6962577869830971 -1.2138265521373188 -1.315759368780282e-05
| 11> C 0.6962754562736786 -1.2138370841453605 -6.754203695473457e-06
| 12> C 1.3714160494288807 -1.8797656190202642e-05 1.9563502854702436e-05
| 13> C 0.6962978665649527 1.2138118860097693 2.1619962448316032e-05
| 14> C -0.6962356437758958 1.2138265344343409 -1.3383990208566563e-05
| 15> C -1.3713778724610872 6.098817788851699e-06 -1.5619752154746148e-05
| 16> Br -3.2871202753754614 2.4273164985157338e-05 -8.69328900928433e-05
| 17> Br 3.287155524181917 -3.872283219996844e-05 7.820666724613058e-05
| 18> H -1.2329630700139071 -2.1552877318027757 -3.604383713195378e-05
| 19> H 1.232955561771544 -2.1553101472685667 1.1548946398099125e-05
| 20> H 1.2329958350322165 2.1552748119552376 3.2446541334207916e-05
| 21> H -1.2329221534020933 2.155297020923074 -1.200018827834429e-05
| 22> *
| 23>
| 24>                          ****END OF INPUT****

CARTESIAN COORDINATES (ANGSTROEM)
---------------------------------
  C     -0.696258   -1.213827   -0.000013
  C      0.696275   -1.213837   -0.000007
  C      1.371416   -0.000019    0.000020
  C      0.696298    1.213812    0.000022
  C     -0.696236    1.213827   -0.000013
  C     -1.371378    0.000006   -0.000016
  Br    -3.287120    0.000024   -0.000087
  Br     3.287156   -0.000039    0.000078
  H     -1.232963   -2.155288   -0.000036
  H      1.232956   -2.155310    0.000012
  H      1.232996    2.155275    0.000032
  H     -1.232922    2.155297   -0.000012

 Total Charge           Charge          ....    0
 Multiplicity           Mult            ....    1
 Number of Electrons    NEL             ....  110
 Basis Dimension        Dim             ....  306

ORBITAL ENERGIES
----------------

  NO   OCC          E(Eh)            E(eV)
   0   2.0000    -494.728941    -13462.2589
   1   2.0000    -494.728938    -13462.2588
   2   2.0000     -66.898233     -1820.3935
   3   2.0000     -66.898219     -1820.3931
   4   2.0000     -60.954904     -1658.6673
   5   2.0000     -60.954867     -1658.6662
   6   2.0000     -60.953611     -1658.6321
   7   2.0000     -60.953585     -1658.6314
   8   2.0000     -60.953569     -1658.6309
   9   2.0000     -60.953551     -1658.6305
  10   2.0000     -12.119561      -329.7900
  11   2.0000     -12.119280      -329.7824
  12   2.0000     -12.073937      -328.5485
  13   2.0000     -12.073383      -328.5334
  14   2.0000     -12.071750      -328.4890
  15   2.0000     -12.071545      -328.4834
  16   2.0000     -10.650096      -289.8038
  17   2.0000     -10.650060      -289.8029
  18   2.0000      -8.429930      -229.3901
  19   2.0000      -8.429677      -229.3832
  20   2.0000      -8.423361      -229.2113
  21   2.0000      -8.423130      -229.2050
  22   2.0000      -8.423050      -229.2028
  23   2.0000      -8.423034      -229.2024
  24   2.0000      -4.414953      -120.1370
  25   2.0000      -4.414947      -120.1368
  26   2.0000      -4.412465      -120.0693
  27   2.0000      -4.412355      -120.0663
  28   2.0000      -4.412153      -120.0608
  29   2.0000      -4.412120      -120.0599
  30   2.0000      -4.404953      -119.8649
  31   2.0000      -4.404946      -119.8647
  32   2.0000      -4.404926      -119.8641
  33   2.0000      -4.404914      -119.8638
  34   2.0000      -1.421785       -38.6887
  35   2.0000      -1.367368       -37.2080
  36   2.0000      -1.329491       -36.1773
  37   2.0000      -1.299619       -35.3644
  38   2.0000      -1.261320       -34.3223
  39   2.0000      -1.138096       -30.9692
  40   2.0000      -1.106575       -30.1114
  41   2.0000      -0.985397       -26.8140
  42   2.0000      -0.972731       -26.4694
  43   2.0000      -0.925418       -25.1819
  44   2.0000      -0.896480       -24.3945
  45   2.0000      -0.882998       -24.0276
  46   2.0000      -0.836566       -22.7641
  47   2.0000      -0.829904       -22.5828
  48   2.0000      -0.815517       -22.1913
  49   2.0000      -0.763474       -20.7752
  50   2.0000      -0.737266       -20.0620
  51   2.0000      -0.736110       -20.0306
  52   2.0000      -0.729481       -19.8502
  53   2.0000      -0.660811       -17.9816
  54   2.0000      -0.656628       -17.8678
  55   0.0000      -0.297571        -8.0973
  56   0.0000      -0.293889        -7.9971
  57   0.0000      -0.274251        -7.4628
  58   0.0000      -0.257720        -7.0129
  59   0.0000      -0.096135        -2.6160

MULLIKEN ATOMIC CHARGES
-----------------------
   0 C :   -0.186569
   1 C :   -0.186601
   2 C :    0.087223
   3 C :   -0.186613
   4 C :   -0.186563
   5 C :    0.087230
   6 Br:   -0.075032
   7 Br:   -0.075042
   8 H :    0.180479
   9 H :    0.180499
  10 H :    0.180510
  11 H :    0.180479
Sum of atomic charges:    0.0000000

LOEWDIN ATOMIC CHARGES
----------------------
   0 C :   -0.131706
   1 C :   -0.131710
   2 C :   -0.373649
   3 C :   -0.131711
   4 C :   -0.131705
   5 C :   -0.373633
   6 Br:    0.316990
   7 Br:    0.316998
   8 H :    0.160031
   9 H :    0.160032
  10 H :    0.160032
  11 H :    0.160031

  Mayer bond orders larger than 0.100000
B(  0-C ,  1-C ) :   1.4124 B(  0-C ,  5-C ) :   1.3443 B(  0-C ,  8-H ) :   0.9671
B(  1-C ,  2-C ) :   1.3443 B(  1-C ,  9-H ) :   0.9670 B(  2-C ,  3-C ) :   1.3443
B(  2-C ,  7-Br) :   1.0637 B(  3-C ,  4-C ) :   1.4123 B(  3-C , 10-H ) :   0.9671
B(  4-C ,  5-C ) :   1.3443 B(  4-C , 11-H ) :   0.9671 B(  5-C ,  6-Br) :   1.0638

FINAL SINGLE POINT ENERGY     -5378.896728341900

DIPOLE MOMENT
-------------

Method             : SCF
Type of density    : Electron Density
Multiplicity       :   1
Irrep              :   0
Energy             : -5378.9049145021999720 Eh
Relativity type    :
Basis              : AO
                                X                 Y                 Z
Electronic contribution:     -0.000012928      -0.000005439      -0.000027050
Nuclear contribution   :      0.000004966       0.000006957       0.000027341
                        -----------------------------------------
Total Dipole Moment    :     -0.000007962       0.000001518       0.000000291
                        -----------------------------------------
Magnitude (a.u.)       :      0.000008110
Magnitude (Debye)      :      0.000020615

Rotational constants in cm-1:             0.188319             0.009359             0.008916
Rotational constants in MHz :          5645.657686           280.566483           267.283564

                             ****ORCA TERMINATED NORMALLY****
TOTAL RUN TIME: 0 days 0 hours 3 minutes 13 seconds 859 msec
