                         Program Version 6.0.0  -   RELEASE  -
|  1> ! r2scan-3c def2/J RI DEFGRID2 scfconv6 printgap
|  2> %output
|  3>     printlevel normal
|  4> end
|  5> * xyz 0 1
|  6> C -2.5517517168 -0.7004504647 -0.3371160741
|  7> C -1.175758001 -0.3136077797 0.2182031597
|  8> H -1.2201110524 -0.2966634149 1.3199125082
|  9> C -0.7243913998 1.0624370707 -0.2957431991
| 10> H -0.7408796895 1.0585953226 -1.3912871419
| 11> C 0.7118041862 1.3379258536 0.176408228
| 12> H 0.7187284611 1.4354358872 1.2760878671
| 13> C 1.64105711 0.1775807281 -0.2036404497
| 14> H 1.7161430687 0.1392030203 -1.3016413178
| 15> C 1.0471049115 -1.1519456345 0.3008876645
| 16> H 1.0454979753 -1.1398027176 1.4029516461
| 17> O -0.2646535539 -1.3163800345 -0.1964621066
| 18> O 1.7813498592 -2.2546449244 -0.064673371
| 19> O 2.9098048324 0.3287426928 0.3739436822
| 20> O 1.2310733836 2.5093939585 -0.4069479272
| 21> O -1.5877567625 2.09957263 0.089451556
| 22> O -3.1046255399 -1.8027341507 0.3309221076
| 23> H -2.4460600375 -0.9025958199 -1.4094809472
| 24> H -3.2446815086 0.1302046809 -0.1938269022
| 25> H 1.7782528425 -2.3503142022 -1.0306424256
| 26> H 3.2605891838 1.195443086 0.1156870863
| 27> H 0.5481512949 3.1973773232 -0.3869723786
| 28> H -1.6912084873 2.1051570606 1.0530193603
| 29> H -2.5101212117 -2.5592145484 0.2226404489
| 30> *
| 31>
| 32>                          ****END OF INPUT****

CARTESIAN COORDINATES (ANGSTROEM)
---------------------------------
  C     -2.551752   -0.700450   -0.337116
  C     -1.175758   -0.313608    0.218203
  H     -1.220111   -0.296663    1.319913
  C     -0.724391    1.062437   -0.295743
  H     -0.740880    1.058595   -1.391287
  C      0.711804    1.337926    0.176408
  H      0.718728    1.435436    1.276088
  C      1.641057    0.177581   -0.203640
  H      1.716143    0.139203   -1.301641
  C      1.047105   -1.151946    0.300888
  H      1.045498   -1.139803    1.402952
  O     -0.264654   -1.316380   -0.196462
  O      1.781350   -2.254645   -0.064673
  O      2.909805    0.328743    0.373944
  O      1.231073    2.509394   -0.406948
  O     -1.587757    2.099573    0.089452
  O     -3.104626   -1.802734    0.330922
  H     -2.446060   -0.902596   -1.409481
  H     -3.244682    0.130205   -0.193827
  H      1.778253   -2.350314   -1.030642
  H      3.260589    1.195443    0.115687
  H      0.548151    3.197377   -0.386972
  H     -1.691208    2.105157    1.053019
  H     -2.510121   -2.559215    0.222640

 Total Charge           Charge          ....    0
 Multiplicity           Mult            ....    1
 Number of Electrons    NEL             ....   96
 Basis Dimension        Dim             ....  318

ORBITAL ENERGIES
----------------

  NO   OCC          E(Eh)            E(eV)
   0   2.0000     -18.982598      -516.5427
   1   2.0000     -18.978928      -516.4429
   2   2.0000     -18.968894      -516.1698
   3   2.0000     -18.968741      -516.1657
   4   2.0000     -18.959574      -515.9162
   5   2.0000     -18.955117      -515.7950
   6   2.0000     -10.144650      -276.0500
   7   2.0000     -10.103822      -274.9390
   8   2.0000     -10.102047      -274.8907
   9   2.0000     -10.099960      -274.8339
  10   2.0000     -10.096096      -274.7287
  11   2.0000     -10.085882      -274.4508
  12   2.0000      -1.057532       -28.7769
  13   2.0000      -1.028389       -27.9839
  14   2.0000      -1.010702       -27.5026
  15   2.0000      -0.998619       -27.1738
  16   2.0000      -0.991322       -26.9752
  17   2.0000      -0.983904       -26.7734
  18   2.0000      -0.760211       -20.6864
  19   2.0000      -0.742453       -20.2032
  20   2.0000      -0.663175       -18.0459
  21   2.0000      -0.628379       -17.0991
  22   2.0000      -0.599568       -16.3151
  23   2.0000      -0.583247       -15.8709
  24   2.0000      -0.533134       -14.5073
  25   2.0000      -0.516547       -14.0560
  26   2.0000      -0.502409       -13.6713
  27   2.0000      -0.483553       -13.1582
  28   2.0000      -0.474069       -12.9001
  29   2.0000      -0.462112       -12.5747
  30   2.0000      -0.441791       -12.0217
  31   2.0000      -0.439577       -11.9615
  32   2.0000      -0.420494       -11.4422
  33   2.0000      -0.401396       -10.9225
  34   2.0000      -0.386622       -10.5205
  35   2.0000      -0.380250       -10.3471
  36   2.0000      -0.351726        -9.5710
  37   2.0000      -0.345843        -9.4109
  38   2.0000      -0.334174        -9.0933
  39   2.0000      -0.326702        -8.8900
  40   2.0000      -0.315264        -8.5788
  41   2.0000      -0.312535        -8.5045
  42   2.0000      -0.286542        -7.7972
  43   2.0000      -0.267954        -7.2914
  44   2.0000      -0.262594        -7.1455
  45   2.0000      -0.250185        -6.8079
  46   2.0000      -0.245109        -6.6697
  47   2.0000      -0.231911        -6.3106
  48   0.0000       0.021350         0.5810
  49   0.0000       0.042398         1.1537
  50   0.0000       0.060385         1.6432
  51   0.0000       0.070397         1.9156
  52   0.0000       0.076214         2.0739

MULLIKEN ATOMIC CHARGES
-----------------------
   0 C :   -0.279203
   1 C :   -0.052915
   2 H :    0.183379
   3 C :   -0.077575
   4 H :    0.173824
   5 C :    0.018888
   6 H :    0.166236
   7 C :    0.074258
   8 H :    0.160105
   9 C :   -0.162593
  10 H :    0.154427
  11 O :   -0.196982
  12 O :   -0.347738
  13 O :   -0.417912
  14 O :   -0.436794
  15 O :   -0.420713
  16 O :   -0.411451
  17 H :    0.147117
  18 H :    0.162119
  19 H :    0.312532
  20 H :    0.315998
  21 H :    0.312287
  22 H :    0.306618
  23 H :    0.316090
Sum of atomic charges:    0.0000000

LOEWDIN ATOMIC CHARGES
----------------------
   0 C :    0.042031
   1 C :    0.103839
   2 H :    0.183341
   3 C :    0.097332
   4 H :    0.201461
   5 C :    0.096827
   6 H :    0.179680
   7 C :    0.117057
   8 H :    0.181882
   9 C :    0.300149
  10 H :    0.199291
  11 O :   -0.686879
  12 O :   -0.464831
  13 O :   -0.556685
  14 O :   -0.582870
  15 O :   -0.581760
  16 O :   -0.590047
  17 H :    0.171303
  18 H :    0.192376
  19 H :    0.280440
  20 H :    0.283898
  21 H :    0.282901
  22 H :    0.274706
  23 H :    0.274556

  Mayer bond orders larger than 0.100000
B(  0-C ,  1-C ) :   0.9229 B(  0-C , 16-O ) :   1.0098 B(  0-C , 17-H ) :   0.9978
B(  0-C , 18-H ) :   0.9690 B(  1-C ,  2-H ) :   0.9617 B(  1-C ,  3-C ) :   0.8437
B(  1-C , 11-O ) :   0.7874 B(  3-C ,  4-H ) :   0.9491 B(  3-C ,  5-C ) :   0.8783
B(  3-C , 15-O ) :   0.9807 B(  5-C ,  6-H ) :   0.9825 B(  5-C ,  7-C ) :   0.8656
B(  5-C , 14-O ) :   0.9017 B(  7-C ,  8-H ) :   0.9514 B(  7-C ,  9-C ) :   0.8410
B(  7-C , 13-O ) :   0.8895 B(  9-C , 10-H ) :   1.0003 B(  9-C , 11-O ) :   0.9205
B(  9-C , 12-O ) :   1.1433 B( 12-O , 19-H ) :   0.8756 B( 13-O , 20-H ) :   0.8783
B( 14-O , 21-H ) :   0.8724 B( 15-O , 22-H ) :   0.8833 B( 16-O , 23-H ) :   0.8777

Dispersion correction           -0.007981177
FINAL SINGLE POINT ENERGY      -687.075370114759

DIPOLE MOMENT
-------------

Method             : SCF
Type of density    : Electron Density
Multiplicity       :   1
Irrep              :   0
Energy             :  -687.0866217439667025 Eh
Relativity type    :
Basis              : AO
                                X                 Y                 Z
Electronic contribution:      2.442373049      -1.153523840       0.096991583
Nuclear contribution   :     -2.599160879       1.881913047      -0.301676911
                        -----------------------------------------
Total Dipole Moment    :     -0.156787830       0.728389207      -0.204685328
                        -----------------------------------------
Magnitude (a.u.)       :      0.772676740
Magnitude (Debye)      :      1.963988192

Rotational constants in cm-1:             0.039113             0.025852             0.016326
Rotational constants in MHz :          1172.580604           775.024962           489.447894

                             ****ORCA TERMINATED NORMALLY****
TOTAL RUN TIME: 0 days 0 hours 0 minutes 43 seconds 598 msec
