                         Program Version 6.0.0  -   RELEASE  -
|  1> ! r2scan-3c def2/J RI DEFGRID2 scfconv6 printgap
|  2> %output
|  3>     printlevel normal
|  4> end
|  5> %cpcm
|  6>     smd true
|  7>     smdsolvent "water"
|  8> end
|  9> * xyz 0 1
| 10> C -2.5517517168 -0.7004504647 -0.3371160741
| 11> C -1.175758001 -0.3136077797 0.2182031597
| 12> H -1.2201110524 -0.2966634149 1.3199125082
| 13> C -0.7243913998 1.0624370707 -0.2957431991
| 14> H -0.7408796895 1.0585953226 -1.3912871419
| 15> C 0.7118041862 1.3379258536 0.176408228
| 16> H 0.7187284611 1.4354358872 1.2760878671
| 17> C 1.64105711 0.1775807281 -0.2036404497
| 18> H 1.7161430687 0.1392030203 -1.3016413178
| 19> C 1.0471049115 -1.1519456345 0.3008876645
| 20> H 1.0454979753 -1.1398027176 1.4029516461
| 21> O -0.2646535539 -1.3163800345 -0.1964621066
| 22> O 1.7813498592 -2.2546449244 -0.064673371
| 23> O 2.9098048324 0.3287426928 0.3739436822
| 24> O 1.2310733836 2.5093939585 -0.4069479272
| 25> O -1.5877567625 2.09957263 0.089451556
| 26> O -3.1046255399 -1.8027341507 0.3309221076
| 27> H -2.4460600375 -0.9025958199 -1.4094809472
| 28> H -3.2446815086 0.1302046809 -0.1938269022
| 29> H 1.7782528425 -2.3503142022 -1.0306424256
| 30> H 3.2605891838 1.195443086 0.1156870863
| 31> H 0.5481512949 3.1973773232 -0.3869723786
| 32> H -1.6912084873 2.1051570606 1.0530193603
| 33> H -2.5101212117 -2.5592145484 0.2226404489
| 34> *
| 35>
| 36>                          ****END OF INPUT****

CARTESIAN COORDINATES (ANGSTROEM)
---------------------------------
  C     -2.551752   -0.700450   -0.337116
  C     -1.175758   -0.313608    0.218203
  H     -1.220111   -0.296663    1.319913
  C     -0.724391    1.062437   -0.295743
  H     -0.740880    1.058595   -1.391287
  C      0.711804    1.337926    0.176408
  H      0.718728    1.435436    1.276088
  C      1.641057    0.177581   -0.203640
  H      1.716143    0.139203   -1.301641
  C      1.047105   -1.151946    0.300888
  H      1.045498   -1.139803    1.402952
  O     -0.264654   -1.316380   -0.196462
  O      1.781350   -2.254645   -0.064673
  O      2.909805    0.328743    0.373944
  O      1.231073    2.509394   -0.406948
  O     -1.587757    2.099573    0.089452
  O     -3.104626   -1.802734    0.330922
  H     -2.446060   -0.902596   -1.409481
  H     -3.244682    0.130205   -0.193827
  H      1.778253   -2.350314   -1.030642
  H      3.260589    1.195443    0.115687
  H      0.548151    3.197377   -0.386972
  H     -1.691208    2.105157    1.053019
  H     -2.510121   -2.559215    0.222640

 Total Charge           Charge          ....    0
 Multiplicity           Mult            ....    1
 Number of Electrons    NEL             ....   96
 Basis Dimension        Dim             ....  318

ORBITAL ENERGIES
----------------

  NO   OCC          E(Eh)            E(eV)
   0   2.0000     -18.973328      -516.2905
   1   2.0000     -18.970152      -516.2041
   2   2.0000     -18.963983      -516.0362
   3   2.0000     -18.961333      -515.9641
   4   2.0000     -18.959439      -515.9126
   5   2.0000     -18.956257      -515.8260
   6   2.0000     -10.138134      -275.8726
   7   2.0000     -10.087695      -274.5001
   8   2.0000     -10.087509      -274.4951
   9   2.0000     -10.086896      -274.4784
  10   2.0000     -10.085233      -274.4331
  11   2.0000     -10.075891      -274.1789
  12   2.0000      -1.053563       -28.6689
  13   2.0000      -1.014281       -27.6000
  14   2.0000      -1.004798       -27.3419
  15   2.0000      -0.995775       -27.0964
  16   2.0000      -0.985070       -26.8051
  17   2.0000      -0.982025       -26.7223
  18   2.0000      -0.746650       -20.3174
  19   2.0000      -0.733373       -19.9561
  20   2.0000      -0.653991       -17.7960
  21   2.0000      -0.617100       -16.7921
  22   2.0000      -0.590883       -16.0787
  23   2.0000      -0.570394       -15.5212
  24   2.0000      -0.523762       -14.2523
  25   2.0000      -0.506802       -13.7908
  26   2.0000      -0.489270       -13.3137
  27   2.0000      -0.476097       -12.9553
  28   2.0000      -0.465940       -12.6789
  29   2.0000      -0.451752       -12.2928
  30   2.0000      -0.436584       -11.8800
  31   2.0000      -0.430853       -11.7241
  32   2.0000      -0.410280       -11.1643
  33   2.0000      -0.397058       -10.8045
  34   2.0000      -0.377123       -10.2620
  35   2.0000      -0.370556       -10.0833
  36   2.0000      -0.353850        -9.6288
  37   2.0000      -0.341478        -9.2921
  38   2.0000      -0.328508        -8.9392
  39   2.0000      -0.320223        -8.7137
  40   2.0000      -0.311024        -8.4634
  41   2.0000      -0.308084        -8.3834
  42   2.0000      -0.283072        -7.7028
  43   2.0000      -0.265835        -7.2337
  44   2.0000      -0.254844        -6.9347
  45   2.0000      -0.249144        -6.7796
  46   2.0000      -0.242722        -6.6048
  47   2.0000      -0.224437        -6.1072
  48   0.0000       0.041070         1.1176
  49   0.0000       0.063302         1.7225
  50   0.0000       0.077153         2.0994
  51   0.0000       0.091542         2.4910
  52   0.0000       0.095489         2.5984

MULLIKEN ATOMIC CHARGES
-----------------------
   0 C :   -0.287471
   1 C :   -0.031862
   2 H :    0.202449
   3 C :   -0.067829
   4 H :    0.193333
   5 C :    0.013715
   6 H :    0.185915
   7 C :    0.061266
   8 H :    0.183442
   9 C :   -0.128577
  10 H :    0.176068
  11 O :   -0.242458
  12 O :   -0.428567
  13 O :   -0.491952
  14 O :   -0.496976
  15 O :   -0.479361
  16 O :   -0.485653
  17 H :    0.163666
  18 H :    0.173219
  19 H :    0.368559
  20 H :    0.354828
  21 H :    0.348814
  22 H :    0.358466
  23 H :    0.356963
Sum of atomic charges:    0.0000000

LOEWDIN ATOMIC CHARGES
----------------------
   0 C :    0.040238
   1 C :    0.112503
   2 H :    0.196250
   3 C :    0.103771
   4 H :    0.206633
   5 C :    0.102893
   6 H :    0.191343
   7 C :    0.117235
   8 H :    0.192939
   9 C :    0.297522
  10 H :    0.207451
  11 O :   -0.700186
  12 O :   -0.499439
  13 O :   -0.591698
  14 O :   -0.605007
  15 O :   -0.595446
  16 O :   -0.625134
  17 H :    0.178491
  18 H :    0.196026
  19 H :    0.299440
  20 H :    0.297266
  21 H :    0.294907
  22 H :    0.293905
  23 H :    0.288095

  Mayer bond orders larger than 0.100000
B(  0-C ,  1-C ) :   0.9153 B(  0-C , 16-O ) :   0.9897 B(  0-C , 17-H ) :   0.9858
B(  0-C , 18-H ) :   0.9672 B(  1-C ,  2-H ) :   0.9434 B(  1-C ,  3-C ) :   0.8606
B(  1-C , 11-O ) :   0.7847 B(  3-C ,  4-H ) :   0.9575 B(  3-C ,  5-C ) :   0.8846
B(  3-C , 15-O ) :   0.9676 B(  5-C ,  6-H ) :   0.9667 B(  5-C ,  7-C ) :   0.8921
B(  5-C , 14-O ) :   0.8904 B(  7-C ,  8-H ) :   0.9436 B(  7-C ,  9-C ) :   0.8512
B(  7-C , 13-O ) :   0.8682 B(  9-C , 10-H ) :   0.9896 B(  9-C , 11-O ) :   0.9293
B(  9-C , 12-O ) :   1.1181 B( 12-O , 19-H ) :   0.8466 B( 13-O , 20-H ) :   0.8594
B( 14-O , 21-H ) :   0.8558 B( 15-O , 22-H ) :   0.8576 B( 16-O , 23-H ) :   0.8563

Dispersion correction           -0.007981177
FINAL SINGLE POINT ENERGY      -687.112106755307

DIPOLE MOMENT
-------------

Method             : SCF
Type of density    : Electron Density
Multiplicity       :   1
Irrep              :   0
Energy             :  -687.1233583845145176 Eh
Relativity type    :
Basis              : AO
                                X                 Y                 Z
Electronic contribution:      2.301754498      -0.831728124       0.089939538
Nuclear contribution   :     -2.599160879       1.881913047      -0.301676911
                        -----------------------------------------
Total Dipole Moment    :     -0.297406381       1.050184924      -0.211737373
                        -----------------------------------------
Magnitude (a.u.)       :      1.111832561
Magnitude (Debye)      :      2.826053781

Rotational constants in cm-1:             0.039113             0.025852             0.016326
Rotational constants in MHz :          1172.580604           775.024962           489.447894

                             ****ORCA TERMINATED NORMALLY****
TOTAL RUN TIME: 0 days 0 hours 0 minutes 52 seconds 279 msec
