                         Program Version 6.0.0  -   RELEASE  -
|  1> ! pbe def2-sv(p) def2/J RI DEFGRID1 loosescf d4 GCP(DFT/SV(P)) printgap
|  2> %output
|  3>     printlevel normal
|  4> end
|  5> * xyz 0 1
|  6> C 4.4557115458 -0.274247275 -0.0027895838
|  7> C 4.2484679379 1.0930272397 -0.0003811004
|  8> C 2.9591296932 1.6017722035 0.001479519
|  9> C 1.877230697 0.7386659152 0.0011000221
| 10> C 2.0857267378 -0.6392915871 -0.0003423879
| 11> C 3.3754072483 -1.14244604 -0.0026239663
| 12> O 1.0372966882 -1.5383822822 0.0006369093
| 13> C -0.2222949859 -0.9910494604 0.0013009035
| 14> C -1.3081835485 -1.85017163 0.0018653343
| 15> C -2.600764965 -1.3504018034 0.0012994031
| 16> C -2.7918369212 0.0184285803 -7.4463e-06
| 17> C -1.7191043004 0.8970986921 0.0002192753
| 18> C -0.4303964044 0.3909291031 0.0011970463
| 19> O 0.6077398025 1.287322776 0.0020010809
| 20> Cl -4.4016113984 0.6644162432 -0.0019295025
| 21> H 5.4566937022 -0.6734417787 -0.0047985681
| 22> H 5.0858729048 1.7712391101 -0.0001500811
| 23> H 2.7685040081 2.6623015696 0.0033364388
| 24> H 3.5078130426 -2.2117226808 -0.0041519748
| 25> H -1.1233087712 -2.9112274366 0.0027738324
| 26> H -3.443475861 -2.020391134 0.0017128437
| 27> H -1.8617832793 1.9645199424 -0.0003390407
| 28> *
| 29>
| 30>                          ****END OF INPUT****

CARTESIAN COORDINATES (ANGSTROEM)
---------------------------------
  C      4.455712   -0.274247   -0.002790
  C      4.248468    1.093027   -0.000381
  C      2.959130    1.601772    0.001480
  C      1.877231    0.738666    0.001100
  C      2.085727   -0.639292   -0.000342
  C      3.375407   -1.142446   -0.002624
  O      1.037297   -1.538382    0.000637
  C     -0.222295   -0.991049    0.001301
  C     -1.308184   -1.850172    0.001865
  C     -2.600765   -1.350402    0.001299
  C     -2.791837    0.018429   -0.000007
  C     -1.719104    0.897099    0.000219
  C     -0.430396    0.390929    0.001197
  O      0.607740    1.287323    0.002001
  Cl    -4.401611    0.664416   -0.001930
  H      5.456694   -0.673442   -0.004799
  H      5.085873    1.771239   -0.000150
  H      2.768504    2.662302    0.003336
  H      3.507813   -2.211723   -0.004152
  H     -1.123309   -2.911227    0.002774
  H     -3.443476   -2.020391    0.001713
  H     -1.861783    1.964520   -0.000339

 Total Charge           Charge          ....    0
 Multiplicity           Mult            ....    1
 Number of Electrons    NEL             ....  112
 Basis Dimension        Dim             ....  228

ORBITAL ENERGIES
----------------

  NO   OCC          E(Eh)            E(eV)
   0   2.0000    -100.641078     -2738.5830
   1   2.0000     -18.824365      -512.2370
   2   2.0000     -18.823293      -512.2079
   3   2.0000      -9.973774      -271.4002
   4   2.0000      -9.969952      -271.2962
   5   2.0000      -9.969254      -271.2772
   6   2.0000      -9.969027      -271.2710
   7   2.0000      -9.956615      -270.9333
   8   2.0000      -9.910709      -269.6841
   9   2.0000      -9.910475      -269.6777
  10   2.0000      -9.908596      -269.6266
  11   2.0000      -9.905775      -269.5498
  12   2.0000      -9.905632      -269.5460
  13   2.0000      -9.902987      -269.4740
  14   2.0000      -9.902680      -269.4656
  15   2.0000      -9.176945      -249.7174
  16   2.0000      -7.008334      -190.7065
  17   2.0000      -6.996887      -190.3950
  18   2.0000      -6.996356      -190.3805
  19   2.0000      -1.024492       -27.8779
  20   2.0000      -0.989973       -26.9385
  21   2.0000      -0.821478       -22.3536
  22   2.0000      -0.795308       -21.6414
  23   2.0000      -0.763945       -20.7880
  24   2.0000      -0.712779       -19.3957
  25   2.0000      -0.695436       -18.9238
  26   2.0000      -0.676100       -18.3976
  27   2.0000      -0.651950       -17.7404
  28   2.0000      -0.605054       -16.4644
  29   2.0000      -0.587489       -15.9864
  30   2.0000      -0.555980       -15.1290
  31   2.0000      -0.548718       -14.9314
  32   2.0000      -0.517800       -14.0900
  33   2.0000      -0.477937       -13.0053
  34   2.0000      -0.463847       -12.6219
  35   2.0000      -0.442922       -12.0525
  36   2.0000      -0.437308       -11.8998
  37   2.0000      -0.436370       -11.8742
  38   2.0000      -0.410144       -11.1606
  39   2.0000      -0.408345       -11.1116
  40   2.0000      -0.400529       -10.8990
  41   2.0000      -0.373431       -10.1616
  42   2.0000      -0.373346       -10.1593
  43   2.0000      -0.364642        -9.9224
  44   2.0000      -0.363416        -9.8891
  45   2.0000      -0.358508        -9.7555
  46   2.0000      -0.336324        -9.1518
  47   2.0000      -0.334743        -9.1088
  48   2.0000      -0.329418        -8.9639
  49   2.0000      -0.297129        -8.0853
  50   2.0000      -0.285052        -7.7567
  51   2.0000      -0.270094        -7.3496
  52   2.0000      -0.250975        -6.8294
  53   2.0000      -0.237749        -6.4695
  54   2.0000      -0.221218        -6.0196
  55   2.0000      -0.180198        -4.9034
  56   0.0000      -0.056733        -1.5438
  57   0.0000      -0.049036        -1.3343
  58   0.0000      -0.044690        -1.2161
  59   0.0000      -0.013929        -0.3790
  60   0.0000       0.003562         0.0969

MULLIKEN ATOMIC CHARGES
-----------------------
   0 C :   -0.039681
   1 C :   -0.040024
   2 C :   -0.157938
   3 C :    0.201097
   4 C :    0.203775
   5 C :   -0.159072
   6 O :   -0.213290
   7 C :    0.219425
   8 C :   -0.175676
   9 C :   -0.067330
  10 C :    0.135300
  11 C :   -0.185314
  12 C :    0.195443
  13 O :   -0.213396
  14 Cl:   -0.086464
  15 H :    0.059622
  16 H :    0.059651
  17 H :    0.052692
  18 H :    0.052132
  19 H :    0.057552
  20 H :    0.053560
  21 H :    0.047935
Sum of atomic charges:   -0.0000000

LOEWDIN ATOMIC CHARGES
----------------------
   0 C :   -0.125510
   1 C :   -0.126139
   2 C :   -0.133366
   3 C :    0.018334
   4 C :    0.018633
   5 C :   -0.133951
   6 O :   -0.029587
   7 C :    0.011001
   8 C :   -0.128925
   9 C :   -0.146107
  10 C :   -0.135734
  11 C :   -0.153111
  12 C :    0.021236
  13 O :   -0.027914
  14 Cl:    0.125827
  15 H :    0.128240
  16 H :    0.128269
  17 H :    0.136777
  18 H :    0.136522
  19 H :    0.139417
  20 H :    0.133907
  21 H :    0.142182

  Mayer bond orders larger than 0.100000
B(  0-C ,  1-C ) :   1.3699 B(  0-C ,  5-C ) :   1.3260 B(  0-C , 15-H ) :   0.9694
B(  1-C ,  2-C ) :   1.3249 B(  1-C , 16-H ) :   0.9694 B(  2-C ,  3-C ) :   1.3880
B(  2-C , 17-H ) :   0.9667 B(  3-C ,  4-C ) :   1.2864 B(  3-C , 13-O ) :   1.0454
B(  4-C ,  5-C ) :   1.3859 B(  4-C ,  6-O ) :   1.0506 B(  5-C , 18-H ) :   0.9668
B(  6-O ,  7-C ) :   1.0624 B(  7-C ,  8-C ) :   1.3750 B(  7-C , 12-C ) :   1.2758
B(  8-C ,  9-C ) :   1.3061 B(  8-C , 19-H ) :   0.9647 B(  9-C , 10-C ) :   1.3913
B(  9-C , 20-H ) :   0.9724 B( 10-C , 11-C ) :   1.3092 B( 10-C , 14-Cl) :   0.9563
B( 11-C , 12-C ) :   1.3506 B( 11-C , 21-H ) :   0.9757 B( 12-C , 13-O ) :   1.0634

Dispersion correction           -0.031270653
FINAL SINGLE POINT ENERGY     -1070.559047965629

DIPOLE MOMENT
-------------

Method             : SCF
Type of density    : Electron Density
Multiplicity       :   1
Irrep              :   0
Energy             : -1070.6126058114969055 Eh
Relativity type    :
Basis              : AO
                                X                 Y                 Z
Electronic contribution:    -15.030354233       2.042741661      -0.001126395
Nuclear contribution   :     15.680144568      -2.226508332       0.001112227
                        -----------------------------------------
Total Dipole Moment    :      0.649790334      -0.183766671      -0.000014168
                        -----------------------------------------
Magnitude (a.u.)       :      0.675275994
Magnitude (Debye)      :      1.716415171

Rotational constants in cm-1:             0.062022             0.009219             0.008026
Rotational constants in MHz :          1859.375231           276.388749           240.621476

                             ****ORCA TERMINATED NORMALLY****
TOTAL RUN TIME: 0 days 0 hours 0 minutes 24 seconds 186 msec
