                         Program Version 6.0.0  -   RELEASE  -
|  1> ! pbe def2-sv(p) def2/J RI DEFGRID1 loosescf d4 GCP(DFT/SV(P)) printgap
|  2> %output
|  3>     printlevel normal
|  4> end
|  5> * xyz 0 1
|  6> C -2.3150342985 0.1705627794 -0.2720478869
|  7> C -0.9536179634 0.3469834357 0.395312321
|  8> C -0.0002647614 -0.7399145585 -0.0010071243
|  9> C 1.3079883754 -0.6030175984 -0.155650384
| 10> C 2.0734769345 0.6703651051 0.0391939677
| 11> H -2.7576792742 -0.783078136 0.0074280853
| 12> H -2.2118135151 0.1967953049 -1.354606139
| 13> H -2.9926870934 0.9658257905 0.029041163
| 14> H -0.5411000151 1.3210770666 0.1297243118
| 15> H -1.0838299183 0.3262175614 1.4825781088
| 16> H -0.4535674444 -1.7100166689 -0.1589955828
| 17> H 1.8936620641 -1.4621871578 -0.4545580099
| 18> H 1.933037752 1.3320833986 -0.8159978357
| 19> H 3.1358007224 0.4647196566 0.1361814734
| 20> H 1.7370386178 1.1958089953 0.930080323
| 21> *
| 22>
| 23>                          ****END OF INPUT****

CARTESIAN COORDINATES (ANGSTROEM)
---------------------------------
  C     -2.315034    0.170563   -0.272048
  C     -0.953618    0.346983    0.395312
  C     -0.000265   -0.739915   -0.001007
  C      1.307988   -0.603018   -0.155650
  C      2.073477    0.670365    0.039194
  H     -2.757679   -0.783078    0.007428
  H     -2.211814    0.196795   -1.354606
  H     -2.992687    0.965826    0.029041
  H     -0.541100    1.321077    0.129724
  H     -1.083830    0.326218    1.482578
  H     -0.453567   -1.710017   -0.158996
  H      1.893662   -1.462187   -0.454558
  H      1.933038    1.332083   -0.815998
  H      3.135801    0.464720    0.136181
  H      1.737039    1.195809    0.930080

 Total Charge           Charge          ....    0
 Multiplicity           Mult            ....    1
 Number of Electrons    NEL             ....   40
 Basis Dimension        Dim             ....   90

ORBITAL ENERGIES
----------------

  NO   OCC          E(Eh)            E(eV)
   0   2.0000      -9.885201      -268.9900
   1   2.0000      -9.879183      -268.8262
   2   2.0000      -9.876756      -268.7602
   3   2.0000      -9.876525      -268.7539
   4   2.0000      -9.874061      -268.6868
   5   2.0000      -0.722847       -19.6697
   6   2.0000      -0.672586       -18.3020
   7   2.0000      -0.604744       -16.4559
   8   2.0000      -0.545971       -14.8566
   9   2.0000      -0.466994       -12.7076
  10   2.0000      -0.424190       -11.5428
  11   2.0000      -0.393280       -10.7017
  12   2.0000      -0.380756       -10.3609
  13   2.0000      -0.364472        -9.9178
  14   2.0000      -0.334139        -9.0924
  15   2.0000      -0.324717        -8.8360
  16   2.0000      -0.314433        -8.5562
  17   2.0000      -0.300245        -8.1701
  18   2.0000      -0.279129        -7.5955
  19   2.0000      -0.207785        -5.6541
  20   0.0000      -0.008384        -0.2281
  21   0.0000       0.044605         1.2138
  22   0.0000       0.065367         1.7787
  23   0.0000       0.067980         1.8498
  24   0.0000       0.091846         2.4993

MULLIKEN ATOMIC CHARGES
-----------------------
   0 C :   -0.294520
   1 C :   -0.134186
   2 C :   -0.137177
   3 C :   -0.162415
   4 C :   -0.240450
   5 H :    0.103853
   6 H :    0.106511
   7 H :    0.101477
   8 H :    0.091736
   9 H :    0.102283
  10 H :    0.058007
  11 H :    0.065057
  12 H :    0.119830
  13 H :    0.102732
  14 H :    0.117262
Sum of atomic charges:   -0.0000000

LOEWDIN ATOMIC CHARGES
----------------------
   0 C :   -0.337445
   1 C :   -0.233121
   2 C :   -0.151174
   3 C :   -0.157376
   4 C :   -0.342319
   5 H :    0.117479
   6 H :    0.119455
   7 H :    0.118357
   8 H :    0.120614
   9 H :    0.127105
  10 H :    0.116854
  11 H :    0.117540
  12 H :    0.131932
  13 H :    0.124859
  14 H :    0.127239

  Mayer bond orders larger than 0.100000
B(  0-C ,  1-C ) :   1.1359 B(  0-C ,  5-H ) :   0.9553 B(  0-C ,  6-H ) :   0.9598
B(  0-C ,  7-H ) :   0.9525 B(  1-C ,  2-C ) :   1.0782 B(  1-C ,  8-H ) :   0.9126
B(  1-C ,  9-H ) :   0.9082 B(  2-C ,  3-C ) :   1.9997 B(  2-C , 10-H ) :   0.9333
B(  3-C ,  4-C ) :   1.1139 B(  3-C , 11-H ) :   0.9317 B(  4-C , 12-H ) :   0.9344
B(  4-C , 13-H ) :   0.9461 B(  4-C , 14-H ) :   0.9395

Dispersion correction           -0.009733479
FINAL SINGLE POINT ENERGY      -196.028825563704

DIPOLE MOMENT
-------------

Method             : SCF
Type of density    : Electron Density
Multiplicity       :   1
Irrep              :   0
Energy             :  -196.0769711224781133 Eh
Relativity type    :
Basis              : AO
                                X                 Y                 Z
Electronic contribution:      1.257306984      -1.610408516       0.097986490
Nuclear contribution   :     -1.258217487       1.733033291      -0.064850260
                        -----------------------------------------
Total Dipole Moment    :     -0.000910503       0.122624775       0.033136231
                        -----------------------------------------
Magnitude (a.u.)       :      0.127026274
Magnitude (Debye)      :      0.322875129

Rotational constants in cm-1:             0.431471             0.084559             0.075923
Rotational constants in MHz :         12935.165720          2535.004703          2276.128734

                             ****ORCA TERMINATED NORMALLY****
TOTAL RUN TIME: 0 days 0 hours 0 minutes 6 seconds 128 msec
