                         Program Version 6.0.0  -   RELEASE  -
|  1> ! pbe def2-sv(p) def2/J RI DEFGRID1 loosescf d4 GCP(DFT/SV(P)) printgap
|  2> %output
|  3>     printlevel normal
|  4> end
|  5> * xyz 0 1
|  6> C -2.0957821664 0.6139123138 1.3499976432
|  7> C -1.3943940857 0.3366974204 0.0208144352
|  8> C -2.4070065941 -0.1649673234 -1.0081937035
|  9> C -0.2455459483 -0.6755257903 0.2015836206
| 10> C 1.1749751268 -0.1483532785 -0.0747855071
| 11> C 1.3153974847 0.2947239145 -1.5332083641
| 12> C 1.5196801414 1.0139950018 0.8591915927
| 13> C 2.1621279456 -1.2927125361 0.1845644021
| 14> H -2.8834160217 1.353318171 1.2194861041
| 15> H -2.5449608006 -0.2978043001 1.7389441195
| 16> H -1.3895656719 0.9925488602 2.0848556218
| 17> H -0.9924553887 1.2849023937 -0.3466806656
| 18> H -1.9262495208 -0.3279352654 -1.9699270602
| 19> H -2.8504715301 -1.1025161193 -0.6789104127
| 20> H -3.2056889491 0.5614863549 -1.1437549117
| 21> H -0.2678418301 -1.0579125702 1.2242714181
| 22> H -0.416169499 -1.5282344681 -0.4590116201
| 23> H 2.3342851615 0.6202574728 -1.7310844705
| 24> H 0.6471440724 1.1202707653 -1.7628658256
| 25> H 1.0835221026 -0.5298905885 -2.2037097632
| 26> H 0.8598765268 1.8618483186 0.6964658836
| 27> H 2.5419165065 1.343782456 0.6868405712
| 28> H 1.4312598699 0.7045179595 1.8982552562
| 29> H 1.9463967923 -2.1399001811 -0.4626818839
| 30> H 2.0996505883 -1.6269782526 1.2178011222
| 31> H 3.1817934665 -0.9668459688 -0.0078658943
| 32> *
| 33>
| 34>                          ****END OF INPUT****

CARTESIAN COORDINATES (ANGSTROEM)
---------------------------------
  C     -2.095782    0.613912    1.349998
  C     -1.394394    0.336697    0.020814
  C     -2.407007   -0.164967   -1.008194
  C     -0.245546   -0.675526    0.201584
  C      1.174975   -0.148353   -0.074786
  C      1.315397    0.294724   -1.533208
  C      1.519680    1.013995    0.859192
  C      2.162128   -1.292713    0.184564
  H     -2.883416    1.353318    1.219486
  H     -2.544961   -0.297804    1.738944
  H     -1.389566    0.992549    2.084856
  H     -0.992455    1.284902   -0.346681
  H     -1.926250   -0.327935   -1.969927
  H     -2.850472   -1.102516   -0.678910
  H     -3.205689    0.561486   -1.143755
  H     -0.267842   -1.057913    1.224271
  H     -0.416169   -1.528234   -0.459012
  H      2.334285    0.620257   -1.731084
  H      0.647144    1.120271   -1.762866
  H      1.083522   -0.529891   -2.203710
  H      0.859877    1.861848    0.696466
  H      2.541917    1.343782    0.686841
  H      1.431260    0.704518    1.898255
  H      1.946397   -2.139900   -0.462682
  H      2.099651   -1.626978    1.217801
  H      3.181793   -0.966846   -0.007866

 Total Charge           Charge          ....    0
 Multiplicity           Mult            ....    1
 Number of Electrons    NEL             ....   66
 Basis Dimension        Dim             ....  148

ORBITAL ENERGIES
----------------

  NO   OCC          E(Eh)            E(eV)
   0   2.0000      -9.902719      -269.4667
   1   2.0000      -9.889101      -269.0961
   2   2.0000      -9.874423      -268.6967
   3   2.0000      -9.868756      -268.5425
   4   2.0000      -9.868735      -268.5419
   5   2.0000      -9.868149      -268.5260
   6   2.0000      -9.868098      -268.5246
   7   2.0000      -9.867682      -268.5133
   8   2.0000      -0.748954       -20.3801
   9   2.0000      -0.705727       -19.2038
  10   2.0000      -0.612742       -16.6736
  11   2.0000      -0.609560       -16.5870
  12   2.0000      -0.603872       -16.4322
  13   2.0000      -0.600717       -16.3463
  14   2.0000      -0.501869       -13.6565
  15   2.0000      -0.469317       -12.7708
  16   2.0000      -0.419177       -11.4064
  17   2.0000      -0.406121       -11.0511
  18   2.0000      -0.394959       -10.7474
  19   2.0000      -0.378405       -10.2969
  20   2.0000      -0.372229       -10.1289
  21   2.0000      -0.369301       -10.0492
  22   2.0000      -0.338585        -9.2134
  23   2.0000      -0.337961        -9.1964
  24   2.0000      -0.335606        -9.1323
  25   2.0000      -0.317533        -8.6405
  26   2.0000      -0.311049        -8.4641
  27   2.0000      -0.304260        -8.2793
  28   2.0000      -0.292722        -7.9654
  29   2.0000      -0.284839        -7.7509
  30   2.0000      -0.271000        -7.3743
  31   2.0000      -0.264742        -7.2040
  32   2.0000      -0.259303        -7.0560
  33   0.0000       0.027407         0.7458
  34   0.0000       0.055823         1.5190
  35   0.0000       0.063394         1.7250
  36   0.0000       0.071287         1.9398
  37   0.0000       0.081127         2.2076

MULLIKEN ATOMIC CHARGES
-----------------------
   0 C :   -0.254214
   1 C :   -0.175527
   2 C :   -0.253616
   3 C :   -0.055045
   4 C :   -0.285455
   5 C :   -0.210124
   6 C :   -0.210378
   7 C :   -0.203532
   8 H :    0.093748
   9 H :    0.095596
  10 H :    0.100464
  11 H :    0.085393
  12 H :    0.099826
  13 H :    0.095976
  14 H :    0.093569
  15 H :    0.068400
  16 H :    0.068038
  17 H :    0.092696
  18 H :    0.100011
  19 H :    0.092376
  20 H :    0.100939
  21 H :    0.092473
  22 H :    0.093559
  23 H :    0.091478
  24 H :    0.091707
  25 H :    0.091641
Sum of atomic charges:   -0.0000000

LOEWDIN ATOMIC CHARGES
----------------------
   0 C :   -0.328818
   1 C :   -0.159513
   2 C :   -0.328560
   3 C :   -0.196349
   4 C :   -0.105241
   5 C :   -0.317544
   6 C :   -0.317598
   7 C :   -0.315507
   8 H :    0.114849
   9 H :    0.115368
  10 H :    0.115336
  11 H :    0.111707
  12 H :    0.115289
  13 H :    0.115498
  14 H :    0.114695
  15 H :    0.113741
  16 H :    0.113409
  17 H :    0.116502
  18 H :    0.115417
  19 H :    0.115578
  20 H :    0.115672
  21 H :    0.116533
  22 H :    0.115605
  23 H :    0.114698
  24 H :    0.114637
  25 H :    0.114595

  Mayer bond orders larger than 0.100000
B(  0-C ,  1-C ) :   1.1188 B(  0-C ,  8-H ) :   0.9501 B(  0-C ,  9-H ) :   0.9471
B(  0-C , 10-H ) :   0.9482 B(  1-C ,  2-C ) :   1.1189 B(  1-C ,  3-C ) :   1.0338
B(  1-C , 11-H ) :   0.9020 B(  2-C , 12-H ) :   0.9490 B(  2-C , 13-H ) :   0.9477
B(  2-C , 14-H ) :   0.9504 B(  3-C ,  4-C ) :   1.0540 B(  3-C , 15-H ) :   0.9137
B(  3-C , 16-H ) :   0.9156 B(  4-C ,  5-C ) :   1.0753 B(  4-C ,  6-C ) :   1.0752
B(  4-C ,  7-C ) :   1.0748 B(  5-C , 17-H ) :   0.9469 B(  5-C , 18-H ) :   0.9392
B(  5-C , 19-H ) :   0.9468 B(  6-C , 20-H ) :   0.9388 B(  6-C , 21-H ) :   0.9464
B(  6-C , 22-H ) :   0.9459 B(  7-C , 23-H ) :   0.9464 B(  7-C , 24-H ) :   0.9463
B(  7-C , 25-H ) :   0.9477

Dispersion correction           -0.023233166
FINAL SINGLE POINT ENERGY      -314.872711352071

DIPOLE MOMENT
-------------

Method             : SCF
Type of density    : Electron Density
Multiplicity       :   1
Irrep              :   0
Energy             :  -314.9593545850528358 Eh
Relativity type    :
Basis              : AO
                                X                 Y                 Z
Electronic contribution:      0.360092305      -0.217955182      -0.013818870
Nuclear contribution   :     -0.329270458       0.248533125       0.000401147
                        -----------------------------------------
Total Dipole Moment    :      0.030821847       0.030577942      -0.013417723
                        -----------------------------------------
Magnitude (a.u.)       :      0.045442624
Magnitude (Debye)      :      0.115505972

Rotational constants in cm-1:             0.097818             0.041124             0.036817
Rotational constants in MHz :          2932.509571          1232.877630          1103.737496

                             ****ORCA TERMINATED NORMALLY****
TOTAL RUN TIME: 0 days 0 hours 0 minutes 11 seconds 978 msec
