                         Program Version 6.0.0  -   RELEASE  -
|  1> ! r2scan-3c def2/J RI DEFGRID2 scfconv6 printgap
|  2> %output
|  3>     printlevel normal
|  4> end
|  5> * xyz 0 1
|  6> C -2.163482109 0.3545460392 0.4029413361
|  7> C -1.0301753119 0.1159010227 -0.5959046526
|  8> C -0.0001537523 -0.8073584215 -0.0220982571
|  9> C 1.2757636012 -0.5501256407 0.2230841212
| 10> C 2.0181498727 0.7222958514 -0.0251555363
| 11> H -1.7780105636 0.8260089031 1.3040696924
| 12> H -2.630378721 -0.5875987611 0.6816725212
| 13> H -2.9219912848 1.0017266935 -0.0306146045
| 14> H -1.4447605904 -0.3413198773 -1.4989546607
| 15> H -0.5883386682 1.0709186199 -0.8778026191
| 16> H -0.3844025974 -1.7901041024 0.2246318406
| 17> H 1.8860454815 -1.3372302187 0.6503004952
| 18> H 2.8201251322 0.5464549927 -0.7415002103
| 19> H 2.4744294796 1.0673681619 0.9020519292
| 20> H 1.3744520022 1.5068497388 -0.4096957552
| 21> *
| 22>
| 23>                          ****END OF INPUT****

CARTESIAN COORDINATES (ANGSTROEM)
---------------------------------
  C     -2.163482    0.354546    0.402941
  C     -1.030175    0.115901   -0.595905
  C     -0.000154   -0.807358   -0.022098
  C      1.275764   -0.550126    0.223084
  C      2.018150    0.722296   -0.025156
  H     -1.778011    0.826009    1.304070
  H     -2.630379   -0.587599    0.681673
  H     -2.921991    1.001727   -0.030615
  H     -1.444761   -0.341320   -1.498955
  H     -0.588339    1.070919   -0.877803
  H     -0.384403   -1.790104    0.224632
  H      1.886045   -1.337230    0.650300
  H      2.820125    0.546455   -0.741500
  H      2.474429    1.067368    0.902052
  H      1.374452    1.506850   -0.409696

 Total Charge           Charge          ....    0
 Multiplicity           Mult            ....    1
 Number of Electrons    NEL             ....   40
 Basis Dimension        Dim             ....  145

ORBITAL ENERGIES
----------------

  NO   OCC          E(Eh)            E(eV)
   0   2.0000     -10.027837      -272.8713
   1   2.0000     -10.023837      -272.7625
   2   2.0000     -10.021961      -272.7114
   3   2.0000     -10.020277      -272.6656
   4   2.0000     -10.017632      -272.5936
   5   2.0000      -0.771643       -20.9975
   6   2.0000      -0.718358       -19.5475
   7   2.0000      -0.648116       -17.6361
   8   2.0000      -0.582658       -15.8549
   9   2.0000      -0.492601       -13.4044
  10   2.0000      -0.450000       -12.2451
  11   2.0000      -0.403107       -10.9691
  12   2.0000      -0.395040       -10.7496
  13   2.0000      -0.380386       -10.3508
  14   2.0000      -0.350586        -9.5399
  15   2.0000      -0.337895        -9.1946
  16   2.0000      -0.335491        -9.1292
  17   2.0000      -0.308505        -8.3948
  18   2.0000      -0.288800        -7.8586
  19   2.0000      -0.218704        -5.9512
  20   0.0000       0.002565         0.0698
  21   0.0000       0.090413         2.4603
  22   0.0000       0.120419         3.2768
  23   0.0000       0.125602         3.4178
  24   0.0000       0.140072         3.8115

MULLIKEN ATOMIC CHARGES
-----------------------
   0 C :   -0.453522
   1 C :   -0.245954
   2 C :   -0.140241
   3 C :   -0.135970
   4 C :   -0.461761
   5 H :    0.147189
   6 H :    0.144116
   7 H :    0.143349
   8 H :    0.145190
   9 H :    0.129462
  10 H :    0.144676
  11 H :    0.147276
  12 H :    0.150029
  13 H :    0.148504
  14 H :    0.137658
Sum of atomic charges:    0.0000000

LOEWDIN ATOMIC CHARGES
----------------------
   0 C :   -0.414961
   1 C :   -0.305907
   2 C :   -0.211568
   3 C :   -0.212633
   4 C :   -0.410490
   5 H :    0.152881
   6 H :    0.150265
   7 H :    0.148846
   8 H :    0.159109
   9 H :    0.152585
  10 H :    0.162231
  11 H :    0.159067
  12 H :    0.159801
  13 H :    0.158627
  14 H :    0.152148

  Mayer bond orders larger than 0.100000
B(  0-C ,  1-C ) :   0.8827 B(  0-C ,  5-H ) :   0.9779 B(  0-C ,  6-H ) :   0.9839
B(  0-C ,  7-H ) :   0.9704 B(  1-C ,  2-C ) :   0.9305 B(  1-C ,  8-H ) :   0.9733
B(  1-C ,  9-H ) :   0.9874 B(  2-C ,  3-C ) :   1.9449 B(  2-C , 10-H ) :   0.9323
B(  3-C ,  4-C ) :   0.9147 B(  3-C , 11-H ) :   0.9369 B(  4-C , 12-H ) :   0.9665
B(  4-C , 13-H ) :   0.9666 B(  4-C , 14-H ) :   0.9911

Dispersion correction           -0.003257263
FINAL SINGLE POINT ENERGY      -196.460520578370

DIPOLE MOMENT
-------------

Method             : SCF
Type of density    : Electron Density
Multiplicity       :   1
Irrep              :   0
Energy             :  -196.4635134435069403 Eh
Relativity type    :
Basis              : AO
                                X                 Y                 Z
Electronic contribution:      1.122593618      -1.736602774      -0.224274266
Nuclear contribution   :     -1.119079366       1.841700133       0.191535798
                        -----------------------------------------
Total Dipole Moment    :      0.003514251       0.105097359      -0.032738468
                        -----------------------------------------
Magnitude (a.u.)       :      0.110134518
Magnitude (Debye)      :      0.279939698

Rotational constants in cm-1:             0.370009             0.087623             0.080218
Rotational constants in MHz :         11092.578965          2626.882718          2404.878020

                             ****ORCA TERMINATED NORMALLY****
TOTAL RUN TIME: 0 days 0 hours 0 minutes 11 seconds 141 msec
