                         Program Version 6.0.0  -   RELEASE  -
|  1> ! r2scan-3c def2/J RI DEFGRID2 scfconv6 printgap
|  2> %output
|  3>     printlevel normal
|  4> end
|  5> %cpcm
|  6>     smd true
|  7>     smdsolvent "water"
|  8> end
|  9> * xyz 0 1
| 10> C -2.163482109 0.3545460392 0.4029413361
| 11> C -1.0301753119 0.1159010227 -0.5959046526
| 12> C -0.0001537523 -0.8073584215 -0.0220982571
| 13> C 1.2757636012 -0.5501256407 0.2230841212
| 14> C 2.0181498727 0.7222958514 -0.0251555363
| 15> H -1.7780105636 0.8260089031 1.3040696924
| 16> H -2.630378721 -0.5875987611 0.6816725212
| 17> H -2.9219912848 1.0017266935 -0.0306146045
| 18> H -1.4447605904 -0.3413198773 -1.4989546607
| 19> H -0.5883386682 1.0709186199 -0.8778026191
| 20> H -0.3844025974 -1.7901041024 0.2246318406
| 21> H 1.8860454815 -1.3372302187 0.6503004952
| 22> H 2.8201251322 0.5464549927 -0.7415002103
| 23> H 2.4744294796 1.0673681619 0.9020519292
| 24> H 1.3744520022 1.5068497388 -0.4096957552
| 25> *
| 26>
| 27>                          ****END OF INPUT****

CARTESIAN COORDINATES (ANGSTROEM)
---------------------------------
  C     -2.163482    0.354546    0.402941
  C     -1.030175    0.115901   -0.595905
  C     -0.000154   -0.807358   -0.022098
  C      1.275764   -0.550126    0.223084
  C      2.018150    0.722296   -0.025156
  H     -1.778011    0.826009    1.304070
  H     -2.630379   -0.587599    0.681673
  H     -2.921991    1.001727   -0.030615
  H     -1.444761   -0.341320   -1.498955
  H     -0.588339    1.070919   -0.877803
  H     -0.384403   -1.790104    0.224632
  H      1.886045   -1.337230    0.650300
  H      2.820125    0.546455   -0.741500
  H      2.474429    1.067368    0.902052
  H      1.374452    1.506850   -0.409696

 Total Charge           Charge          ....    0
 Multiplicity           Mult            ....    1
 Number of Electrons    NEL             ....   40
 Basis Dimension        Dim             ....  145

ORBITAL ENERGIES
----------------

  NO   OCC          E(Eh)            E(eV)
   0   2.0000     -10.022187      -272.7176
   1   2.0000     -10.021720      -272.7049
   2   2.0000     -10.018903      -272.6282
   3   2.0000     -10.014644      -272.5123
   4   2.0000     -10.011431      -272.4249
   5   2.0000      -0.768839       -20.9212
   6   2.0000      -0.713424       -19.4132
   7   2.0000      -0.643800       -17.5187
   8   2.0000      -0.577895       -15.7253
   9   2.0000      -0.488001       -13.2792
  10   2.0000      -0.445368       -12.1191
  11   2.0000      -0.398252       -10.8370
  12   2.0000      -0.389684       -10.6038
  13   2.0000      -0.374538       -10.1917
  14   2.0000      -0.344557        -9.3759
  15   2.0000      -0.332457        -9.0466
  16   2.0000      -0.330096        -8.9824
  17   2.0000      -0.302177        -8.2226
  18   2.0000      -0.283784        -7.7222
  19   2.0000      -0.219744        -5.9795
  20   0.0000       0.002549         0.0694
  21   0.0000       0.095206         2.5907
  22   0.0000       0.125586         3.4174
  23   0.0000       0.133257         3.6261
  24   0.0000       0.145710         3.9650

MULLIKEN ATOMIC CHARGES
-----------------------
   0 C :   -0.489580
   1 C :   -0.247212
   2 C :   -0.198469
   3 C :   -0.171477
   4 C :   -0.493213
   5 H :    0.153365
   6 H :    0.158309
   7 H :    0.156694
   8 H :    0.156228
   9 H :    0.149614
  10 H :    0.168378
  11 H :    0.170176
  12 H :    0.164982
  13 H :    0.164023
  14 H :    0.158182
Sum of atomic charges:    0.0000000

LOEWDIN ATOMIC CHARGES
----------------------
   0 C :   -0.422062
   1 C :   -0.309437
   2 C :   -0.227399
   3 C :   -0.225263
   4 C :   -0.418413
   5 H :    0.153480
   6 H :    0.153768
   7 H :    0.153257
   8 H :    0.163382
   9 H :    0.158399
  10 H :    0.168081
  11 H :    0.164924
  12 H :    0.165144
  13 H :    0.164184
  14 H :    0.157955

  Mayer bond orders larger than 0.100000
B(  0-C ,  1-C ) :   0.8729 B(  0-C ,  5-H ) :   0.9764 B(  0-C ,  6-H ) :   0.9816
B(  0-C ,  7-H ) :   0.9672 B(  1-C ,  2-C ) :   0.9174 B(  1-C ,  8-H ) :   0.9672
B(  1-C ,  9-H ) :   0.9875 B(  2-C ,  3-C ) :   1.9109 B(  2-C , 10-H ) :   0.9370
B(  3-C ,  4-C ) :   0.9029 B(  3-C , 11-H ) :   0.9405 B(  4-C , 12-H ) :   0.9609
B(  4-C , 13-H ) :   0.9608 B(  4-C , 14-H ) :   0.9884

Dispersion correction           -0.003257263
FINAL SINGLE POINT ENERGY      -196.459262441617

DIPOLE MOMENT
-------------

Method             : SCF
Type of density    : Electron Density
Multiplicity       :   1
Irrep              :   0
Energy             :  -196.4622553067537183 Eh
Relativity type    :
Basis              : AO
                                X                 Y                 Z
Electronic contribution:      1.117417202      -1.683573389      -0.249279027
Nuclear contribution   :     -1.119079366       1.841700133       0.191535798
                        -----------------------------------------
Total Dipole Moment    :     -0.001662165       0.158126743      -0.057743229
                        -----------------------------------------
Magnitude (a.u.)       :      0.168348181
Magnitude (Debye)      :      0.427907071

Rotational constants in cm-1:             0.370009             0.087623             0.080218
Rotational constants in MHz :         11092.578965          2626.882718          2404.878020

                             ****ORCA TERMINATED NORMALLY****
TOTAL RUN TIME: 0 days 0 hours 0 minutes 13 seconds 769 msec
