                         Program Version 6.0.0  -   RELEASE  -
|  1> ! r2scan-3c def2/J RI DEFGRID2 scfconv6 printgap
|  2> %output
|  3>     printlevel normal
|  4> end
|  5> * xyz 0 1
|  6> C -3.6944315311 -0.1508966296 0.3011248502
|  7> C -2.2608894565 -0.1112862313 -0.2189128878
|  8> H -2.2808194352 0.0683677882 -1.3000209193
|  9> C -1.5314910383 -1.4254259636 0.0495071214
| 10> C -0.0863661544 -1.3750975502 -0.4360843512
| 11> C 0.6908408425 -0.2337461144 0.2485637257
| 12> H 0.6384808511 -0.3914190061 1.3305286109
| 13> C -0.0731351183 1.0277552965 -0.0864071187
| 14> O 0.363906415 1.9179906298 -0.7899454134
| 15> C -1.4809177779 1.0393898527 0.4412073825
| 16> C 2.1673422363 -0.1382504419 -0.1702039514
| 17> C 2.8808998379 0.8899647905 0.7094402681
| 18> C 2.8907823212 -1.4800979523 -0.0726816964
| 19> H -3.7040975315 -0.3292666783 1.3736601988
| 20> H -4.1993717329 0.7910408656 0.1032055936
| 21> H -4.2495838994 -0.9477956561 -0.1868279885
| 22> H -1.5477917559 -1.633175681 1.1214182495
| 23> H -2.0523006498 -2.2393336549 -0.4575198862
| 24> H 0.3982338639 -2.3245589332 -0.2140939594
| 25> H -0.0603193836 -1.2224056766 -1.5178064826
| 26> H -1.4721692808 0.8920839156 1.521551534
| 27> H -1.9477056676 1.9983046667 0.2114841944
| 28> H 2.201826968 0.2134759192 -1.2074720167
| 29> H 3.9154891885 1.0025208322 0.3952118879
| 30> H 2.8694987493 0.5724112787 1.7501721361
| 31> H 2.3975435413 1.8610275528 0.6343921482
| 32> H 3.9551251948 -1.3323888939 -0.2379531476
| 33> H 2.5319670409 -2.1823053213 -0.8192892843
| 34> H 2.7563826577 -1.913235126 0.9159594403
| 35> *
| 36>
| 37>                          ****END OF INPUT****

CARTESIAN COORDINATES (ANGSTROEM)
---------------------------------
  C     -3.694432   -0.150897    0.301125
  C     -2.260889   -0.111286   -0.218913
  H     -2.280819    0.068368   -1.300021
  C     -1.531491   -1.425426    0.049507
  C     -0.086366   -1.375098   -0.436084
  C      0.690841   -0.233746    0.248564
  H      0.638481   -0.391419    1.330529
  C     -0.073135    1.027755   -0.086407
  O      0.363906    1.917991   -0.789945
  C     -1.480918    1.039390    0.441207
  C      2.167342   -0.138250   -0.170204
  C      2.880900    0.889965    0.709440
  C      2.890782   -1.480098   -0.072682
  H     -3.704098   -0.329267    1.373660
  H     -4.199372    0.791041    0.103206
  H     -4.249584   -0.947796   -0.186828
  H     -1.547792   -1.633176    1.121418
  H     -2.052301   -2.239334   -0.457520
  H      0.398234   -2.324559   -0.214094
  H     -0.060319   -1.222406   -1.517806
  H     -1.472169    0.892084    1.521552
  H     -1.947706    1.998305    0.211484
  H      2.201827    0.213476   -1.207472
  H      3.915489    1.002521    0.395212
  H      2.869499    0.572411    1.750172
  H      2.397544    1.861028    0.634392
  H      3.955125   -1.332389   -0.237953
  H      2.531967   -2.182305   -0.819289
  H      2.756383   -1.913235    0.915959

 Total Charge           Charge          ....    0
 Multiplicity           Mult            ....    1
 Number of Electrons    NEL             ....   86
 Basis Dimension        Dim             ....  304

ORBITAL ENERGIES
----------------

  NO   OCC          E(Eh)            E(eV)
   0   2.0000     -18.933584      -515.2090
   1   2.0000     -10.111125      -275.1377
   2   2.0000     -10.049257      -273.4542
   3   2.0000     -10.040555      -273.2174
   4   2.0000     -10.039543      -273.1899
   5   2.0000     -10.035262      -273.0734
   6   2.0000     -10.033647      -273.0294
   7   2.0000     -10.032047      -272.9859
   8   2.0000     -10.025498      -272.8077
   9   2.0000     -10.015900      -272.5465
  10   2.0000     -10.008249      -272.3383
  11   2.0000      -1.000264       -27.2186
  12   2.0000      -0.817466       -22.2444
  13   2.0000      -0.775751       -21.1093
  14   2.0000      -0.723365       -19.6838
  15   2.0000      -0.700057       -19.0495
  16   2.0000      -0.654290       -17.8041
  17   2.0000      -0.646803       -17.6004
  18   2.0000      -0.582953       -15.8630
  19   2.0000      -0.552823       -15.0431
  20   2.0000      -0.533187       -14.5088
  21   2.0000      -0.502293       -13.6681
  22   2.0000      -0.460009       -12.5175
  23   2.0000      -0.436281       -11.8718
  24   2.0000      -0.417030       -11.3480
  25   2.0000      -0.416180       -11.3248
  26   2.0000      -0.408554       -11.1173
  27   2.0000      -0.400668       -10.9027
  28   2.0000      -0.388096       -10.5606
  29   2.0000      -0.368607       -10.0303
  30   2.0000      -0.366271        -9.9667
  31   2.0000      -0.364525        -9.9192
  32   2.0000      -0.350702        -9.5431
  33   2.0000      -0.346372        -9.4253
  34   2.0000      -0.330352        -8.9893
  35   2.0000      -0.320758        -8.7283
  36   2.0000      -0.318341        -8.6625
  37   2.0000      -0.306234        -8.3331
  38   2.0000      -0.302661        -8.2358
  39   2.0000      -0.293930        -7.9982
  40   2.0000      -0.284534        -7.7426
  41   2.0000      -0.277345        -7.5470
  42   2.0000      -0.205181        -5.5833
  43   0.0000      -0.044829        -1.2199
  44   0.0000       0.075606         2.0573
  45   0.0000       0.083030         2.2594
  46   0.0000       0.098413         2.6780
  47   0.0000       0.107317         2.9202

MULLIKEN ATOMIC CHARGES
-----------------------
   0 C :   -0.488685
   1 C :   -0.013158
   2 H :    0.169013
   3 C :   -0.376273
   4 C :   -0.338031
   5 C :   -0.079736
   6 H :    0.177000
   7 C :    0.196986
   8 O :   -0.355516
   9 C :   -0.386075
  10 C :    0.034189
  11 C :   -0.570666
  12 C :   -0.508567
  13 H :    0.150831
  14 H :    0.152975
  15 H :    0.150161
  16 H :    0.156953
  17 H :    0.152430
  18 H :    0.160581
  19 H :    0.172832
  20 H :    0.172740
  21 H :    0.169050
  22 H :    0.171572
  23 H :    0.147558
  24 H :    0.143618
  25 H :    0.179940
  26 H :    0.149065
  27 H :    0.153817
  28 H :    0.155396
Sum of atomic charges:    0.0000000

LOEWDIN ATOMIC CHARGES
----------------------
   0 C :   -0.408755
   1 C :   -0.215132
   2 H :    0.164161
   3 C :   -0.291138
   4 C :   -0.267821
   5 C :   -0.195006
   6 H :    0.177804
   7 C :    0.232967
   8 O :   -0.472788
   9 C :   -0.259500
  10 C :   -0.223756
  11 C :   -0.406569
  12 C :   -0.415210
  13 H :    0.154465
  14 H :    0.156261
  15 H :    0.155519
  16 H :    0.159774
  17 H :    0.162025
  18 H :    0.164319
  19 H :    0.166341
  20 H :    0.172959
  21 H :    0.178793
  22 H :    0.174244
  23 H :    0.153421
  24 H :    0.149928
  25 H :    0.170512
  26 H :    0.156023
  27 H :    0.152267
  28 H :    0.153894

  Mayer bond orders larger than 0.100000
B(  0-C ,  1-C ) :   0.8956 B(  0-C , 13-H ) :   0.9969 B(  0-C , 14-H ) :   0.9748
B(  0-C , 15-H ) :   0.9744 B(  1-C ,  2-H ) :   0.9437 B(  1-C ,  3-C ) :   0.9248
B(  1-C ,  9-C ) :   0.8872 B(  3-C ,  4-C ) :   0.8846 B(  3-C , 16-H ) :   1.0064
B(  3-C , 17-H ) :   0.9477 B(  4-C ,  5-C ) :   0.8286 B(  4-C , 18-H ) :   0.9432
B(  4-C , 19-H ) :   1.0013 B(  5-C ,  6-H ) :   0.9556 B(  5-C ,  7-C ) :   0.8602
B(  5-C ,  8-O ) :  -0.1274 B(  5-C , 10-C ) :   0.8795 B(  7-C ,  8-O ) :   1.9728
B(  7-C ,  9-C ) :   0.9211 B(  9-C , 20-H ) :   1.0033 B(  9-C , 21-H ) :   0.9510
B( 10-C , 11-C ) :   0.8826 B( 10-C , 12-C ) :   0.8322 B( 10-C , 22-H ) :   0.9717
B( 11-C , 23-H ) :   0.9747 B( 11-C , 24-H ) :   0.9888 B( 11-C , 25-H ) :   0.9692
B( 12-C , 26-H ) :   0.9745 B( 12-C , 27-H ) :   0.9769 B( 12-C , 28-H ) :   0.9904

Dispersion correction           -0.010110851
FINAL SINGLE POINT ENERGY      -467.009274376601

DIPOLE MOMENT
-------------

Method             : SCF
Type of density    : Electron Density
Multiplicity       :   1
Irrep              :   0
Energy             :  -467.0120506580299207 Eh
Relativity type    :
Basis              : AO
                                X                 Y                 Z
Electronic contribution:     -0.672766805       5.714347135      -2.708402124
Nuclear contribution   :      0.146487372      -6.648147112       3.193619037
                        -----------------------------------------
Total Dipole Moment    :     -0.526279433      -0.933799977       0.485216913
                        -----------------------------------------
Magnitude (a.u.)       :      1.176600141
Magnitude (Debye)      :      2.990679885

Rotational constants in cm-1:             0.068193             0.023449             0.019109
Rotational constants in MHz :          2044.364564           702.992797           572.860383

                             ****ORCA TERMINATED NORMALLY****
TOTAL RUN TIME: 0 days 0 hours 0 minutes 48 seconds 83 msec
