                         Program Version 6.0.0  -   RELEASE  -
|  1> ! r2scan-3c def2/J RI DEFGRID2 scfconv6 printgap
|  2> %output
|  3>     printlevel normal
|  4> end
|  5> %cpcm
|  6>     smd true
|  7>     smdsolvent "water"
|  8> end
|  9> * xyz 0 1
| 10> C -3.6944315311 -0.1508966296 0.3011248502
| 11> C -2.2608894565 -0.1112862313 -0.2189128878
| 12> H -2.2808194352 0.0683677882 -1.3000209193
| 13> C -1.5314910383 -1.4254259636 0.0495071214
| 14> C -0.0863661544 -1.3750975502 -0.4360843512
| 15> C 0.6908408425 -0.2337461144 0.2485637257
| 16> H 0.6384808511 -0.3914190061 1.3305286109
| 17> C -0.0731351183 1.0277552965 -0.0864071187
| 18> O 0.363906415 1.9179906298 -0.7899454134
| 19> C -1.4809177779 1.0393898527 0.4412073825
| 20> C 2.1673422363 -0.1382504419 -0.1702039514
| 21> C 2.8808998379 0.8899647905 0.7094402681
| 22> C 2.8907823212 -1.4800979523 -0.0726816964
| 23> H -3.7040975315 -0.3292666783 1.3736601988
| 24> H -4.1993717329 0.7910408656 0.1032055936
| 25> H -4.2495838994 -0.9477956561 -0.1868279885
| 26> H -1.5477917559 -1.633175681 1.1214182495
| 27> H -2.0523006498 -2.2393336549 -0.4575198862
| 28> H 0.3982338639 -2.3245589332 -0.2140939594
| 29> H -0.0603193836 -1.2224056766 -1.5178064826
| 30> H -1.4721692808 0.8920839156 1.521551534
| 31> H -1.9477056676 1.9983046667 0.2114841944
| 32> H 2.201826968 0.2134759192 -1.2074720167
| 33> H 3.9154891885 1.0025208322 0.3952118879
| 34> H 2.8694987493 0.5724112787 1.7501721361
| 35> H 2.3975435413 1.8610275528 0.6343921482
| 36> H 3.9551251948 -1.3323888939 -0.2379531476
| 37> H 2.5319670409 -2.1823053213 -0.8192892843
| 38> H 2.7563826577 -1.913235126 0.9159594403
| 39> *
| 40>
| 41>                          ****END OF INPUT****

CARTESIAN COORDINATES (ANGSTROEM)
---------------------------------
  C     -3.694432   -0.150897    0.301125
  C     -2.260889   -0.111286   -0.218913
  H     -2.280819    0.068368   -1.300021
  C     -1.531491   -1.425426    0.049507
  C     -0.086366   -1.375098   -0.436084
  C      0.690841   -0.233746    0.248564
  H      0.638481   -0.391419    1.330529
  C     -0.073135    1.027755   -0.086407
  O      0.363906    1.917991   -0.789945
  C     -1.480918    1.039390    0.441207
  C      2.167342   -0.138250   -0.170204
  C      2.880900    0.889965    0.709440
  C      2.890782   -1.480098   -0.072682
  H     -3.704098   -0.329267    1.373660
  H     -4.199372    0.791041    0.103206
  H     -4.249584   -0.947796   -0.186828
  H     -1.547792   -1.633176    1.121418
  H     -2.052301   -2.239334   -0.457520
  H      0.398234   -2.324559   -0.214094
  H     -0.060319   -1.222406   -1.517806
  H     -1.472169    0.892084    1.521552
  H     -1.947706    1.998305    0.211484
  H      2.201827    0.213476   -1.207472
  H      3.915489    1.002521    0.395212
  H      2.869499    0.572411    1.750172
  H      2.397544    1.861028    0.634392
  H      3.955125   -1.332389   -0.237953
  H      2.531967   -2.182305   -0.819289
  H      2.756383   -1.913235    0.915959

 Total Charge           Charge          ....    0
 Multiplicity           Mult            ....    1
 Number of Electrons    NEL             ....   86
 Basis Dimension        Dim             ....  304

ORBITAL ENERGIES
----------------

  NO   OCC          E(Eh)            E(eV)
   0   2.0000     -18.944589      -515.5085
   1   2.0000     -10.117286      -275.3053
   2   2.0000     -10.035794      -273.0878
   3   2.0000     -10.032166      -272.9891
   4   2.0000     -10.027475      -272.8615
   5   2.0000     -10.025828      -272.8167
   6   2.0000     -10.024406      -272.7779
   7   2.0000     -10.018366      -272.6136
   8   2.0000     -10.010108      -272.3889
   9   2.0000     -10.007063      -272.3060
  10   2.0000     -10.005565      -272.2653
  11   2.0000      -1.012764       -27.5587
  12   2.0000      -0.806706       -21.9516
  13   2.0000      -0.767291       -20.8790
  14   2.0000      -0.712586       -19.3904
  15   2.0000      -0.690990       -18.8028
  16   2.0000      -0.644322       -17.5329
  17   2.0000      -0.639932       -17.4134
  18   2.0000      -0.571667       -15.5559
  19   2.0000      -0.543437       -14.7877
  20   2.0000      -0.523467       -14.2443
  21   2.0000      -0.496974       -13.5233
  22   2.0000      -0.453040       -12.3279
  23   2.0000      -0.431631       -11.7453
  24   2.0000      -0.417666       -11.3653
  25   2.0000      -0.404406       -11.0044
  26   2.0000      -0.400930       -10.9099
  27   2.0000      -0.395267       -10.7558
  28   2.0000      -0.380618       -10.3571
  29   2.0000      -0.362075        -9.8525
  30   2.0000      -0.356699        -9.7063
  31   2.0000      -0.354116        -9.6360
  32   2.0000      -0.343575        -9.3492
  33   2.0000      -0.339907        -9.2493
  34   2.0000      -0.327482        -8.9112
  35   2.0000      -0.309838        -8.4311
  36   2.0000      -0.308868        -8.4047
  37   2.0000      -0.298738        -8.1291
  38   2.0000      -0.290296        -7.8993
  39   2.0000      -0.286478        -7.7955
  40   2.0000      -0.275478        -7.4961
  41   2.0000      -0.270204        -7.3526
  42   2.0000      -0.213863        -5.8195
  43   0.0000      -0.047650        -1.2966
  44   0.0000       0.082673         2.2496
  45   0.0000       0.099058         2.6955
  46   0.0000       0.112843         3.0706
  47   0.0000       0.119124         3.2415

MULLIKEN ATOMIC CHARGES
-----------------------
   0 C :   -0.540089
   1 C :    0.014922
   2 H :    0.176639
   3 C :   -0.394905
   4 C :   -0.352145
   5 C :   -0.052432
   6 H :    0.204999
   7 C :    0.227430
   8 O :   -0.454984
   9 C :   -0.413662
  10 C :    0.025289
  11 C :   -0.599071
  12 C :   -0.553540
  13 H :    0.166730
  14 H :    0.162912
  15 H :    0.163087
  16 H :    0.171133
  17 H :    0.163673
  18 H :    0.172995
  19 H :    0.181600
  20 H :    0.201073
  21 H :    0.172599
  22 H :    0.164753
  23 H :    0.162063
  24 H :    0.163414
  25 H :    0.168860
  26 H :    0.159021
  27 H :    0.166238
  28 H :    0.171396
Sum of atomic charges:    0.0000000

LOEWDIN ATOMIC CHARGES
----------------------
   0 C :   -0.415563
   1 C :   -0.209193
   2 H :    0.166639
   3 C :   -0.290802
   4 C :   -0.264694
   5 C :   -0.189739
   6 H :    0.191109
   7 C :    0.247102
   8 O :   -0.546607
   9 C :   -0.258163
  10 C :   -0.223780
  11 C :   -0.415671
  12 C :   -0.420407
  13 H :    0.158574
  14 H :    0.158166
  15 H :    0.158934
  16 H :    0.165135
  17 H :    0.166046
  18 H :    0.169572
  19 H :    0.168778
  20 H :    0.186261
  21 H :    0.178784
  22 H :    0.168893
  23 H :    0.155813
  24 H :    0.157091
  25 H :    0.164400
  26 H :    0.157438
  27 H :    0.156663
  28 H :    0.159221

  Mayer bond orders larger than 0.100000
B(  0-C ,  1-C ) :   0.8804 B(  0-C , 13-H ) :   0.9947 B(  0-C , 14-H ) :   0.9729
B(  0-C , 15-H ) :   0.9720 B(  1-C ,  2-H ) :   0.9425 B(  1-C ,  3-C ) :   0.9283
B(  1-C ,  9-C ) :   0.8744 B(  3-C ,  4-C ) :   0.8901 B(  3-C , 16-H ) :   1.0006
B(  3-C , 17-H ) :   0.9462 B(  4-C ,  5-C ) :   0.8226 B(  4-C , 18-H ) :   0.9386
B(  4-C , 19-H ) :   1.0001 B(  5-C ,  6-H ) :   0.9353 B(  5-C ,  7-C ) :   0.8803
B(  5-C ,  8-O ) :  -0.1185 B(  5-C , 10-C ) :   0.8612 B(  7-C ,  8-O ) :   1.8977
B(  7-C ,  9-C ) :   0.9393 B(  9-C , 20-H ) :   0.9813 B(  9-C , 21-H ) :   0.9602
B( 10-C , 11-C ) :   0.8774 B( 10-C , 12-C ) :   0.8397 B( 10-C , 22-H ) :   0.9810
B( 11-C , 23-H ) :   0.9744 B( 11-C , 24-H ) :   0.9835 B( 11-C , 25-H ) :   0.9714
B( 12-C , 26-H ) :   0.9736 B( 12-C , 27-H ) :   0.9721 B( 12-C , 28-H ) :   0.9873

Dispersion correction           -0.010110851
FINAL SINGLE POINT ENERGY      -467.014543084295

DIPOLE MOMENT
-------------

Method             : SCF
Type of density    : Electron Density
Multiplicity       :   1
Irrep              :   0
Energy             :  -467.0173193657240631 Eh
Relativity type    :
Basis              : AO
                                X                 Y                 Z
Electronic contribution:     -0.890107025       5.189242483      -2.354534792
Nuclear contribution   :      0.146487372      -6.648147112       3.193619037
                        -----------------------------------------
Total Dipole Moment    :     -0.743619653      -1.458904629       0.839084244
                        -----------------------------------------
Magnitude (a.u.)       :      1.839955237
Magnitude (Debye)      :      4.676794541

Rotational constants in cm-1:             0.068193             0.023449             0.019109
Rotational constants in MHz :          2044.364564           702.992797           572.860383

                             ****ORCA TERMINATED NORMALLY****
TOTAL RUN TIME: 0 days 0 hours 0 minutes 52 seconds 740 msec
