                         Program Version 6.0.0  -   RELEASE  -
|  1> ! pbe def2-sv(p) def2/J RI DEFGRID1 loosescf d4 GCP(DFT/SV(P)) printgap
|  2> %output
|  3>     printlevel normal
|  4> end
|  5> * xyz 0 1
|  6> C 1.7578732172 0.0816975269 -1.5107698537
|  7> C 3.1347050949 0.1429036095 -1.6160065467
|  8> C 3.9113037022 0.3181069826 -0.4808912906
|  9> C 3.299605216 0.4457249192 0.7616582933
| 10> C 1.9205202402 0.3947680198 0.8666161501
| 11> C 1.1397465259 0.2014626887 -0.2691914969
| 12> C -0.3286841156 0.1521973363 -0.1357872064
| 13> C -0.989611925 1.1785593293 0.531829913
| 14> C -2.366595866 1.1677841461 0.6696373064
| 15> C -3.1183440979 0.1184461685 0.1452614197
| 16> C -2.4667473531 -0.9225731133 -0.5120617053
| 17> C -1.0806314215 -0.905451638 -0.6528160859
| 18> Cl -0.3139642518 -2.2418443041 -1.4221536709
| 19> Cl -3.3853898369 -2.2348566804 -1.14389887
| 20> Cl -4.8317909455 0.0966138041 0.3098554322
| 21> Cl -3.1617373376 2.4549588418 1.4915134274
| 22> Cl 4.2598193769 0.6690939058 2.1872115865
| 23> Cl 5.6371314644 0.3807776254 -0.6136188025
| 24> H 1.161904019 -0.0408262855 -2.399709832
| 25> H 3.6162902812 0.0546514233 -2.575609917
| 26> H 1.4589537111 0.4849341844 1.8359589368
| 27> H -0.4225380145 2.0023399916 0.933017473
| 28> *
| 29>
| 30>                          ****END OF INPUT****

CARTESIAN COORDINATES (ANGSTROEM)
---------------------------------
  C      1.757873    0.081698   -1.510770
  C      3.134705    0.142904   -1.616007
  C      3.911304    0.318107   -0.480891
  C      3.299605    0.445725    0.761658
  C      1.920520    0.394768    0.866616
  C      1.139747    0.201463   -0.269191
  C     -0.328684    0.152197   -0.135787
  C     -0.989612    1.178559    0.531830
  C     -2.366596    1.167784    0.669637
  C     -3.118344    0.118446    0.145261
  C     -2.466747   -0.922573   -0.512062
  C     -1.080631   -0.905452   -0.652816
  Cl    -0.313964   -2.241844   -1.422154
  Cl    -3.385390   -2.234857   -1.143899
  Cl    -4.831791    0.096614    0.309855
  Cl    -3.161737    2.454959    1.491513
  Cl     4.259819    0.669094    2.187212
  Cl     5.637131    0.380778   -0.613619
  H      1.161904   -0.040826   -2.399710
  H      3.616290    0.054651   -2.575610
  H      1.458954    0.484934    1.835959
  H     -0.422538    2.002340    0.933017

 Total Charge           Charge          ....    0
 Multiplicity           Mult            ....    1
 Number of Electrons    NEL             ....  178
 Basis Dimension        Dim             ....  284

ORBITAL ENERGIES
----------------

  NO   OCC          E(Eh)            E(eV)
   0   2.0000    -100.662588     -2739.1683
   1   2.0000    -100.662468     -2739.1650
   2   2.0000    -100.662351     -2739.1618
   3   2.0000    -100.660724     -2739.1175
   4   2.0000    -100.654194     -2738.9399
   5   2.0000    -100.653719     -2738.9269
   6   2.0000      -9.984402      -271.6894
   7   2.0000      -9.983687      -271.6699
   8   2.0000      -9.980218      -271.5755
   9   2.0000      -9.979907      -271.5671
  10   2.0000      -9.971055      -271.3262
  11   2.0000      -9.970816      -271.3197
  12   2.0000      -9.943864      -270.5863
  13   2.0000      -9.933033      -270.2916
  14   2.0000      -9.930218      -270.2150
  15   2.0000      -9.923635      -270.0358
  16   2.0000      -9.921637      -269.9815
  17   2.0000      -9.917751      -269.8757
  18   2.0000      -9.198240      -250.2968
  19   2.0000      -9.198092      -250.2928
  20   2.0000      -9.198022      -250.2909
  21   2.0000      -9.196504      -250.2496
  22   2.0000      -9.189748      -250.0658
  23   2.0000      -9.189295      -250.0534
  24   2.0000      -7.030037      -191.2970
  25   2.0000      -7.029829      -191.2914
  26   2.0000      -7.029679      -191.2873
  27   2.0000      -7.028132      -191.2452
  28   2.0000      -7.021343      -191.0605
  29   2.0000      -7.020919      -191.0489
  30   2.0000      -7.018292      -190.9774
  31   2.0000      -7.018146      -190.9735
  32   2.0000      -7.018111      -190.9725
  33   2.0000      -7.017117      -190.9455
  34   2.0000      -7.017082      -190.9445
  35   2.0000      -7.016943      -190.9407
  36   2.0000      -7.016506      -190.9288
  37   2.0000      -7.015605      -190.9043
  38   2.0000      -7.009830      -190.7472
  39   2.0000      -7.009327      -190.7335
  40   2.0000      -7.008886      -190.7215
  41   2.0000      -7.008461      -190.7099
  42   2.0000      -0.874191       -23.7880
  43   2.0000      -0.847665       -23.0661
  44   2.0000      -0.834449       -22.7065
  45   2.0000      -0.815026       -22.1780
  46   2.0000      -0.791000       -21.5242
  47   2.0000      -0.787421       -21.4268
  48   2.0000      -0.781628       -21.2692
  49   2.0000      -0.762875       -20.7589
  50   2.0000      -0.708127       -19.2691
  51   2.0000      -0.684232       -18.6189
  52   2.0000      -0.670880       -18.2556
  53   2.0000      -0.654234       -17.8026
  54   2.0000      -0.588606       -16.0168
  55   2.0000      -0.574165       -15.6238
  56   2.0000      -0.565329       -15.3834
  57   2.0000      -0.539239       -14.6734
  58   2.0000      -0.495159       -13.4740
  59   2.0000      -0.489294       -13.3144
  60   2.0000      -0.469598       -12.7784
  61   2.0000      -0.454690       -12.3727
  62   2.0000      -0.440753       -11.9935
  63   2.0000      -0.428419       -11.6579
  64   2.0000      -0.421036       -11.4570
  65   2.0000      -0.414587       -11.2815
  66   2.0000      -0.413277       -11.2458
  67   2.0000      -0.406014       -11.0482
  68   2.0000      -0.390248       -10.6192
  69   2.0000      -0.385933       -10.5018
  70   2.0000      -0.374143       -10.1810
  71   2.0000      -0.357431        -9.7262
  72   2.0000      -0.350751        -9.5444
  73   2.0000      -0.346866        -9.4387
  74   2.0000      -0.333844        -9.0844
  75   2.0000      -0.314541        -8.5591
  76   2.0000      -0.314089        -8.5468
  77   2.0000      -0.305328        -8.3084
  78   2.0000      -0.304297        -8.2803
  79   2.0000      -0.297662        -8.0998
  80   2.0000      -0.291573        -7.9341
  81   2.0000      -0.287110        -7.8126
  82   2.0000      -0.282288        -7.6814
  83   2.0000      -0.268083        -7.2949
  84   2.0000      -0.263409        -7.1677
  85   2.0000      -0.248459        -6.7609
  86   2.0000      -0.238338        -6.4855
  87   2.0000      -0.230739        -6.2787
  88   2.0000      -0.219490        -5.9726
  89   0.0000      -0.086085        -2.3425
  90   0.0000      -0.072890        -1.9834
  91   0.0000      -0.062887        -1.7112
  92   0.0000      -0.051784        -1.4091
  93   0.0000      -0.046898        -1.2762

MULLIKEN ATOMIC CHARGES
-----------------------
   0 C :   -0.071737
   1 C :   -0.101735
   2 C :    0.080379
   3 C :    0.094838
   4 C :   -0.157951
   5 C :    0.086209
   6 C :    0.080662
   7 C :   -0.190800
   8 C :    0.089733
   9 C :    0.027642
  10 C :    0.009651
  11 C :    0.018352
  12 Cl:   -0.022876
  13 Cl:   -0.014361
  14 Cl:   -0.013129
  15 Cl:   -0.039176
  16 Cl:   -0.051017
  17 Cl:   -0.049219
  18 H :    0.059773
  19 H :    0.058274
  20 H :    0.052275
  21 H :    0.054211
Sum of atomic charges:   -0.0000000

LOEWDIN ATOMIC CHARGES
----------------------
   0 C :   -0.110818
   1 C :   -0.128505
   2 C :   -0.150978
   3 C :   -0.150568
   4 C :   -0.123015
   5 C :   -0.035558
   6 C :   -0.040073
   7 C :   -0.126536
   8 C :   -0.156271
   9 C :   -0.177646
  10 C :   -0.172693
  11 C :   -0.152479
  12 Cl:    0.180063
  13 Cl:    0.171826
  14 Cl:    0.172419
  15 Cl:    0.161097
  16 Cl:    0.145645
  17 Cl:    0.147805
  18 H :    0.129843
  19 H :    0.137257
  20 H :    0.137418
  21 H :    0.141765

  Mayer bond orders larger than 0.100000
B(  0-C ,  1-C ) :   1.3491 B(  0-C ,  5-C ) :   1.3465 B(  0-C , 18-H ) :   0.9600
B(  1-C ,  2-C ) :   1.3748 B(  1-C , 19-H ) :   0.9655 B(  2-C ,  3-C ) :   1.4077
B(  2-C , 17-Cl) :   1.0425 B(  3-C ,  4-C ) :   1.3575 B(  3-C , 16-Cl) :   1.0373
B(  4-C ,  5-C ) :   1.3338 B(  4-C , 20-H ) :   0.9655 B(  5-C ,  6-C ) :   0.9569
B(  6-C ,  7-C ) :   1.3149 B(  6-C , 11-C ) :   1.3977 B(  7-C ,  8-C ) :   1.3211
B(  7-C , 21-H ) :   0.9755 B(  8-C ,  9-C ) :   1.3964 B(  8-C , 15-Cl) :   1.0380
B(  9-C , 10-C ) :   1.4160 B(  9-C , 14-Cl) :   1.1204 B( 10-C , 11-C ) :   1.3870
B( 10-C , 13-Cl) :   1.1200 B( 11-C , 12-Cl) :   1.1000

Dispersion correction           -0.044974405
FINAL SINGLE POINT ENERGY     -3217.959802254374

DIPOLE MOMENT
-------------

Method             : SCF
Type of density    : Electron Density
Multiplicity       :   1
Irrep              :   0
Energy             : -3217.9846373210825732 Eh
Relativity type    :
Basis              : AO
                                X                 Y                 Z
Electronic contribution:     -7.921870689      -3.381607754       2.861749122
Nuclear contribution   :      7.865649573       3.521251577      -3.155665738
                        -----------------------------------------
Total Dipole Moment    :     -0.056221116       0.139643822      -0.293916616
                        -----------------------------------------
Magnitude (a.u.)       :      0.330224452
Magnitude (Debye)      :      0.839363850

Rotational constants in cm-1:             0.014847             0.003866             0.003248
Rotational constants in MHz :           445.100762           115.887533            97.384028

                             ****ORCA TERMINATED NORMALLY****
TOTAL RUN TIME: 0 days 0 hours 0 minutes 21 seconds 874 msec
