                         Program Version 6.0.0  -   RELEASE  -
|  1> ! pbe def2-sv(p) def2/J RI DEFGRID1 loosescf d4 GCP(DFT/SV(P)) printgap
|  2> %output
|  3>     printlevel normal
|  4> end
|  5> * xyz 0 1
|  6> C -1.9446268914 0.6452773796 2.6415e-05
|  7> C -1.9088431716 -0.7398705602 4.54666e-05
|  8> C -0.6900955927 -1.3964491262 3.08054e-05
|  9> C 0.4662080252 -0.6467514891 -6.09631e-05
| 10> C 0.4619046593 0.7451112413 -0.0001347972
| 11> C -0.7759568022 1.3828489253 -6.198e-06
| 12> O 1.5946369817 1.486199452 2.55027e-05
| 13> F 1.6850542742 -1.2854137959 4.07932e-05
| 14> H -2.8923619893 1.1590826677 -9.91337e-05
| 15> H -2.8227134732 -1.3103764074 -0.0002503388
| 16> H -0.6214451948 -2.4719423834 -0.0001984592
| 17> H -0.7890056911 2.4603813847 0.000461037
| 18> H 2.3806837556 0.917474314 9.6108e-05
| 19> *
| 20>
| 21>                          ****END OF INPUT****

CARTESIAN COORDINATES (ANGSTROEM)
---------------------------------
  C     -1.944627    0.645277    0.000026
  C     -1.908843   -0.739871    0.000045
  C     -0.690096   -1.396449    0.000031
  C      0.466208   -0.646751   -0.000061
  C      0.461905    0.745111   -0.000135
  C     -0.775957    1.382849   -0.000006
  O      1.594637    1.486199    0.000026
  F      1.685054   -1.285414    0.000041
  H     -2.892362    1.159083   -0.000099
  H     -2.822713   -1.310376   -0.000250
  H     -0.621445   -2.471942   -0.000198
  H     -0.789006    2.460381    0.000461
  H      2.380684    0.917474    0.000096

 Total Charge           Charge          ....    0
 Multiplicity           Mult            ....    1
 Number of Electrons    NEL             ....   58
 Basis Dimension        Dim             ....  122

ORBITAL ENERGIES
----------------

  NO   OCC          E(Eh)            E(eV)
   0   2.0000     -24.276190      -660.5887
   1   2.0000     -18.791610      -511.3457
   2   2.0000      -9.973187      -271.3842
   3   2.0000      -9.962638      -271.0972
   4   2.0000      -9.902283      -269.4548
   5   2.0000      -9.897655      -269.3289
   6   2.0000      -9.896666      -269.3020
   7   2.0000      -9.896326      -269.2927
   8   2.0000      -1.099119       -29.9085
   9   2.0000      -0.972555       -26.4646
  10   2.0000      -0.782706       -21.2985
  11   2.0000      -0.681556       -18.5461
  12   2.0000      -0.670883       -18.2557
  13   2.0000      -0.571046       -15.5389
  14   2.0000      -0.559951       -15.2371
  15   2.0000      -0.516544       -14.0559
  16   2.0000      -0.472174       -12.8485
  17   2.0000      -0.447482       -12.1766
  18   2.0000      -0.418674       -11.3927
  19   2.0000      -0.411437       -11.1958
  20   2.0000      -0.394327       -10.7302
  21   2.0000      -0.356718        -9.7068
  22   2.0000      -0.353956        -9.6316
  23   2.0000      -0.349186        -9.5018
  24   2.0000      -0.326553        -8.8860
  25   2.0000      -0.304388        -8.2828
  26   2.0000      -0.303725        -8.2648
  27   2.0000      -0.229551        -6.2464
  28   2.0000      -0.200737        -5.4623
  29   0.0000      -0.037876        -1.0307
  30   0.0000      -0.024667        -0.6712
  31   0.0000       0.017141         0.4664
  32   0.0000       0.046709         1.2710
  33   0.0000       0.082370         2.2414

MULLIKEN ATOMIC CHARGES
-----------------------
   0 C :   -0.040423
   1 C :   -0.049745
   2 C :   -0.161445
   3 C :    0.226251
   4 C :    0.141752
   5 C :   -0.144192
   6 O :   -0.323151
   7 F :   -0.196049
   8 H :    0.056843
   9 H :    0.056972
  10 H :    0.058828
  11 H :    0.053163
  12 H :    0.321197
Sum of atomic charges:   -0.0000000

LOEWDIN ATOMIC CHARGES
----------------------
   0 C :   -0.124519
   1 C :   -0.138652
   2 C :   -0.145530
   3 C :    0.030914
   4 C :   -0.003003
   5 C :   -0.141885
   6 O :   -0.226175
   7 F :   -0.076530
   8 H :    0.127017
   9 H :    0.126223
  10 H :    0.137060
  11 H :    0.134519
  12 H :    0.300560

  Mayer bond orders larger than 0.100000
B(  0-C ,  1-C ) :   1.3644 B(  0-C ,  5-C ) :   1.3683 B(  0-C ,  8-H ) :   0.9688
B(  1-C ,  2-C ) :   1.3299 B(  1-C ,  9-H ) :   0.9687 B(  2-C ,  3-C ) :   1.3705
B(  2-C ,  5-C ) :   0.1049 B(  2-C , 10-H ) :   0.9658 B(  3-C ,  4-C ) :   1.2665
B(  3-C ,  7-F ) :   1.0651 B(  4-C ,  5-C ) :   1.3599 B(  4-C ,  6-O ) :   1.2399
B(  5-C , 11-H ) :   0.9643 B(  6-O , 12-H ) :   0.8281

Dispersion correction           -0.012578222
FINAL SINGLE POINT ENERGY      -405.878753004449

DIPOLE MOMENT
-------------

Method             : SCF
Type of density    : Electron Density
Multiplicity       :   1
Irrep              :   0
Energy             :  -405.9236511956118534 Eh
Relativity type    :
Basis              : AO
                                X                 Y                 Z
Electronic contribution:      5.955673532      -2.047551251      -0.000009535
Nuclear contribution   :     -5.989082317       1.920926833      -0.000028774
                        -----------------------------------------
Total Dipole Moment    :     -0.033408785      -0.126624418      -0.000038309
                        -----------------------------------------
Magnitude (a.u.)       :      0.130957595
Magnitude (Debye)      :      0.332867752

Rotational constants in cm-1:             0.110482             0.074880             0.044631
Rotational constants in MHz :          3312.171039          2244.831611          1337.999412

                             ****ORCA TERMINATED NORMALLY****
TOTAL RUN TIME: 0 days 0 hours 0 minutes 10 seconds 937 msec
