                         Program Version 6.0.0  -   RELEASE  -
|  1> ! wb97x-v def2-tzvp def2/J RIJCOSX DEFGRID2 scfconv7 GCP(DFT/TZ) printgap
|  2> %output
|  3>     printlevel normal
|  4> end
|  5> * xyz 0 1
|  6> C -2.5301690658148983 0.0779248771333697 -6.99950284372315e-05
|  7> C -1.121238730556575 -0.5170247924349205 -4.34020467807891e-06
|  8> C -0.09815155119762313 0.5962585022318173 1.5239106552026479e-05
|  9> Cl 1.620204718716208 -0.0758733769203847 8.252926068967575e-05
| 10> H -2.696384274104328 0.6988488960808685 -0.8863626990898632
| 11> H -3.28031237182514 -0.7179348420351331 -8.20567496109692e-05
| 12> H -2.6964495145624867 0.6988888458924274 0.886184484582357
| 13> H -0.9792532966467986 -1.1474515183000311 0.8840445003986435
| 14> H -0.9791853064561254 -1.147481757776149 -0.8840202521998264
| 15> H -0.16978239692480773 1.2206293683690284 0.8927973580480623
| 16> H -0.16972101490926203 1.220605448744173 -0.8927886049850722
| 17> *
| 18>
| 19>                          ****END OF INPUT****

CARTESIAN COORDINATES (ANGSTROEM)
---------------------------------
  C     -2.530169    0.077925   -0.000070
  C     -1.121239   -0.517025   -0.000004
  C     -0.098152    0.596259    0.000015
  Cl     1.620205   -0.075873    0.000083
  H     -2.696384    0.698849   -0.886363
  H     -3.280312   -0.717935   -0.000082
  H     -2.696450    0.698889    0.886184
  H     -0.979253   -1.147452    0.884045
  H     -0.979185   -1.147482   -0.884020
  H     -0.169782    1.220629    0.892797
  H     -0.169721    1.220605   -0.892789

 Total Charge           Charge          ....    0
 Multiplicity           Mult            ....    1
 Number of Electrons    NEL             ....   42
 Basis Dimension        Dim             ....  172

ORBITAL ENERGIES
----------------

  NO   OCC          E(Eh)            E(eV)
   0   2.0000    -107.122147     -2914.9418
   1   2.0000     -12.110262      -329.5370
   2   2.0000     -12.059161      -328.1464
   3   2.0000     -12.049699      -327.8890
   4   2.0000     -11.275232      -306.8147
   5   2.0000      -9.066601      -246.7148
   6   2.0000      -9.064036      -246.6450
   7   2.0000      -9.063966      -246.6431
   8   2.0000      -1.385912       -37.7126
   9   2.0000      -1.296814       -35.2881
  10   2.0000      -1.179369       -32.0923
  11   2.0000      -1.077293       -29.3146
  12   2.0000      -0.916992       -24.9526
  13   2.0000      -0.893342       -24.3091
  14   2.0000      -0.876920       -23.8622
  15   2.0000      -0.846813       -23.0429
  16   2.0000      -0.819778       -22.3073
  17   2.0000      -0.801106       -21.7992
  18   2.0000      -0.779749       -21.2180
  19   2.0000      -0.760315       -20.6892
  20   2.0000      -0.753938       -20.5157
  21   0.0000      -0.261994        -7.1292
  22   0.0000      -0.027852        -0.7579
  23   0.0000      -0.018870        -0.5135
  24   0.0000      -0.001254        -0.0341
  25   0.0000       0.005164         0.1405

MULLIKEN ATOMIC CHARGES
-----------------------
   0 C :   -0.353075
   1 C :   -0.153574
   2 C :   -0.116041
   3 Cl:   -0.178814
   4 H :    0.110238
   5 H :    0.122810
   6 H :    0.110238
   7 H :    0.104375
   8 H :    0.104376
   9 H :    0.124733
  10 H :    0.124734
Sum of atomic charges:   -0.0000000

LOEWDIN ATOMIC CHARGES
----------------------
   0 C :   -0.302652
   1 C :   -0.323066
   2 C :   -0.444710
   3 Cl:    0.202284
   4 H :    0.117605
   5 H :    0.120494
   6 H :    0.117605
   7 H :    0.134777
   8 H :    0.134777
   9 H :    0.121443
  10 H :    0.121442

  Mayer bond orders larger than 0.100000
B(  0-C ,  1-C ) :   0.9713 B(  0-C ,  4-H ) :   0.9777 B(  0-C ,  5-H ) :   0.9786
B(  0-C ,  6-H ) :   0.9777 B(  1-C ,  2-C ) :   0.9998 B(  1-C ,  7-H ) :   0.9682
B(  1-C ,  8-H ) :   0.9682 B(  2-C ,  3-Cl) :   1.0570 B(  2-C ,  9-H ) :   0.9693
B(  2-C , 10-H ) :   0.9693

FINAL SINGLE POINT ENERGY      -578.685696073038

DIPOLE MOMENT
-------------

Method             : SCF
Type of density    : Electron Density
Multiplicity       :   1
Irrep              :   0
Energy             :  -578.6930680319383100 Eh
Relativity type    :
Basis              : AO
                                X                 Y                 Z
Electronic contribution:     11.649357463      -0.658267566       0.000421239
Nuclear contribution   :    -12.557030239       0.874846733      -0.000456178
                        -----------------------------------------
Total Dipole Moment    :     -0.907672776       0.216579167      -0.000034939
                        -----------------------------------------
Magnitude (a.u.)       :      0.933154009
Magnitude (Debye)      :      2.371888994

Rotational constants in cm-1:             0.856319             0.077538             0.074078
Rotational constants in MHz :         25671.791471          2324.526636          2220.803815

                             ****ORCA TERMINATED NORMALLY****
TOTAL RUN TIME: 0 days 0 hours 0 minutes 45 seconds 927 msec
