                         Program Version 6.0.0  -   RELEASE  -
|  1> ! wb97x-v def2-tzvp def2/J RIJCOSX DEFGRID2 scfconv7 GCP(DFT/TZ) printgap
|  2> %output
|  3>     printlevel normal
|  4> end
|  5> %cpcm
|  6>     smd true
|  7>     smdsolvent "water"
|  8> end
|  9> * xyz 0 1
| 10> C -2.5301690658148983 0.0779248771333697 -6.99950284372315e-05
| 11> C -1.121238730556575 -0.5170247924349205 -4.34020467807891e-06
| 12> C -0.09815155119762313 0.5962585022318173 1.5239106552026479e-05
| 13> Cl 1.620204718716208 -0.0758733769203847 8.252926068967575e-05
| 14> H -2.696384274104328 0.6988488960808685 -0.8863626990898632
| 15> H -3.28031237182514 -0.7179348420351331 -8.20567496109692e-05
| 16> H -2.6964495145624867 0.6988888458924274 0.886184484582357
| 17> H -0.9792532966467986 -1.1474515183000311 0.8840445003986435
| 18> H -0.9791853064561254 -1.147481757776149 -0.8840202521998264
| 19> H -0.16978239692480773 1.2206293683690284 0.8927973580480623
| 20> H -0.16972101490926203 1.220605448744173 -0.8927886049850722
| 21> *
| 22>
| 23>                          ****END OF INPUT****

CARTESIAN COORDINATES (ANGSTROEM)
---------------------------------
  C     -2.530169    0.077925   -0.000070
  C     -1.121239   -0.517025   -0.000004
  C     -0.098152    0.596259    0.000015
  Cl     1.620205   -0.075873    0.000083
  H     -2.696384    0.698849   -0.886363
  H     -3.280312   -0.717935   -0.000082
  H     -2.696450    0.698889    0.886184
  H     -0.979253   -1.147452    0.884045
  H     -0.979185   -1.147482   -0.884020
  H     -0.169782    1.220629    0.892797
  H     -0.169721    1.220605   -0.892789

 Total Charge           Charge          ....    0
 Multiplicity           Mult            ....    1
 Number of Electrons    NEL             ....   42
 Basis Dimension        Dim             ....  172

ORBITAL ENERGIES
----------------

  NO   OCC          E(Eh)            E(eV)
   0   2.0000    -107.123302     -2914.9733
   1   2.0000     -12.097551      -329.1911
   2   2.0000     -12.043865      -327.7302
   3   2.0000     -12.030942      -327.3786
   4   2.0000     -11.276611      -306.8522
   5   2.0000      -9.067914      -246.7505
   6   2.0000      -9.065533      -246.6857
   7   2.0000      -9.065466      -246.6839
   8   2.0000      -1.384711       -37.6799
   9   2.0000      -1.282963       -34.9112
  10   2.0000      -1.164919       -31.6991
  11   2.0000      -1.062319       -28.9072
  12   2.0000      -0.902065       -24.5464
  13   2.0000      -0.884156       -24.0591
  14   2.0000      -0.863915       -23.5083
  15   2.0000      -0.831527       -22.6270
  16   2.0000      -0.807641       -21.9770
  17   2.0000      -0.786629       -21.4053
  18   2.0000      -0.768858       -20.9217
  19   2.0000      -0.758616       -20.6430
  20   2.0000      -0.747567       -20.3423
  21   0.0000      -0.254780        -6.9329
  22   0.0000      -0.012038        -0.3276
  23   0.0000      -0.004615        -0.1256
  24   0.0000       0.015781         0.4294
  25   0.0000       0.023974         0.6524

MULLIKEN ATOMIC CHARGES
-----------------------
   0 C :   -0.401231
   1 C :   -0.158580
   2 C :   -0.129278
   3 Cl:   -0.232524
   4 H :    0.127404
   5 H :    0.135847
   6 H :    0.127404
   7 H :    0.111423
   8 H :    0.111424
   9 H :    0.154055
  10 H :    0.154055
Sum of atomic charges:   -0.0000000

LOEWDIN ATOMIC CHARGES
----------------------
   0 C :   -0.304687
   1 C :   -0.323216
   2 C :   -0.434429
   3 Cl:    0.166312
   4 H :    0.121342
   5 H :    0.122489
   6 H :    0.121343
   7 H :    0.135730
   8 H :    0.135730
   9 H :    0.129693
  10 H :    0.129693

  Mayer bond orders larger than 0.100000
B(  0-C ,  1-C ) :   0.9755 B(  0-C ,  4-H ) :   0.9759 B(  0-C ,  5-H ) :   0.9747
B(  0-C ,  6-H ) :   0.9759 B(  1-C ,  2-C ) :   1.0016 B(  1-C ,  7-H ) :   0.9654
B(  1-C ,  8-H ) :   0.9654 B(  2-C ,  3-Cl) :   1.0044 B(  2-C ,  9-H ) :   0.9640
B(  2-C , 10-H ) :   0.9640

FINAL SINGLE POINT ENERGY      -578.687940269863

DIPOLE MOMENT
-------------

Method             : SCF
Type of density    : Electron Density
Multiplicity       :   1
Irrep              :   0
Energy             :  -578.6953122287625320 Eh
Relativity type    :
Basis              : AO
                                X                 Y                 Z
Electronic contribution:     11.395307444      -0.534355385       0.000410482
Nuclear contribution   :    -12.557030239       0.874846733      -0.000456178
                        -----------------------------------------
Total Dipole Moment    :     -1.161722795       0.340491348      -0.000045695
                        -----------------------------------------
Magnitude (a.u.)       :      1.210592505
Magnitude (Debye)      :      3.077081607

Rotational constants in cm-1:             0.856319             0.077538             0.074078
Rotational constants in MHz :         25671.791471          2324.526636          2220.803815

                             ****ORCA TERMINATED NORMALLY****
TOTAL RUN TIME: 0 days 0 hours 0 minutes 49 seconds 208 msec
