                         Program Version 6.0.0  -   RELEASE  -
|  1> ! pbe def2-sv(p) def2/J RI DEFGRID1 loosescf d4 GCP(DFT/SV(P)) printgap
|  2> %output
|  3>     printlevel normal
|  4> end
|  5> * xyz 0 1
|  6> C -3.6461144753 0.0405607545 0.0094849903
|  7> C -2.1519886142 0.0146299515 -0.0071460414
|  8> C -1.4251337763 1.2031507058 -0.0076840667
|  9> C -0.0457057141 1.1990523802 -0.0043897388
| 10> C 0.6545473878 -0.0096846993 -0.0007475588
| 11> C -0.07517707 -1.201498623 0.0001771871
| 12> C -1.4538658469 -1.1890947023 -0.0028076212
| 13> C 2.1274736653 -0.0911550419 0.0011796468
| 14> O 2.704275248 -1.1716836488 -0.0016426907
| 15> C 2.9009832809 1.1987016938 0.0072981822
| 16> H -4.0240779023 0.8326572458 -0.6320835908
| 17> H -4.0556878219 -0.9114183227 -0.3162585242
| 18> H -3.9973979563 0.2351204312 1.0224172196
| 19> H -1.9546618347 2.1442900905 -0.0115945864
| 20> H 0.4823594823 2.1384301463 -0.0064343649
| 21> H 0.4717925547 -2.1333406114 0.0022634254
| 22> H -1.9969069194 -2.1225006479 -0.0027780466
| 23> H 3.9649810251 0.9767870496 0.0118630982
| 24> H 2.6470248906 1.7787042082 0.8907329471
| 25> H 2.6557060847 1.781455996 -0.8768166387
| 26> *
| 27>
| 28>                          ****END OF INPUT****

CARTESIAN COORDINATES (ANGSTROEM)
---------------------------------
  C     -3.646114    0.040561    0.009485
  C     -2.151989    0.014630   -0.007146
  C     -1.425134    1.203151   -0.007684
  C     -0.045706    1.199052   -0.004390
  C      0.654547   -0.009685   -0.000748
  C     -0.075177   -1.201499    0.000177
  C     -1.453866   -1.189095   -0.002808
  C      2.127474   -0.091155    0.001180
  O      2.704275   -1.171684   -0.001643
  C      2.900983    1.198702    0.007298
  H     -4.024078    0.832657   -0.632084
  H     -4.055688   -0.911418   -0.316259
  H     -3.997398    0.235120    1.022417
  H     -1.954662    2.144290   -0.011595
  H      0.482359    2.138430   -0.006434
  H      0.471793   -2.133341    0.002263
  H     -1.996907   -2.122501   -0.002778
  H      3.964981    0.976787    0.011863
  H      2.647025    1.778704    0.890733
  H      2.655706    1.781456   -0.876817

 Total Charge           Charge          ....    0
 Multiplicity           Mult            ....    1
 Number of Electrons    NEL             ....   72
 Basis Dimension        Dim             ....  160

ORBITAL ENERGIES
----------------

  NO   OCC          E(Eh)            E(eV)
   0   2.0000     -18.733337      -509.7600
   1   2.0000      -9.967953      -271.2418
   2   2.0000      -9.917753      -269.8758
   3   2.0000      -9.903883      -269.4983
   4   2.0000      -9.900208      -269.3983
   5   2.0000      -9.899172      -269.3702
   6   2.0000      -9.899039      -269.3665
   7   2.0000      -9.898028      -269.3390
   8   2.0000      -9.893842      -269.2251
   9   2.0000      -9.884285      -268.9651
  10   2.0000      -0.927252       -25.2318
  11   2.0000      -0.788770       -21.4635
  12   2.0000      -0.716033       -19.4843
  13   2.0000      -0.681512       -18.5449
  14   2.0000      -0.667198       -18.1554
  15   2.0000      -0.626368       -17.0443
  16   2.0000      -0.552645       -15.0382
  17   2.0000      -0.544919       -14.8280
  18   2.0000      -0.498283       -13.5590
  19   2.0000      -0.442704       -12.0466
  20   2.0000      -0.429438       -11.6856
  21   2.0000      -0.402497       -10.9525
  22   2.0000      -0.401084       -10.9140
  23   2.0000      -0.394932       -10.7466
  24   2.0000      -0.389127       -10.5887
  25   2.0000      -0.381690       -10.3863
  26   2.0000      -0.366754        -9.9799
  27   2.0000      -0.345356        -9.3976
  28   2.0000      -0.341376        -9.2893
  29   2.0000      -0.336295        -9.1510
  30   2.0000      -0.315219        -8.5775
  31   2.0000      -0.308062        -8.3828
  32   2.0000      -0.301321        -8.1994
  33   2.0000      -0.239726        -6.5233
  34   2.0000      -0.228224        -6.2103
  35   2.0000      -0.195831        -5.3288
  36   0.0000      -0.084519        -2.2999
  37   0.0000      -0.043393        -1.1808
  38   0.0000       0.003034         0.0826
  39   0.0000       0.038982         1.0607
  40   0.0000       0.050538         1.3752

MULLIKEN ATOMIC CHARGES
-----------------------
   0 C :   -0.224305
   1 C :    0.052922
   2 C :   -0.093284
   3 C :   -0.119436
   4 C :    0.108678
   5 C :   -0.103174
   6 C :   -0.099051
   7 C :   -0.019855
   8 O :   -0.168321
   9 C :   -0.242018
  10 H :    0.114889
  11 H :    0.109342
  12 H :    0.126421
  13 H :    0.037567
  14 H :    0.046499
  15 H :    0.063454
  16 H :    0.043031
  17 H :    0.117107
  18 H :    0.124648
  19 H :    0.124884
Sum of atomic charges:    0.0000000

LOEWDIN ATOMIC CHARGES
----------------------
   0 C :   -0.322617
   1 C :   -0.031455
   2 C :   -0.122786
   3 C :   -0.104566
   4 C :   -0.083902
   5 C :   -0.080501
   6 C :   -0.122364
   7 C :    0.045573
   8 O :   -0.139234
   9 C :   -0.361544
  10 H :    0.131734
  11 H :    0.128197
  12 H :    0.139305
  13 H :    0.122865
  14 H :    0.125548
  15 H :    0.134146
  16 H :    0.124368
  17 H :    0.135885
  18 H :    0.140588
  19 H :    0.140760

  Mayer bond orders larger than 0.100000
B(  0-C ,  1-C ) :   1.1023 B(  0-C , 10-H ) :   0.9387 B(  0-C , 11-H ) :   0.9426
B(  0-C , 12-H ) :   0.9289 B(  1-C ,  2-C ) :   1.3717 B(  1-C ,  6-C ) :   1.3653
B(  2-C ,  3-C ) :   1.3788 B(  2-C , 13-H ) :   0.9633 B(  3-C ,  4-C ) :   1.3358
B(  3-C , 14-H ) :   0.9475 B(  4-C ,  5-C ) :   1.3619 B(  4-C ,  7-C ) :   0.9389
B(  5-C ,  6-C ) :   1.3525 B(  5-C , 15-H ) :   0.9561 B(  6-C , 16-H ) :   0.9660
B(  7-C ,  8-O ) :   2.1551 B(  7-C ,  9-C ) :   1.1246 B(  9-C , 17-H ) :   0.9299
B(  9-C , 18-H ) :   0.9163 B(  9-C , 19-H ) :   0.9158

Dispersion correction           -0.020773130
FINAL SINGLE POINT ENERGY      -423.284030950578

DIPOLE MOMENT
-------------

Method             : SCF
Type of density    : Electron Density
Multiplicity       :   1
Irrep              :   0
Energy             :  -423.3396786697789480 Eh
Relativity type    :
Basis              : AO
                                X                 Y                 Z
Electronic contribution:      4.393439584      -3.547374348      -0.049113295
Nuclear contribution   :     -5.407756232       4.410972542       0.076259096
                        -----------------------------------------
Total Dipole Moment    :     -1.014316648       0.863598194       0.027145800
                        -----------------------------------------
Magnitude (a.u.)       :      1.332432737
Magnitude (Debye)      :      3.386774866

Rotational constants in cm-1:             0.121476             0.026620             0.022014
Rotational constants in MHz :          3641.760836           798.057451           659.967695

                             ****ORCA TERMINATED NORMALLY****
TOTAL RUN TIME: 0 days 0 hours 0 minutes 9 seconds 485 msec
