                         Program Version 6.0.0  -   RELEASE  -
|  1> ! pbe def2-sv(p) def2/J RI DEFGRID1 loosescf d4 GCP(DFT/SV(P)) printgap
|  2> %output
|  3>     printlevel normal
|  4> end
|  5> * xyz 0 1
|  6> C -2.4005433577 0.0412990427 0.0437680702
|  7> C -0.9442814907 0.4899450123 -0.0039933836
|  8> C -0.0021391917 -0.6733302155 -0.1350721482
|  9> C 1.3193125576 -0.6131428866 -0.0713541445
| 10> C 2.1376748512 0.6187991611 0.1403554339
| 11> H -3.0608564366 0.8999645592 0.1411586467
| 12> H -2.5674501486 -0.6184570043 0.8924609677
| 13> H -2.6649950977 -0.4937309509 -0.8657810445
| 14> H -0.8032748733 1.1677219653 -0.8515126726
| 15> H -0.7102918879 1.0522091598 0.9039050884
| 16> H -0.4748007896 -1.6323038763 -0.3010178253
| 17> H 1.8940541401 -1.5242514249 -0.182110836
| 18> H 2.8029204915 0.7707092541 -0.7089881893
| 19> H 2.7591581596 0.5042577372 1.0278263087
| 20> H 1.5144855449 1.4995945212 0.2574077165
| 21> *
| 22>
| 23>                          ****END OF INPUT****

CARTESIAN COORDINATES (ANGSTROEM)
---------------------------------
  C     -2.400543    0.041299    0.043768
  C     -0.944281    0.489945   -0.003993
  C     -0.002139   -0.673330   -0.135072
  C      1.319313   -0.613143   -0.071354
  C      2.137675    0.618799    0.140355
  H     -3.060856    0.899965    0.141159
  H     -2.567450   -0.618457    0.892461
  H     -2.664995   -0.493731   -0.865781
  H     -0.803275    1.167722   -0.851513
  H     -0.710292    1.052209    0.903905
  H     -0.474801   -1.632304   -0.301018
  H      1.894054   -1.524251   -0.182111
  H      2.802920    0.770709   -0.708988
  H      2.759158    0.504258    1.027826
  H      1.514486    1.499595    0.257408

 Total Charge           Charge          ....    0
 Multiplicity           Mult            ....    1
 Number of Electrons    NEL             ....   40
 Basis Dimension        Dim             ....   90

ORBITAL ENERGIES
----------------

  NO   OCC          E(Eh)            E(eV)
   0   2.0000      -9.884937      -268.9828
   1   2.0000      -9.879326      -268.8301
   2   2.0000      -9.877049      -268.7682
   3   2.0000      -9.876941      -268.7652
   4   2.0000      -9.873136      -268.6617
   5   2.0000      -0.722196       -19.6520
   6   2.0000      -0.673400       -18.3241
   7   2.0000      -0.605257       -16.4699
   8   2.0000      -0.545523       -14.8444
   9   2.0000      -0.467509       -12.7216
  10   2.0000      -0.418715       -11.3938
  11   2.0000      -0.399661       -10.8753
  12   2.0000      -0.380616       -10.3571
  13   2.0000      -0.364749        -9.9253
  14   2.0000      -0.333502        -9.0751
  15   2.0000      -0.324225        -8.8226
  16   2.0000      -0.308990        -8.4080
  17   2.0000      -0.304930        -8.2976
  18   2.0000      -0.279310        -7.6004
  19   2.0000      -0.207571        -5.6483
  20   0.0000      -0.006491        -0.1766
  21   0.0000       0.046288         1.2596
  22   0.0000       0.063490         1.7276
  23   0.0000       0.067844         1.8461
  24   0.0000       0.099929         2.7192

MULLIKEN ATOMIC CHARGES
-----------------------
   0 C :   -0.282977
   1 C :   -0.151983
   2 C :   -0.147019
   3 C :   -0.152823
   4 C :   -0.232652
   5 H :    0.100823
   6 H :    0.102673
   7 H :    0.102187
   8 H :    0.104341
   9 H :    0.103951
  10 H :    0.060412
  11 H :    0.063194
  12 H :    0.111683
  13 H :    0.111138
  14 H :    0.107052
Sum of atomic charges:    0.0000000

LOEWDIN ATOMIC CHARGES
----------------------
   0 C :   -0.339002
   1 C :   -0.236780
   2 C :   -0.156890
   3 C :   -0.152286
   4 C :   -0.337888
   5 H :    0.118482
   6 H :    0.118452
   7 H :    0.118036
   8 H :    0.125781
   9 H :    0.124475
  10 H :    0.117809
  11 H :    0.117081
  12 H :    0.130398
  13 H :    0.129711
  14 H :    0.122623

  Mayer bond orders larger than 0.100000
B(  0-C ,  1-C ) :   1.1502 B(  0-C ,  5-H ) :   0.9530 B(  0-C ,  6-H ) :   0.9577
B(  0-C ,  7-H ) :   0.9549 B(  1-C ,  2-C ) :   1.0592 B(  1-C ,  8-H ) :   0.9117
B(  1-C ,  9-H ) :   0.9124 B(  2-C ,  3-C ) :   1.9942 B(  2-C , 10-H ) :   0.9371
B(  3-C ,  4-C ) :   1.1216 B(  3-C , 11-H ) :   0.9298 B(  4-C , 12-H ) :   0.9358
B(  4-C , 13-H ) :   0.9368 B(  4-C , 14-H ) :   0.9385

Dispersion correction           -0.009667184
FINAL SINGLE POINT ENERGY      -196.029101928721

DIPOLE MOMENT
-------------

Method             : SCF
Type of density    : Electron Density
Multiplicity       :   1
Irrep              :   0
Energy             :  -196.0773466875869531 Eh
Relativity type    :
Basis              : AO
                                X                 Y                 Z
Electronic contribution:      1.284909242      -1.405533578      -0.284389340
Nuclear contribution   :     -1.229990529       1.525198414       0.293974300
                        -----------------------------------------
Total Dipole Moment    :      0.054918713       0.119664836       0.009584960
                        -----------------------------------------
Magnitude (a.u.)       :      0.132013672
Magnitude (Debye)      :      0.335552086

Rotational constants in cm-1:             0.482301             0.081533             0.072660
Rotational constants in MHz :         14459.026434          2444.303978          2178.285242

                             ****ORCA TERMINATED NORMALLY****
TOTAL RUN TIME: 0 days 0 hours 0 minutes 6 seconds 123 msec
