                         Program Version 6.0.0  -   RELEASE  -
|  1> ! pbe def2-sv(p) def2/J RI DEFGRID1 loosescf d4 GCP(DFT/SV(P)) printgap
|  2> %output
|  3>     printlevel normal
|  4> end
|  5> * xyz 0 1
|  6> C -1.3537762043 -0.8870309531 0.390584227
|  7> C -0.5900458744 0.0818459039 -0.5089279315
|  8> C -0.7112528666 1.5140887667 0.0111088831
|  9> C 0.881421374 -0.3478487011 -0.6307983929
| 10> O 1.5783045413 -0.3797921356 0.5956254866
| 11> H -2.3818054615 -0.5586597045 0.5192866458
| 12> H -0.877678064 -0.9411542499 1.3671065301
| 13> H -1.3582465187 -1.8847885549 -0.0414308716
| 14> H -1.010797309 0.0397273969 -1.5190989773
| 15> H -1.7477242819 1.8385743585 -0.032162051
| 16> H -0.114595972 2.1949642158 -0.5922041355
| 17> H -0.3852728483 1.5763323288 1.0469392871
| 18> H 0.9326370653 -1.3700552442 -1.0144778211
| 19> H 1.3990811184 0.3117506934 -1.3413342362
| 20> H 1.6264648132 0.5195131193 0.9472859196
| 21> *
| 22>
| 23>                          ****END OF INPUT****

CARTESIAN COORDINATES (ANGSTROEM)
---------------------------------
  C     -1.353776   -0.887031    0.390584
  C     -0.590046    0.081846   -0.508928
  C     -0.711253    1.514089    0.011109
  C      0.881421   -0.347849   -0.630798
  O      1.578305   -0.379792    0.595625
  H     -2.381805   -0.558660    0.519287
  H     -0.877678   -0.941154    1.367107
  H     -1.358247   -1.884789   -0.041431
  H     -1.010797    0.039727   -1.519099
  H     -1.747724    1.838574   -0.032162
  H     -0.114596    2.194964   -0.592204
  H     -0.385273    1.576332    1.046939
  H      0.932637   -1.370055   -1.014478
  H      1.399081    0.311751   -1.341334
  H      1.626465    0.519513    0.947286

 Total Charge           Charge          ....    0
 Multiplicity           Mult            ....    1
 Number of Electrons    NEL             ....   42
 Basis Dimension        Dim             ....   90

ORBITAL ENERGIES
----------------

  NO   OCC          E(Eh)            E(eV)
   0   2.0000     -18.741558      -509.9837
   1   2.0000      -9.924698      -270.0648
   2   2.0000      -9.894505      -269.2432
   3   2.0000      -9.880228      -268.8547
   4   2.0000      -9.868994      -268.5490
   5   2.0000      -0.917885       -24.9769
   6   2.0000      -0.718939       -19.5633
   7   2.0000      -0.615271       -16.7424
   8   2.0000      -0.602585       -16.3972
   9   2.0000      -0.507460       -13.8087
  10   2.0000      -0.441970       -12.0266
  11   2.0000      -0.423928       -11.5357
  12   2.0000      -0.398038       -10.8312
  13   2.0000      -0.380797       -10.3620
  14   2.0000      -0.345473        -9.4008
  15   2.0000      -0.335324        -9.1246
  16   2.0000      -0.314346        -8.5538
  17   2.0000      -0.299031        -8.1371
  18   2.0000      -0.291480        -7.9316
  19   2.0000      -0.266101        -7.2410
  20   2.0000      -0.212807        -5.7908
  21   0.0000       0.020164         0.5487
  22   0.0000       0.051472         1.4006
  23   0.0000       0.080017         2.1774
  24   0.0000       0.093307         2.5390
  25   0.0000       0.096398         2.6231

MULLIKEN ATOMIC CHARGES
-----------------------
   0 C :   -0.240399
   1 C :   -0.192592
   2 C :   -0.279347
   3 C :    0.035276
   4 O :   -0.436261
   5 H :    0.096785
   6 H :    0.100194
   7 H :    0.096264
   8 H :    0.071585
   9 H :    0.108642
  10 H :    0.099635
  11 H :    0.090465
  12 H :    0.083241
  13 H :    0.070464
  14 H :    0.296049
Sum of atomic charges:    0.0000000

LOEWDIN ATOMIC CHARGES
----------------------
   0 C :   -0.332089
   1 C :   -0.182781
   2 C :   -0.339113
   3 C :   -0.114447
   4 O :   -0.336549
   5 H :    0.115683
   6 H :    0.118642
   7 H :    0.117887
   8 H :    0.117744
   9 H :    0.123621
  10 H :    0.116123
  11 H :    0.111689
  12 H :    0.110808
  13 H :    0.092135
  14 H :    0.280646

  Mayer bond orders larger than 0.100000
B(  0-C ,  1-C ) :   1.1016 B(  0-C ,  5-H ) :   0.9543 B(  0-C ,  6-H ) :   0.9430
B(  0-C ,  7-H ) :   0.9525 B(  1-C ,  2-C ) :   1.1009 B(  1-C ,  3-C ) :   1.0425
B(  1-C ,  8-H ) :   0.8938 B(  2-C ,  9-H ) :   0.9513 B(  2-C , 10-H ) :   0.9519
B(  2-C , 11-H ) :   0.9428 B(  3-C ,  4-O ) :   1.0733 B(  3-C , 12-H ) :   0.9315
B(  3-C , 13-H ) :   0.9263 B(  4-O , 14-H ) :   0.8492

Dispersion correction           -0.009945247
FINAL SINGLE POINT ENERGY      -233.089162667895

DIPOLE MOMENT
-------------

Method             : SCF
Type of density    : Electron Density
Multiplicity       :   1
Irrep              :   0
Energy             :  -233.1489133371900948 Eh
Relativity type    :
Basis              : AO
                                X                 Y                 Z
Electronic contribution:      3.416063592      -1.083096811       0.406355710
Nuclear contribution   :     -3.652204682       1.613822811      -0.610411474
                        -----------------------------------------
Total Dipole Moment    :     -0.236141089       0.530726000      -0.204055764
                        -----------------------------------------
Magnitude (a.u.)       :      0.615687791
Magnitude (Debye)      :      1.564953996

Rotational constants in cm-1:             0.209752             0.132478             0.105976
Rotational constants in MHz :          6288.191799          3971.577722          3177.080573

                             ****ORCA TERMINATED NORMALLY****
TOTAL RUN TIME: 0 days 0 hours 0 minutes 5 seconds 446 msec
