                         Program Version 6.0.0  -   RELEASE  -
|  1> ! wb97x-v def2-tzvp def2/J RIJCOSX DEFGRID2 scfconv7 GCP(DFT/TZ) printgap
|  2> %output
|  3>     printlevel normal
|  4> end
|  5> * xyz 0 1
|  6> C 2.4919019215770044 3.750799491266375e-06 -0.08565695828680668
|  7> C 1.024111135212005 4.157457000863868e-06 0.3301890890207755
|  8> C 0.3027400112531423 1.2557828752677942 -0.1729319636869903
|  9> C -1.177263644984675 1.2598244676529764 0.21555939224622342
| 10> C -1.884094276728861 4.093446227360542e-05 -0.2880065168120658
| 11> C -1.1772740736394334 -1.2597480993846457 0.21555819805902898
| 12> C 0.3027075394051675 -1.2557223336172563 -0.17300842024569665
| 13> H 3.013505348641567 -0.8860677804183361 0.2933135724844481
| 14> H 2.5825404373837877 0.00014298924213927323 -1.1788565585409294
| 15> H 3.013576094180912 0.8859318790905828 0.2935502705129318
| 16> H 0.9712842293181604 -3.502619132386923e-05 1.4300191770447883
| 17> H 0.8014874179699539 2.152320611616796 0.2168500023160287
| 18> H 0.39040103903887313 1.2933030459559476 -1.2692986274873135
| 19> H -1.2625871275411837 1.3066347212534175 1.3104289731836873
| 20> H -1.6693276956043537 2.156388834820048 -0.1801468994105131
| 21> H -2.9342222019195034 4.8723211342433626e-05 0.027587378410932284
| 22> H -1.8796933416223387 3.501405228441216e-05 -1.3872269158992436
| 23> H -1.262532053831455 -1.3065196537099304 1.3104374068588776
| 24> H -1.669379639801435 -2.1563162434257968 -0.1800911786067514
| 25> H 0.8014600231021778 -2.1523021065869137 0.21667273681810434
| 26> H 0.3903085894255739 -1.2931504853177385 -1.2693852954111167
| 27> *
| 28>
| 29>                          ****END OF INPUT****

CARTESIAN COORDINATES (ANGSTROEM)
---------------------------------
  C      2.491902    0.000004   -0.085657
  C      1.024111    0.000004    0.330189
  C      0.302740    1.255783   -0.172932
  C     -1.177264    1.259824    0.215559
  C     -1.884094    0.000041   -0.288007
  C     -1.177274   -1.259748    0.215558
  C      0.302708   -1.255722   -0.173008
  H      3.013505   -0.886068    0.293314
  H      2.582540    0.000143   -1.178857
  H      3.013576    0.885932    0.293550
  H      0.971284   -0.000035    1.430019
  H      0.801487    2.152321    0.216850
  H      0.390401    1.293303   -1.269299
  H     -1.262587    1.306635    1.310429
  H     -1.669328    2.156389   -0.180147
  H     -2.934222    0.000049    0.027587
  H     -1.879693    0.000035   -1.387227
  H     -1.262532   -1.306520    1.310437
  H     -1.669380   -2.156316   -0.180091
  H      0.801460   -2.152302    0.216673
  H      0.390309   -1.293150   -1.269385

 Total Charge           Charge          ....    0
 Multiplicity           Mult            ....    1
 Number of Electrons    NEL             ....   56
 Basis Dimension        Dim             ....  301

ORBITAL ENERGIES
----------------

  NO   OCC          E(Eh)            E(eV)
   0   2.0000     -12.041483      -327.6654
   1   2.0000     -12.035509      -327.5028
   2   2.0000     -12.035174      -327.4937
   3   2.0000     -12.034111      -327.4648
   4   2.0000     -12.033402      -327.4455
   5   2.0000     -12.033119      -327.4378
   6   2.0000     -12.029008      -327.3259
   7   2.0000      -1.339436       -36.4479
   8   2.0000      -1.267475       -34.4897
   9   2.0000      -1.242909       -33.8213
  10   2.0000      -1.168249       -31.7897
  11   2.0000      -1.092461       -29.7274
  12   2.0000      -1.065571       -28.9957
  13   2.0000      -1.001868       -27.2622
  14   2.0000      -0.904533       -24.6136
  15   2.0000      -0.878767       -23.9125
  16   2.0000      -0.869614       -23.6634
  17   2.0000      -0.867188       -23.5974
  18   2.0000      -0.852485       -23.1973
  19   2.0000      -0.821409       -22.3517
  20   2.0000      -0.813430       -22.1345
  21   2.0000      -0.802047       -21.8248
  22   2.0000      -0.793437       -21.5905
  23   2.0000      -0.768739       -20.9184
  24   2.0000      -0.759683       -20.6720
  25   2.0000      -0.749923       -20.4064
  26   2.0000      -0.737687       -20.0735
  27   2.0000      -0.725166       -19.7328
  28   0.0000      -0.035815        -0.9746
  29   0.0000      -0.026245        -0.7142
  30   0.0000      -0.022115        -0.6018
  31   0.0000      -0.020306        -0.5525
  32   0.0000      -0.010573        -0.2877

MULLIKEN ATOMIC CHARGES
-----------------------
   0 C :   -0.336306
   1 C :   -0.034025
   2 C :   -0.205289
   3 C :   -0.167266
   4 C :   -0.186076
   5 C :   -0.167291
   6 C :   -0.205257
   7 H :    0.109726
   8 H :    0.102600
   9 H :    0.109723
  10 H :    0.063174
  11 H :    0.096086
  12 H :    0.085800
  13 H :    0.085825
  14 H :    0.098189
  15 H :    0.099806
  16 H :    0.084673
  17 H :    0.085827
  18 H :    0.098193
  19 H :    0.096088
  20 H :    0.085801
Sum of atomic charges:   -0.0000000

LOEWDIN ATOMIC CHARGES
----------------------
   0 C :   -0.282405
   1 C :   -0.285300
   2 C :   -0.237770
   3 C :   -0.259700
   4 C :   -0.261751
   5 C :   -0.259701
   6 C :   -0.237771
   7 H :    0.117405
   8 H :    0.118427
   9 H :    0.117404
  10 H :    0.147081
  11 H :    0.132399
  12 H :    0.135324
  13 H :    0.132902
  14 H :    0.130122
  15 H :    0.129940
  16 H :    0.132648
  17 H :    0.132903
  18 H :    0.130121
  19 H :    0.132399
  20 H :    0.135325

  Mayer bond orders larger than 0.100000
B(  0-C ,  1-C ) :   0.9793 B(  0-C ,  7-H ) :   0.9854 B(  0-C ,  8-H ) :   0.9745
B(  0-C ,  9-H ) :   0.9854 B(  1-C ,  2-C ) :   0.9855 B(  1-C ,  6-C ) :   0.9855
B(  1-C , 10-H ) :   0.9666 B(  2-C ,  3-C ) :   0.9895 B(  2-C , 11-H ) :   0.9732
B(  2-C , 12-H ) :   0.9691 B(  3-C ,  4-C ) :   0.9892 B(  3-C , 13-H ) :   0.9749
B(  3-C , 14-H ) :   0.9769 B(  4-C ,  5-C ) :   0.9892 B(  4-C , 15-H ) :   0.9765
B(  4-C , 16-H ) :   0.9751 B(  5-C ,  6-C ) :   0.9894 B(  5-C , 17-H ) :   0.9749
B(  5-C , 18-H ) :   0.9769 B(  6-C , 19-H ) :   0.9732 B(  6-C , 20-H ) :   0.9691

FINAL SINGLE POINT ENERGY      -275.204779112255

DIPOLE MOMENT
-------------

Method             : SCF
Type of density    : Electron Density
Multiplicity       :   1
Irrep              :   0
Energy             :  -275.2196465539553856 Eh
Relativity type    :
Basis              : AO
                                X                 Y                 Z
Electronic contribution:     -1.256811038      -0.000029934       0.393665627
Nuclear contribution   :      1.222010367       0.000034558      -0.361142357
                        -----------------------------------------
Total Dipole Moment    :     -0.034800671       0.000004624       0.032523270
                        -----------------------------------------
Magnitude (a.u.)       :      0.047632445
Magnitude (Debye)      :      0.121072054

Rotational constants in cm-1:             0.140728             0.073090             0.053165
Rotational constants in MHz :          4218.908868          2191.174746          1593.845291

                             ****ORCA TERMINATED NORMALLY****
TOTAL RUN TIME: 0 days 0 hours 2 minutes 56 seconds 652 msec
