                         Program Version 6.0.0  -   RELEASE  -
|  1> ! wb97x-v def2-tzvp def2/J RIJCOSX DEFGRID2 scfconv7 GCP(DFT/TZ) printgap
|  2> %output
|  3>     printlevel normal
|  4> end
|  5> %cpcm
|  6>     smd true
|  7>     smdsolvent "water"
|  8> end
|  9> * xyz 0 1
| 10> C 2.4919019215770044 3.750799491266375e-06 -0.08565695828680668
| 11> C 1.024111135212005 4.157457000863868e-06 0.3301890890207755
| 12> C 0.3027400112531423 1.2557828752677942 -0.1729319636869903
| 13> C -1.177263644984675 1.2598244676529764 0.21555939224622342
| 14> C -1.884094276728861 4.093446227360542e-05 -0.2880065168120658
| 15> C -1.1772740736394334 -1.2597480993846457 0.21555819805902898
| 16> C 0.3027075394051675 -1.2557223336172563 -0.17300842024569665
| 17> H 3.013505348641567 -0.8860677804183361 0.2933135724844481
| 18> H 2.5825404373837877 0.00014298924213927323 -1.1788565585409294
| 19> H 3.013576094180912 0.8859318790905828 0.2935502705129318
| 20> H 0.9712842293181604 -3.502619132386923e-05 1.4300191770447883
| 21> H 0.8014874179699539 2.152320611616796 0.2168500023160287
| 22> H 0.39040103903887313 1.2933030459559476 -1.2692986274873135
| 23> H -1.2625871275411837 1.3066347212534175 1.3104289731836873
| 24> H -1.6693276956043537 2.156388834820048 -0.1801468994105131
| 25> H -2.9342222019195034 4.8723211342433626e-05 0.027587378410932284
| 26> H -1.8796933416223387 3.501405228441216e-05 -1.3872269158992436
| 27> H -1.262532053831455 -1.3065196537099304 1.3104374068588776
| 28> H -1.669379639801435 -2.1563162434257968 -0.1800911786067514
| 29> H 0.8014600231021778 -2.1523021065869137 0.21667273681810434
| 30> H 0.3903085894255739 -1.2931504853177385 -1.2693852954111167
| 31> *
| 32>
| 33>                          ****END OF INPUT****

CARTESIAN COORDINATES (ANGSTROEM)
---------------------------------
  C      2.491902    0.000004   -0.085657
  C      1.024111    0.000004    0.330189
  C      0.302740    1.255783   -0.172932
  C     -1.177264    1.259824    0.215559
  C     -1.884094    0.000041   -0.288007
  C     -1.177274   -1.259748    0.215558
  C      0.302708   -1.255722   -0.173008
  H      3.013505   -0.886068    0.293314
  H      2.582540    0.000143   -1.178857
  H      3.013576    0.885932    0.293550
  H      0.971284   -0.000035    1.430019
  H      0.801487    2.152321    0.216850
  H      0.390401    1.293303   -1.269299
  H     -1.262587    1.306635    1.310429
  H     -1.669328    2.156389   -0.180147
  H     -2.934222    0.000049    0.027587
  H     -1.879693    0.000035   -1.387227
  H     -1.262532   -1.306520    1.310437
  H     -1.669380   -2.156316   -0.180091
  H      0.801460   -2.152302    0.216673
  H      0.390309   -1.293150   -1.269385

 Total Charge           Charge          ....    0
 Multiplicity           Mult            ....    1
 Number of Electrons    NEL             ....   56
 Basis Dimension        Dim             ....  301

ORBITAL ENERGIES
----------------

  NO   OCC          E(Eh)            E(eV)
   0   2.0000     -12.033603      -327.4510
   1   2.0000     -12.027770      -327.2923
   2   2.0000     -12.027365      -327.2812
   3   2.0000     -12.026317      -327.2527
   4   2.0000     -12.025368      -327.2269
   5   2.0000     -12.025117      -327.2201
   6   2.0000     -12.021604      -327.1245
   7   2.0000      -1.331689       -36.2371
   8   2.0000      -1.260012       -34.2867
   9   2.0000      -1.235305       -33.6143
  10   2.0000      -1.161137       -31.5962
  11   2.0000      -1.084914       -29.5220
  12   2.0000      -1.058259       -28.7967
  13   2.0000      -0.994137       -27.0519
  14   2.0000      -0.897022       -24.4092
  15   2.0000      -0.871082       -23.7034
  16   2.0000      -0.861848       -23.4521
  17   2.0000      -0.859579       -23.3903
  18   2.0000      -0.845027       -22.9943
  19   2.0000      -0.814069       -22.1520
  20   2.0000      -0.805848       -21.9282
  21   2.0000      -0.794616       -21.6226
  22   2.0000      -0.786274       -21.3956
  23   2.0000      -0.760781       -20.7019
  24   2.0000      -0.752011       -20.4633
  25   2.0000      -0.742369       -20.2009
  26   2.0000      -0.730097       -19.8670
  27   2.0000      -0.717113       -19.5136
  28   0.0000      -0.027687        -0.7534
  29   0.0000      -0.018031        -0.4907
  30   0.0000      -0.014816        -0.4032
  31   0.0000      -0.012880        -0.3505
  32   0.0000      -0.001670        -0.0454

MULLIKEN ATOMIC CHARGES
-----------------------
   0 C :   -0.397241
   1 C :   -0.019240
   2 C :   -0.232255
   3 C :   -0.190540
   4 C :   -0.208641
   5 C :   -0.190564
   6 C :   -0.232226
   7 H :    0.125565
   8 H :    0.117961
   9 H :    0.125561
  10 H :    0.072630
  11 H :    0.108641
  12 H :    0.096874
  13 H :    0.096248
  14 H :    0.109464
  15 H :    0.111621
  16 H :    0.094904
  17 H :    0.096250
  18 H :    0.109469
  19 H :    0.108645
  20 H :    0.096874
Sum of atomic charges:   -0.0000000

LOEWDIN ATOMIC CHARGES
----------------------
   0 C :   -0.290303
   1 C :   -0.284963
   2 C :   -0.240737
   3 C :   -0.263084
   4 C :   -0.265125
   5 C :   -0.263086
   6 C :   -0.240738
   7 H :    0.119325
   8 H :    0.120373
   9 H :    0.119324
  10 H :    0.149202
  11 H :    0.133861
  12 H :    0.137164
  13 H :    0.134715
  14 H :    0.131337
  15 H :    0.131211
  16 H :    0.134448
  17 H :    0.134716
  18 H :    0.131336
  19 H :    0.133860
  20 H :    0.137165

  Mayer bond orders larger than 0.100000
B(  0-C ,  1-C ) :   0.9639 B(  0-C ,  7-H ) :   0.9833 B(  0-C ,  8-H ) :   0.9744
B(  0-C ,  9-H ) :   0.9833 B(  1-C ,  2-C ) :   0.9835 B(  1-C ,  6-C ) :   0.9835
B(  1-C , 10-H ) :   0.9665 B(  2-C ,  3-C ) :   0.9893 B(  2-C , 11-H ) :   0.9717
B(  2-C , 12-H ) :   0.9686 B(  3-C ,  4-C ) :   0.9883 B(  3-C , 13-H ) :   0.9740
B(  3-C , 14-H ) :   0.9752 B(  4-C ,  5-C ) :   0.9884 B(  4-C , 15-H ) :   0.9746
B(  4-C , 16-H ) :   0.9738 B(  5-C ,  6-C ) :   0.9893 B(  5-C , 17-H ) :   0.9740
B(  5-C , 18-H ) :   0.9752 B(  6-C , 19-H ) :   0.9716 B(  6-C , 20-H ) :   0.9686

FINAL SINGLE POINT ENERGY      -275.202310933212

DIPOLE MOMENT
-------------

Method             : SCF
Type of density    : Electron Density
Multiplicity       :   1
Irrep              :   0
Energy             :  -275.2171783749121801 Eh
Relativity type    :
Basis              : AO
                                X                 Y                 Z
Electronic contribution:     -1.260008906      -0.000029507       0.402943132
Nuclear contribution   :      1.222010367       0.000034558      -0.361142357
                        -----------------------------------------
Total Dipole Moment    :     -0.037998539       0.000005051       0.041800776
                        -----------------------------------------
Magnitude (a.u.)       :      0.056490653
Magnitude (Debye)      :      0.143587829

Rotational constants in cm-1:             0.140728             0.073090             0.053165
Rotational constants in MHz :          4218.908868          2191.174746          1593.845291

                             ****ORCA TERMINATED NORMALLY****
TOTAL RUN TIME: 0 days 0 hours 2 minutes 47 seconds 616 msec
