                         Program Version 6.0.0  -   RELEASE  -
|  1> ! r2scan-3c def2/J RI DEFGRID2 scfconv6 printgap
|  2> %output
|  3>     printlevel normal
|  4> end
|  5> * xyz 0 1
|  6> C 2.411610038 2.9794e-05 0.0134756466
|  7> N 0.9983962438 9.3144e-06 -0.3027957614
|  8> C 0.330860341 -1.186777641 0.2073429287
|  9> C -1.1362484653 -1.1615570471 -0.2181716705
| 10> O -1.7897839623 -1.12031e-05 0.2564883631
| 11> C -1.136268893 1.1615703291 -0.2182050844
| 12> C 0.3308069589 1.1867230096 0.2073843218
| 13> H 2.6023458174 0.0007255626 1.0979846902
| 14> H 2.8695461311 0.885315094 -0.4232246869
| 15> H 2.8692349574 -0.8858946969 -0.4220687548
| 16> H 0.8154997009 -2.0704808116 -0.2103915392
| 17> H 0.3864974221 -1.236723053 1.3105830255
| 18> H -1.195828677 -1.1919534903 -1.3149207971
| 19> H -1.6797123996 -2.0066463619 0.2052871277
| 20> H -1.1957371267 1.1919039579 -1.3149774348
| 21> H -1.679775646 2.0066984696 0.2051650584
| 22> H 0.8153932691 2.0705123051 -0.210290641
| 23> H 0.3863898526 1.2367291241 1.3106923091
| 24> *
| 25>
| 26>                          ****END OF INPUT****

CARTESIAN COORDINATES (ANGSTROEM)
---------------------------------
  C      2.411610    0.000030    0.013476
  N      0.998396    0.000009   -0.302796
  C      0.330860   -1.186778    0.207343
  C     -1.136248   -1.161557   -0.218172
  O     -1.789784   -0.000011    0.256488
  C     -1.136269    1.161570   -0.218205
  C      0.330807    1.186723    0.207384
  H      2.602346    0.000726    1.097985
  H      2.869546    0.885315   -0.423225
  H      2.869235   -0.885895   -0.422069
  H      0.815500   -2.070481   -0.210392
  H      0.386497   -1.236723    1.310583
  H     -1.195829   -1.191953   -1.314921
  H     -1.679712   -2.006646    0.205287
  H     -1.195737    1.191904   -1.314977
  H     -1.679776    2.006698    0.205165
  H      0.815393    2.070512   -0.210291
  H      0.386390    1.236729    1.310692

 Total Charge           Charge          ....    0
 Multiplicity           Mult            ....    1
 Number of Electrons    NEL             ....   56
 Basis Dimension        Dim             ....  198

ORBITAL ENERGIES
----------------

  NO   OCC          E(Eh)            E(eV)
   0   2.0000     -18.950361      -515.6655
   1   2.0000     -14.154495      -385.1634
   2   2.0000     -10.072829      -274.0956
   3   2.0000     -10.072821      -274.0954
   4   2.0000     -10.052784      -273.5502
   5   2.0000     -10.052778      -273.5500
   6   2.0000     -10.047067      -273.3946
   7   2.0000      -1.002154       -27.2700
   8   2.0000      -0.892603       -24.2890
   9   2.0000      -0.734862       -19.9966
  10   2.0000      -0.692304       -18.8385
  11   2.0000      -0.619406       -16.8549
  12   2.0000      -0.603032       -16.4093
  13   2.0000      -0.529005       -14.3950
  14   2.0000      -0.468653       -12.7527
  15   2.0000      -0.444063       -12.0836
  16   2.0000      -0.435656       -11.8548
  17   2.0000      -0.435241       -11.8435
  18   2.0000      -0.415528       -11.3071
  19   2.0000      -0.378243       -10.2925
  20   2.0000      -0.370615       -10.0849
  21   2.0000      -0.352063        -9.5801
  22   2.0000      -0.346137        -9.4189
  23   2.0000      -0.323959        -8.8154
  24   2.0000      -0.313596        -8.5334
  25   2.0000      -0.274599        -7.4722
  26   2.0000      -0.221163        -6.0181
  27   2.0000      -0.189562        -5.1582
  28   0.0000       0.071127         1.9355
  29   0.0000       0.092482         2.5166
  30   0.0000       0.104798         2.8517
  31   0.0000       0.120948         3.2912
  32   0.0000       0.125691         3.4202

MULLIKEN ATOMIC CHARGES
-----------------------
   0 C :   -0.348249
   1 N :   -0.166417
   2 C :   -0.217036
   3 C :   -0.193152
   4 O :   -0.229838
   5 C :   -0.193196
   6 C :   -0.217017
   7 H :    0.133340
   8 H :    0.144710
   9 H :    0.144666
  10 H :    0.141047
  11 H :    0.144542
  12 H :    0.144449
  13 H :    0.141059
  14 H :    0.144449
  15 H :    0.141062
  16 H :    0.141051
  17 H :    0.144531
Sum of atomic charges:    0.0000000

LOEWDIN ATOMIC CHARGES
----------------------
   0 C :   -0.143143
   1 N :   -0.993015
   2 C :   -0.042007
   3 C :    0.037064
   4 O :   -0.749653
   5 C :    0.037061
   6 C :   -0.042012
   7 H :    0.153639
   8 H :    0.174078
   9 H :    0.174083
  10 H :    0.181972
  11 H :    0.166391
  12 H :    0.168799
  13 H :    0.179791
  14 H :    0.168802
  15 H :    0.179789
  16 H :    0.181974
  17 H :    0.166385

  Mayer bond orders larger than 0.100000
B(  0-C ,  1-N ) :   0.9536 B(  0-C ,  7-H ) :   0.9510 B(  0-C ,  8-H ) :   0.9698
B(  0-C ,  9-H ) :   0.9697 B(  1-N ,  2-C ) :   0.9829 B(  1-N ,  6-C ) :   0.9828
B(  2-C ,  3-C ) :   0.9257 B(  2-C , 10-H ) :   0.9475 B(  2-C , 11-H ) :   0.9575
B(  3-C ,  4-O ) :   0.9441 B(  3-C , 12-H ) :   0.9741 B(  3-C , 13-H ) :   0.9606
B(  4-O ,  5-C ) :   0.9440 B(  5-C ,  6-C ) :   0.9257 B(  5-C , 14-H ) :   0.9741
B(  5-C , 15-H ) :   0.9606 B(  6-C , 16-H ) :   0.9475 B(  6-C , 17-H ) :   0.9575

Dispersion correction           -0.004936185
FINAL SINGLE POINT ENERGY      -327.008977575778

DIPOLE MOMENT
-------------

Method             : SCF
Type of density    : Electron Density
Multiplicity       :   1
Irrep              :   0
Energy             :  -327.0210841484981756 Eh
Relativity type    :
Basis              : AO
                                X                 Y                 Z
Electronic contribution:     -4.147174829      -0.000206622      -0.247643296
Nuclear contribution   :      4.663988712       0.000174477       0.221524907
                        -----------------------------------------
Total Dipole Moment    :      0.516813883      -0.000032145      -0.026118389
                        -----------------------------------------
Magnitude (a.u.)       :      0.517473440
Magnitude (Debye)      :      1.315312954

Rotational constants in cm-1:             0.162489             0.078203             0.057558
Rotational constants in MHz :          4871.309846          2344.481371          1725.552097

                             ****ORCA TERMINATED NORMALLY****
TOTAL RUN TIME: 0 days 0 hours 0 minutes 23 seconds 121 msec
