                         Program Version 6.0.0  -   RELEASE  -
|  1> ! r2scan-3c def2/J RI DEFGRID2 scfconv6 printgap
|  2> %output
|  3>     printlevel normal
|  4> end
|  5> %cpcm
|  6>     smd true
|  7>     smdsolvent "water"
|  8> end
|  9> * xyz 0 1
| 10> C 2.411610038 2.9794e-05 0.0134756466
| 11> N 0.9983962438 9.3144e-06 -0.3027957614
| 12> C 0.330860341 -1.186777641 0.2073429287
| 13> C -1.1362484653 -1.1615570471 -0.2181716705
| 14> O -1.7897839623 -1.12031e-05 0.2564883631
| 15> C -1.136268893 1.1615703291 -0.2182050844
| 16> C 0.3308069589 1.1867230096 0.2073843218
| 17> H 2.6023458174 0.0007255626 1.0979846902
| 18> H 2.8695461311 0.885315094 -0.4232246869
| 19> H 2.8692349574 -0.8858946969 -0.4220687548
| 20> H 0.8154997009 -2.0704808116 -0.2103915392
| 21> H 0.3864974221 -1.236723053 1.3105830255
| 22> H -1.195828677 -1.1919534903 -1.3149207971
| 23> H -1.6797123996 -2.0066463619 0.2052871277
| 24> H -1.1957371267 1.1919039579 -1.3149774348
| 25> H -1.679775646 2.0066984696 0.2051650584
| 26> H 0.8153932691 2.0705123051 -0.210290641
| 27> H 0.3863898526 1.2367291241 1.3106923091
| 28> *
| 29>
| 30>                          ****END OF INPUT****

CARTESIAN COORDINATES (ANGSTROEM)
---------------------------------
  C      2.411610    0.000030    0.013476
  N      0.998396    0.000009   -0.302796
  C      0.330860   -1.186778    0.207343
  C     -1.136248   -1.161557   -0.218172
  O     -1.789784   -0.000011    0.256488
  C     -1.136269    1.161570   -0.218205
  C      0.330807    1.186723    0.207384
  H      2.602346    0.000726    1.097985
  H      2.869546    0.885315   -0.423225
  H      2.869235   -0.885895   -0.422069
  H      0.815500   -2.070481   -0.210392
  H      0.386497   -1.236723    1.310583
  H     -1.195829   -1.191953   -1.314921
  H     -1.679712   -2.006646    0.205287
  H     -1.195737    1.191904   -1.314977
  H     -1.679776    2.006698    0.205165
  H      0.815393    2.070512   -0.210291
  H      0.386390    1.236729    1.310692

 Total Charge           Charge          ....    0
 Multiplicity           Mult            ....    1
 Number of Electrons    NEL             ....   56
 Basis Dimension        Dim             ....  198

ORBITAL ENERGIES
----------------

  NO   OCC          E(Eh)            E(eV)
   0   2.0000     -18.958268      -515.8807
   1   2.0000     -14.150603      -385.0575
   2   2.0000     -10.069423      -274.0029
   3   2.0000     -10.069416      -274.0027
   4   2.0000     -10.045292      -273.3463
   5   2.0000     -10.045284      -273.3461
   6   2.0000     -10.036525      -273.1077
   7   2.0000      -1.008294       -27.4371
   8   2.0000      -0.887611       -24.1531
   9   2.0000      -0.730730       -19.8842
  10   2.0000      -0.685985       -18.6666
  11   2.0000      -0.615956       -16.7610
  12   2.0000      -0.596445       -16.2301
  13   2.0000      -0.524596       -14.2750
  14   2.0000      -0.465194       -12.6586
  15   2.0000      -0.442601       -12.0438
  16   2.0000      -0.429079       -11.6758
  17   2.0000      -0.428773       -11.6675
  18   2.0000      -0.412295       -11.2191
  19   2.0000      -0.377654       -10.2765
  20   2.0000      -0.363711        -9.8971
  21   2.0000      -0.345057        -9.3895
  22   2.0000      -0.337617        -9.1870
  23   2.0000      -0.317989        -8.6529
  24   2.0000      -0.306413        -8.3379
  25   2.0000      -0.278466        -7.5774
  26   2.0000      -0.226507        -6.1636
  27   2.0000      -0.187492        -5.1019
  28   0.0000       0.073532         2.0009
  29   0.0000       0.099125         2.6973
  30   0.0000       0.114416         3.1134
  31   0.0000       0.130248         3.5442
  32   0.0000       0.131055         3.5662

MULLIKEN ATOMIC CHARGES
-----------------------
   0 C :   -0.384430
   1 N :   -0.183056
   2 C :   -0.245176
   3 C :   -0.203392
   4 O :   -0.296961
   5 C :   -0.203433
   6 C :   -0.245165
   7 H :    0.144310
   8 H :    0.162507
   9 H :    0.162493
  10 H :    0.168094
  11 H :    0.157281
  12 H :    0.159267
  13 H :    0.161515
  14 H :    0.159267
  15 H :    0.161523
  16 H :    0.168087
  17 H :    0.157271
Sum of atomic charges:   -0.0000000

LOEWDIN ATOMIC CHARGES
----------------------
   0 C :   -0.147581
   1 N :   -1.011072
   2 C :   -0.041032
   3 C :    0.035240
   4 O :   -0.791561
   5 C :    0.035239
   6 C :   -0.041040
   7 H :    0.158461
   8 H :    0.179185
   9 H :    0.179198
  10 H :    0.191263
  11 H :    0.170085
  12 H :    0.173905
  13 H :    0.187230
  14 H :    0.173907
  15 H :    0.187231
  16 H :    0.191261
  17 H :    0.170081

  Mayer bond orders larger than 0.100000
B(  0-C ,  1-N ) :   0.9490 B(  0-C ,  7-H ) :   0.9498 B(  0-C ,  8-H ) :   0.9649
B(  0-C ,  9-H ) :   0.9649 B(  1-N ,  2-C ) :   0.9767 B(  1-N ,  6-C ) :   0.9767
B(  2-C ,  3-C ) :   0.9149 B(  2-C , 10-H ) :   0.9465 B(  2-C , 11-H ) :   0.9606
B(  3-C ,  4-O ) :   0.9258 B(  3-C , 12-H ) :   0.9702 B(  3-C , 13-H ) :   0.9568
B(  4-O ,  5-C ) :   0.9258 B(  5-C ,  6-C ) :   0.9149 B(  5-C , 14-H ) :   0.9702
B(  5-C , 15-H ) :   0.9568 B(  6-C , 16-H ) :   0.9465 B(  6-C , 17-H ) :   0.9606

Dispersion correction           -0.004936185
FINAL SINGLE POINT ENERGY      -327.018786462911

DIPOLE MOMENT
-------------

Method             : SCF
Type of density    : Electron Density
Multiplicity       :   1
Irrep              :   0
Energy             :  -327.0308930356313226 Eh
Relativity type    :
Basis              : AO
                                X                 Y                 Z
Electronic contribution:     -3.912890946      -0.000230909      -0.234044631
Nuclear contribution   :      4.663988712       0.000174477       0.221524907
                        -----------------------------------------
Total Dipole Moment    :      0.751097766      -0.000056431      -0.012519723
                        -----------------------------------------
Magnitude (a.u.)       :      0.751202104
Magnitude (Debye)      :      1.909404004

Rotational constants in cm-1:             0.162489             0.078203             0.057558
Rotational constants in MHz :          4871.309846          2344.481371          1725.552097

                             ****ORCA TERMINATED NORMALLY****
TOTAL RUN TIME: 0 days 0 hours 0 minutes 30 seconds 498 msec
