                         Program Version 6.0.0  -   RELEASE  -
|  1> ! wb97x-v def2-tzvp def2/J RIJCOSX DEFGRID2 scfconv7 GCP(DFT/TZ) printgap
|  2> %output
|  3>     printlevel normal
|  4> end
|  5> * xyz 0 1
|  6> C -2.7367224950539546 0.12370239010776525 0.7154740504004493
|  7> C -1.9407682250078073 -0.14552364600617204 -0.5681354288707691
|  8> C -0.46542825226060935 -0.08633978918942088 -0.31390009442503086
|  9> C 0.2223888223366093 1.130247384024011 -0.37909399635675783
| 10> N 1.5264064164328353 1.2424672214268053 -0.11835782724276643
| 11> C 2.1559599724701752 0.10736592896540754 0.2151457312655453
| 12> C 1.4867636098214536 -1.1048551170140997 0.2804629918224188
| 13> N 0.1777272672871586 -1.2155305395408373 0.019755484416523788
| 14> H -2.503742527249559 -0.6206657836857347 1.482778346426307
| 15> H -3.8110150941350724 0.08320384152144636 0.5135059399209039
| 16> H -2.5002821476312134 1.1139388957955203 1.1173786513650135
| 17> H -2.2050878773981593 0.6013392890409821 -1.3238728477437565
| 18> H -2.1960111836163585 -1.132505949005159 -0.9646120187630911
| 19> H -0.307813595400431 2.038561603032952 -0.6569300464410307
| 20> H 3.2188910903209433 0.16655866101644476 0.4323914007009397
| 21> H 2.0197175658583735 -2.014270677336908 0.5470110970141893
| 22> *
| 23>
| 24>                          ****END OF INPUT****

CARTESIAN COORDINATES (ANGSTROEM)
---------------------------------
  C     -2.736722    0.123702    0.715474
  C     -1.940768   -0.145524   -0.568135
  C     -0.465428   -0.086340   -0.313900
  C      0.222389    1.130247   -0.379094
  N      1.526406    1.242467   -0.118358
  C      2.155960    0.107366    0.215146
  C      1.486764   -1.104855    0.280463
  N      0.177727   -1.215531    0.019755
  H     -2.503743   -0.620666    1.482778
  H     -3.811015    0.083204    0.513506
  H     -2.500282    1.113939    1.117379
  H     -2.205088    0.601339   -1.323873
  H     -2.196011   -1.132506   -0.964612
  H     -0.307814    2.038562   -0.656930
  H      3.218891    0.166559    0.432391
  H      2.019718   -2.014271    0.547011

 Total Charge           Charge          ....    0
 Multiplicity           Mult            ....    1
 Number of Electrons    NEL             ....   58
 Basis Dimension        Dim             ....  296

ORBITAL ENERGIES
----------------

  NO   OCC          E(Eh)            E(eV)
   0   2.0000     -16.547515      -450.2808
   1   2.0000     -16.544743      -450.2053
   2   2.0000     -12.100934      -329.2832
   3   2.0000     -12.094477      -329.1075
   4   2.0000     -12.092339      -329.0493
   5   2.0000     -12.090993      -329.0126
   6   2.0000     -12.057014      -328.0880
   7   2.0000     -12.045998      -327.7883
   8   2.0000      -1.558797       -42.4170
   9   2.0000      -1.504833       -40.9486
  10   2.0000      -1.338773       -36.4299
  11   2.0000      -1.272567       -34.6283
  12   2.0000      -1.196166       -32.5493
  13   2.0000      -1.191916       -32.4337
  14   2.0000      -1.108754       -30.1707
  15   2.0000      -1.055979       -28.7347
  16   2.0000      -0.984065       -26.7778
  17   2.0000      -0.941344       -25.6153
  18   2.0000      -0.899709       -24.4823
  19   2.0000      -0.878354       -23.9012
  20   2.0000      -0.874242       -23.7893
  21   2.0000      -0.866581       -23.5809
  22   2.0000      -0.835371       -22.7316
  23   2.0000      -0.833573       -22.6827
  24   2.0000      -0.803289       -21.8586
  25   2.0000      -0.783369       -21.3165
  26   2.0000      -0.779561       -21.2129
  27   2.0000      -0.755963       -20.5708
  28   2.0000      -0.661269       -17.9940
  29   0.0000      -0.347807        -9.4643
  30   0.0000      -0.259876        -7.0716
  31   0.0000      -0.135545        -3.6884
  32   0.0000      -0.067082        -1.8254
  33   0.0000      -0.040673        -1.1068

MULLIKEN ATOMIC CHARGES
-----------------------
   0 C :   -0.354252
   1 C :   -0.180648
   2 C :    0.191180
   3 C :   -0.110727
   4 N :   -0.202982
   5 C :   -0.026410
   6 C :   -0.036650
   7 N :   -0.238787
   8 H :    0.125016
   9 H :    0.116399
  10 H :    0.112121
  11 H :    0.105798
  12 H :    0.113856
  13 H :    0.130305
  14 H :    0.128420
  15 H :    0.127361
Sum of atomic charges:    0.0000000

LOEWDIN ATOMIC CHARGES
----------------------
   0 C :   -0.291619
   1 C :   -0.242745
   2 C :   -0.223939
   3 C :   -0.183173
   4 N :    0.144794
   5 C :   -0.218577
   6 C :   -0.209575
   7 N :    0.168416
   8 H :    0.121993
   9 H :    0.117870
  10 H :    0.117864
  11 H :    0.140413
  12 H :    0.144052
  13 H :    0.140209
  14 H :    0.136674
  15 H :    0.137341

  Mayer bond orders larger than 0.100000
B(  0-C ,  1-C ) :   0.9686 B(  0-C ,  8-H ) :   0.9785 B(  0-C ,  9-H ) :   0.9784
B(  0-C , 10-H ) :   0.9779 B(  1-C ,  2-C ) :   0.9312 B(  1-C , 11-H ) :   0.9864
B(  1-C , 12-H ) :   0.9767 B(  2-C ,  3-C ) :   1.3655 B(  2-C ,  7-N ) :   1.4677
B(  3-C ,  4-N ) :   1.5426 B(  3-C ,  6-C ) :   0.1006 B(  3-C , 13-H ) :   0.9798
B(  4-N ,  5-C ) :   1.4631 B(  5-C ,  6-C ) :   1.4205 B(  5-C , 14-H ) :   0.9719
B(  6-C ,  7-N ) :   1.4918 B(  6-C , 15-H ) :   0.9717

FINAL SINGLE POINT ENERGY      -342.963321734072

DIPOLE MOMENT
-------------

Method             : SCF
Type of density    : Electron Density
Multiplicity       :   1
Irrep              :   0
Energy             :  -342.9724764620724500 Eh
Relativity type    :
Basis              : AO
                                X                 Y                 Z
Electronic contribution:      7.504638733      -0.211375737      -1.133013210
Nuclear contribution   :     -7.775576240       0.158404711       1.133524357
                        -----------------------------------------
Total Dipole Moment    :     -0.270937507      -0.052971026       0.000511147
                        -----------------------------------------
Magnitude (a.u.)       :      0.276067607
Magnitude (Debye)      :      0.701708090

Rotational constants in cm-1:             0.158335             0.051712             0.043028
Rotational constants in MHz :          4746.773017          1550.297959          1289.953867

                             ****ORCA TERMINATED NORMALLY****
TOTAL RUN TIME: 0 days 0 hours 2 minutes 20 seconds 795 msec
