                         Program Version 6.0.0  -   RELEASE  -
|  1> ! wb97x-v def2-tzvp def2/J RIJCOSX DEFGRID2 scfconv7 GCP(DFT/TZ) printgap
|  2> %output
|  3>     printlevel normal
|  4> end
|  5> %cpcm
|  6>     smd true
|  7>     smdsolvent "water"
|  8> end
|  9> * xyz 0 1
| 10> C -2.7367224950539546 0.12370239010776525 0.7154740504004493
| 11> C -1.9407682250078073 -0.14552364600617204 -0.5681354288707691
| 12> C -0.46542825226060935 -0.08633978918942088 -0.31390009442503086
| 13> C 0.2223888223366093 1.130247384024011 -0.37909399635675783
| 14> N 1.5264064164328353 1.2424672214268053 -0.11835782724276643
| 15> C 2.1559599724701752 0.10736592896540754 0.2151457312655453
| 16> C 1.4867636098214536 -1.1048551170140997 0.2804629918224188
| 17> N 0.1777272672871586 -1.2155305395408373 0.019755484416523788
| 18> H -2.503742527249559 -0.6206657836857347 1.482778346426307
| 19> H -3.8110150941350724 0.08320384152144636 0.5135059399209039
| 20> H -2.5002821476312134 1.1139388957955203 1.1173786513650135
| 21> H -2.2050878773981593 0.6013392890409821 -1.3238728477437565
| 22> H -2.1960111836163585 -1.132505949005159 -0.9646120187630911
| 23> H -0.307813595400431 2.038561603032952 -0.6569300464410307
| 24> H 3.2188910903209433 0.16655866101644476 0.4323914007009397
| 25> H 2.0197175658583735 -2.014270677336908 0.5470110970141893
| 26> *
| 27>
| 28>                          ****END OF INPUT****

CARTESIAN COORDINATES (ANGSTROEM)
---------------------------------
  C     -2.736722    0.123702    0.715474
  C     -1.940768   -0.145524   -0.568135
  C     -0.465428   -0.086340   -0.313900
  C      0.222389    1.130247   -0.379094
  N      1.526406    1.242467   -0.118358
  C      2.155960    0.107366    0.215146
  C      1.486764   -1.104855    0.280463
  N      0.177727   -1.215531    0.019755
  H     -2.503743   -0.620666    1.482778
  H     -3.811015    0.083204    0.513506
  H     -2.500282    1.113939    1.117379
  H     -2.205088    0.601339   -1.323873
  H     -2.196011   -1.132506   -0.964612
  H     -0.307814    2.038562   -0.656930
  H      3.218891    0.166559    0.432391
  H      2.019718   -2.014271    0.547011

 Total Charge           Charge          ....    0
 Multiplicity           Mult            ....    1
 Number of Electrons    NEL             ....   58
 Basis Dimension        Dim             ....  296

ORBITAL ENERGIES
----------------

  NO   OCC          E(Eh)            E(eV)
   0   2.0000     -16.547485      -450.2800
   1   2.0000     -16.544207      -450.1908
   2   2.0000     -12.096538      -329.1635
   3   2.0000     -12.088771      -328.9522
   4   2.0000     -12.086784      -328.8981
   5   2.0000     -12.085370      -328.8596
   6   2.0000     -12.044806      -327.7558
   7   2.0000     -12.032912      -327.4322
   8   2.0000      -1.557270       -42.3755
   9   2.0000      -1.504080       -40.9281
  10   2.0000      -1.332601       -36.2619
  11   2.0000      -1.263516       -34.3820
  12   2.0000      -1.192509       -32.4498
  13   2.0000      -1.185704       -32.2646
  14   2.0000      -1.098915       -29.9030
  15   2.0000      -1.052699       -28.6454
  16   2.0000      -0.978240       -26.6193
  17   2.0000      -0.931942       -25.3594
  18   2.0000      -0.891192       -24.2506
  19   2.0000      -0.872326       -23.7372
  20   2.0000      -0.863901       -23.5079
  21   2.0000      -0.858740       -23.3675
  22   2.0000      -0.837471       -22.7887
  23   2.0000      -0.824971       -22.4486
  24   2.0000      -0.791872       -21.5479
  25   2.0000      -0.779778       -21.2189
  26   2.0000      -0.771101       -20.9827
  27   2.0000      -0.754304       -20.5257
  28   2.0000      -0.655437       -17.8354
  29   0.0000      -0.345915        -9.4128
  30   0.0000      -0.254680        -6.9302
  31   0.0000      -0.131318        -3.5734
  32   0.0000      -0.062242        -1.6937
  33   0.0000      -0.032939        -0.8963

MULLIKEN ATOMIC CHARGES
-----------------------
   0 C :   -0.397410
   1 C :   -0.188499
   2 C :    0.201413
   3 C :   -0.109362
   4 N :   -0.265505
   5 C :   -0.040745
   6 C :   -0.049971
   7 N :   -0.299778
   8 H :    0.127572
   9 H :    0.134253
  10 H :    0.131517
  11 H :    0.129538
  12 H :    0.119923
  13 H :    0.170425
  14 H :    0.168940
  15 H :    0.167689
Sum of atomic charges:    0.0000000

LOEWDIN ATOMIC CHARGES
----------------------
   0 C :   -0.295589
   1 C :   -0.240900
   2 C :   -0.220145
   3 C :   -0.176818
   4 N :    0.112024
   5 C :   -0.217044
   6 C :   -0.206560
   7 N :    0.140686
   8 H :    0.120839
   9 H :    0.121778
  10 H :    0.121929
  11 H :    0.148814
  12 H :    0.144218
  13 H :    0.151601
  14 H :    0.147091
  15 H :    0.148077

  Mayer bond orders larger than 0.100000
B(  0-C ,  1-C ) :   0.9635 B(  0-C ,  8-H ) :   0.9754 B(  0-C ,  9-H ) :   0.9752
B(  0-C , 10-H ) :   0.9765 B(  1-C ,  2-C ) :   0.9355 B(  1-C , 11-H ) :   0.9778
B(  1-C , 12-H ) :   0.9756 B(  2-C ,  3-C ) :   1.3937 B(  2-C ,  7-N ) :   1.4465
B(  3-C ,  4-N ) :   1.5264 B(  3-C ,  6-C ) :   0.1063 B(  3-C , 13-H ) :   0.9599
B(  4-N ,  5-C ) :   1.4498 B(  5-C ,  6-C ) :   1.4442 B(  5-C , 14-H ) :   0.9579
B(  6-C ,  7-N ) :   1.4797 B(  6-C , 15-H ) :   0.9580

FINAL SINGLE POINT ENERGY      -342.973349891225

DIPOLE MOMENT
-------------

Method             : SCF
Type of density    : Electron Density
Multiplicity       :   1
Irrep              :   0
Energy             :  -342.9825046192250397 Eh
Relativity type    :
Basis              : AO
                                X                 Y                 Z
Electronic contribution:      7.438743816      -0.159073351      -1.163029562
Nuclear contribution   :     -7.775576240       0.158404711       1.133524357
                        -----------------------------------------
Total Dipole Moment    :     -0.336832424      -0.000668640      -0.029505205
                        -----------------------------------------
Magnitude (a.u.)       :      0.338122886
Magnitude (Debye)      :      0.859440076

Rotational constants in cm-1:             0.158335             0.051712             0.043028
Rotational constants in MHz :          4746.773017          1550.297959          1289.953867

                             ****ORCA TERMINATED NORMALLY****
TOTAL RUN TIME: 0 days 0 hours 2 minutes 24 seconds 789 msec
