                         Program Version 6.0.0  -   RELEASE  -
|  1> ! r2scan-3c def2/J RI DEFGRID2 scfconv6 printgap
|  2> %output
|  3>     printlevel normal
|  4> end
|  5> * xyz 0 1
|  6> C 1.158954641 -0.6978541465 0.0006352596
|  7> C 1.1589759956 0.6978775651 0.0004155106
|  8> C 2.3643755584 1.3918063498 -0.0002115067
|  9> C 3.5754959141 0.6958446821 -0.0004872697
| 10> C 3.5754257708 -0.6957686333 5.50829e-05
| 11> C 2.3643729443 -1.391779979 0.0005893263
| 12> Cl 2.3324857812 -3.1055450025 0.0011059865
| 13> Cl 5.0535934047 -1.5591556199 2.8508e-06
| 14> Cl 5.0535516392 1.5591535675 -0.0012346148
| 15> Cl 2.3324644244 3.1056011973 -0.0006015173
| 16> O 2.2848e-06 1.4223380763 0.00072564
| 17> C -1.1589450254 0.697903611 0.0006113404
| 18> C -1.1589705643 -0.6978184184 0.0004125793
| 19> C -2.3643482415 -1.3918159162 -0.0002085656
| 20> C -3.5754428988 -0.695849847 -0.0005284351
| 21> C -3.5754295101 0.6957686263 -1.01918e-05
| 22> C -2.364391126 1.3917986079 0.0005613934
| 23> Cl -2.3325947967 3.1055765711 0.0011897745
| 24> Cl -5.0536061756 1.5590993403 1.48581e-05
| 25> Cl -5.0535674189 -1.5592231262 -0.001293477
| 26> Cl -2.3323549389 -3.1055676057 -0.000515485
| 27> O 4.7928e-06 -1.4222880772 0.0008478943
| 28> *
| 29>
| 30>                          ****END OF INPUT****

CARTESIAN COORDINATES (ANGSTROEM)
---------------------------------
  C      1.158955   -0.697854    0.000635
  C      1.158976    0.697878    0.000416
  C      2.364376    1.391806   -0.000212
  C      3.575496    0.695845   -0.000487
  C      3.575426   -0.695769    0.000055
  C      2.364373   -1.391780    0.000589
  Cl     2.332486   -3.105545    0.001106
  Cl     5.053593   -1.559156    0.000003
  Cl     5.053552    1.559154   -0.001235
  Cl     2.332464    3.105601   -0.000602
  O      0.000002    1.422338    0.000726
  C     -1.158945    0.697904    0.000611
  C     -1.158971   -0.697818    0.000413
  C     -2.364348   -1.391816   -0.000209
  C     -3.575443   -0.695850   -0.000528
  C     -3.575430    0.695769   -0.000010
  C     -2.364391    1.391799    0.000561
  Cl    -2.332595    3.105577    0.001190
  Cl    -5.053606    1.559099    0.000015
  Cl    -5.053567   -1.559223   -0.001293
  Cl    -2.332355   -3.105568   -0.000515
  O      0.000005   -1.422288    0.000848

 Total Charge           Charge          ....    0
 Multiplicity           Mult            ....    1
 Number of Electrons    NEL             ....  224
 Basis Dimension        Dim             ....  492

ORBITAL ENERGIES
----------------

  NO   OCC          E(Eh)            E(eV)
   0   2.0000    -101.250146     -2755.1566
   1   2.0000    -101.250144     -2755.1565
   2   2.0000    -101.250143     -2755.1565
   3   2.0000    -101.250141     -2755.1564
   4   2.0000    -101.248672     -2755.1164
   5   2.0000    -101.248668     -2755.1163
   6   2.0000    -101.248661     -2755.1161
   7   2.0000    -101.248660     -2755.1161
   8   2.0000     -19.059455      -518.6341
   9   2.0000     -19.059447      -518.6339
  10   2.0000     -10.158349      -276.4227
  11   2.0000     -10.158339      -276.4224
  12   2.0000     -10.157930      -276.4113
  13   2.0000     -10.157921      -276.4111
  14   2.0000     -10.143732      -276.0250
  15   2.0000     -10.143729      -276.0249
  16   2.0000     -10.143428      -276.0167
  17   2.0000     -10.143423      -276.0166
  18   2.0000     -10.143125      -276.0085
  19   2.0000     -10.143124      -276.0084
  20   2.0000     -10.143009      -276.0053
  21   2.0000     -10.143006      -276.0052
  22   2.0000      -9.405659      -255.9410
  23   2.0000      -9.405656      -255.9409
  24   2.0000      -9.405655      -255.9409
  25   2.0000      -9.405653      -255.9408
  26   2.0000      -9.404402      -255.9068
  27   2.0000      -9.404396      -255.9066
  28   2.0000      -9.404389      -255.9064
  29   2.0000      -9.404387      -255.9064
  30   2.0000      -7.152472      -194.6287
  31   2.0000      -7.152469      -194.6286
  32   2.0000      -7.152469      -194.6286
  33   2.0000      -7.152467      -194.6285
  34   2.0000      -7.151157      -194.5929
  35   2.0000      -7.151151      -194.5927
  36   2.0000      -7.151146      -194.5926
  37   2.0000      -7.151144      -194.5925
  38   2.0000      -7.141890      -194.3407
  39   2.0000      -7.141887      -194.3406
  40   2.0000      -7.141887      -194.3406
  41   2.0000      -7.141885      -194.3406
  42   2.0000      -7.140913      -194.3141
  43   2.0000      -7.140910      -194.3140
  44   2.0000      -7.140910      -194.3140
  45   2.0000      -7.140908      -194.3140
  46   2.0000      -7.140639      -194.3067
  47   2.0000      -7.140632      -194.3065
  48   2.0000      -7.140627      -194.3063
  49   2.0000      -7.140625      -194.3063
  50   2.0000      -7.139659      -194.2800
  51   2.0000      -7.139652      -194.2798
  52   2.0000      -7.139647      -194.2797
  53   2.0000      -7.139646      -194.2796
  54   2.0000      -1.133493       -30.8439
  55   2.0000      -1.099467       -29.9180
  56   2.0000      -0.940214       -25.5845
  57   2.0000      -0.930069       -25.3085
  58   2.0000      -0.893193       -24.3050
  59   2.0000      -0.886236       -24.1157
  60   2.0000      -0.874892       -23.8070
  61   2.0000      -0.859230       -23.3808
  62   2.0000      -0.837529       -22.7903
  63   2.0000      -0.834725       -22.7140
  64   2.0000      -0.826987       -22.5035
  65   2.0000      -0.812684       -22.1142
  66   2.0000      -0.752442       -20.4750
  67   2.0000      -0.749387       -20.3919
  68   2.0000      -0.717234       -19.5169
  69   2.0000      -0.711186       -19.3524
  70   2.0000      -0.667134       -18.1537
  71   2.0000      -0.632543       -17.2124
  72   2.0000      -0.613844       -16.7035
  73   2.0000      -0.588093       -16.0028
  74   2.0000      -0.585972       -15.9451
  75   2.0000      -0.555024       -15.1030
  76   2.0000      -0.519247       -14.1294
  77   2.0000      -0.513000       -13.9595
  78   2.0000      -0.499678       -13.5969
  79   2.0000      -0.493660       -13.4332
  80   2.0000      -0.478603       -13.0234
  81   2.0000      -0.460843       -12.5402
  82   2.0000      -0.457067       -12.4374
  83   2.0000      -0.444875       -12.1057
  84   2.0000      -0.442290       -12.0353
  85   2.0000      -0.439834       -11.9685
  86   2.0000      -0.436123       -11.8675
  87   2.0000      -0.429177       -11.6785
  88   2.0000      -0.422019       -11.4837
  89   2.0000      -0.418731       -11.3943
  90   2.0000      -0.417352       -11.3567
  91   2.0000      -0.384878       -10.4731
  92   2.0000      -0.369774       -10.0621
  93   2.0000      -0.364918        -9.9299
  94   2.0000      -0.357994        -9.7415
  95   2.0000      -0.344379        -9.3710
  96   2.0000      -0.331288        -9.0148
  97   2.0000      -0.329803        -8.9744
  98   2.0000      -0.328427        -8.9370
  99   2.0000      -0.326675        -8.8893
 100   2.0000      -0.324521        -8.8307
 101   2.0000      -0.324473        -8.8294
 102   2.0000      -0.319628        -8.6975
 103   2.0000      -0.313083        -8.5194
 104   2.0000      -0.308830        -8.4037
 105   2.0000      -0.291127        -7.9220
 106   2.0000      -0.289011        -7.8644
 107   2.0000      -0.288618        -7.8537
 108   2.0000      -0.260819        -7.0972
 109   2.0000      -0.252726        -6.8770
 110   2.0000      -0.237568        -6.4646
 111   2.0000      -0.218129        -5.9356
 112   0.0000      -0.091102        -2.4790
 113   0.0000      -0.079100        -2.1524
 114   0.0000      -0.077841        -2.1182
 115   0.0000      -0.076864        -2.0916
 116   0.0000      -0.066051        -1.7973

MULLIKEN ATOMIC CHARGES
-----------------------
   0 C :    0.505384
   1 C :    0.505552
   2 C :   -0.400698
   3 C :    0.035103
   4 C :    0.035119
   5 C :   -0.400550
   6 Cl:   -0.055561
   7 Cl:   -0.053869
   8 Cl:   -0.053774
   9 Cl:   -0.055585
  10 O :   -0.061110
  11 C :    0.505542
  12 C :    0.505484
  13 C :   -0.400626
  14 C :    0.035061
  15 C :    0.035243
  16 C :   -0.400781
  17 Cl:   -0.055571
  18 Cl:   -0.053849
  19 Cl:   -0.053830
  20 Cl:   -0.055547
  21 O :   -0.061139
Sum of atomic charges:   -0.0000000

LOEWDIN ATOMIC CHARGES
----------------------
   0 C :    0.214771
   1 C :    0.214765
   2 C :   -0.147708
   3 C :   -0.198456
   4 C :   -0.198398
   5 C :   -0.147727
   6 Cl:    0.225785
   7 Cl:    0.194532
   8 Cl:    0.194631
   9 Cl:    0.225762
  10 O :   -0.577945
  11 C :    0.214771
  12 C :    0.214768
  13 C :   -0.147723
  14 C :   -0.198418
  15 C :   -0.198407
  16 C :   -0.147722
  17 Cl:    0.225769
  18 Cl:    0.194550
  19 Cl:    0.194570
  20 Cl:    0.225803
  21 O :   -0.577972

  Mayer bond orders larger than 0.100000
B(  0-C ,  1-C ) :   1.4312 B(  0-C ,  2-C ) :  -0.1651 B(  0-C ,  5-C ) :   0.7226
B(  0-C ,  6-Cl) :  -0.2946 B(  0-C , 12-C ) :   0.1377 B(  0-C , 21-O ) :   1.0615
B(  1-C ,  2-C ) :   0.7225 B(  1-C ,  5-C ) :  -0.1651 B(  1-C ,  9-Cl) :  -0.2947
B(  1-C , 10-O ) :   1.0614 B(  1-C , 11-C ) :   0.1377 B(  2-C ,  3-C ) :   0.9227
B(  2-C ,  5-C ) :   0.1464 B(  2-C ,  9-Cl) :   1.5241 B(  3-C ,  4-C ) :   1.0824
B(  3-C ,  8-Cl) :   1.2698 B(  4-C ,  5-C ) :   0.9228 B(  4-C ,  7-Cl) :   1.2698
B(  5-C ,  6-Cl) :   1.5240 B( 10-O , 11-C ) :   1.0615 B( 11-C , 12-C ) :   1.4313
B( 11-C , 13-C ) :  -0.1651 B( 11-C , 16-C ) :   0.7223 B( 11-C , 17-Cl) :  -0.2947
B( 12-C , 13-C ) :   0.7225 B( 12-C , 16-C ) :  -0.1650 B( 12-C , 20-Cl) :  -0.2947
B( 12-C , 21-O ) :   1.0613 B( 13-C , 14-C ) :   0.9227 B( 13-C , 16-C ) :   0.1465
B( 13-C , 20-Cl) :   1.5241 B( 14-C , 15-C ) :   1.0823 B( 14-C , 19-Cl) :   1.2698
B( 15-C , 16-C ) :   0.9226 B( 15-C , 18-Cl) :   1.2698 B( 16-C , 17-Cl) :   1.5241

Dispersion correction           -0.016959305
FINAL SINGLE POINT ENERGY     -4288.996904732868

DIPOLE MOMENT
-------------

Method             : SCF
Type of density    : Electron Density
Multiplicity       :   1
Irrep              :   0
Energy             : -4288.9977562491440040 Eh
Relativity type    :
Basis              : AO
                                X                 Y                 Z
Electronic contribution:      0.000043611      -0.000077899      -0.001720433
Nuclear contribution   :      0.000037795       0.000082181       0.001810573
                        -----------------------------------------
Total Dipole Moment    :      0.000081405       0.000004282       0.000090139
                        -----------------------------------------
Magnitude (a.u.)       :      0.000121533
Magnitude (Debye)      :      0.000308912

Rotational constants in cm-1:             0.008794             0.003157             0.002323
Rotational constants in MHz :           263.642109            94.631379            69.636239

                             ****ORCA TERMINATED NORMALLY****
TOTAL RUN TIME: 0 days 0 hours 1 minutes 31 seconds 428 msec
