                         Program Version 6.0.0  -   RELEASE  -
|  1> ! r2scan-3c def2/J RI DEFGRID2 scfconv6 printgap
|  2> %output
|  3>     printlevel normal
|  4> end
|  5> %cpcm
|  6>     smd true
|  7>     smdsolvent "water"
|  8> end
|  9> * xyz 0 1
| 10> C 1.158954641 -0.6978541465 0.0006352596
| 11> C 1.1589759956 0.6978775651 0.0004155106
| 12> C 2.3643755584 1.3918063498 -0.0002115067
| 13> C 3.5754959141 0.6958446821 -0.0004872697
| 14> C 3.5754257708 -0.6957686333 5.50829e-05
| 15> C 2.3643729443 -1.391779979 0.0005893263
| 16> Cl 2.3324857812 -3.1055450025 0.0011059865
| 17> Cl 5.0535934047 -1.5591556199 2.8508e-06
| 18> Cl 5.0535516392 1.5591535675 -0.0012346148
| 19> Cl 2.3324644244 3.1056011973 -0.0006015173
| 20> O 2.2848e-06 1.4223380763 0.00072564
| 21> C -1.1589450254 0.697903611 0.0006113404
| 22> C -1.1589705643 -0.6978184184 0.0004125793
| 23> C -2.3643482415 -1.3918159162 -0.0002085656
| 24> C -3.5754428988 -0.695849847 -0.0005284351
| 25> C -3.5754295101 0.6957686263 -1.01918e-05
| 26> C -2.364391126 1.3917986079 0.0005613934
| 27> Cl -2.3325947967 3.1055765711 0.0011897745
| 28> Cl -5.0536061756 1.5590993403 1.48581e-05
| 29> Cl -5.0535674189 -1.5592231262 -0.001293477
| 30> Cl -2.3323549389 -3.1055676057 -0.000515485
| 31> O 4.7928e-06 -1.4222880772 0.0008478943
| 32> *
| 33>
| 34>                          ****END OF INPUT****

CARTESIAN COORDINATES (ANGSTROEM)
---------------------------------
  C      1.158955   -0.697854    0.000635
  C      1.158976    0.697878    0.000416
  C      2.364376    1.391806   -0.000212
  C      3.575496    0.695845   -0.000487
  C      3.575426   -0.695769    0.000055
  C      2.364373   -1.391780    0.000589
  Cl     2.332486   -3.105545    0.001106
  Cl     5.053593   -1.559156    0.000003
  Cl     5.053552    1.559154   -0.001235
  Cl     2.332464    3.105601   -0.000602
  O      0.000002    1.422338    0.000726
  C     -1.158945    0.697904    0.000611
  C     -1.158971   -0.697818    0.000413
  C     -2.364348   -1.391816   -0.000209
  C     -3.575443   -0.695850   -0.000528
  C     -3.575430    0.695769   -0.000010
  C     -2.364391    1.391799    0.000561
  Cl    -2.332595    3.105577    0.001190
  Cl    -5.053606    1.559099    0.000015
  Cl    -5.053567   -1.559223   -0.001293
  Cl    -2.332355   -3.105568   -0.000515
  O      0.000005   -1.422288    0.000848

 Total Charge           Charge          ....    0
 Multiplicity           Mult            ....    1
 Number of Electrons    NEL             ....  224
 Basis Dimension        Dim             ....  492

ORBITAL ENERGIES
----------------

  NO   OCC          E(Eh)            E(eV)
   0   2.0000    -101.246853     -2755.0669
   1   2.0000    -101.246851     -2755.0669
   2   2.0000    -101.246850     -2755.0668
   3   2.0000    -101.246848     -2755.0668
   4   2.0000    -101.245569     -2755.0320
   5   2.0000    -101.245566     -2755.0319
   6   2.0000    -101.245560     -2755.0318
   7   2.0000    -101.245559     -2755.0317
   8   2.0000     -19.051569      -518.4196
   9   2.0000     -19.051562      -518.4194
  10   2.0000     -10.150068      -276.1974
  11   2.0000     -10.150058      -276.1971
  12   2.0000     -10.149650      -276.1860
  13   2.0000     -10.149641      -276.1858
  14   2.0000     -10.136941      -275.8402
  15   2.0000     -10.136938      -275.8401
  16   2.0000     -10.136535      -275.8291
  17   2.0000     -10.136533      -275.8291
  18   2.0000     -10.135822      -275.8097
  19   2.0000     -10.135821      -275.8097
  20   2.0000     -10.135809      -275.8094
  21   2.0000     -10.135803      -275.8092
  22   2.0000      -9.402440      -255.8534
  23   2.0000      -9.402437      -255.8533
  24   2.0000      -9.402437      -255.8533
  25   2.0000      -9.402434      -255.8532
  26   2.0000      -9.401382      -255.8246
  27   2.0000      -9.401377      -255.8245
  28   2.0000      -9.401371      -255.8243
  29   2.0000      -9.401369      -255.8243
  30   2.0000      -7.149148      -194.5382
  31   2.0000      -7.149146      -194.5381
  32   2.0000      -7.149146      -194.5381
  33   2.0000      -7.149143      -194.5381
  34   2.0000      -7.148045      -194.5082
  35   2.0000      -7.148040      -194.5080
  36   2.0000      -7.148035      -194.5079
  37   2.0000      -7.148033      -194.5079
  38   2.0000      -7.138673      -194.2532
  39   2.0000      -7.138671      -194.2531
  40   2.0000      -7.138671      -194.2531
  41   2.0000      -7.138669      -194.2530
  42   2.0000      -7.137784      -194.2290
  43   2.0000      -7.137782      -194.2289
  44   2.0000      -7.137782      -194.2289
  45   2.0000      -7.137780      -194.2289
  46   2.0000      -7.137623      -194.2246
  47   2.0000      -7.137617      -194.2244
  48   2.0000      -7.137613      -194.2243
  49   2.0000      -7.137611      -194.2243
  50   2.0000      -7.136714      -194.1999
  51   2.0000      -7.136709      -194.1997
  52   2.0000      -7.136705      -194.1996
  53   2.0000      -7.136703      -194.1995
  54   2.0000      -1.124277       -30.5931
  55   2.0000      -1.090663       -29.6784
  56   2.0000      -0.933521       -25.4024
  57   2.0000      -0.924087       -25.1457
  58   2.0000      -0.888285       -24.1715
  59   2.0000      -0.881663       -23.9913
  60   2.0000      -0.869630       -23.6638
  61   2.0000      -0.855067       -23.2676
  62   2.0000      -0.834040       -22.6954
  63   2.0000      -0.831373       -22.6228
  64   2.0000      -0.821396       -22.3513
  65   2.0000      -0.806250       -21.9392
  66   2.0000      -0.745721       -20.2921
  67   2.0000      -0.742460       -20.2034
  68   2.0000      -0.709794       -19.3145
  69   2.0000      -0.704804       -19.1787
  70   2.0000      -0.660362       -17.9694
  71   2.0000      -0.625323       -17.0159
  72   2.0000      -0.606860       -16.5135
  73   2.0000      -0.580783       -15.8039
  74   2.0000      -0.579399       -15.7662
  75   2.0000      -0.548663       -14.9299
  76   2.0000      -0.512963       -13.9584
  77   2.0000      -0.506000       -13.7690
  78   2.0000      -0.488983       -13.3059
  79   2.0000      -0.488834       -13.3018
  80   2.0000      -0.473531       -12.8854
  81   2.0000      -0.456311       -12.4169
  82   2.0000      -0.452265       -12.3067
  83   2.0000      -0.437028       -11.8921
  84   2.0000      -0.436930       -11.8895
  85   2.0000      -0.435079       -11.8391
  86   2.0000      -0.426864       -11.6156
  87   2.0000      -0.423631       -11.5276
  88   2.0000      -0.417071       -11.3491
  89   2.0000      -0.412330       -11.2201
  90   2.0000      -0.412004       -11.2112
  91   2.0000      -0.379627       -10.3302
  92   2.0000      -0.364689        -9.9237
  93   2.0000      -0.359260        -9.7760
  94   2.0000      -0.351291        -9.5591
  95   2.0000      -0.340901        -9.2764
  96   2.0000      -0.328595        -8.9415
  97   2.0000      -0.327081        -8.9003
  98   2.0000      -0.325861        -8.8671
  99   2.0000      -0.324053        -8.8179
 100   2.0000      -0.322020        -8.7626
 101   2.0000      -0.321887        -8.7590
 102   2.0000      -0.314340        -8.5536
 103   2.0000      -0.310907        -8.4602
 104   2.0000      -0.306544        -8.3415
 105   2.0000      -0.286883        -7.8065
 106   2.0000      -0.286461        -7.7950
 107   2.0000      -0.286226        -7.7886
 108   2.0000      -0.254555        -6.9268
 109   2.0000      -0.246451        -6.7063
 110   2.0000      -0.231286        -6.2936
 111   2.0000      -0.209544        -5.7020
 112   0.0000      -0.082427        -2.2429
 113   0.0000      -0.071306        -1.9403
 114   0.0000      -0.071201        -1.9375
 115   0.0000      -0.069372        -1.8877
 116   0.0000      -0.061159        -1.6642

MULLIKEN ATOMIC CHARGES
-----------------------
   0 C :    0.526150
   1 C :    0.526088
   2 C :   -0.391504
   3 C :    0.043540
   4 C :    0.043742
   5 C :   -0.391636
   6 Cl:   -0.075309
   7 Cl:   -0.070942
   8 Cl:   -0.070840
   9 Cl:   -0.075339
  10 O :   -0.063907
  11 C :    0.526615
  12 C :    0.526436
  13 C :   -0.391908
  14 C :    0.043522
  15 C :    0.043888
  16 C :   -0.392255
  17 Cl:   -0.075322
  18 Cl:   -0.070909
  19 Cl:   -0.070897
  20 Cl:   -0.075295
  21 O :   -0.063918
Sum of atomic charges:   -0.0000000

LOEWDIN ATOMIC CHARGES
----------------------
   0 C :    0.228104
   1 C :    0.228097
   2 C :   -0.143716
   3 C :   -0.195240
   4 C :   -0.195181
   5 C :   -0.143735
   6 Cl:    0.214601
   7 Cl:    0.183959
   8 Cl:    0.184062
   9 Cl:    0.214578
  10 O :   -0.575518
  11 C :    0.228104
  12 C :    0.228102
  13 C :   -0.143731
  14 C :   -0.195203
  15 C :   -0.195190
  16 C :   -0.143731
  17 Cl:    0.214585
  18 Cl:    0.183977
  19 Cl:    0.183998
  20 Cl:    0.214621
  21 O :   -0.575544

  Mayer bond orders larger than 0.100000
B(  0-C ,  1-C ) :   1.4456 B(  0-C ,  2-C ) :  -0.1720 B(  0-C ,  5-C ) :   0.7158
B(  0-C ,  6-Cl) :  -0.2743 B(  0-C , 12-C ) :   0.1414 B(  0-C , 21-O ) :   1.0720
B(  1-C ,  2-C ) :   0.7158 B(  1-C ,  5-C ) :  -0.1720 B(  1-C ,  9-Cl) :  -0.2744
B(  1-C , 10-O ) :   1.0719 B(  1-C , 11-C ) :   0.1414 B(  2-C ,  3-C ) :   0.9259
B(  2-C ,  5-C ) :   0.1512 B(  2-C ,  9-Cl) :   1.4790 B(  3-C ,  4-C ) :   1.0933
B(  3-C ,  8-Cl) :   1.2468 B(  4-C ,  5-C ) :   0.9259 B(  4-C ,  7-Cl) :   1.2467
B(  5-C ,  6-Cl) :   1.4789 B( 10-O , 11-C ) :   1.0720 B( 11-C , 12-C ) :   1.4460
B( 11-C , 13-C ) :  -0.1723 B( 11-C , 16-C ) :   0.7147 B( 11-C , 17-Cl) :  -0.2746
B( 12-C , 13-C ) :   0.7153 B( 12-C , 16-C ) :  -0.1722 B( 12-C , 20-Cl) :  -0.2745
B( 12-C , 21-O ) :   1.0718 B( 13-C , 14-C ) :   0.9254 B( 13-C , 16-C ) :   0.1515
B( 13-C , 20-Cl) :   1.4792 B( 14-C , 15-C ) :   1.0929 B( 14-C , 19-Cl) :   1.2469
B( 15-C , 16-C ) :   0.9252 B( 15-C , 18-Cl) :   1.2469 B( 16-C , 17-Cl) :   1.4794

Dispersion correction           -0.016959305
FINAL SINGLE POINT ENERGY     -4288.994818353974

DIPOLE MOMENT
-------------

Method             : SCF
Type of density    : Electron Density
Multiplicity       :   1
Irrep              :   0
Energy             : -4288.9956698702499125 Eh
Relativity type    :
Basis              : AO
                                X                 Y                 Z
Electronic contribution:      0.000065669      -0.000082594      -0.001646211
Nuclear contribution   :      0.000037795       0.000082181       0.001810573
                        -----------------------------------------
Total Dipole Moment    :      0.000103463      -0.000000412       0.000164361
                        -----------------------------------------
Magnitude (a.u.)       :      0.000194215
Magnitude (Debye)      :      0.000493656

Rotational constants in cm-1:             0.008794             0.003157             0.002323
Rotational constants in MHz :           263.642109            94.631379            69.636239

                             ****ORCA TERMINATED NORMALLY****
TOTAL RUN TIME: 0 days 0 hours 2 minutes 14 seconds 22 msec
