                         Program Version 6.0.0  -   RELEASE  -
|  1> ! wb97x-v def2-tzvp def2/J RIJCOSX DEFGRID2 scfconv7 GCP(DFT/TZ) printgap
|  2> %output
|  3>     printlevel normal
|  4> end
|  5> * xyz 0 1
|  6> C -1.3546072061368433 -0.8718200222487247 0.4210526501259807
|  7> C -0.5763853913980442 0.0841403089132655 -0.48514621974366595
|  8> C -0.6690669020541917 1.5243349870001117 0.0225544577332252
|  9> C 0.8684876510753493 -0.35927172903746846 -0.6679286973111531
| 10> O 1.5462410871208214 -0.337772243868311 0.6065136157644383
| 11> H -1.2860257005597735 -1.9046611240543614 0.06227736383724264
| 12> H -2.413259518721636 -0.5950217351491673 0.45524560631696076
| 13> H -0.9705573391886888 -0.8421639612793117 1.4461478873729243
| 14> H -1.0195011340377291 0.04383801960443857 -1.4899277275375813
| 15> H -0.11026429622089703 2.2106195359190033 -0.623146403387838
| 16> H -0.2675268302006772 1.6100864115415652 1.0377176487134894
| 17> H -1.7116252778109684 1.8573750895085241 0.04881835006253596
| 18> H 0.8949775422380606 -1.3757983148446609 -1.0865049095068988
| 19> H 1.3776281741709333 0.3155244724157232 -1.371225831651586
| 20> H 2.4567169104822986 -0.6160975837411323 0.4512108434031958
| 21> *
| 22>
| 23>                          ****END OF INPUT****

CARTESIAN COORDINATES (ANGSTROEM)
---------------------------------
  C     -1.354607   -0.871820    0.421053
  C     -0.576385    0.084140   -0.485146
  C     -0.669067    1.524335    0.022554
  C      0.868488   -0.359272   -0.667929
  O      1.546241   -0.337772    0.606514
  H     -1.286026   -1.904661    0.062277
  H     -2.413260   -0.595022    0.455246
  H     -0.970557   -0.842164    1.446148
  H     -1.019501    0.043838   -1.489928
  H     -0.110264    2.210620   -0.623146
  H     -0.267527    1.610086    1.037718
  H     -1.711625    1.857375    0.048818
  H      0.894978   -1.375798   -1.086505
  H      1.377628    0.315524   -1.371226
  H      2.456717   -0.616098    0.451211

 Total Charge           Charge          ....    0
 Multiplicity           Mult            ....    1
 Number of Electrons    NEL             ....   42
 Basis Dimension        Dim             ....  215

ORBITAL ENERGIES
----------------

  NO   OCC          E(Eh)            E(eV)
   0   2.0000     -21.667778      -589.6102
   1   2.0000     -12.088617      -328.9480
   2   2.0000     -12.047740      -327.8357
   3   2.0000     -12.026825      -327.2665
   4   2.0000     -12.026495      -327.2576
   5   2.0000      -1.665727       -45.3267
   6   2.0000      -1.310753       -35.6674
   7   2.0000      -1.189557       -32.3695
   8   2.0000      -1.169968       -31.8364
   9   2.0000      -1.058328       -28.7986
  10   2.0000      -1.020252       -27.7625
  11   2.0000      -0.934756       -25.4360
  12   2.0000      -0.930695       -25.3255
  13   2.0000      -0.875606       -23.8264
  14   2.0000      -0.851720       -23.1765
  15   2.0000      -0.848408       -23.0864
  16   2.0000      -0.800682       -21.7877
  17   2.0000      -0.786718       -21.4077
  18   2.0000      -0.772165       -21.0117
  19   2.0000      -0.765850       -20.8398
  20   2.0000      -0.755852       -20.5678
  21   0.0000      -0.139814        -3.8045
  22   0.0000      -0.040793        -1.1100
  23   0.0000      -0.013368        -0.3638
  24   0.0000      -0.005904        -0.1607
  25   0.0000      -0.004949        -0.1347

MULLIKEN ATOMIC CHARGES
-----------------------
   0 C :   -0.355574
   1 C :    0.023021
   2 C :   -0.355817
   3 C :   -0.060161
   4 O :   -0.456088
   5 H :    0.100164
   6 H :    0.108369
   7 H :    0.124616
   8 H :    0.064182
   9 H :    0.100147
  10 H :    0.124782
  11 H :    0.108414
  12 H :    0.087861
  13 H :    0.088125
  14 H :    0.297958
Sum of atomic charges:    0.0000000

LOEWDIN ATOMIC CHARGES
----------------------
   0 C :   -0.281257
   1 C :   -0.320821
   2 C :   -0.281320
   3 C :   -0.314760
   4 O :   -0.059325
   5 H :    0.116769
   6 H :    0.117062
   7 H :    0.123369
   8 H :    0.149331
   9 H :    0.116761
  10 H :    0.123361
  11 H :    0.117078
  12 H :    0.113887
  13 H :    0.113900
  14 H :    0.165965

  Mayer bond orders larger than 0.100000
B(  0-C ,  1-C ) :   0.9804 B(  0-C ,  5-H ) :   0.9781 B(  0-C ,  6-H ) :   0.9820
B(  0-C ,  7-H ) :   0.9757 B(  1-C ,  2-C ) :   0.9803 B(  1-C ,  3-C ) :   0.9874
B(  1-C ,  8-H ) :   0.9636 B(  2-C ,  9-H ) :   0.9781 B(  2-C , 10-H ) :   0.9756
B(  2-C , 11-H ) :   0.9820 B(  3-C ,  4-O ) :   1.0590 B(  3-C , 12-H ) :   0.9696
B(  3-C , 13-H ) :   0.9696 B(  4-O , 14-H ) :   0.9078

FINAL SINGLE POINT ENERGY      -233.677097534560

DIPOLE MOMENT
-------------

Method             : SCF
Type of density    : Electron Density
Multiplicity       :   1
Irrep              :   0
Energy             :  -233.6876549485595547 Eh
Relativity type    :
Basis              : AO
                                X                 Y                 Z
Electronic contribution:      3.221039670      -0.840181950       0.467060882
Nuclear contribution   :     -2.947897188       0.675728416      -1.007519814
                        -----------------------------------------
Total Dipole Moment    :      0.273142482      -0.164453534      -0.540458932
                        -----------------------------------------
Magnitude (a.u.)       :      0.627493137
Magnitude (Debye)      :      1.594960801

Rotational constants in cm-1:             0.208830             0.131493             0.105636
Rotational constants in MHz :          6260.562500          3942.055107          3166.879484

                             ****ORCA TERMINATED NORMALLY****
TOTAL RUN TIME: 0 days 0 hours 1 minutes 4 seconds 853 msec
