                         Program Version 6.0.0  -   RELEASE  -
|  1> ! wb97x-v def2-tzvp def2/J RIJCOSX DEFGRID2 scfconv7 GCP(DFT/TZ) printgap
|  2> %output
|  3>     printlevel normal
|  4> end
|  5> %cpcm
|  6>     smd true
|  7>     smdsolvent "water"
|  8> end
|  9> * xyz 0 1
| 10> C -1.3546072061368433 -0.8718200222487247 0.4210526501259807
| 11> C -0.5763853913980442 0.0841403089132655 -0.48514621974366595
| 12> C -0.6690669020541917 1.5243349870001117 0.0225544577332252
| 13> C 0.8684876510753493 -0.35927172903746846 -0.6679286973111531
| 14> O 1.5462410871208214 -0.337772243868311 0.6065136157644383
| 15> H -1.2860257005597735 -1.9046611240543614 0.06227736383724264
| 16> H -2.413259518721636 -0.5950217351491673 0.45524560631696076
| 17> H -0.9705573391886888 -0.8421639612793117 1.4461478873729243
| 18> H -1.0195011340377291 0.04383801960443857 -1.4899277275375813
| 19> H -0.11026429622089703 2.2106195359190033 -0.623146403387838
| 20> H -0.2675268302006772 1.6100864115415652 1.0377176487134894
| 21> H -1.7116252778109684 1.8573750895085241 0.04881835006253596
| 22> H 0.8949775422380606 -1.3757983148446609 -1.0865049095068988
| 23> H 1.3776281741709333 0.3155244724157232 -1.371225831651586
| 24> H 2.4567169104822986 -0.6160975837411323 0.4512108434031958
| 25> *
| 26>
| 27>                          ****END OF INPUT****

CARTESIAN COORDINATES (ANGSTROEM)
---------------------------------
  C     -1.354607   -0.871820    0.421053
  C     -0.576385    0.084140   -0.485146
  C     -0.669067    1.524335    0.022554
  C      0.868488   -0.359272   -0.667929
  O      1.546241   -0.337772    0.606514
  H     -1.286026   -1.904661    0.062277
  H     -2.413260   -0.595022    0.455246
  H     -0.970557   -0.842164    1.446148
  H     -1.019501    0.043838   -1.489928
  H     -0.110264    2.210620   -0.623146
  H     -0.267527    1.610086    1.037718
  H     -1.711625    1.857375    0.048818
  H      0.894978   -1.375798   -1.086505
  H      1.377628    0.315524   -1.371226
  H      2.456717   -0.616098    0.451211

 Total Charge           Charge          ....    0
 Multiplicity           Mult            ....    1
 Number of Electrons    NEL             ....   42
 Basis Dimension        Dim             ....  215

ORBITAL ENERGIES
----------------

  NO   OCC          E(Eh)            E(eV)
   0   2.0000     -21.669484      -589.6566
   1   2.0000     -12.080781      -328.7348
   2   2.0000     -12.041718      -327.6718
   3   2.0000     -12.023699      -327.1815
   4   2.0000     -12.023365      -327.1724
   5   2.0000      -1.667648       -45.3790
   6   2.0000      -1.306289       -35.5459
   7   2.0000      -1.185871       -32.2692
   8   2.0000      -1.167438       -31.7676
   9   2.0000      -1.056608       -28.7518
  10   2.0000      -1.019726       -27.7482
  11   2.0000      -0.935610       -25.4592
  12   2.0000      -0.931783       -25.3551
  13   2.0000      -0.872177       -23.7332
  14   2.0000      -0.847756       -23.0686
  15   2.0000      -0.846129       -23.0243
  16   2.0000      -0.799239       -21.7484
  17   2.0000      -0.782525       -21.2936
  18   2.0000      -0.767547       -20.8860
  19   2.0000      -0.761254       -20.7148
  20   2.0000      -0.752217       -20.4689
  21   0.0000      -0.134132        -3.6499
  22   0.0000      -0.022224        -0.6048
  23   0.0000      -0.004717        -0.1283
  24   0.0000       0.000652         0.0177
  25   0.0000       0.004983         0.1356

MULLIKEN ATOMIC CHARGES
-----------------------
   0 C :   -0.414096
   1 C :    0.047075
   2 C :   -0.414485
   3 C :   -0.073600
   4 O :   -0.565316
   5 H :    0.125311
   6 H :    0.128873
   7 H :    0.118796
   8 H :    0.084476
   9 H :    0.125392
  10 H :    0.118882
  11 H :    0.128845
  12 H :    0.114959
  13 H :    0.115387
  14 H :    0.359500
Sum of atomic charges:    0.0000000

LOEWDIN ATOMIC CHARGES
----------------------
   0 C :   -0.290424
   1 C :   -0.320850
   2 C :   -0.290481
   3 C :   -0.307714
   4 O :   -0.098080
   5 H :    0.120958
   6 H :    0.121152
   7 H :    0.118406
   8 H :    0.155671
   9 H :    0.120958
  10 H :    0.118378
  11 H :    0.121154
  12 H :    0.121818
  13 H :    0.121946
  14 H :    0.187106

  Mayer bond orders larger than 0.100000
B(  0-C ,  1-C ) :   0.9690 B(  0-C ,  5-H ) :   0.9772 B(  0-C ,  6-H ) :   0.9798
B(  0-C ,  7-H ) :   0.9750 B(  1-C ,  2-C ) :   0.9687 B(  1-C ,  3-C ) :   0.9761
B(  1-C ,  8-H ) :   0.9601 B(  2-C ,  9-H ) :   0.9772 B(  2-C , 10-H ) :   0.9750
B(  2-C , 11-H ) :   0.9798 B(  3-C ,  4-O ) :   1.0086 B(  3-C , 12-H ) :   0.9772
B(  3-C , 13-H ) :   0.9773 B(  4-O , 14-H ) :   0.8712

FINAL SINGLE POINT ENERGY      -233.683425776224

DIPOLE MOMENT
-------------

Method             : SCF
Type of density    : Electron Density
Multiplicity       :   1
Irrep              :   0
Energy             :  -233.6939831902241735 Eh
Relativity type    :
Basis              : AO
                                X                 Y                 Z
Electronic contribution:      3.262878231      -0.902041970       0.160341492
Nuclear contribution   :     -2.947897188       0.675728416      -1.007519814
                        -----------------------------------------
Total Dipole Moment    :      0.314981043      -0.226313555      -0.847178322
                        -----------------------------------------
Magnitude (a.u.)       :      0.931741376
Magnitude (Debye)      :      2.368298365

Rotational constants in cm-1:             0.208830             0.131493             0.105636
Rotational constants in MHz :          6260.562500          3942.055107          3166.879484

                             ****ORCA TERMINATED NORMALLY****
TOTAL RUN TIME: 0 days 0 hours 1 minutes 18 seconds 591 msec
