                         Program Version 6.0.0  -   RELEASE  -
|  1> ! pbe def2-sv(p) def2/J RI DEFGRID1 loosescf d4 GCP(DFT/SV(P)) printgap
|  2> %output
|  3>     printlevel normal
|  4> end
|  5> * xyz 0 1
|  6> C 1.2448561254 1.457710533 -0.2335042059
|  7> C 0.7142220536 0.0395349971 -0.4254583818
|  8> C 1.5312748863 -0.9589168128 0.405478446
|  9> C -0.7434178822 -0.0541251241 -0.0096509982
| 10> O -1.2787990458 0.7977134225 0.671877333
| 11> C -1.4771692877 -1.2806318478 -0.4704421474
| 12> H 1.1624471076 1.7486577729 0.8112377639
| 13> H 2.2864315711 1.5171191473 -0.5363113171
| 14> H 0.66471149 2.16300342 -0.8242767589
| 15> H 0.7897004378 -0.2390177969 -1.4803615336
| 16> H 1.2399955998 -1.982295511 0.1893155608
| 17> H 1.3887400417 -0.7676867346 1.4669399618
| 18> H 2.5867034665 -0.8439177273 0.1740080974
| 19> H -2.5392844703 -1.1752784272 -0.2668966349
| 20> H -1.099820507 -2.1437614418 0.0731217242
| 21> H -1.3115929047 -1.448800445 -1.5302190733
| 22> *
| 23>
| 24>                          ****END OF INPUT****

CARTESIAN COORDINATES (ANGSTROEM)
---------------------------------
  C      1.244856    1.457711   -0.233504
  C      0.714222    0.039535   -0.425458
  C      1.531275   -0.958917    0.405478
  C     -0.743418   -0.054125   -0.009651
  O     -1.278799    0.797713    0.671877
  C     -1.477169   -1.280632   -0.470442
  H      1.162447    1.748658    0.811238
  H      2.286432    1.517119   -0.536311
  H      0.664711    2.163003   -0.824277
  H      0.789700   -0.239018   -1.480362
  H      1.239996   -1.982296    0.189316
  H      1.388740   -0.767687    1.466940
  H      2.586703   -0.843918    0.174008
  H     -2.539284   -1.175278   -0.266897
  H     -1.099821   -2.143761    0.073122
  H     -1.311593   -1.448800   -1.530219

 Total Charge           Charge          ....    0
 Multiplicity           Mult            ....    1
 Number of Electrons    NEL             ....   48
 Basis Dimension        Dim             ....  104

ORBITAL ENERGIES
----------------

  NO   OCC          E(Eh)            E(eV)
   0   2.0000     -18.738021      -509.8875
   1   2.0000      -9.970080      -271.2997
   2   2.0000      -9.903616      -269.4911
   3   2.0000      -9.889690      -269.1121
   4   2.0000      -9.885462      -268.9971
   5   2.0000      -9.873218      -268.6639
   6   2.0000      -0.934733       -25.4354
   7   2.0000      -0.730247       -19.8710
   8   2.0000      -0.666619       -18.1396
   9   2.0000      -0.616717       -16.7817
  10   2.0000      -0.554416       -15.0864
  11   2.0000      -0.461048       -12.5457
  12   2.0000      -0.428768       -11.6674
  13   2.0000      -0.411263       -11.1910
  14   2.0000      -0.401932       -10.9371
  15   2.0000      -0.377387       -10.2692
  16   2.0000      -0.360784        -9.8174
  17   2.0000      -0.353149        -9.6097
  18   2.0000      -0.344319        -9.3694
  19   2.0000      -0.316256        -8.6058
  20   2.0000      -0.312493        -8.5034
  21   2.0000      -0.299731        -8.1561
  22   2.0000      -0.298042        -8.1101
  23   2.0000      -0.194528        -5.2934
  24   0.0000      -0.048833        -1.3288
  25   0.0000       0.027243         0.7413
  26   0.0000       0.065726         1.7885
  27   0.0000       0.071008         1.9322
  28   0.0000       0.094855         2.5811

MULLIKEN ATOMIC CHARGES
-----------------------
   0 C :   -0.225120
   1 C :   -0.190188
   2 C :   -0.264783
   3 C :    0.005543
   4 O :   -0.168748
   5 C :   -0.241869
   6 H :    0.108285
   7 H :    0.094174
   8 H :    0.104667
   9 H :    0.083564
  10 H :    0.107162
  11 H :    0.112147
  12 H :    0.113311
  13 H :    0.117536
  14 H :    0.128874
  15 H :    0.115444
Sum of atomic charges:    0.0000000

LOEWDIN ATOMIC CHARGES
----------------------
   0 C :   -0.327523
   1 C :   -0.184381
   2 C :   -0.320561
   3 C :    0.050370
   4 O :   -0.128625
   5 C :   -0.362266
   6 H :    0.124987
   7 H :    0.116818
   8 H :    0.122695
   9 H :    0.124544
  10 H :    0.117859
  11 H :    0.125177
  12 H :    0.125064
  13 H :    0.135263
  14 H :    0.144411
  15 H :    0.136171

  Mayer bond orders larger than 0.100000
B(  0-C ,  1-C ) :   1.1164 B(  0-C ,  6-H ) :   0.9440 B(  0-C ,  7-H ) :   0.9473
B(  0-C ,  8-H ) :   0.9519 B(  1-C ,  2-C ) :   1.0835 B(  1-C ,  3-C ) :   0.9268
B(  1-C ,  9-H ) :   0.8894 B(  2-C , 10-H ) :   0.9477 B(  2-C , 11-H ) :   0.9480
B(  2-C , 12-H ) :   0.9488 B(  3-C ,  4-O ) :   2.1931 B(  3-C ,  5-C ) :   1.0800
B(  5-C , 13-H ) :   0.9325 B(  5-C , 14-H ) :   0.9208 B(  5-C , 15-H ) :   0.9299

Dispersion correction           -0.011838461
FINAL SINGLE POINT ENERGY      -271.143178125010

DIPOLE MOMENT
-------------

Method             : SCF
Type of density    : Electron Density
Multiplicity       :   1
Irrep              :   0
Energy             :  -271.1972732719568739 Eh
Relativity type    :
Basis              : AO
                                X                 Y                 Z
Electronic contribution:     -4.340232095       2.229037154       1.284011228
Nuclear contribution   :      4.829500862      -2.964007677      -1.794541223
                        -----------------------------------------
Total Dipole Moment    :      0.489268767      -0.734970523      -0.510529995
                        -----------------------------------------
Magnitude (a.u.)       :      1.019905129
Magnitude (Debye)      :      2.592392818

Rotational constants in cm-1:             0.158501             0.099949             0.073233
Rotational constants in MHz :          4751.751839          2996.388899          2195.467412

                             ****ORCA TERMINATED NORMALLY****
TOTAL RUN TIME: 0 days 0 hours 0 minutes 6 seconds 329 msec
