                         Program Version 6.0.0  -   RELEASE  -
|  1> ! wb97x-v def2-tzvp def2/J RIJCOSX DEFGRID2 scfconv7 GCP(DFT/TZ) printgap
|  2> %output
|  3>     printlevel normal
|  4> end
|  5> * xyz 0 1
|  6> C -1.0943150831670658 -1.8662092824149146 -0.00019940911924933296
|  7> C 0.2457641716641623 -1.4961989945368819 -0.00019097216666916087
|  8> C 0.5375686972198609 -0.1370959020659058 2.7929500994337517e-06
|  9> C -0.4399079965793656 0.8520720206638396 7.327928573059796e-06
| 10> C -1.77214264517055 0.4504966156333421 3.548113417427392e-05
| 11> C -2.100751066280976 -0.9086498671403268 -7.777686110699854e-05
| 12> O -2.8059245498085543 1.3447971401952037 0.00020502407268467763
| 13> N 1.9420950520162354 0.2828019294031961 0.0005155476870353199
| 14> O 2.811373553225865 -0.5873791275159946 0.00025941568670498864
| 15> O 2.191585650626712 1.4874620224010122 -0.0005068026708092272
| 16> H -1.3582411663106044 -2.9179207834143606 -0.00026242476208019537
| 17> H 1.0353387901974858 -2.2352920748761993 -0.00021982571206679888
| 18> H -0.1746048075763259 1.9026804523237564 0.0001513352283631653
| 19> H -3.1456347890986427 -1.2002103847842818 -6.028699532446741e-05
| 20> H -2.4610089205804573 2.2496669464803736 0.00035930442453162374
| 21> *
| 22>
| 23>                          ****END OF INPUT****

CARTESIAN COORDINATES (ANGSTROEM)
---------------------------------
  C     -1.094315   -1.866209   -0.000199
  C      0.245764   -1.496199   -0.000191
  C      0.537569   -0.137096    0.000003
  C     -0.439908    0.852072    0.000007
  C     -1.772143    0.450497    0.000035
  C     -2.100751   -0.908650   -0.000078
  O     -2.805925    1.344797    0.000205
  N      1.942095    0.282802    0.000516
  O      2.811374   -0.587379    0.000259
  O      2.191586    1.487462   -0.000507
  H     -1.358241   -2.917921   -0.000262
  H      1.035339   -2.235292   -0.000220
  H     -0.174605    1.902680    0.000151
  H     -3.145635   -1.200210   -0.000060
  H     -2.461009    2.249667    0.000359

 Total Charge           Charge          ....    0
 Multiplicity           Mult            ....    1
 Number of Electrons    NEL             ....   72
 Basis Dimension        Dim             ....  340

ORBITAL ENERGIES
----------------

  NO   OCC          E(Eh)            E(eV)
   0   2.0000     -21.728561      -591.2642
   1   2.0000     -21.711614      -590.8030
   2   2.0000     -21.711140      -590.7901
   3   2.0000     -16.777610      -456.5420
   4   2.0000     -12.145485      -330.4955
   5   2.0000     -12.128704      -330.0388
   6   2.0000     -12.087381      -328.9143
   7   2.0000     -12.084840      -328.8452
   8   2.0000     -12.081126      -328.7441
   9   2.0000     -12.079871      -328.7100
  10   2.0000      -1.904888       -51.8346
  11   2.0000      -1.749559       -47.6079
  12   2.0000      -1.744767       -47.4775
  13   2.0000      -1.444019       -39.2938
  14   2.0000      -1.376608       -37.4594
  15   2.0000      -1.315569       -35.7984
  16   2.0000      -1.280055       -34.8321
  17   2.0000      -1.193908       -32.4879
  18   2.0000      -1.183381       -32.2014
  19   2.0000      -1.143669       -31.1208
  20   2.0000      -1.115816       -30.3629
  21   2.0000      -1.084084       -29.4994
  22   2.0000      -1.078626       -29.3509
  23   2.0000      -1.021414       -27.7941
  24   2.0000      -0.981466       -26.7070
  25   2.0000      -0.974505       -26.5176
  26   2.0000      -0.974150       -26.5080
  27   2.0000      -0.928182       -25.2571
  28   2.0000      -0.916911       -24.9504
  29   2.0000      -0.905582       -24.6421
  30   2.0000      -0.897203       -24.4141
  31   2.0000      -0.873302       -23.7637
  32   2.0000      -0.857032       -23.3210
  33   2.0000      -0.809568       -22.0295
  34   2.0000      -0.689081       -18.7509
  35   2.0000      -0.671369       -18.2689
  36   0.0000      -0.486948       -13.2505
  37   0.0000      -0.275191        -7.4883
  38   0.0000      -0.269005        -7.3200
  39   0.0000      -0.241304        -6.5662
  40   0.0000      -0.167538        -4.5590

MULLIKEN ATOMIC CHARGES
-----------------------
   0 C :   -0.044316
   1 C :   -0.209778
   2 C :    0.022451
   3 C :   -0.235429
   4 C :    0.296106
   5 C :   -0.206210
   6 O :   -0.379165
   7 N :    0.455937
   8 O :   -0.308152
   9 O :   -0.313556
  10 H :    0.134293
  11 H :    0.166065
  12 H :    0.162273
  13 H :    0.138156
  14 H :    0.321324
Sum of atomic charges:   -0.0000000

LOEWDIN ATOMIC CHARGES
----------------------
   0 C :   -0.119626
   1 C :   -0.104280
   2 C :   -0.158358
   3 C :   -0.094181
   4 C :   -0.257911
   5 C :   -0.094472
   6 O :    0.083127
   7 N :   -0.000972
   8 O :   -0.027179
   9 O :   -0.033221
  10 H :    0.149547
  11 H :    0.157117
  12 H :    0.156299
  13 H :    0.153082
  14 H :    0.191027

  Mayer bond orders larger than 0.100000
B(  0-C ,  1-C ) :   1.4088 B(  0-C ,  5-C ) :   1.4439 B(  0-C , 10-H ) :   0.9707
B(  1-C ,  2-C ) :   1.4440 B(  1-C , 11-H ) :   0.9312 B(  2-C ,  3-C ) :   1.4521
B(  2-C ,  7-N ) :   0.9809 B(  3-C ,  4-C ) :   1.3536 B(  3-C , 12-H ) :   0.8982
B(  4-C ,  5-C ) :   1.3933 B(  4-C ,  6-O ) :   1.1685 B(  5-C , 13-H ) :   0.9684
B(  6-O , 14-H ) :   0.8838 B(  7-N ,  8-O ) :   1.6521 B(  7-N ,  9-O ) :   1.6460
B(  8-O ,  9-O ) :   0.2017

FINAL SINGLE POINT ENERGY      -512.010911757986

DIPOLE MOMENT
-------------

Method             : SCF
Type of density    : Electron Density
Multiplicity       :   1
Irrep              :   0
Energy             :  -512.0189251288863943 Eh
Relativity type    :
Basis              : AO
                                X                 Y                 Z
Electronic contribution:      4.274140063       1.899476832       0.000532967
Nuclear contribution   :     -5.706212974      -2.042412073      -0.000076652
                        -----------------------------------------
Total Dipole Moment    :     -1.432072911      -0.142935240       0.000456315
                        -----------------------------------------
Magnitude (a.u.)       :      1.439188491
Magnitude (Debye)      :      3.658126428

Rotational constants in cm-1:             0.091215             0.032876             0.024166
Rotational constants in MHz :          2734.569931           985.585760           724.473245

                             ****ORCA TERMINATED NORMALLY****
TOTAL RUN TIME: 0 days 0 hours 3 minutes 7 seconds 781 msec
