                         Program Version 6.0.0  -   RELEASE  -
|  1> ! wb97x-v def2-tzvp def2/J RIJCOSX DEFGRID2 scfconv7 GCP(DFT/TZ) printgap
|  2> %output
|  3>     printlevel normal
|  4> end
|  5> %cpcm
|  6>     smd true
|  7>     smdsolvent "water"
|  8> end
|  9> * xyz 0 1
| 10> C -1.0943150831670658 -1.8662092824149146 -0.00019940911924933296
| 11> C 0.2457641716641623 -1.4961989945368819 -0.00019097216666916087
| 12> C 0.5375686972198609 -0.1370959020659058 2.7929500994337517e-06
| 13> C -0.4399079965793656 0.8520720206638396 7.327928573059796e-06
| 14> C -1.77214264517055 0.4504966156333421 3.548113417427392e-05
| 15> C -2.100751066280976 -0.9086498671403268 -7.777686110699854e-05
| 16> O -2.8059245498085543 1.3447971401952037 0.00020502407268467763
| 17> N 1.9420950520162354 0.2828019294031961 0.0005155476870353199
| 18> O 2.811373553225865 -0.5873791275159946 0.00025941568670498864
| 19> O 2.191585650626712 1.4874620224010122 -0.0005068026708092272
| 20> H -1.3582411663106044 -2.9179207834143606 -0.00026242476208019537
| 21> H 1.0353387901974858 -2.2352920748761993 -0.00021982571206679888
| 22> H -0.1746048075763259 1.9026804523237564 0.0001513352283631653
| 23> H -3.1456347890986427 -1.2002103847842818 -6.028699532446741e-05
| 24> H -2.4610089205804573 2.2496669464803736 0.00035930442453162374
| 25> *
| 26>
| 27>                          ****END OF INPUT****

CARTESIAN COORDINATES (ANGSTROEM)
---------------------------------
  C     -1.094315   -1.866209   -0.000199
  C      0.245764   -1.496199   -0.000191
  C      0.537569   -0.137096    0.000003
  C     -0.439908    0.852072    0.000007
  C     -1.772143    0.450497    0.000035
  C     -2.100751   -0.908650   -0.000078
  O     -2.805925    1.344797    0.000205
  N      1.942095    0.282802    0.000516
  O      2.811374   -0.587379    0.000259
  O      2.191586    1.487462   -0.000507
  H     -1.358241   -2.917921   -0.000262
  H      1.035339   -2.235292   -0.000220
  H     -0.174605    1.902680    0.000151
  H     -3.145635   -1.200210   -0.000060
  H     -2.461009    2.249667    0.000359

 Total Charge           Charge          ....    0
 Multiplicity           Mult            ....    1
 Number of Electrons    NEL             ....   72
 Basis Dimension        Dim             ....  340

ORBITAL ENERGIES
----------------

  NO   OCC          E(Eh)            E(eV)
   0   2.0000     -21.723015      -591.1133
   1   2.0000     -21.722882      -591.1097
   2   2.0000     -21.709919      -590.7569
   3   2.0000     -16.787925      -456.8227
   4   2.0000     -12.130550      -330.0890
   5   2.0000     -12.119360      -329.7845
   6   2.0000     -12.072998      -328.5230
   7   2.0000     -12.069784      -328.4355
   8   2.0000     -12.067651      -328.3775
   9   2.0000     -12.064932      -328.3035
  10   2.0000      -1.916292       -52.1449
  11   2.0000      -1.761645       -47.9368
  12   2.0000      -1.726447       -46.9790
  13   2.0000      -1.437728       -39.1226
  14   2.0000      -1.370610       -37.2962
  15   2.0000      -1.301036       -35.4030
  16   2.0000      -1.275508       -34.7083
  17   2.0000      -1.191950       -32.4346
  18   2.0000      -1.176214       -32.0064
  19   2.0000      -1.155030       -31.4300
  20   2.0000      -1.103855       -30.0374
  21   2.0000      -1.088953       -29.6319
  22   2.0000      -1.071905       -29.1680
  23   2.0000      -1.008272       -27.4365
  24   2.0000      -0.965487       -26.2722
  25   2.0000      -0.961653       -26.1679
  26   2.0000      -0.958352       -26.0781
  27   2.0000      -0.933848       -25.4113
  28   2.0000      -0.923455       -25.1285
  29   2.0000      -0.912734       -24.8368
  30   2.0000      -0.898361       -24.4456
  31   2.0000      -0.858619       -23.3642
  32   2.0000      -0.840463       -22.8702
  33   2.0000      -0.798018       -21.7152
  34   2.0000      -0.678307       -18.4577
  35   2.0000      -0.657294       -17.8859
  36   0.0000      -0.494035       -13.4434
  37   0.0000      -0.261727        -7.1220
  38   0.0000      -0.256082        -6.9683
  39   0.0000      -0.243272        -6.6198
  40   0.0000      -0.159302        -4.3348

MULLIKEN ATOMIC CHARGES
-----------------------
   0 C :   -0.097955
   1 C :   -0.234585
   2 C :    0.109073
   3 C :   -0.259578
   4 C :    0.291204
   5 C :   -0.234476
   6 O :   -0.452652
   7 N :    0.511587
   8 O :   -0.369594
   9 O :   -0.369590
  10 H :    0.174313
  11 H :    0.184631
  12 H :    0.195063
  13 H :    0.169076
  14 H :    0.383482
Sum of atomic charges:   -0.0000000

LOEWDIN ATOMIC CHARGES
----------------------
   0 C :   -0.118658
   1 C :   -0.104864
   2 C :   -0.162669
   3 C :   -0.079554
   4 C :   -0.258970
   5 C :   -0.091874
   6 O :    0.062310
   7 N :    0.012864
   8 O :   -0.063037
   9 O :   -0.063659
  10 H :    0.160545
  11 H :    0.161813
  12 H :    0.168112
  13 H :    0.161772
  14 H :    0.215867

  Mayer bond orders larger than 0.100000
B(  0-C ,  1-C ) :   1.4211 B(  0-C ,  5-C ) :   1.4383 B(  0-C , 10-H ) :   0.9692
B(  1-C ,  2-C ) :   1.3729 B(  1-C , 11-H ) :   0.9454 B(  2-C ,  3-C ) :   1.3526
B(  2-C ,  7-N ) :   0.9913 B(  3-C ,  4-C ) :   1.3934 B(  3-C , 12-H ) :   0.9212
B(  4-C ,  5-C ) :   1.3622 B(  4-C ,  6-O ) :   1.1317 B(  5-C , 13-H ) :   0.9715
B(  6-O , 14-H ) :   0.8436 B(  7-N ,  8-O ) :   1.6135 B(  7-N ,  9-O ) :   1.6162
B(  8-O ,  9-O ) :   0.1896

FINAL SINGLE POINT ENERGY      -512.022069420736

DIPOLE MOMENT
-------------

Method             : SCF
Type of density    : Electron Density
Multiplicity       :   1
Irrep              :   0
Energy             :  -512.0300827916363460 Eh
Relativity type    :
Basis              : AO
                                X                 Y                 Z
Electronic contribution:      3.827207391       1.898854927       0.000711054
Nuclear contribution   :     -5.706212974      -2.042412073      -0.000076652
                        -----------------------------------------
Total Dipole Moment    :     -1.879005583      -0.143557146       0.000634401
                        -----------------------------------------
Magnitude (a.u.)       :      1.884481636
Magnitude (Debye)      :      4.789971653

Rotational constants in cm-1:             0.091215             0.032876             0.024166
Rotational constants in MHz :          2734.569931           985.585760           724.473245

                             ****ORCA TERMINATED NORMALLY****
TOTAL RUN TIME: 0 days 0 hours 3 minutes 1 seconds 320 msec
