                         Program Version 6.0.0  -   RELEASE  -
|  1> ! wb97x-v def2-tzvp def2/J RIJCOSX DEFGRID2 scfconv7 GCP(DFT/TZ) printgap
|  2> %output
|  3>     printlevel normal
|  4> end
|  5> * xyz 0 1
|  6> C -1.0870644898810833 -1.925750820429869 3.402426845552698e-07
|  7> C -0.024655777115332993 -0.8690887906346094 -2.8513828588227605e-05
|  8> C 1.3179480393753389 -1.248490785962953 -2.9337331761007718e-05
|  9> C 2.3466063268336237 -0.309097227401789 -1.4382185319798883e-05
| 10> C 2.058592732893804 1.0533701928554633 1.9851025984472563e-05
| 11> C 0.7332690442274955 1.4567423024742234 8.779105777024e-05
| 12> C -0.3120239730181148 0.5183878472341528 9.358625407009895e-05
| 13> C -1.6636380656053318 1.078522325312189 0.00041762865191314317
| 14> O -2.7180001890166032 0.4509358899102688 -0.0003510222797492902
| 15> H -1.7361699964296375 -1.8388675664552314 0.8766959075165476
| 16> H -1.7357160499353683 -1.839316983017996 -0.877082028582135
| 17> H -0.6279176979548249 -2.9169303660942436 0.00036261455155253507
| 18> H 1.5627330390489453 -2.306536308433463 -3.017758265165745e-05
| 19> H 3.378258716944916 -0.6468023669553786 -6.95335749026413e-05
| 20> H 2.857587029055539 1.7867918148063209 2.810176607318387e-05
| 21> H 0.4854781879099144 2.51486696491174 0.000135440822356198
| 22> H -1.6873473347225618 2.1875977259163712 -0.00043475450600597327
| 23> *
| 24>
| 25>                          ****END OF INPUT****

CARTESIAN COORDINATES (ANGSTROEM)
---------------------------------
  C     -1.087064   -1.925751    0.000000
  C     -0.024656   -0.869089   -0.000029
  C      1.317948   -1.248491   -0.000029
  C      2.346606   -0.309097   -0.000014
  C      2.058593    1.053370    0.000020
  C      0.733269    1.456742    0.000088
  C     -0.312024    0.518388    0.000094
  C     -1.663638    1.078522    0.000418
  O     -2.718000    0.450936   -0.000351
  H     -1.736170   -1.838868    0.876696
  H     -1.735716   -1.839317   -0.877082
  H     -0.627918   -2.916930    0.000363
  H      1.562733   -2.306536   -0.000030
  H      3.378259   -0.646802   -0.000070
  H      2.857587    1.786792    0.000028
  H      0.485478    2.514867    0.000135
  H     -1.687347    2.187598   -0.000435

 Total Charge           Charge          ....    0
 Multiplicity           Mult            ....    1
 Number of Electrons    NEL             ....   64
 Basis Dimension        Dim             ....  327

ORBITAL ENERGIES
----------------

  NO   OCC          E(Eh)            E(eV)
   0   2.0000     -21.667443      -589.6011
   1   2.0000     -12.138306      -330.3001
   2   2.0000     -12.082351      -328.7775
   3   2.0000     -12.073693      -328.5419
   4   2.0000     -12.072059      -328.4974
   5   2.0000     -12.068515      -328.4010
   6   2.0000     -12.064043      -328.2793
   7   2.0000     -12.061922      -328.2216
   8   2.0000     -12.042628      -327.6966
   9   2.0000      -1.706974       -46.4491
  10   2.0000      -1.404370       -38.2149
  11   2.0000      -1.312001       -35.7014
  12   2.0000      -1.305110       -35.5139
  13   2.0000      -1.213422       -33.0189
  14   2.0000      -1.168020       -31.7834
  15   2.0000      -1.111686       -30.2505
  16   2.0000      -1.092238       -29.7213
  17   2.0000      -1.017376       -27.6842
  18   2.0000      -0.997136       -27.1334
  19   2.0000      -0.957529       -26.0557
  20   2.0000      -0.953546       -25.9473
  21   2.0000      -0.908837       -24.7307
  22   2.0000      -0.899471       -24.4758
  23   2.0000      -0.886177       -24.1141
  24   2.0000      -0.851005       -23.1570
  25   2.0000      -0.838775       -22.8242
  26   2.0000      -0.828107       -22.5339
  27   2.0000      -0.822986       -22.3946
  28   2.0000      -0.790362       -21.5068
  29   2.0000      -0.777572       -21.1588
  30   2.0000      -0.663955       -18.0671
  31   2.0000      -0.649392       -17.6709
  32   0.0000      -0.349817        -9.5190
  33   0.0000      -0.249744        -6.7959
  34   0.0000      -0.213594        -5.8122
  35   0.0000      -0.077435        -2.1071
  36   0.0000      -0.065443        -1.7808

MULLIKEN ATOMIC CHARGES
-----------------------
   0 C :   -0.290507
   1 C :    0.058099
   2 C :   -0.180099
   3 C :   -0.090672
   4 C :   -0.152377
   5 C :   -0.151799
   6 C :    0.109264
   7 C :    0.068714
   8 O :   -0.312626
   9 H :    0.132185
  10 H :    0.132173
  11 H :    0.105131
  12 H :    0.118716
  13 H :    0.125885
  14 H :    0.123771
  15 H :    0.126126
  16 H :    0.078015
Sum of atomic charges:   -0.0000000

LOEWDIN ATOMIC CHARGES
----------------------
   0 C :   -0.241871
   1 C :   -0.104465
   2 C :   -0.110883
   3 C :   -0.115569
   4 C :   -0.143316
   5 C :   -0.090699
   6 C :   -0.133830
   7 C :   -0.242469
   8 O :    0.089721
   9 H :    0.134880
  10 H :    0.134885
  11 H :    0.121772
  12 H :    0.146148
  13 H :    0.145089
  14 H :    0.143446
  15 H :    0.147962
  16 H :    0.119200

  Mayer bond orders larger than 0.100000
B(  0-C ,  1-C ) :   0.9746 B(  0-C ,  9-H ) :   0.9630 B(  0-C , 10-H ) :   0.9629
B(  0-C , 11-H ) :   0.9826 B(  1-C ,  2-C ) :   1.4511 B(  1-C ,  6-C ) :   1.3106
B(  2-C ,  3-C ) :   1.4126 B(  2-C , 12-H ) :   0.9663 B(  3-C ,  4-C ) :   1.4149
B(  3-C , 13-H ) :   0.9712 B(  4-C ,  5-C ) :   1.4315 B(  4-C , 14-H ) :   0.9733
B(  5-C ,  6-C ) :   1.3569 B(  5-C , 15-H ) :   0.9653 B(  6-C ,  7-C ) :   0.8902
B(  6-C , 16-H ) :  -0.1171 B(  7-C ,  8-O ) :   2.1035 B(  7-C , 16-H ) :   1.0374

FINAL SINGLE POINT ENERGY      -384.905364216392

DIPOLE MOMENT
-------------

Method             : SCF
Type of density    : Electron Density
Multiplicity       :   1
Irrep              :   0
Energy             :  -384.9145001622922564 Eh
Relativity type    :
Basis              : AO
                                X                 Y                 Z
Electronic contribution:     -1.100310816       3.035403041       0.000697924
Nuclear contribution   :      2.333819616      -2.937459389      -0.000410035
                        -----------------------------------------
Total Dipole Moment    :      1.233508800       0.097943652       0.000287889
                        -----------------------------------------
Magnitude (a.u.)       :      1.237391208
Magnitude (Debye)      :      3.145198498

Rotational constants in cm-1:             0.099244             0.048931             0.032972
Rotational constants in MHz :          2975.265285          1466.912899           988.461182

                             ****ORCA TERMINATED NORMALLY****
TOTAL RUN TIME: 0 days 0 hours 2 minutes 54 seconds 159 msec
