                         Program Version 6.0.0  -   RELEASE  -
|  1> ! wb97x-v def2-tzvp def2/J RIJCOSX DEFGRID2 scfconv7 GCP(DFT/TZ) printgap
|  2> %output
|  3>     printlevel normal
|  4> end
|  5> %cpcm
|  6>     smd true
|  7>     smdsolvent "water"
|  8> end
|  9> * xyz 0 1
| 10> C -1.0870644898810833 -1.925750820429869 3.402426845552698e-07
| 11> C -0.024655777115332993 -0.8690887906346094 -2.8513828588227605e-05
| 12> C 1.3179480393753389 -1.248490785962953 -2.9337331761007718e-05
| 13> C 2.3466063268336237 -0.309097227401789 -1.4382185319798883e-05
| 14> C 2.058592732893804 1.0533701928554633 1.9851025984472563e-05
| 15> C 0.7332690442274955 1.4567423024742234 8.779105777024e-05
| 16> C -0.3120239730181148 0.5183878472341528 9.358625407009895e-05
| 17> C -1.6636380656053318 1.078522325312189 0.00041762865191314317
| 18> O -2.7180001890166032 0.4509358899102688 -0.0003510222797492902
| 19> H -1.7361699964296375 -1.8388675664552314 0.8766959075165476
| 20> H -1.7357160499353683 -1.839316983017996 -0.877082028582135
| 21> H -0.6279176979548249 -2.9169303660942436 0.00036261455155253507
| 22> H 1.5627330390489453 -2.306536308433463 -3.017758265165745e-05
| 23> H 3.378258716944916 -0.6468023669553786 -6.95335749026413e-05
| 24> H 2.857587029055539 1.7867918148063209 2.810176607318387e-05
| 25> H 0.4854781879099144 2.51486696491174 0.000135440822356198
| 26> H -1.6873473347225618 2.1875977259163712 -0.00043475450600597327
| 27> *
| 28>
| 29>                          ****END OF INPUT****

CARTESIAN COORDINATES (ANGSTROEM)
---------------------------------
  C     -1.087064   -1.925751    0.000000
  C     -0.024656   -0.869089   -0.000029
  C      1.317948   -1.248491   -0.000029
  C      2.346606   -0.309097   -0.000014
  C      2.058593    1.053370    0.000020
  C      0.733269    1.456742    0.000088
  C     -0.312024    0.518388    0.000094
  C     -1.663638    1.078522    0.000418
  O     -2.718000    0.450936   -0.000351
  H     -1.736170   -1.838868    0.876696
  H     -1.735716   -1.839317   -0.877082
  H     -0.627918   -2.916930    0.000363
  H      1.562733   -2.306536   -0.000030
  H      3.378259   -0.646802   -0.000070
  H      2.857587    1.786792    0.000028
  H      0.485478    2.514867    0.000135
  H     -1.687347    2.187598   -0.000435

 Total Charge           Charge          ....    0
 Multiplicity           Mult            ....    1
 Number of Electrons    NEL             ....   64
 Basis Dimension        Dim             ....  327

ORBITAL ENERGIES
----------------

  NO   OCC          E(Eh)            E(eV)
   0   2.0000     -21.674246      -589.7862
   1   2.0000     -12.142460      -330.4131
   2   2.0000     -12.076529      -328.6191
   3   2.0000     -12.064387      -328.2887
   4   2.0000     -12.062187      -328.2288
   5   2.0000     -12.061649      -328.2141
   6   2.0000     -12.052417      -327.9629
   7   2.0000     -12.051346      -327.9338
   8   2.0000     -12.035811      -327.5111
   9   2.0000      -1.717555       -46.7371
  10   2.0000      -1.397132       -38.0179
  11   2.0000      -1.304628       -35.5007
  12   2.0000      -1.297336       -35.3023
  13   2.0000      -1.207166       -32.8487
  14   2.0000      -1.165113       -31.7043
  15   2.0000      -1.104926       -30.0666
  16   2.0000      -1.091453       -29.7000
  17   2.0000      -1.016962       -27.6729
  18   2.0000      -0.998257       -27.1639
  19   2.0000      -0.953096       -25.9351
  20   2.0000      -0.942979       -25.6598
  21   2.0000      -0.913842       -24.8669
  22   2.0000      -0.897888       -24.4328
  23   2.0000      -0.876004       -23.8373
  24   2.0000      -0.841230       -22.8910
  25   2.0000      -0.833601       -22.6834
  26   2.0000      -0.821342       -22.3499
  27   2.0000      -0.816098       -22.2071
  28   2.0000      -0.788766       -21.4634
  29   2.0000      -0.770921       -20.9778
  30   2.0000      -0.657864       -17.9014
  31   2.0000      -0.641820       -17.4648
  32   0.0000      -0.346036        -9.4161
  33   0.0000      -0.241191        -6.5632
  34   0.0000      -0.207850        -5.6559
  35   0.0000      -0.069482        -1.8907
  36   0.0000      -0.056744        -1.5441

MULLIKEN ATOMIC CHARGES
-----------------------
   0 C :   -0.357386
   1 C :    0.079618
   2 C :   -0.224772
   3 C :   -0.113286
   4 C :   -0.193521
   5 C :   -0.173698
   6 C :    0.069609
   7 C :    0.124247
   8 O :   -0.432780
   9 H :    0.141365
  10 H :    0.141365
  11 H :    0.138938
  12 H :    0.161002
  13 H :    0.168175
  14 H :    0.165323
  15 H :    0.171437
  16 H :    0.134365
Sum of atomic charges:   -0.0000000

LOEWDIN ATOMIC CHARGES
----------------------
   0 C :   -0.248049
   1 C :   -0.109872
   2 C :   -0.114786
   3 C :   -0.113842
   4 C :   -0.146622
   5 C :   -0.084640
   6 C :   -0.140991
   7 C :   -0.221483
   8 O :    0.017992
   9 H :    0.133603
  10 H :    0.133611
  11 H :    0.130598
  12 H :    0.156492
  13 H :    0.155911
  14 H :    0.153495
  15 H :    0.161257
  16 H :    0.137328

  Mayer bond orders larger than 0.100000
B(  0-C ,  1-C ) :   0.9481 B(  0-C ,  9-H ) :   0.9689 B(  0-C , 10-H ) :   0.9688
B(  0-C , 11-H ) :   0.9776 B(  1-C ,  2-C ) :   1.4369 B(  1-C ,  6-C ) :   1.2787
B(  2-C ,  3-C ) :   1.3929 B(  2-C , 12-H ) :   0.9724 B(  3-C ,  4-C ) :   1.3891
B(  3-C , 13-H ) :   0.9726 B(  4-C ,  5-C ) :   1.4078 B(  4-C , 14-H ) :   0.9779
B(  5-C ,  6-C ) :   1.3426 B(  5-C , 15-H ) :   0.9705 B(  6-C ,  7-C ) :   0.9339
B(  7-C ,  8-O ) :   1.9910 B(  7-C , 16-H ) :   1.0174

FINAL SINGLE POINT ENERGY      -384.911867323898

DIPOLE MOMENT
-------------

Method             : SCF
Type of density    : Electron Density
Multiplicity       :   1
Irrep              :   0
Energy             :  -384.9210032697982911 Eh
Relativity type    :
Basis              : AO
                                X                 Y                 Z
Electronic contribution:     -0.522107744       3.189630313       0.000852932
Nuclear contribution   :      2.333819616      -2.937459389      -0.000410035
                        -----------------------------------------
Total Dipole Moment    :      1.811711872       0.252170923       0.000442897
                        -----------------------------------------
Magnitude (a.u.)       :      1.829177487
Magnitude (Debye)      :      4.649399677

Rotational constants in cm-1:             0.099244             0.048931             0.032972
Rotational constants in MHz :          2975.265285          1466.912899           988.461182

                             ****ORCA TERMINATED NORMALLY****
TOTAL RUN TIME: 0 days 0 hours 2 minutes 42 seconds 721 msec
