                         Program Version 6.0.0  -   RELEASE  -
|  1> ! wb97x-v def2-tzvp def2/J RIJCOSX DEFGRID2 scfconv7 GCP(DFT/TZ) printgap
|  2> %output
|  3>     printlevel normal
|  4> end
|  5> * xyz 0 1
|  6> C -2.316036245962802 0.09532654191318693 0.0407826059386561
|  7> C -1.6611156706144041 1.3038136248546002 -0.19887720292279307
|  8> C -0.2728337929694913 1.348030339028352 -0.24394935373230506
|  9> C 0.485670401778531 0.18767060094662083 -0.051721607167763736
| 10> C -0.17338868759157244 -1.0177805206544792 0.1878670602204746
| 11> C -1.5676994294071969 -1.0611018772138516 0.23366474995398168
| 12> C 1.9846766524282398 0.2930977364299187 -0.11772116217229835
| 13> O 2.5895332331954393 -0.9787511050903845 0.13953288613265477
| 14> H -3.4002372288950737 0.05898493016861638 0.07679064534766543
| 15> H -2.2343203614059393 2.2133620395033593 -0.350119025091504
| 16> H 0.2331283248692121 2.2921338843469323 -0.4306114106138338
| 17> H 0.39610448140557525 -1.9272519212984527 0.34035168743669003
| 18> H -2.0673832615296908 -2.006690224950698 0.4214974147632566
| 19> H 2.276201693526188 0.6604228917549678 -1.1129603924024205
| 20> H 2.326813730016374 1.0359804022615282 0.6176490960527483
| 21> H 3.5448806342433903 -0.8515001035817554 0.08900215821130286
| 22> *
| 23>
| 24>                          ****END OF INPUT****

CARTESIAN COORDINATES (ANGSTROEM)
---------------------------------
  C     -2.316036    0.095327    0.040783
  C     -1.661116    1.303814   -0.198877
  C     -0.272834    1.348030   -0.243949
  C      0.485670    0.187671   -0.051722
  C     -0.173389   -1.017781    0.187867
  C     -1.567699   -1.061102    0.233665
  C      1.984677    0.293098   -0.117721
  O      2.589533   -0.978751    0.139533
  H     -3.400237    0.058985    0.076791
  H     -2.234320    2.213362   -0.350119
  H      0.233128    2.292134   -0.430611
  H      0.396104   -1.927252    0.340352
  H     -2.067383   -2.006690    0.421497
  H      2.276202    0.660423   -1.112960
  H      2.326814    1.035980    0.617649
  H      3.544881   -0.851500    0.089002

 Total Charge           Charge          ....    0
 Multiplicity           Mult            ....    1
 Number of Electrons    NEL             ....   58
 Basis Dimension        Dim             ....  296

ORBITAL ENERGIES
----------------

  NO   OCC          E(Eh)            E(eV)
   0   2.0000     -21.679043      -589.9167
   1   2.0000     -12.103047      -329.3407
   2   2.0000     -12.058618      -328.1317
   3   2.0000     -12.050379      -327.9075
   4   2.0000     -12.048456      -327.8552
   5   2.0000     -12.047756      -327.8361
   6   2.0000     -12.045554      -327.7762
   7   2.0000     -12.043173      -327.7114
   8   2.0000      -1.680349       -45.7246
   9   2.0000      -1.382336       -37.6153
  10   2.0000      -1.295638       -35.2561
  11   2.0000      -1.268794       -34.5256
  12   2.0000      -1.206213       -32.8227
  13   2.0000      -1.106496       -30.1093
  14   2.0000      -1.090747       -29.6807
  15   2.0000      -1.041799       -28.3488
  16   2.0000      -0.980239       -26.6737
  17   2.0000      -0.946955       -25.7680
  18   2.0000      -0.945355       -25.7244
  19   2.0000      -0.938142       -25.5281
  20   2.0000      -0.902265       -24.5519
  21   2.0000      -0.869743       -23.6669
  22   2.0000      -0.861482       -23.4421
  23   2.0000      -0.820063       -22.3150
  24   2.0000      -0.811620       -22.0853
  25   2.0000      -0.802096       -21.8261
  26   2.0000      -0.758764       -20.6470
  27   2.0000      -0.634396       -17.2628
  28   2.0000      -0.631095       -17.1730
  29   0.0000      -0.236183        -6.4269
  30   0.0000      -0.232008        -6.3132
  31   0.0000      -0.153793        -4.1849
  32   0.0000      -0.066795        -1.8176
  33   0.0000      -0.048574        -1.3218

MULLIKEN ATOMIC CHARGES
-----------------------
   0 C :   -0.139074
   1 C :   -0.101946
   2 C :   -0.226521
   3 C :    0.169115
   4 C :   -0.210598
   5 C :   -0.091372
   6 C :   -0.058883
   7 O :   -0.442678
   8 H :    0.115754
   9 H :    0.115330
  10 H :    0.112829
  11 H :    0.141625
  12 H :    0.116414
  13 H :    0.099234
  14 H :    0.099556
  15 H :    0.301216
Sum of atomic charges:    0.0000000

LOEWDIN ATOMIC CHARGES
----------------------
   0 C :   -0.146241
   1 C :   -0.141639
   2 C :   -0.116981
   3 C :   -0.149125
   4 C :   -0.106838
   5 C :   -0.137728
   6 C :   -0.288227
   7 O :   -0.044670
   8 H :    0.139986
   9 H :    0.140839
  10 H :    0.143397
  11 H :    0.149555
  12 H :    0.141286
  13 H :    0.123281
  14 H :    0.123148
  15 H :    0.169956

  Mayer bond orders larger than 0.100000
B(  0-C ,  1-C ) :   1.4104 B(  0-C ,  5-C ) :   1.4349 B(  0-C ,  8-H ) :   0.9732
B(  1-C ,  2-C ) :   1.4642 B(  1-C ,  9-H ) :   0.9751 B(  2-C ,  3-C ) :   1.3429
B(  2-C , 10-H ) :   0.9740 B(  3-C ,  4-C ) :   1.4259 B(  3-C ,  6-C ) :   0.9436
B(  3-C ,  7-O ) :  -0.1202 B(  4-C ,  5-C ) :   1.4013 B(  4-C , 11-H ) :   0.9592
B(  5-C , 12-H ) :   0.9768 B(  6-C ,  7-O ) :   1.1073 B(  6-C , 13-H ) :   0.9728
B(  6-C , 14-H ) :   0.9741 B(  7-O , 15-H ) :   0.9047

FINAL SINGLE POINT ENERGY      -346.791390310912

DIPOLE MOMENT
-------------

Method             : SCF
Type of density    : Electron Density
Multiplicity       :   1
Irrep              :   0
Energy             :  -346.8001084842121031 Eh
Relativity type    :
Basis              : AO
                                X                 Y                 Z
Electronic contribution:     -0.540164126      -0.920967371       0.214226871
Nuclear contribution   :      1.031277429       1.395513186      -0.330366556
                        -----------------------------------------
Total Dipole Moment    :      0.491113303       0.474545815      -0.116139685
                        -----------------------------------------
Magnitude (a.u.)       :      0.692729698
Magnitude (Debye)      :      1.760778960

Rotational constants in cm-1:             0.164982             0.049555             0.038385
Rotational constants in MHz :          4946.029611          1485.608788          1150.741377

                             ****ORCA TERMINATED NORMALLY****
TOTAL RUN TIME: 0 days 0 hours 2 minutes 12 seconds 773 msec
