                         Program Version 6.0.0  -   RELEASE  -
|  1> ! wb97x-v def2-tzvp def2/J RIJCOSX DEFGRID2 scfconv7 GCP(DFT/TZ) printgap
|  2> %output
|  3>     printlevel normal
|  4> end
|  5> %cpcm
|  6>     smd true
|  7>     smdsolvent "water"
|  8> end
|  9> * xyz 0 1
| 10> C -2.316036245962802 0.09532654191318693 0.0407826059386561
| 11> C -1.6611156706144041 1.3038136248546002 -0.19887720292279307
| 12> C -0.2728337929694913 1.348030339028352 -0.24394935373230506
| 13> C 0.485670401778531 0.18767060094662083 -0.051721607167763736
| 14> C -0.17338868759157244 -1.0177805206544792 0.1878670602204746
| 15> C -1.5676994294071969 -1.0611018772138516 0.23366474995398168
| 16> C 1.9846766524282398 0.2930977364299187 -0.11772116217229835
| 17> O 2.5895332331954393 -0.9787511050903845 0.13953288613265477
| 18> H -3.4002372288950737 0.05898493016861638 0.07679064534766543
| 19> H -2.2343203614059393 2.2133620395033593 -0.350119025091504
| 20> H 0.2331283248692121 2.2921338843469323 -0.4306114106138338
| 21> H 0.39610448140557525 -1.9272519212984527 0.34035168743669003
| 22> H -2.0673832615296908 -2.006690224950698 0.4214974147632566
| 23> H 2.276201693526188 0.6604228917549678 -1.1129603924024205
| 24> H 2.326813730016374 1.0359804022615282 0.6176490960527483
| 25> H 3.5448806342433903 -0.8515001035817554 0.08900215821130286
| 26> *
| 27>
| 28>                          ****END OF INPUT****

CARTESIAN COORDINATES (ANGSTROEM)
---------------------------------
  C     -2.316036    0.095327    0.040783
  C     -1.661116    1.303814   -0.198877
  C     -0.272834    1.348030   -0.243949
  C      0.485670    0.187671   -0.051722
  C     -0.173389   -1.017781    0.187867
  C     -1.567699   -1.061102    0.233665
  C      1.984677    0.293098   -0.117721
  O      2.589533   -0.978751    0.139533
  H     -3.400237    0.058985    0.076791
  H     -2.234320    2.213362   -0.350119
  H      0.233128    2.292134   -0.430611
  H      0.396104   -1.927252    0.340352
  H     -2.067383   -2.006690    0.421497
  H      2.276202    0.660423   -1.112960
  H      2.326814    1.035980    0.617649
  H      3.544881   -0.851500    0.089002

 Total Charge           Charge          ....    0
 Multiplicity           Mult            ....    1
 Number of Electrons    NEL             ....   58
 Basis Dimension        Dim             ....  296

ORBITAL ENERGIES
----------------

  NO   OCC          E(Eh)            E(eV)
   0   2.0000     -21.676906      -589.8586
   1   2.0000     -12.094203      -329.1000
   2   2.0000     -12.059971      -328.1685
   3   2.0000     -12.050046      -327.8984
   4   2.0000     -12.049500      -327.8836
   5   2.0000     -12.047309      -327.8240
   6   2.0000     -12.046363      -327.7982
   7   2.0000     -12.045473      -327.7740
   8   2.0000      -1.678294       -45.6687
   9   2.0000      -1.384739       -37.6807
  10   2.0000      -1.295614       -35.2554
  11   2.0000      -1.270894       -34.5828
  12   2.0000      -1.203534       -32.7498
  13   2.0000      -1.107278       -30.1306
  14   2.0000      -1.090971       -29.6868
  15   2.0000      -1.039011       -28.2729
  16   2.0000      -0.980730       -26.6870
  17   2.0000      -0.948350       -25.8059
  18   2.0000      -0.943394       -25.6711
  19   2.0000      -0.937745       -25.5173
  20   2.0000      -0.900818       -24.5125
  21   2.0000      -0.869726       -23.6665
  22   2.0000      -0.858635       -23.3647
  23   2.0000      -0.815781       -22.1985
  24   2.0000      -0.810539       -22.0559
  25   2.0000      -0.801406       -21.8074
  26   2.0000      -0.760999       -20.7078
  27   2.0000      -0.638189       -17.3660
  28   2.0000      -0.633692       -17.2436
  29   0.0000      -0.238374        -6.4865
  30   0.0000      -0.235736        -6.4147
  31   0.0000      -0.146888        -3.9970
  32   0.0000      -0.068393        -1.8611
  33   0.0000      -0.039401        -1.0721

MULLIKEN ATOMIC CHARGES
-----------------------
   0 C :   -0.190208
   1 C :   -0.140062
   2 C :   -0.264639
   3 C :    0.180275
   4 C :   -0.263008
   5 C :   -0.148496
   6 C :   -0.055669
   7 O :   -0.537683
   8 H :    0.160411
   9 H :    0.160698
  10 H :    0.159607
  11 H :    0.158087
  12 H :    0.160023
  13 H :    0.128218
  14 H :    0.129159
  15 H :    0.363287
Sum of atomic charges:    0.0000000

LOEWDIN ATOMIC CHARGES
----------------------
   0 C :   -0.157464
   1 C :   -0.148964
   2 C :   -0.118295
   3 C :   -0.156913
   4 C :   -0.128701
   5 C :   -0.149058
   6 C :   -0.278940
   7 O :   -0.078453
   8 H :    0.149566
   9 H :    0.150957
  10 H :    0.155723
  11 H :    0.149724
  12 H :    0.150652
  13 H :    0.133909
  14 H :    0.133924
  15 H :    0.192334

  Mayer bond orders larger than 0.100000
B(  0-C ,  1-C ) :   1.3839 B(  0-C ,  5-C ) :   1.4217 B(  0-C ,  8-H ) :   0.9754
B(  1-C ,  2-C ) :   1.4417 B(  1-C ,  9-H ) :   0.9773 B(  2-C ,  3-C ) :   1.3377
B(  2-C , 10-H ) :   0.9796 B(  3-C ,  4-C ) :   1.3621 B(  3-C ,  6-C ) :   0.9466
B(  3-C ,  7-O ) :  -0.1284 B(  4-C ,  5-C ) :   1.4039 B(  4-C , 11-H ) :   0.9684
B(  5-C , 12-H ) :   0.9777 B(  6-C ,  7-O ) :   1.0721 B(  6-C , 13-H ) :   0.9743
B(  6-C , 14-H ) :   0.9752 B(  7-O , 15-H ) :   0.8666

FINAL SINGLE POINT ENERGY      -346.801581596061

DIPOLE MOMENT
-------------

Method             : SCF
Type of density    : Electron Density
Multiplicity       :   1
Irrep              :   0
Energy             :  -346.8102997693606540 Eh
Relativity type    :
Basis              : AO
                                X                 Y                 Z
Electronic contribution:     -0.395324981      -0.610570458       0.144809773
Nuclear contribution   :      1.031277429       1.395513186      -0.330366556
                        -----------------------------------------
Total Dipole Moment    :      0.635952448       0.784942727      -0.185556784
                        -----------------------------------------
Magnitude (a.u.)       :      1.027132865
Magnitude (Debye)      :      2.610764261

Rotational constants in cm-1:             0.164982             0.049555             0.038385
Rotational constants in MHz :          4946.029611          1485.608788          1150.741377

                             ****ORCA TERMINATED NORMALLY****
TOTAL RUN TIME: 0 days 0 hours 2 minutes 16 seconds 386 msec
