                         Program Version 6.0.0  -   RELEASE  -
|  1> ! r2scan-3c def2/J RI DEFGRID2 scfconv6 printgap
|  2> %output
|  3>     printlevel normal
|  4> end
|  5> * xyz 0 1
|  6> C -1.4773761728 -1.4057696628 0.3665423608
|  7> C -1.0426980448 -1.90007e-05 1.77316e-05
|  8> C -1.4772673443 1.0203418262 1.0341450466
|  9> C -1.4773924844 0.3854745297 -1.400638122
| 10> Br 1.0038017672 -8.1529e-06 -1.17706e-05
| 11> H -1.1076030216 -1.6826113869 1.3514302506
| 12> H -2.5644460873 -1.4511087654 0.3781856388
| 13> H -1.1073700187 -2.128286544 -0.3576492228
| 14> H -1.1069122867 0.7546868019 2.0218912526
| 15> H -1.1077115418 2.0117088636 0.7811679977
| 16> H -2.5643310664 1.0529496443 1.0678934848
| 17> H -2.5644674332 0.3984528981 -1.4456122703
| 18> H -1.1079514482 -0.3292200299 -2.1328188779
| 19> H -1.1070713408 1.3737448468 -1.6643537361
| 20> *
| 21>
| 22>                          ****END OF INPUT****

CARTESIAN COORDINATES (ANGSTROEM)
---------------------------------
  C     -1.477376   -1.405770    0.366542
  C     -1.042698   -0.000019    0.000018
  C     -1.477267    1.020342    1.034145
  C     -1.477392    0.385475   -1.400638
  Br     1.003802   -0.000008   -0.000012
  H     -1.107603   -1.682611    1.351430
  H     -2.564446   -1.451109    0.378186
  H     -1.107370   -2.128287   -0.357649
  H     -1.106912    0.754687    2.021891
  H     -1.107712    2.011709    0.781168
  H     -2.564331    1.052950    1.067893
  H     -2.564467    0.398453   -1.445612
  H     -1.107951   -0.329220   -2.132819
  H     -1.107071    1.373745   -1.664354

 Total Charge           Charge          ....    0
 Multiplicity           Mult            ....    1
 Number of Electrons    NEL             ....   68
 Basis Dimension        Dim             ....  157

ORBITAL ENERGIES
----------------

  NO   OCC          E(Eh)            E(eV)
   0   2.0000    -482.201145    -13121.3602
   1   2.0000     -62.273062     -1694.5362
   2   2.0000     -56.053332     -1525.2887
   3   2.0000     -56.050922     -1525.2231
   4   2.0000     -56.050922     -1525.2231
   5   2.0000     -10.110462      -275.1197
   6   2.0000     -10.035536      -273.0808
   7   2.0000     -10.035531      -273.0807
   8   2.0000     -10.035523      -273.0805
   9   2.0000      -8.604792      -234.1483
  10   2.0000      -6.411518      -174.4663
  11   2.0000      -6.398960      -174.1245
  12   2.0000      -6.398959      -174.1245
  13   2.0000      -2.509191       -68.2786
  14   2.0000      -2.506133       -68.1954
  15   2.0000      -2.506133       -68.1953
  16   2.0000      -2.496818       -67.9419
  17   2.0000      -2.496812       -67.9417
  18   2.0000      -0.812288       -22.1035
  19   2.0000      -0.697113       -18.9694
  20   2.0000      -0.673894       -18.3376
  21   2.0000      -0.673887       -18.3374
  22   2.0000      -0.521973       -14.2036
  23   2.0000      -0.441785       -12.0216
  24   2.0000      -0.427004       -11.6194
  25   2.0000      -0.426996       -11.6192
  26   2.0000      -0.377214       -10.2645
  27   2.0000      -0.377210       -10.2644
  28   2.0000      -0.349399        -9.5076
  29   2.0000      -0.327096        -8.9007
  30   2.0000      -0.327089        -8.9005
  31   2.0000      -0.304819        -8.2946
  32   2.0000      -0.244518        -6.6537
  33   2.0000      -0.244517        -6.6537
  34   0.0000      -0.038690        -1.0528
  35   0.0000       0.076851         2.0912
  36   0.0000       0.125102         3.4042
  37   0.0000       0.126695         3.4476
  38   0.0000       0.126697         3.4476

MULLIKEN ATOMIC CHARGES
-----------------------
   0 C :   -0.443311
   1 C :    0.124507
   2 C :   -0.443261
   3 C :   -0.443308
   4 Br:   -0.226426
   5 H :    0.165020
   6 H :    0.147235
   7 H :    0.165040
   8 H :    0.165039
   9 H :    0.164998
  10 H :    0.147182
  11 H :    0.147233
  12 H :    0.165008
  13 H :    0.165045
Sum of atomic charges:   -0.0000000

LOEWDIN ATOMIC CHARGES
----------------------
   0 C :   -0.421652
   1 C :   -0.257058
   2 C :   -0.421657
   3 C :   -0.421654
   4 Br:    0.052520
   5 H :    0.164473
   6 H :    0.160895
   7 H :    0.164473
   8 H :    0.164472
   9 H :    0.164469
  10 H :    0.160884
  11 H :    0.160895
  12 H :    0.164467
  13 H :    0.164473

  Mayer bond orders larger than 0.100000
B(  0-C ,  1-C ) :   0.9309 B(  0-C ,  5-H ) :   0.9676 B(  0-C ,  6-H ) :   0.9579
B(  0-C ,  7-H ) :   0.9676 B(  1-C ,  2-C ) :   0.9307 B(  1-C ,  3-C ) :   0.9309
B(  1-C ,  4-Br) :   0.9406 B(  2-C ,  8-H ) :   0.9676 B(  2-C ,  9-H ) :   0.9676
B(  2-C , 10-H ) :   0.9579 B(  3-C , 11-H ) :   0.9579 B(  3-C , 12-H ) :   0.9676
B(  3-C , 13-H ) :   0.9676

Dispersion correction           -0.003687894
FINAL SINGLE POINT ENERGY     -2731.941151380360

DIPOLE MOMENT
-------------

Method             : SCF
Type of density    : Electron Density
Multiplicity       :   1
Irrep              :   0
Energy             : -2731.9444478046370932 Eh
Relativity type    :
Basis              : AO
                                X                 Y                 Z
Electronic contribution:     21.694300799      -0.000339108      -0.000185234
Nuclear contribution   :    -22.771785758       0.000372472       0.000235492
                        -----------------------------------------
Total Dipole Moment    :     -1.077484959       0.000033364       0.000050257
                        -----------------------------------------
Magnitude (a.u.)       :      1.077484960
Magnitude (Debye)      :      2.738749117

Rotational constants in cm-1:             0.151849             0.066103             0.066102
Rotational constants in MHz :          4552.326413          1981.721665          1981.685315

                             ****ORCA TERMINATED NORMALLY****
TOTAL RUN TIME: 0 days 0 hours 0 minutes 16 seconds 574 msec
