                         Program Version 6.0.0  -   RELEASE  -
|  1> ! r2scan-3c def2/J RI DEFGRID2 scfconv6 printgap
|  2> %output
|  3>     printlevel normal
|  4> end
|  5> %cpcm
|  6>     smd true
|  7>     smdsolvent "water"
|  8> end
|  9> * xyz 0 1
| 10> C -1.4773761728 -1.4057696628 0.3665423608
| 11> C -1.0426980448 -1.90007e-05 1.77316e-05
| 12> C -1.4772673443 1.0203418262 1.0341450466
| 13> C -1.4773924844 0.3854745297 -1.400638122
| 14> Br 1.0038017672 -8.1529e-06 -1.17706e-05
| 15> H -1.1076030216 -1.6826113869 1.3514302506
| 16> H -2.5644460873 -1.4511087654 0.3781856388
| 17> H -1.1073700187 -2.128286544 -0.3576492228
| 18> H -1.1069122867 0.7546868019 2.0218912526
| 19> H -1.1077115418 2.0117088636 0.7811679977
| 20> H -2.5643310664 1.0529496443 1.0678934848
| 21> H -2.5644674332 0.3984528981 -1.4456122703
| 22> H -1.1079514482 -0.3292200299 -2.1328188779
| 23> H -1.1070713408 1.3737448468 -1.6643537361
| 24> *
| 25>
| 26>                          ****END OF INPUT****

CARTESIAN COORDINATES (ANGSTROEM)
---------------------------------
  C     -1.477376   -1.405770    0.366542
  C     -1.042698   -0.000019    0.000018
  C     -1.477267    1.020342    1.034145
  C     -1.477392    0.385475   -1.400638
  Br     1.003802   -0.000008   -0.000012
  H     -1.107603   -1.682611    1.351430
  H     -2.564446   -1.451109    0.378186
  H     -1.107370   -2.128287   -0.357649
  H     -1.106912    0.754687    2.021891
  H     -1.107712    2.011709    0.781168
  H     -2.564331    1.052950    1.067893
  H     -2.564467    0.398453   -1.445612
  H     -1.107951   -0.329220   -2.132819
  H     -1.107071    1.373745   -1.664354

 Total Charge           Charge          ....    0
 Multiplicity           Mult            ....    1
 Number of Electrons    NEL             ....   68
 Basis Dimension        Dim             ....  157

ORBITAL ENERGIES
----------------

  NO   OCC          E(Eh)            E(eV)
   0   2.0000    -482.198030    -13121.2755
   1   2.0000     -62.270072     -1694.4548
   2   2.0000     -56.050246     -1525.2047
   3   2.0000     -56.047977     -1525.1430
   4   2.0000     -56.047977     -1525.1430
   5   2.0000     -10.100096      -274.8376
   6   2.0000     -10.019924      -272.6560
   7   2.0000     -10.019872      -272.6546
   8   2.0000     -10.019865      -272.6544
   9   2.0000      -8.601901      -234.0696
  10   2.0000      -6.408132      -174.3741
  11   2.0000      -6.396329      -174.0530
  12   2.0000      -6.396328      -174.0529
  13   2.0000      -2.505965       -68.1908
  14   2.0000      -2.503082       -68.1123
  15   2.0000      -2.503082       -68.1123
  16   2.0000      -2.494310       -67.8736
  17   2.0000      -2.494304       -67.8735
  18   2.0000      -0.800286       -21.7769
  19   2.0000      -0.691965       -18.8293
  20   2.0000      -0.658948       -17.9309
  21   2.0000      -0.658914       -17.9300
  22   2.0000      -0.508734       -13.8434
  23   2.0000      -0.428152       -11.6506
  24   2.0000      -0.412503       -11.2248
  25   2.0000      -0.412478       -11.2241
  26   2.0000      -0.361122        -9.8266
  27   2.0000      -0.361091        -9.8258
  28   2.0000      -0.334094        -9.0912
  29   2.0000      -0.312877        -8.5138
  30   2.0000      -0.312867        -8.5136
  31   2.0000      -0.295942        -8.0530
  32   2.0000      -0.242698        -6.6041
  33   2.0000      -0.242695        -6.6041
  34   0.0000      -0.032158        -0.8751
  35   0.0000       0.093895         2.5550
  36   0.0000       0.138077         3.7573
  37   0.0000       0.141052         3.8382
  38   0.0000       0.141055         3.8383

MULLIKEN ATOMIC CHARGES
-----------------------
   0 C :   -0.480506
   1 C :    0.167869
   2 C :   -0.480235
   3 C :   -0.480428
   4 Br:   -0.282714
   5 H :    0.172159
   6 H :    0.174439
   7 H :    0.172214
   8 H :    0.172082
   9 H :    0.171990
  10 H :    0.174387
  11 H :    0.174443
  12 H :    0.172155
  13 H :    0.172145
Sum of atomic charges:   -0.0000000

LOEWDIN ATOMIC CHARGES
----------------------
   0 C :   -0.425764
   1 C :   -0.245022
   2 C :   -0.425771
   3 C :   -0.425758
   4 Br:    0.016104
   5 H :    0.165191
   6 H :    0.171697
   7 H :    0.165227
   8 H :    0.165172
   9 H :    0.165152
  10 H :    0.171684
  11 H :    0.171701
  12 H :    0.165212
  13 H :    0.165177

  Mayer bond orders larger than 0.100000
B(  0-C ,  1-C ) :   0.9288 B(  0-C ,  5-H ) :   0.9654 B(  0-C ,  6-H ) :   0.9525
B(  0-C ,  7-H ) :   0.9654 B(  1-C ,  2-C ) :   0.9289 B(  1-C ,  3-C ) :   0.9288
B(  1-C ,  4-Br) :   0.8771 B(  2-C ,  8-H ) :   0.9655 B(  2-C ,  9-H ) :   0.9655
B(  2-C , 10-H ) :   0.9525 B(  3-C , 11-H ) :   0.9525 B(  3-C , 12-H ) :   0.9655
B(  3-C , 13-H ) :   0.9654

Dispersion correction           -0.003687894
FINAL SINGLE POINT ENERGY     -2731.943052218189

DIPOLE MOMENT
-------------

Method             : SCF
Type of density    : Electron Density
Multiplicity       :   1
Irrep              :   0
Energy             : -2731.9463486424660914 Eh
Relativity type    :
Basis              : AO
                                X                 Y                 Z
Electronic contribution:     21.315643393      -0.001052228      -0.000683765
Nuclear contribution   :    -22.771785758       0.000372472       0.000235492
                        -----------------------------------------
Total Dipole Moment    :     -1.456142365      -0.000679756      -0.000448274
                        -----------------------------------------
Magnitude (a.u.)       :      1.456142592
Magnitude (Debye)      :      3.701220329

Rotational constants in cm-1:             0.151849             0.066103             0.066102
Rotational constants in MHz :          4552.326413          1981.721665          1981.685315

                             ****ORCA TERMINATED NORMALLY****
TOTAL RUN TIME: 0 days 0 hours 0 minutes 20 seconds 110 msec
