                         Program Version 6.0.0  -   RELEASE  -
|  1> ! pbe def2-sv(p) def2/J RI DEFGRID1 loosescf d4 GCP(DFT/SV(P)) printgap
|  2> %output
|  3>     printlevel normal
|  4> end
|  5> * xyz 0 1
|  6> C 1.5720180354 0.5307323082 0.1117975971
|  7> C 0.6191730206 -0.5913550571 -0.2928843402
|  8> O -0.6547424294 -0.5218238083 0.3254953702
|  9> C -1.4736719542 0.5346425958 -0.1310638038
| 10> H 2.5604077467 0.319373033 -0.2842419894
| 11> H 1.2388587071 1.4883898862 -0.2795000832
| 12> H 1.6289866726 0.592826469 1.1955674681
| 13> H 1.0196439279 -1.5554646536 0.028952491
| 14> H 0.4953157482 -0.6050305062 -1.3857155545
| 15> H -1.0862741516 1.5092237527 0.1792218194
| 16> H -2.4494106042 0.3735846421 0.3212575621
| 17> H -1.564605422 0.5117197141 -1.2226252326
| 18> *
| 19>
| 20>                          ****END OF INPUT****

CARTESIAN COORDINATES (ANGSTROEM)
---------------------------------
  C      1.572018    0.530732    0.111798
  C      0.619173   -0.591355   -0.292884
  O     -0.654742   -0.521824    0.325495
  C     -1.473672    0.534643   -0.131064
  H      2.560408    0.319373   -0.284242
  H      1.238859    1.488390   -0.279500
  H      1.628987    0.592826    1.195567
  H      1.019644   -1.555465    0.028952
  H      0.495316   -0.605031   -1.385716
  H     -1.086274    1.509224    0.179222
  H     -2.449411    0.373585    0.321258
  H     -1.564605    0.511720   -1.222625

 Total Charge           Charge          ....    0
 Multiplicity           Mult            ....    1
 Number of Electrons    NEL             ....   34
 Basis Dimension        Dim             ....   72

ORBITAL ENERGIES
----------------

  NO   OCC          E(Eh)            E(eV)
   0   2.0000     -18.745908      -510.1021
   1   2.0000      -9.928274      -270.1621
   2   2.0000      -9.920902      -269.9615
   3   2.0000      -9.876524      -268.7539
   4   2.0000      -0.925093       -25.1731
   5   2.0000      -0.679434       -18.4883
   6   2.0000      -0.613153       -16.6848
   7   2.0000      -0.529346       -14.4042
   8   2.0000      -0.433947       -11.8083
   9   2.0000      -0.429307       -11.6820
  10   2.0000      -0.398120       -10.8334
  11   2.0000      -0.362943        -9.8762
  12   2.0000      -0.352356        -9.5881
  13   2.0000      -0.329991        -8.9795
  14   2.0000      -0.309675        -8.4267
  15   2.0000      -0.255724        -6.9586
  16   2.0000      -0.200668        -5.4605
  17   0.0000       0.038253         1.0409
  18   0.0000       0.075508         2.0547
  19   0.0000       0.077763         2.1160
  20   0.0000       0.096781         2.6336
  21   0.0000       0.108813         2.9610

MULLIKEN ATOMIC CHARGES
-----------------------
   0 C :   -0.309627
   1 C :   -0.009879
   2 O :   -0.342056
   3 C :   -0.107817
   4 H :    0.103323
   5 H :    0.108412
   6 H :    0.111497
   7 H :    0.092531
   8 H :    0.068444
   9 H :    0.090662
  10 H :    0.113699
  11 H :    0.080810
Sum of atomic charges:   -0.0000000

LOEWDIN ATOMIC CHARGES
----------------------
   0 C :   -0.365676
   1 C :   -0.118819
   2 O :   -0.186533
   3 C :   -0.208858
   4 H :    0.126039
   5 H :    0.118381
   6 H :    0.124403
   7 H :    0.111662
   8 H :    0.093126
   9 H :    0.095313
  10 H :    0.115575
  11 H :    0.095387

  Mayer bond orders larger than 0.100000
B(  0-C ,  1-C ) :   1.1374 B(  0-C ,  4-H ) :   0.9425 B(  0-C ,  5-H ) :   0.9498
B(  0-C ,  6-H ) :   0.9479 B(  1-C ,  2-O ) :   1.0383 B(  1-C ,  7-H ) :   0.9398
B(  1-C ,  8-H ) :   0.9222 B(  2-O ,  3-C ) :   1.0251 B(  3-C ,  9-H ) :   0.9409
B(  3-C , 10-H ) :   0.9643 B(  3-C , 11-H ) :   0.9394

Dispersion correction           -0.006370003
FINAL SINGLE POINT ENERGY      -193.870507791907

DIPOLE MOMENT
-------------

Method             : SCF
Type of density    : Electron Density
Multiplicity       :   1
Irrep              :   0
Energy             :  -193.9190099548935393 Eh
Relativity type    :
Basis              : AO
                                X                 Y                 Z
Electronic contribution:     -1.565688942      -2.139414957       1.047933091
Nuclear contribution   :      1.719232810       2.463961494      -1.352768244
                        -----------------------------------------
Total Dipole Moment    :      0.153543868       0.324546537      -0.304835153
                        -----------------------------------------
Magnitude (a.u.)       :      0.470989007
Magnitude (Debye)      :      1.197158915

Rotational constants in cm-1:             0.529545             0.173215             0.149671
Rotational constants in MHz :         15875.365079          5192.854988          4487.018597

                             ****ORCA TERMINATED NORMALLY****
TOTAL RUN TIME: 0 days 0 hours 0 minutes 4 seconds 4 msec
