                         Program Version 6.0.0  -   RELEASE  -
|  1> ! pbe def2-sv(p) def2/J RI DEFGRID1 loosescf d4 GCP(DFT/SV(P)) printgap
|  2> %output
|  3>     printlevel normal
|  4> end
|  5> * xyz 0 1
|  6> C 2.4592365704 -1.1080124613 0.4590616541
|  7> C 1.6972622837 0.0837168178 -0.036707343
|  8> O 2.2611567646 1.0935233314 -0.4272645144
|  9> C 0.214978018 0.0223831453 -0.0063222878
| 10> C -0.5065682055 1.1986525373 0.2080576854
| 11> C -1.8878806661 1.1502777538 0.2292147116
| 12> C -2.5029612222 -0.0775601058 0.0259353894
| 13> N -1.8328882738 -1.1936792054 -0.2168785729
| 14> C -0.513937665 -1.14603815 -0.235247493
| 15> H 2.941063451 -0.8241188429 1.3939590974
| 16> H 3.2513618472 -1.3496667797 -0.2461097525
| 17> H 1.8244676946 -1.9675661726 0.6347934015
| 18> H 0.0325517801 2.1219235555 0.363235783
| 19> H -2.4739169694 2.038041982 0.4010820298
| 20> H -3.5789117258 -0.1782590851 0.0490597041
| 21> H -0.027081664 -2.0811328726 -0.4739608657
| 22> *
| 23>
| 24>                          ****END OF INPUT****

CARTESIAN COORDINATES (ANGSTROEM)
---------------------------------
  C      2.459237   -1.108012    0.459062
  C      1.697262    0.083717   -0.036707
  O      2.261157    1.093523   -0.427265
  C      0.214978    0.022383   -0.006322
  C     -0.506568    1.198653    0.208058
  C     -1.887881    1.150278    0.229215
  C     -2.502961   -0.077560    0.025935
  N     -1.832888   -1.193679   -0.216879
  C     -0.513938   -1.146038   -0.235247
  H      2.941063   -0.824119    1.393959
  H      3.251362   -1.349667   -0.246110
  H      1.824468   -1.967566    0.634793
  H      0.032552    2.121924    0.363236
  H     -2.473917    2.038042    0.401082
  H     -3.578912   -0.178259    0.049060
  H     -0.027082   -2.081133   -0.473961

 Total Charge           Charge          ....    0
 Multiplicity           Mult            ....    1
 Number of Electrons    NEL             ....   64
 Basis Dimension        Dim             ....  140

ORBITAL ENERGIES
----------------

  NO   OCC          E(Eh)            E(eV)
   0   2.0000     -18.747625      -510.1488
   1   2.0000     -13.995070      -380.8252
   2   2.0000      -9.985021      -271.7062
   3   2.0000      -9.940883      -270.5052
   4   2.0000      -9.937989      -270.4264
   5   2.0000      -9.922538      -270.0060
   6   2.0000      -9.919292      -269.9177
   7   2.0000      -9.914511      -269.7875
   8   2.0000      -9.895499      -269.2702
   9   2.0000      -0.943665       -25.6784
  10   2.0000      -0.873488       -23.7688
  11   2.0000      -0.743317       -20.2267
  12   2.0000      -0.713270       -19.4091
  13   2.0000      -0.672785       -18.3074
  14   2.0000      -0.595160       -16.1951
  15   2.0000      -0.576033       -15.6747
  16   2.0000      -0.510978       -13.9044
  17   2.0000      -0.473338       -12.8802
  18   2.0000      -0.455229       -12.3874
  19   2.0000      -0.423764       -11.5312
  20   2.0000      -0.411441       -11.1959
  21   2.0000      -0.407845       -11.0980
  22   2.0000      -0.383352       -10.4315
  23   2.0000      -0.372675       -10.1410
  24   2.0000      -0.365453        -9.9445
  25   2.0000      -0.353207        -9.6112
  26   2.0000      -0.340401        -9.2628
  27   2.0000      -0.320880        -8.7316
  28   2.0000      -0.274490        -7.4693
  29   2.0000      -0.254646        -6.9293
  30   2.0000      -0.222150        -6.0450
  31   2.0000      -0.204374        -5.5613
  32   0.0000      -0.096950        -2.6381
  33   0.0000      -0.065904        -1.7933
  34   0.0000      -0.021615        -0.5882
  35   0.0000       0.042487         1.1561
  36   0.0000       0.054591         1.4855

MULLIKEN ATOMIC CHARGES
-----------------------
   0 C :   -0.254126
   1 C :    0.015805
   2 O :   -0.169945
   3 C :    0.015598
   4 C :   -0.036140
   5 C :   -0.062455
   6 C :   -0.050067
   7 N :   -0.052062
   8 C :   -0.092707
   9 H :    0.137858
  10 H :    0.130103
  11 H :    0.119590
  12 H :    0.075881
  13 H :    0.070615
  14 H :    0.078414
  15 H :    0.073638
Sum of atomic charges:   -0.0000000

LOEWDIN ATOMIC CHARGES
----------------------
   0 C :   -0.359800
   1 C :    0.048888
   2 O :   -0.130793
   3 C :   -0.090189
   4 C :   -0.064634
   5 C :   -0.136658
   6 C :   -0.066263
   7 N :   -0.069546
   8 C :   -0.067675
   9 H :    0.154721
  10 H :    0.147117
  11 H :    0.128999
  12 H :    0.136797
  13 H :    0.132702
  14 H :    0.118539
  15 H :    0.117796

  Mayer bond orders larger than 0.100000
B(  0-C ,  1-C ) :   1.0838 B(  0-C ,  9-H ) :   0.9184 B(  0-C , 10-H ) :   0.9230
B(  0-C , 11-H ) :   0.9288 B(  1-C ,  2-O ) :   2.1516 B(  1-C ,  3-C ) :   0.9276
B(  3-C ,  4-C ) :   1.4032 B(  3-C ,  8-C ) :   1.3271 B(  4-C ,  5-C ) :   1.4030
B(  4-C , 12-H ) :   0.9543 B(  5-C ,  6-C ) :   1.3588 B(  5-C , 13-H ) :   0.9501
B(  6-C ,  7-N ) :   1.5430 B(  6-C , 14-H ) :   0.9529 B(  7-N ,  8-C ) :   1.5606
B(  8-C , 15-H ) :   0.9475

Dispersion correction           -0.016366335
FINAL SINGLE POINT ENERGY      -400.081952322206

DIPOLE MOMENT
-------------

Method             : SCF
Type of density    : Electron Density
Multiplicity       :   1
Irrep              :   0
Energy             :  -400.1272288550979965 Eh
Relativity type    :
Basis              : AO
                                X                 Y                 Z
Electronic contribution:     -2.080019050       1.994689747      -1.498601144
Nuclear contribution   :      1.871206538      -2.092597220       1.983330869
                        -----------------------------------------
Total Dipole Moment    :     -0.208812511      -0.097907473       0.484729725
                        -----------------------------------------
Magnitude (a.u.)       :      0.536797396
Magnitude (Debye)      :      1.364430548

Rotational constants in cm-1:             0.126399             0.040751             0.032095
Rotational constants in MHz :          3789.348323          1221.679398           962.181005

                             ****ORCA TERMINATED NORMALLY****
TOTAL RUN TIME: 0 days 0 hours 0 minutes 8 seconds 899 msec
