                         Program Version 6.0.0  -   RELEASE  -
|  1> ! wb97x-v def2-tzvp def2/J RIJCOSX DEFGRID2 scfconv7 GCP(DFT/TZ) printgap
|  2> %output
|  3>     printlevel normal
|  4> end
|  5> * xyz 0 1
|  6> C 3.6946481301466934 0.3563710638498387 0.08866928288060509
|  7> C 2.224964084200264 0.32166103455329775 -0.31992764290442777
|  8> H 2.1626850751124334 0.43519354132586074 -1.4128390544118092
|  9> C 1.435118673714892 1.4679954259538959 0.3159953886293541
| 10> C -0.04824828135825268 1.4064219462534606 -0.048979966080939685
| 11> C -0.6728311306788115 0.06530064590618047 0.3638192888376898
| 12> H -0.5133402863732534 -0.057299921291381034 1.4472376259087776
| 13> C 0.10749250903239585 -1.064531245939661 -0.3210636984527787
| 14> H 0.015839254434834225 -0.9565873844633637 -1.413201225920024
| 15> C 1.581515259597762 -1.0172485888472675 0.051999223273109636
| 16> O -0.37385874109576434 -2.375571258434561 0.05857804980791665
| 17> C -2.198300511316245 -0.01356390278534148 0.12847943362992797
| 18> C -2.9509587742727894 1.0166051629944999 0.974958977630918
| 19> C -2.603013828591964 0.11395868844377992 -1.342276030111537
| 20> H 4.160774494773373 1.3064310363579055 -0.1946659370569407
| 21> H 3.794192900813954 0.243187851713439 1.1750147840745415
| 22> H 4.259717418972916 -0.4528590166446201 -0.3868481821048963
| 23> H 1.5447343201859618 1.408765674136133 1.4089035826307392
| 24> H 1.861270267945821 2.4294828990490904 0.003552909027292713
| 25> H -0.5831742380102759 2.2324009235158213 0.43134316220083424
| 26> H -0.1565753232260656 1.543848809907416 -1.1333137100451671
| 27> H 1.6747057857374503 -1.1743601963523074 1.1367687215531113
| 28> H 2.1079335076257033 -1.8406911593233066 -0.446191052748086
| 29> H -1.2610855513420336 -2.48126083200714 -0.30763215759434837
| 30> H -2.522115937615232 -1.0031965675326833 0.48083875955488975
| 31> H -2.7908420106974408 2.0352507053229183 0.6052870207241023
| 32> H -2.631308159704065 0.9821545584325623 2.022710029792786
| 33> H -4.028622004522012 0.8229426104999971 0.9446669214924172
| 34> H -2.3376174653188397 1.0986063748667425 -1.7425205034501414
| 35> H -3.687231808077687 -0.0026131606307573385 -1.4464879141801605
| 36> H -2.1281271291068773 -0.6461554715192139 -1.9716682033780397
| 37> *
| 38>
| 39>                          ****END OF INPUT****

CARTESIAN COORDINATES (ANGSTROEM)
---------------------------------
  C      3.694648    0.356371    0.088669
  C      2.224964    0.321661   -0.319928
  H      2.162685    0.435194   -1.412839
  C      1.435119    1.467995    0.315995
  C     -0.048248    1.406422   -0.048980
  C     -0.672831    0.065301    0.363819
  H     -0.513340   -0.057300    1.447238
  C      0.107493   -1.064531   -0.321064
  H      0.015839   -0.956587   -1.413201
  C      1.581515   -1.017249    0.051999
  O     -0.373859   -2.375571    0.058578
  C     -2.198301   -0.013564    0.128479
  C     -2.950959    1.016605    0.974959
  C     -2.603014    0.113959   -1.342276
  H      4.160774    1.306431   -0.194666
  H      3.794193    0.243188    1.175015
  H      4.259717   -0.452859   -0.386848
  H      1.544734    1.408766    1.408904
  H      1.861270    2.429483    0.003553
  H     -0.583174    2.232401    0.431343
  H     -0.156575    1.543849   -1.133314
  H      1.674706   -1.174360    1.136769
  H      2.107934   -1.840691   -0.446191
  H     -1.261086   -2.481261   -0.307632
  H     -2.522116   -1.003197    0.480839
  H     -2.790842    2.035251    0.605287
  H     -2.631308    0.982155    2.022710
  H     -4.028622    0.822943    0.944667
  H     -2.337617    1.098606   -1.742521
  H     -3.687232   -0.002613   -1.446488
  H     -2.128127   -0.646155   -1.971668

 Total Charge           Charge          ....    0
 Multiplicity           Mult            ....    1
 Number of Electrons    NEL             ....   88
 Basis Dimension        Dim             ....  461

ORBITAL ENERGIES
----------------

  NO   OCC          E(Eh)            E(eV)
   0   2.0000     -21.664636      -589.5247
   1   2.0000     -12.089628      -328.9755
   2   2.0000     -12.052067      -327.9534
   3   2.0000     -12.045947      -327.7869
   4   2.0000     -12.043383      -327.7171
   5   2.0000     -12.039805      -327.6197
   6   2.0000     -12.037840      -327.5663
   7   2.0000     -12.037619      -327.5603
   8   2.0000     -12.034808      -327.4838
   9   2.0000     -12.032952      -327.4333
  10   2.0000     -12.031475      -327.3931
  11   2.0000      -1.662461       -45.2379
  12   2.0000      -1.353396       -36.8278
  13   2.0000      -1.311579       -35.6899
  14   2.0000      -1.256685       -34.1961
  15   2.0000      -1.250738       -34.0343
  16   2.0000      -1.179114       -32.0853
  17   2.0000      -1.173824       -31.9414
  18   2.0000      -1.114213       -30.3193
  19   2.0000      -1.100642       -29.9500
  20   2.0000      -1.043965       -28.4077
  21   2.0000      -1.019343       -27.7377
  22   2.0000      -1.006655       -27.3925
  23   2.0000      -0.942234       -25.6395
  24   2.0000      -0.928539       -25.2668
  25   2.0000      -0.896847       -24.4045
  26   2.0000      -0.895690       -24.3730
  27   2.0000      -0.878729       -23.9114
  28   2.0000      -0.868331       -23.6285
  29   2.0000      -0.857091       -23.3226
  30   2.0000      -0.853402       -23.2222
  31   2.0000      -0.838194       -22.8084
  32   2.0000      -0.829807       -22.5802
  33   2.0000      -0.814579       -22.1658
  34   2.0000      -0.808026       -21.9875
  35   2.0000      -0.799082       -21.7441
  36   2.0000      -0.795114       -21.6362
  37   2.0000      -0.786231       -21.3944
  38   2.0000      -0.777919       -21.1683
  39   2.0000      -0.771429       -20.9916
  40   2.0000      -0.756297       -20.5799
  41   2.0000      -0.750290       -20.4164
  42   2.0000      -0.746659       -20.3176
  43   2.0000      -0.730559       -19.8795
  44   0.0000      -0.155681        -4.2363
  45   0.0000      -0.067295        -1.8312
  46   0.0000      -0.052419        -1.4264
  47   0.0000      -0.043835        -1.1928
  48   0.0000      -0.033869        -0.9216

MULLIKEN ATOMIC CHARGES
-----------------------
   0 C :   -0.341657
   1 C :   -0.031714
   2 H :    0.063348
   3 C :   -0.193641
   4 C :   -0.244657
   5 C :   -0.003496
   6 H :    0.070031
   7 C :    0.041135
   8 H :    0.083570
   9 C :   -0.206711
  10 O :   -0.434550
  11 C :   -0.028533
  12 C :   -0.385719
  13 C :   -0.379729
  14 H :    0.110914
  15 H :    0.105199
  16 H :    0.113090
  17 H :    0.088975
  18 H :    0.100687
  19 H :    0.107871
  20 H :    0.099234
  21 H :    0.096512
  22 H :    0.106054
  23 H :    0.298766
  24 H :    0.072478
  25 H :    0.111594
  26 H :    0.116758
  27 H :    0.116260
  28 H :    0.116287
  29 H :    0.117998
  30 H :    0.113645
Sum of atomic charges:    0.0000000

LOEWDIN ATOMIC CHARGES
----------------------
   0 C :   -0.279629
   1 C :   -0.281627
   2 H :    0.147644
   3 C :   -0.233674
   4 C :   -0.225886
   5 C :   -0.220536
   6 H :    0.157786
   7 C :   -0.305706
   8 H :    0.133859
   9 C :   -0.210067
  10 O :   -0.027572
  11 C :   -0.291039
  12 C :   -0.279648
  13 C :   -0.282053
  14 H :    0.117760
  15 H :    0.119434
  16 H :    0.118670
  17 H :    0.137230
  18 H :    0.133562
  19 H :    0.135863
  20 H :    0.136719
  21 H :    0.142366
  22 H :    0.139210
  23 H :    0.161130
  24 H :    0.144773
  25 H :    0.117078
  26 H :    0.120151
  27 H :    0.118493
  28 H :    0.119864
  29 H :    0.120561
  30 H :    0.115283

  Mayer bond orders larger than 0.100000
B(  0-C ,  1-C ) :   0.9732 B(  0-C , 14-H ) :   0.9870 B(  0-C , 15-H ) :   0.9748
B(  0-C , 16-H ) :   0.9864 B(  1-C ,  2-H ) :   0.9709 B(  1-C ,  3-C ) :   0.9792
B(  1-C ,  9-C ) :   0.9772 B(  3-C ,  4-C ) :   1.0101 B(  3-C , 17-H ) :   0.9660
B(  3-C , 18-H ) :   0.9746 B(  4-C ,  5-C ) :   0.9419 B(  4-C , 19-H ) :   0.9732
B(  4-C , 20-H ) :   0.9661 B(  5-C ,  6-H ) :   0.9584 B(  5-C ,  7-C ) :   0.9447
B(  5-C , 11-C ) :   0.9229 B(  7-C ,  8-H ) :   0.9940 B(  7-C ,  9-C ) :   0.9856
B(  7-C , 10-O ) :   1.0815 B(  9-C , 21-H ) :   0.9658 B(  9-C , 22-H ) :   0.9722
B( 10-O , 23-H ) :   0.9046 B( 11-C , 12-C ) :   0.9769 B( 11-C , 13-C ) :   0.9484
B( 11-C , 24-H ) :   0.9834 B( 12-C , 25-H ) :   0.9802 B( 12-C , 26-H ) :   0.9836
B( 12-C , 27-H ) :   0.9846 B( 13-C , 28-H ) :   0.9764 B( 13-C , 29-H ) :   0.9835
B( 13-C , 30-H ) :   0.9809

FINAL SINGLE POINT ENERGY      -468.378066281657

DIPOLE MOMENT
-------------

Method             : SCF
Type of density    : Electron Density
Multiplicity       :   1
Irrep              :   0
Energy             :  -468.4009978810572647 Eh
Relativity type    :
Basis              : AO
                                X                 Y                 Z
Electronic contribution:      0.663184694      -5.035915021       0.303067955
Nuclear contribution   :     -0.974608980       5.542498216      -0.608261822
                        -----------------------------------------
Total Dipole Moment    :     -0.311424286       0.506583195      -0.305193867
                        -----------------------------------------
Magnitude (a.u.)       :      0.668397274
Magnitude (Debye)      :      1.698930855

Rotational constants in cm-1:             0.059044             0.023242             0.019070
Rotational constants in MHz :          1770.084849           696.766477           571.715783

                             ****ORCA TERMINATED NORMALLY****
TOTAL RUN TIME: 0 days 0 hours 5 minutes 53 seconds 305 msec
