                         Program Version 6.0.0  -   RELEASE  -
|  1> ! wb97x-v def2-tzvp def2/J RIJCOSX DEFGRID2 scfconv7 GCP(DFT/TZ) printgap
|  2> %output
|  3>     printlevel normal
|  4> end
|  5> %cpcm
|  6>     smd true
|  7>     smdsolvent "water"
|  8> end
|  9> * xyz 0 1
| 10> C 3.6946481301466934 0.3563710638498387 0.08866928288060509
| 11> C 2.224964084200264 0.32166103455329775 -0.31992764290442777
| 12> H 2.1626850751124334 0.43519354132586074 -1.4128390544118092
| 13> C 1.435118673714892 1.4679954259538959 0.3159953886293541
| 14> C -0.04824828135825268 1.4064219462534606 -0.048979966080939685
| 15> C -0.6728311306788115 0.06530064590618047 0.3638192888376898
| 16> H -0.5133402863732534 -0.057299921291381034 1.4472376259087776
| 17> C 0.10749250903239585 -1.064531245939661 -0.3210636984527787
| 18> H 0.015839254434834225 -0.9565873844633637 -1.413201225920024
| 19> C 1.581515259597762 -1.0172485888472675 0.051999223273109636
| 20> O -0.37385874109576434 -2.375571258434561 0.05857804980791665
| 21> C -2.198300511316245 -0.01356390278534148 0.12847943362992797
| 22> C -2.9509587742727894 1.0166051629944999 0.974958977630918
| 23> C -2.603013828591964 0.11395868844377992 -1.342276030111537
| 24> H 4.160774494773373 1.3064310363579055 -0.1946659370569407
| 25> H 3.794192900813954 0.243187851713439 1.1750147840745415
| 26> H 4.259717418972916 -0.4528590166446201 -0.3868481821048963
| 27> H 1.5447343201859618 1.408765674136133 1.4089035826307392
| 28> H 1.861270267945821 2.4294828990490904 0.003552909027292713
| 29> H -0.5831742380102759 2.2324009235158213 0.43134316220083424
| 30> H -0.1565753232260656 1.543848809907416 -1.1333137100451671
| 31> H 1.6747057857374503 -1.1743601963523074 1.1367687215531113
| 32> H 2.1079335076257033 -1.8406911593233066 -0.446191052748086
| 33> H -1.2610855513420336 -2.48126083200714 -0.30763215759434837
| 34> H -2.522115937615232 -1.0031965675326833 0.48083875955488975
| 35> H -2.7908420106974408 2.0352507053229183 0.6052870207241023
| 36> H -2.631308159704065 0.9821545584325623 2.022710029792786
| 37> H -4.028622004522012 0.8229426104999971 0.9446669214924172
| 38> H -2.3376174653188397 1.0986063748667425 -1.7425205034501414
| 39> H -3.687231808077687 -0.0026131606307573385 -1.4464879141801605
| 40> H -2.1281271291068773 -0.6461554715192139 -1.9716682033780397
| 41> *
| 42>
| 43>                          ****END OF INPUT****

CARTESIAN COORDINATES (ANGSTROEM)
---------------------------------
  C      3.694648    0.356371    0.088669
  C      2.224964    0.321661   -0.319928
  H      2.162685    0.435194   -1.412839
  C      1.435119    1.467995    0.315995
  C     -0.048248    1.406422   -0.048980
  C     -0.672831    0.065301    0.363819
  H     -0.513340   -0.057300    1.447238
  C      0.107493   -1.064531   -0.321064
  H      0.015839   -0.956587   -1.413201
  C      1.581515   -1.017249    0.051999
  O     -0.373859   -2.375571    0.058578
  C     -2.198301   -0.013564    0.128479
  C     -2.950959    1.016605    0.974959
  C     -2.603014    0.113959   -1.342276
  H      4.160774    1.306431   -0.194666
  H      3.794193    0.243188    1.175015
  H      4.259717   -0.452859   -0.386848
  H      1.544734    1.408766    1.408904
  H      1.861270    2.429483    0.003553
  H     -0.583174    2.232401    0.431343
  H     -0.156575    1.543849   -1.133314
  H      1.674706   -1.174360    1.136769
  H      2.107934   -1.840691   -0.446191
  H     -1.261086   -2.481261   -0.307632
  H     -2.522116   -1.003197    0.480839
  H     -2.790842    2.035251    0.605287
  H     -2.631308    0.982155    2.022710
  H     -4.028622    0.822943    0.944667
  H     -2.337617    1.098606   -1.742521
  H     -3.687232   -0.002613   -1.446488
  H     -2.128127   -0.646155   -1.971668

 Total Charge           Charge          ....    0
 Multiplicity           Mult            ....    1
 Number of Electrons    NEL             ....   88
 Basis Dimension        Dim             ....  461

ORBITAL ENERGIES
----------------

  NO   OCC          E(Eh)            E(eV)
   0   2.0000     -21.669055      -589.6450
   1   2.0000     -12.083856      -328.8184
   2   2.0000     -12.038852      -327.5938
   3   2.0000     -12.037225      -327.5495
   4   2.0000     -12.033701      -327.4537
   5   2.0000     -12.027922      -327.2964
   6   2.0000     -12.027696      -327.2902
   7   2.0000     -12.026509      -327.2579
   8   2.0000     -12.022879      -327.1592
   9   2.0000     -12.022191      -327.1404
  10   2.0000     -12.021853      -327.1313
  11   2.0000      -1.667362       -45.3712
  12   2.0000      -1.344273       -36.5795
  13   2.0000      -1.300349       -35.3843
  14   2.0000      -1.248877       -33.9837
  15   2.0000      -1.241375       -33.7795
  16   2.0000      -1.165421       -31.7127
  17   2.0000      -1.164985       -31.7009
  18   2.0000      -1.110825       -30.2271
  19   2.0000      -1.090496       -29.6739
  20   2.0000      -1.037625       -28.2352
  21   2.0000      -1.014123       -27.5957
  22   2.0000      -1.000655       -27.2292
  23   2.0000      -0.944916       -25.7125
  24   2.0000      -0.926792       -25.2193
  25   2.0000      -0.888673       -24.1820
  26   2.0000      -0.885285       -24.0898
  27   2.0000      -0.868546       -23.6343
  28   2.0000      -0.860602       -23.4182
  29   2.0000      -0.847329       -23.0570
  30   2.0000      -0.844691       -22.9852
  31   2.0000      -0.826955       -22.5026
  32   2.0000      -0.821608       -22.3571
  33   2.0000      -0.804675       -21.8963
  34   2.0000      -0.795180       -21.6379
  35   2.0000      -0.789997       -21.4969
  36   2.0000      -0.784848       -21.3568
  37   2.0000      -0.773903       -21.0590
  38   2.0000      -0.767639       -20.8885
  39   2.0000      -0.761914       -20.7327
  40   2.0000      -0.746488       -20.3130
  41   2.0000      -0.740063       -20.1381
  42   2.0000      -0.734887       -19.9973
  43   2.0000      -0.721341       -19.6287
  44   0.0000      -0.151209        -4.1146
  45   0.0000      -0.050695        -1.3795
  46   0.0000      -0.040807        -1.1104
  47   0.0000      -0.032543        -0.8855
  48   0.0000      -0.022307        -0.6070

MULLIKEN ATOMIC CHARGES
-----------------------
   0 C :   -0.404031
   1 C :   -0.015528
   2 H :    0.076612
   3 C :   -0.222462
   4 C :   -0.271675
   5 C :   -0.031090
   6 H :    0.076204
   7 C :    0.049988
   8 H :    0.106967
   9 C :   -0.219727
  10 O :   -0.549041
  11 C :    0.018966
  12 C :   -0.435292
  13 C :   -0.440694
  14 H :    0.128014
  15 H :    0.120068
  16 H :    0.127844
  17 H :    0.099048
  18 H :    0.113489
  19 H :    0.123551
  20 H :    0.114264
  21 H :    0.102451
  22 H :    0.113113
  23 H :    0.358650
  24 H :    0.080023
  25 H :    0.126981
  26 H :    0.127722
  27 H :    0.131836
  28 H :    0.128235
  29 H :    0.130972
  30 H :    0.134540
Sum of atomic charges:    0.0000000

LOEWDIN ATOMIC CHARGES
----------------------
   0 C :   -0.287149
   1 C :   -0.279167
   2 H :    0.151583
   3 C :   -0.236039
   4 C :   -0.225520
   5 C :   -0.221324
   6 H :    0.158157
   7 C :   -0.303477
   8 H :    0.142274
   9 C :   -0.218509
  10 O :   -0.070257
  11 C :   -0.287845
  12 C :   -0.287020
  13 C :   -0.285916
  14 H :    0.120278
  15 H :    0.121210
  16 H :    0.120194
  17 H :    0.138766
  18 H :    0.135523
  19 H :    0.138652
  20 H :    0.140598
  21 H :    0.141962
  22 H :    0.138035
  23 H :    0.182346
  24 H :    0.148674
  25 H :    0.119542
  26 H :    0.120999
  27 H :    0.120138
  28 H :    0.121055
  29 H :    0.121651
  30 H :    0.120585

  Mayer bond orders larger than 0.100000
B(  0-C ,  1-C ) :   0.9524 B(  0-C , 14-H ) :   0.9850 B(  0-C , 15-H ) :   0.9751
B(  0-C , 16-H ) :   0.9846 B(  1-C ,  2-H ) :   0.9706 B(  1-C ,  3-C ) :   0.9819
B(  1-C ,  9-C ) :   0.9799 B(  3-C ,  4-C ) :   1.0073 B(  3-C , 17-H ) :   0.9656
B(  3-C , 18-H ) :   0.9729 B(  4-C ,  5-C ) :   0.9528 B(  4-C , 19-H ) :   0.9724
B(  4-C , 20-H ) :   0.9657 B(  5-C ,  6-H ) :   0.9539 B(  5-C ,  7-C ) :   0.9632
B(  5-C , 11-C ) :   0.9379 B(  7-C ,  8-H ) :   0.9998 B(  7-C ,  9-C ) :   0.9920
B(  7-C , 10-O ) :   1.0330 B(  9-C , 21-H ) :   0.9568 B(  9-C , 22-H ) :   0.9677
B( 10-O , 23-H ) :   0.8706 B( 11-C , 12-C ) :   0.9611 B( 11-C , 13-C ) :   0.9418
B( 11-C , 24-H ) :   0.9774 B( 12-C , 25-H ) :   0.9774 B( 12-C , 26-H ) :   0.9818
B( 12-C , 27-H ) :   0.9837 B( 13-C , 28-H ) :   0.9750 B( 13-C , 29-H ) :   0.9813
B( 13-C , 30-H ) :   0.9793

FINAL SINGLE POINT ENERGY      -468.384464970908

DIPOLE MOMENT
-------------

Method             : SCF
Type of density    : Electron Density
Multiplicity       :   1
Irrep              :   0
Energy             :  -468.4073965703076965 Eh
Relativity type    :
Basis              : AO
                                X                 Y                 Z
Electronic contribution:      0.529695507      -4.839384752       0.102072331
Nuclear contribution   :     -0.974608980       5.542498216      -0.608261822
                        -----------------------------------------
Total Dipole Moment    :     -0.444913473       0.703113464      -0.506189491
                        -----------------------------------------
Magnitude (a.u.)       :      0.973932412
Magnitude (Debye)      :      2.475539456

Rotational constants in cm-1:             0.059044             0.023242             0.019070
Rotational constants in MHz :          1770.084849           696.766477           571.715783

                             ****ORCA TERMINATED NORMALLY****
TOTAL RUN TIME: 0 days 0 hours 6 minutes 37 seconds 439 msec
