                         Program Version 6.0.0  -   RELEASE  -
|  1> ! pbe def2-sv(p) def2/J RI DEFGRID1 loosescf d4 GCP(DFT/SV(P)) printgap
|  2> %output
|  3>     printlevel normal
|  4> end
|  5> * xyz 0 1
|  6> C -2.4571801261 -0.8441461602 0.1203878539
|  7> C -1.0413264482 -0.4963645437 0.5928943506
|  8> H -0.9368377967 -0.7690195857 1.6559708863
|  9> C -0.7398235322 1.0172156573 0.4495658049
| 10> H -1.5954287635 1.4986855057 -0.0370866908
| 11> C 0.4908000655 1.2296779527 -0.4493316738
| 12> H 0.7998707832 2.2798127694 -0.3387736072
| 13> C 1.6563716585 0.3463505072 0.0407750067
| 14> H 2.454738773 0.3586066913 -0.7126998276
| 15> C 1.1895243866 -1.1243359665 0.1781605211
| 16> H 1.3112357266 -1.4276966214 1.2438608271
| 17> O -0.1576187719 -1.2954831441 -0.1763027505
| 18> O 1.9614409335 -1.913320318 -0.6541167711
| 19> O 2.101940599 0.8750530774 1.2655536573
| 20> O 0.1206533153 0.9415992797 -1.7690324149
| 21> O -0.590577635 1.6425464701 1.6967010523
| 22> O -2.7523098936 -0.3157984947 -1.145974506
| 23> H -3.1852232104 -0.4163496833 0.8116851925
| 24> H -2.556737457 -1.9378361804 0.1135147818
| 25> H 1.5034131063 -2.7523217776 -0.8186290907
| 26> H 2.9713096883 0.5153122822 1.4922643544
| 27> H 0.8307250247 1.1895220333 -2.378041373
| 28> H 0.3086935804 1.4780647847 2.0283678068
| 29> H -2.0114452506 -0.5086652281 -1.7402641015
| 30> *
| 31>
| 32>                          ****END OF INPUT****

CARTESIAN COORDINATES (ANGSTROEM)
---------------------------------
  C     -2.457180   -0.844146    0.120388
  C     -1.041326   -0.496365    0.592894
  H     -0.936838   -0.769020    1.655971
  C     -0.739824    1.017216    0.449566
  H     -1.595429    1.498686   -0.037087
  C      0.490800    1.229678   -0.449332
  H      0.799871    2.279813   -0.338774
  C      1.656372    0.346351    0.040775
  H      2.454739    0.358607   -0.712700
  C      1.189524   -1.124336    0.178161
  H      1.311236   -1.427697    1.243861
  O     -0.157619   -1.295483   -0.176303
  O      1.961441   -1.913320   -0.654117
  O      2.101941    0.875053    1.265554
  O      0.120653    0.941599   -1.769032
  O     -0.590578    1.642546    1.696701
  O     -2.752310   -0.315798   -1.145975
  H     -3.185223   -0.416350    0.811685
  H     -2.556737   -1.937836    0.113515
  H      1.503413   -2.752322   -0.818629
  H      2.971310    0.515312    1.492264
  H      0.830725    1.189522   -2.378041
  H      0.308694    1.478065    2.028368
  H     -2.011445   -0.508665   -1.740264

 Total Charge           Charge          ....    0
 Multiplicity           Mult            ....    1
 Number of Electrons    NEL             ....   96
 Basis Dimension        Dim             ....  192

ORBITAL ENERGIES
----------------

  NO   OCC          E(Eh)            E(eV)
   0   2.0000     -18.782394      -511.0949
   1   2.0000     -18.770359      -510.7674
   2   2.0000     -18.765992      -510.6486
   3   2.0000     -18.763065      -510.5690
   4   2.0000     -18.735123      -509.8086
   5   2.0000     -18.735033      -509.8062
   6   2.0000      -9.991643      -271.8864
   7   2.0000      -9.952004      -270.8078
   8   2.0000      -9.947697      -270.6906
   9   2.0000      -9.936952      -270.3982
  10   2.0000      -9.931912      -270.2611
  11   2.0000      -9.924985      -270.0726
  12   2.0000      -0.989599       -26.9283
  13   2.0000      -0.956180       -26.0190
  14   2.0000      -0.940593       -25.5948
  15   2.0000      -0.925260       -25.1776
  16   2.0000      -0.912229       -24.8230
  17   2.0000      -0.907227       -24.6869
  18   2.0000      -0.697913       -18.9912
  19   2.0000      -0.688235       -18.7278
  20   2.0000      -0.621221       -16.9043
  21   2.0000      -0.588379       -16.0106
  22   2.0000      -0.562205       -15.2984
  23   2.0000      -0.525540       -14.3007
  24   2.0000      -0.508397       -13.8342
  25   2.0000      -0.486458       -13.2372
  26   2.0000      -0.475281       -12.9331
  27   2.0000      -0.462342       -12.5810
  28   2.0000      -0.457450       -12.4478
  29   2.0000      -0.434658       -11.8276
  30   2.0000      -0.419063       -11.4033
  31   2.0000      -0.394939       -10.7468
  32   2.0000      -0.385612       -10.4930
  33   2.0000      -0.366380        -9.9697
  34   2.0000      -0.354347        -9.6423
  35   2.0000      -0.348900        -9.4941
  36   2.0000      -0.329013        -8.9529
  37   2.0000      -0.326161        -8.8753
  38   2.0000      -0.313187        -8.5223
  39   2.0000      -0.301946        -8.2164
  40   2.0000      -0.268968        -7.3190
  41   2.0000      -0.260454        -7.0873
  42   2.0000      -0.254094        -6.9142
  43   2.0000      -0.249025        -6.7763
  44   2.0000      -0.246530        -6.7084
  45   2.0000      -0.216381        -5.8880
  46   2.0000      -0.207897        -5.6572
  47   2.0000      -0.197559        -5.3759
  48   0.0000       0.002507         0.0682
  49   0.0000       0.016244         0.4420
  50   0.0000       0.033615         0.9147
  51   0.0000       0.052956         1.4410
  52   0.0000       0.066232         1.8023

MULLIKEN ATOMIC CHARGES
-----------------------
   0 C :    0.078289
   1 C :   -0.007806
   2 H :    0.050940
   3 C :    0.057281
   4 H :    0.091064
   5 C :    0.019791
   6 H :    0.080924
   7 C :   -0.008028
   8 H :    0.067624
   9 C :    0.240051
  10 H :    0.026140
  11 O :   -0.309710
  12 O :   -0.391108
  13 O :   -0.425200
  14 O :   -0.404381
  15 O :   -0.428127
  16 O :   -0.438391
  17 H :    0.094731
  18 H :    0.072556
  19 H :    0.306346
  20 H :    0.318005
  21 H :    0.303764
  22 H :    0.301032
  23 H :    0.304213
Sum of atomic charges:    0.0000000

LOEWDIN ATOMIC CHARGES
----------------------
   0 C :   -0.120081
   1 C :   -0.080018
   2 H :    0.103788
   3 C :   -0.067535
   4 H :    0.124290
   5 C :   -0.073475
   6 H :    0.108281
   7 C :   -0.092820
   8 H :    0.107670
   9 C :    0.002651
  10 H :    0.071903
  11 O :   -0.156164
  12 O :   -0.303358
  13 O :   -0.309466
  14 O :   -0.307500
  15 O :   -0.319811
  16 O :   -0.333058
  17 H :    0.118985
  18 H :    0.098728
  19 H :    0.289255
  20 H :    0.297444
  21 H :    0.288553
  22 H :    0.271064
  23 H :    0.280675

  Mayer bond orders larger than 0.100000
B(  0-C ,  1-C ) :   1.0537 B(  0-C , 16-O ) :   1.0766 B(  0-C , 17-H ) :   0.9229
B(  0-C , 18-H ) :   0.9102 B(  1-C ,  2-H ) :   0.8691 B(  1-C ,  3-C ) :   0.9558
B(  1-C , 11-O ) :   0.9936 B(  3-C ,  4-H ) :   0.8841 B(  3-C ,  5-C ) :   1.0146
B(  3-C , 15-O ) :   1.0695 B(  5-C ,  6-H ) :   0.9003 B(  5-C ,  7-C ) :   0.9948
B(  5-C , 14-O ) :   1.0584 B(  7-C ,  8-H ) :   0.8926 B(  7-C ,  9-C ) :   0.9414
B(  7-C , 13-O ) :   1.0294 B(  9-C , 10-H ) :   0.8903 B(  9-C , 11-O ) :   1.0507
B(  9-C , 12-O ) :   1.1606 B( 12-O , 19-H ) :   0.8375 B( 13-O , 20-H ) :   0.8392
B( 14-O , 21-H ) :   0.8428 B( 15-O , 22-H ) :   0.8168 B( 16-O , 23-H ) :   0.8308

Dispersion correction           -0.025187270
FINAL SINGLE POINT ENERGY      -685.690277507673

DIPOLE MOMENT
-------------

Method             : SCF
Type of density    : Electron Density
Multiplicity       :   1
Irrep              :   0
Energy             :  -685.8213787315082755 Eh
Relativity type    :
Basis              : AO
                                X                 Y                 Z
Electronic contribution:      1.733601216      -0.145617428      -1.275076584
Nuclear contribution   :     -0.089025128      -0.462440732       1.226940964
                        -----------------------------------------
Total Dipole Moment    :      1.644576088      -0.608058160      -0.048135620
                        -----------------------------------------
Magnitude (a.u.)       :      1.754047398
Magnitude (Debye)      :      4.458434168

Rotational constants in cm-1:             0.040466             0.028156             0.023137
Rotational constants in MHz :          1213.139723           844.090950           693.628390

                             ****ORCA TERMINATED NORMALLY****
TOTAL RUN TIME: 0 days 0 hours 0 minutes 12 seconds 10 msec
