                         Program Version 6.0.0  -   RELEASE  -
|  1> ! wb97x-v def2-tzvp def2/J RIJCOSX DEFGRID2 scfconv7 GCP(DFT/TZ) printgap
|  2> %output
|  3>     printlevel normal
|  4> end
|  5> * xyz 0 1
|  6> C 1.2979713534273662 1.5255462678661131 -0.1908741565735365
|  7> C 0.6865857276634263 0.1580103494864889 -0.47299084473178965
|  8> C 1.426412475959747 -0.9508857359529057 0.30025577338666704
|  9> C -0.7769077004879476 0.08989343511184948 -0.08613726334646717
| 10> O -1.238118932996899 0.7920934757736904 0.809480172047792
| 11> C -1.6342124532743236 -0.8824784358205698 -0.8379507231527492
| 12> H 1.278037975372658 1.7493272566808953 0.8799525272287925
| 13> H 2.34072243207522 1.5412336804921878 -0.521693783997453
| 14> H 0.7589735856110686 2.319727449384896 -0.7167155729548362
| 15> H 0.754154768168211 -0.07273382809731775 -1.5435475810890218
| 16> H 1.36593348228139 -0.7659382053307761 1.3779827302939576
| 17> H 2.4814532946139436 -0.9547665155139986 0.01083127707933399
| 18> H 1.011595119886197 -1.9416082372765562 0.09307282938168018
| 19> H -1.103728708611171 -1.821477650567373 -1.0208551794888712
| 20> H -1.8460179458479684 -0.4443668550087576 -1.8221655120182514
| 21> H -2.5764714113265903 -1.0639534662281405 -0.31829981970759036
| 22> *
| 23>
| 24>                          ****END OF INPUT****

CARTESIAN COORDINATES (ANGSTROEM)
---------------------------------
  C      1.297971    1.525546   -0.190874
  C      0.686586    0.158010   -0.472991
  C      1.426412   -0.950886    0.300256
  C     -0.776908    0.089893   -0.086137
  O     -1.238119    0.792093    0.809480
  C     -1.634212   -0.882478   -0.837951
  H      1.278038    1.749327    0.879953
  H      2.340722    1.541234   -0.521694
  H      0.758974    2.319727   -0.716716
  H      0.754155   -0.072734   -1.543548
  H      1.365933   -0.765938    1.377983
  H      2.481453   -0.954767    0.010831
  H      1.011595   -1.941608    0.093073
  H     -1.103729   -1.821478   -1.020855
  H     -1.846018   -0.444367   -1.822166
  H     -2.576471   -1.063953   -0.318300

 Total Charge           Charge          ....    0
 Multiplicity           Mult            ....    1
 Number of Electrons    NEL             ....   48
 Basis Dimension        Dim             ....  246

ORBITAL ENERGIES
----------------

  NO   OCC          E(Eh)            E(eV)
   0   2.0000     -21.657015      -589.3173
   1   2.0000     -12.135198      -330.2155
   2   2.0000     -12.063359      -328.2607
   3   2.0000     -12.052840      -327.9744
   4   2.0000     -12.050616      -327.9139
   5   2.0000     -12.037173      -327.5481
   6   2.0000      -1.700067       -46.2612
   7   2.0000      -1.327180       -36.1144
   8   2.0000      -1.253427       -34.1075
   9   2.0000      -1.185419       -32.2569
  10   2.0000      -1.124265       -30.5928
  11   2.0000      -1.062887       -28.9226
  12   2.0000      -0.965452       -26.2713
  13   2.0000      -0.953861       -25.9559
  14   2.0000      -0.912914       -24.8416
  15   2.0000      -0.882815       -24.0226
  16   2.0000      -0.848502       -23.0889
  17   2.0000      -0.843562       -22.9545
  18   2.0000      -0.835236       -22.7279
  19   2.0000      -0.830117       -22.5886
  20   2.0000      -0.815826       -22.1997
  21   2.0000      -0.793489       -21.5919
  22   2.0000      -0.777487       -21.1565
  23   2.0000      -0.769260       -20.9326
  24   0.0000      -0.308454        -8.3935
  25   0.0000      -0.051920        -1.4128
  26   0.0000      -0.038957        -1.0601
  27   0.0000      -0.025059        -0.6819
  28   0.0000      -0.017744        -0.4828

MULLIKEN ATOMIC CHARGES
-----------------------
   0 C :   -0.334142
   1 C :   -0.007242
   2 C :   -0.365588
   3 C :    0.208373
   4 O :   -0.321124
   5 C :   -0.360014
   6 H :    0.124949
   7 H :    0.109959
   8 H :    0.114444
   9 H :    0.079300
  10 H :    0.129462
  11 H :    0.120029
  12 H :    0.109580
  13 H :    0.120895
  14 H :    0.132666
  15 H :    0.138455
Sum of atomic charges:   -0.0000000

LOEWDIN ATOMIC CHARGES
----------------------
   0 C :   -0.272425
   1 C :   -0.279627
   2 C :   -0.265096
   3 C :   -0.319614
   4 O :    0.108772
   5 C :   -0.259225
   6 H :    0.126951
   7 H :    0.118862
   8 H :    0.122302
   9 H :    0.153275
  10 H :    0.126807
  11 H :    0.122380
  12 H :    0.117292
  13 H :    0.129021
  14 H :    0.139547
  15 H :    0.130777

  Mayer bond orders larger than 0.100000
B(  0-C ,  1-C ) :   0.9844 B(  0-C ,  6-H ) :   0.9693 B(  0-C ,  7-H ) :   0.9800
B(  0-C ,  8-H ) :   0.9799 B(  1-C ,  2-C ) :   0.9551 B(  1-C ,  3-C ) :   0.9229
B(  1-C ,  9-H ) :   0.9597 B(  2-C , 10-H ) :   0.9763 B(  2-C , 11-H ) :   0.9798
B(  2-C , 12-H ) :   0.9716 B(  3-C ,  4-O ) :   2.1260 B(  3-C ,  5-C ) :   0.9777
B(  5-C , 13-H ) :   0.9619 B(  5-C , 14-H ) :   0.9509 B(  5-C , 15-H ) :   0.9813

FINAL SINGLE POINT ENERGY      -271.794134432904

DIPOLE MOMENT
-------------

Method             : SCF
Type of density    : Electron Density
Multiplicity       :   1
Irrep              :   0
Energy             :  -271.8048732764042938 Eh
Relativity type    :
Basis              : AO
                                X                 Y                 Z
Electronic contribution:     -4.036090571       1.822655034       1.839799677
Nuclear contribution   :      4.530227579      -2.496953748      -2.679777407
                        -----------------------------------------
Total Dipole Moment    :      0.494137008      -0.674298714      -0.839977730
                        -----------------------------------------
Magnitude (a.u.)       :      1.185079206
Magnitude (Debye)      :      3.012231956

Rotational constants in cm-1:             0.158614             0.094859             0.075080
Rotational constants in MHz :          4755.135603          2843.815986          2250.835463

                             ****ORCA TERMINATED NORMALLY****
TOTAL RUN TIME: 0 days 0 hours 1 minutes 35 seconds 772 msec
