                         Program Version 6.0.0  -   RELEASE  -
|  1> ! wb97x-v def2-tzvp def2/J RIJCOSX DEFGRID2 scfconv7 GCP(DFT/TZ) printgap
|  2> %output
|  3>     printlevel normal
|  4> end
|  5> %cpcm
|  6>     smd true
|  7>     smdsolvent "water"
|  8> end
|  9> * xyz 0 1
| 10> C 1.2979713534273662 1.5255462678661131 -0.1908741565735365
| 11> C 0.6865857276634263 0.1580103494864889 -0.47299084473178965
| 12> C 1.426412475959747 -0.9508857359529057 0.30025577338666704
| 13> C -0.7769077004879476 0.08989343511184948 -0.08613726334646717
| 14> O -1.238118932996899 0.7920934757736904 0.809480172047792
| 15> C -1.6342124532743236 -0.8824784358205698 -0.8379507231527492
| 16> H 1.278037975372658 1.7493272566808953 0.8799525272287925
| 17> H 2.34072243207522 1.5412336804921878 -0.521693783997453
| 18> H 0.7589735856110686 2.319727449384896 -0.7167155729548362
| 19> H 0.754154768168211 -0.07273382809731775 -1.5435475810890218
| 20> H 1.36593348228139 -0.7659382053307761 1.3779827302939576
| 21> H 2.4814532946139436 -0.9547665155139986 0.01083127707933399
| 22> H 1.011595119886197 -1.9416082372765562 0.09307282938168018
| 23> H -1.103728708611171 -1.821477650567373 -1.0208551794888712
| 24> H -1.8460179458479684 -0.4443668550087576 -1.8221655120182514
| 25> H -2.5764714113265903 -1.0639534662281405 -0.31829981970759036
| 26> *
| 27>
| 28>                          ****END OF INPUT****

CARTESIAN COORDINATES (ANGSTROEM)
---------------------------------
  C      1.297971    1.525546   -0.190874
  C      0.686586    0.158010   -0.472991
  C      1.426412   -0.950886    0.300256
  C     -0.776908    0.089893   -0.086137
  O     -1.238119    0.792093    0.809480
  C     -1.634212   -0.882478   -0.837951
  H      1.278038    1.749327    0.879953
  H      2.340722    1.541234   -0.521694
  H      0.758974    2.319727   -0.716716
  H      0.754155   -0.072734   -1.543548
  H      1.365933   -0.765938    1.377983
  H      2.481453   -0.954767    0.010831
  H      1.011595   -1.941608    0.093073
  H     -1.103729   -1.821478   -1.020855
  H     -1.846018   -0.444367   -1.822166
  H     -2.576471   -1.063953   -0.318300

 Total Charge           Charge          ....    0
 Multiplicity           Mult            ....    1
 Number of Electrons    NEL             ....   48
 Basis Dimension        Dim             ....  246

ORBITAL ENERGIES
----------------

  NO   OCC          E(Eh)            E(eV)
   0   2.0000     -21.667102      -589.5918
   1   2.0000     -12.141635      -330.3907
   2   2.0000     -12.052956      -327.9776
   3   2.0000     -12.039123      -327.6012
   4   2.0000     -12.035506      -327.5028
   5   2.0000     -12.028928      -327.3238
   6   2.0000      -1.713644       -46.6306
   7   2.0000      -1.318477       -35.8776
   8   2.0000      -1.244416       -33.8623
   9   2.0000      -1.174155       -31.9504
  10   2.0000      -1.121324       -30.5128
  11   2.0000      -1.069761       -29.1097
  12   2.0000      -0.968869       -26.3643
  13   2.0000      -0.947216       -25.7750
  14   2.0000      -0.922108       -25.0918
  15   2.0000      -0.873614       -23.7722
  16   2.0000      -0.840423       -22.8691
  17   2.0000      -0.836781       -22.7700
  18   2.0000      -0.825030       -22.4502
  19   2.0000      -0.818468       -22.2717
  20   2.0000      -0.805664       -21.9232
  21   2.0000      -0.781622       -21.2690
  22   2.0000      -0.768804       -20.9202
  23   2.0000      -0.762427       -20.7467
  24   0.0000      -0.305577        -8.3152
  25   0.0000      -0.045071        -1.2264
  26   0.0000      -0.028252        -0.7688
  27   0.0000      -0.011544        -0.3141
  28   0.0000      -0.002234        -0.0608

MULLIKEN ATOMIC CHARGES
-----------------------
   0 C :   -0.400108
   1 C :    0.008941
   2 C :   -0.414226
   3 C :    0.293985
   4 O :   -0.464081
   5 C :   -0.403855
   6 H :    0.122589
   7 H :    0.135532
   8 H :    0.134446
   9 H :    0.108962
  10 H :    0.131575
  11 H :    0.140167
  12 H :    0.139689
  13 H :    0.158272
  14 H :    0.166072
  15 H :    0.142040
Sum of atomic charges:   -0.0000000

LOEWDIN ATOMIC CHARGES
----------------------
   0 C :   -0.281294
   1 C :   -0.271431
   2 C :   -0.265386
   3 C :   -0.297162
   4 O :    0.028092
   5 C :   -0.252670
   6 H :    0.122552
   7 H :    0.125739
   8 H :    0.123791
   9 H :    0.165122
  10 H :    0.125970
  11 H :    0.127422
  12 H :    0.124772
  13 H :    0.142107
  14 H :    0.151605
  15 H :    0.130771

  Mayer bond orders larger than 0.100000
B(  0-C ,  1-C ) :   0.9700 B(  0-C ,  6-H ) :   0.9670 B(  0-C ,  7-H ) :   0.9783
B(  0-C ,  8-H ) :   0.9801 B(  1-C ,  2-C ) :   0.9462 B(  1-C ,  3-C ) :   0.9368
B(  1-C ,  9-H ) :   0.9535 B(  2-C , 10-H ) :   0.9724 B(  2-C , 11-H ) :   0.9754
B(  2-C , 12-H ) :   0.9692 B(  3-C ,  4-O ) :   1.9658 B(  3-C ,  5-C ) :   1.0040
B(  5-C , 13-H ) :   0.9511 B(  5-C , 14-H ) :   0.9390 B(  5-C , 15-H ) :   0.9734

FINAL SINGLE POINT ENERGY      -271.801273803797

DIPOLE MOMENT
-------------

Method             : SCF
Type of density    : Electron Density
Multiplicity       :   1
Irrep              :   0
Energy             :  -271.8120126472974789 Eh
Relativity type    :
Basis              : AO
                                X                 Y                 Z
Electronic contribution:     -3.812395429       1.467545664       1.379262292
Nuclear contribution   :      4.530227579      -2.496953748      -2.679777407
                        -----------------------------------------
Total Dipole Moment    :      0.717832149      -1.029408084      -1.300515115
                        -----------------------------------------
Magnitude (a.u.)       :      1.807291776
Magnitude (Debye)      :      4.593770620

Rotational constants in cm-1:             0.158614             0.094859             0.075080
Rotational constants in MHz :          4755.135603          2843.815986          2250.835463

                             ****ORCA TERMINATED NORMALLY****
TOTAL RUN TIME: 0 days 0 hours 1 minutes 38 seconds 129 msec
