                         Program Version 6.0.0  -   RELEASE  -
|  1> ! wb97x-v def2-tzvp def2/J RIJCOSX DEFGRID2 scfconv7 GCP(DFT/TZ) printgap
|  2> %output
|  3>     printlevel normal
|  4> end
|  5> * xyz 0 1
|  6> C -0.0003295702623040751 0.0006817811581494971 0.5405921840609372
|  7> Br 0.3858161829485225 -1.818655764392429 -0.043315706658587284
|  8> Br 1.3855291016166724 1.2413901658486342 -0.04332807568765722
|  9> Br -1.7693218870255203 0.5764891476619382 -0.04173666102345481
| 10> H -0.0014839672224463733 0.00030924364413833757 1.6274224862443176
| 11> *
| 12>
| 13>                          ****END OF INPUT****

CARTESIAN COORDINATES (ANGSTROEM)
---------------------------------
  C     -0.000330    0.000682    0.540592
  Br     0.385816   -1.818656   -0.043316
  Br     1.385529    1.241390   -0.043328
  Br    -1.769322    0.576489   -0.041737
  H     -0.001484    0.000309    1.627422

 Total Charge           Charge          ....    0
 Multiplicity           Mult            ....    1
 Number of Electrons    NEL             ....  112
 Basis Dimension        Dim             ....  181

ORBITAL ENERGIES
----------------

  NO   OCC          E(Eh)            E(eV)
   0   2.0000    -494.747327    -13462.7592
   1   2.0000    -494.747296    -13462.7583
   2   2.0000    -494.747215    -13462.7562
   3   2.0000     -66.916770     -1820.8979
   4   2.0000     -66.916737     -1820.8970
   5   2.0000     -66.916661     -1820.8949
   6   2.0000     -60.973716     -1659.1792
   7   2.0000     -60.973662     -1659.1777
   8   2.0000     -60.973492     -1659.1731
   9   2.0000     -60.971932     -1659.1306
  10   2.0000     -60.971910     -1659.1300
  11   2.0000     -60.971875     -1659.1291
  12   2.0000     -60.971853     -1659.1285
  13   2.0000     -60.971792     -1659.1268
  14   2.0000     -60.971782     -1659.1265
  15   2.0000     -12.225594      -332.6753
  16   2.0000     -10.668745      -290.3113
  17   2.0000     -10.668694      -290.3099
  18   2.0000     -10.668491      -290.3044
  19   2.0000      -8.449842      -229.9319
  20   2.0000      -8.449787      -229.9304
  21   2.0000      -8.447454      -229.8669
  22   2.0000      -8.442124      -229.7219
  23   2.0000      -8.441377      -229.7015
  24   2.0000      -8.441324      -229.7001
  25   2.0000      -8.440649      -229.6817
  26   2.0000      -8.440620      -229.6810
  27   2.0000      -8.440588      -229.6801
  28   2.0000      -4.434361      -120.6651
  29   2.0000      -4.434137      -120.6590
  30   2.0000      -4.434071      -120.6572
  31   2.0000      -4.431156      -120.5779
  32   2.0000      -4.431142      -120.5775
  33   2.0000      -4.431122      -120.5770
  34   2.0000      -4.431043      -120.5748
  35   2.0000      -4.431011      -120.5739
  36   2.0000      -4.430977      -120.5730
  37   2.0000      -4.422717      -120.3483
  38   2.0000      -4.422710      -120.3480
  39   2.0000      -4.422683      -120.3473
  40   2.0000      -4.422675      -120.3471
  41   2.0000      -4.422616      -120.3455
  42   2.0000      -4.422606      -120.3452
  43   2.0000      -1.409010       -38.3411
  44   2.0000      -1.341720       -36.5101
  45   2.0000      -1.341565       -36.5058
  46   2.0000      -1.153482       -31.3878
  47   2.0000      -0.923746       -25.1364
  48   2.0000      -0.890893       -24.2424
  49   2.0000      -0.890611       -24.2348
  50   2.0000      -0.762242       -20.7417
  51   2.0000      -0.762078       -20.7372
  52   2.0000      -0.745459       -20.2850
  53   2.0000      -0.745334       -20.2816
  54   2.0000      -0.743140       -20.2219
  55   2.0000      -0.739362       -20.1191
  56   0.0000      -0.387116       -10.5340
  57   0.0000      -0.301539        -8.2053
  58   0.0000      -0.301269        -8.1979
  59   0.0000      -0.036828        -1.0021
  60   0.0000       0.061750         1.6803

MULLIKEN ATOMIC CHARGES
-----------------------
   0 C :   -0.139815
   1 Br:   -0.012526
   2 Br:   -0.012355
   3 Br:   -0.012453
   4 H :    0.177149
Sum of atomic charges:    0.0000000

LOEWDIN ATOMIC CHARGES
----------------------
   0 C :   -0.924247
   1 Br:    0.270151
   2 Br:    0.270213
   3 Br:    0.270404
   4 H :    0.113478

  Mayer bond orders larger than 0.100000
B(  0-C ,  1-Br) :   1.1097 B(  0-C ,  2-Br) :   1.1097 B(  0-C ,  3-Br) :   1.1099
B(  0-C ,  4-H ) :   0.9476

FINAL SINGLE POINT ENERGY     -7760.442203537963

DIPOLE MOMENT
-------------

Method             : SCF
Type of density    : Electron Density
Multiplicity       :   1
Irrep              :   0
Energy             : -7760.4554505816631718 Eh
Relativity type    :
Basis              : AO
                                X                 Y                 Z
Electronic contribution:      0.003086698      -0.001281663      -2.121957331
Nuclear contribution   :     -0.003541165       0.001797216       2.492586402
                        -----------------------------------------
Total Dipole Moment    :     -0.000454467       0.000515553       0.370629071
                        -----------------------------------------
Magnitude (a.u.)       :      0.370629708
Magnitude (Debye)      :      0.942065851

Rotational constants in cm-1:             0.040085             0.039945             0.020326
Rotational constants in MHz :          1201.732745          1197.533674           609.362645

                             ****ORCA TERMINATED NORMALLY****
TOTAL RUN TIME: 0 days 0 hours 1 minutes 25 seconds 276 msec
