                         Program Version 6.0.0  -   RELEASE  -
|  1> ! wb97x-v def2-tzvp def2/J RIJCOSX DEFGRID2 scfconv7 GCP(DFT/TZ) printgap
|  2> %output
|  3>     printlevel normal
|  4> end
|  5> %cpcm
|  6>     smd true
|  7>     smdsolvent "water"
|  8> end
|  9> * xyz 0 1
| 10> C -0.0003295702623040751 0.0006817811581494971 0.5405921840609372
| 11> Br 0.3858161829485225 -1.818655764392429 -0.043315706658587284
| 12> Br 1.3855291016166724 1.2413901658486342 -0.04332807568765722
| 13> Br -1.7693218870255203 0.5764891476619382 -0.04173666102345481
| 14> H -0.0014839672224463733 0.00030924364413833757 1.6274224862443176
| 15> *
| 16>
| 17>                          ****END OF INPUT****

CARTESIAN COORDINATES (ANGSTROEM)
---------------------------------
  C     -0.000330    0.000682    0.540592
  Br     0.385816   -1.818656   -0.043316
  Br     1.385529    1.241390   -0.043328
  Br    -1.769322    0.576489   -0.041737
  H     -0.001484    0.000309    1.627422

 Total Charge           Charge          ....    0
 Multiplicity           Mult            ....    1
 Number of Electrons    NEL             ....  112
 Basis Dimension        Dim             ....  181

ORBITAL ENERGIES
----------------

  NO   OCC          E(Eh)            E(eV)
   0   2.0000    -494.745885    -13462.7200
   1   2.0000    -494.745858    -13462.7192
   2   2.0000    -494.745781    -13462.7171
   3   2.0000     -66.915341     -1820.8590
   4   2.0000     -66.915312     -1820.8582
   5   2.0000     -66.915239     -1820.8562
   6   2.0000     -60.972280     -1659.1401
   7   2.0000     -60.972229     -1659.1387
   8   2.0000     -60.972059     -1659.1341
   9   2.0000     -60.970513     -1659.0920
  10   2.0000     -60.970486     -1659.0913
  11   2.0000     -60.970455     -1659.0904
  12   2.0000     -60.970434     -1659.0899
  13   2.0000     -60.970375     -1659.0883
  14   2.0000     -60.970369     -1659.0881
  15   2.0000     -12.221186      -332.5554
  16   2.0000     -10.667320      -290.2725
  17   2.0000     -10.667273      -290.2712
  18   2.0000     -10.667070      -290.2657
  19   2.0000      -8.448378      -229.8920
  20   2.0000      -8.448326      -229.8906
  21   2.0000      -8.445982      -229.8268
  22   2.0000      -8.440749      -229.6844
  23   2.0000      -8.439984      -229.6636
  24   2.0000      -8.439935      -229.6623
  25   2.0000      -8.439273      -229.6443
  26   2.0000      -8.439225      -229.6430
  27   2.0000      -8.439216      -229.6427
  28   2.0000      -4.432885      -120.6249
  29   2.0000      -4.432659      -120.6188
  30   2.0000      -4.432598      -120.6171
  31   2.0000      -4.429711      -120.5386
  32   2.0000      -4.429702      -120.5383
  33   2.0000      -4.429685      -120.5379
  34   2.0000      -4.429608      -120.5358
  35   2.0000      -4.429565      -120.5346
  36   2.0000      -4.429528      -120.5336
  37   2.0000      -4.421352      -120.3111
  38   2.0000      -4.421344      -120.3109
  39   2.0000      -4.421322      -120.3103
  40   2.0000      -4.421314      -120.3101
  41   2.0000      -4.421258      -120.3086
  42   2.0000      -4.421248      -120.3083
  43   2.0000      -1.406832       -38.2818
  44   2.0000      -1.340253       -36.4701
  45   2.0000      -1.340104       -36.4661
  46   2.0000      -1.149478       -31.2789
  47   2.0000      -0.919281       -25.0149
  48   2.0000      -0.888601       -24.1801
  49   2.0000      -0.888320       -24.1724
  50   2.0000      -0.760984       -20.7074
  51   2.0000      -0.760819       -20.7029
  52   2.0000      -0.744229       -20.2515
  53   2.0000      -0.744106       -20.2481
  54   2.0000      -0.741121       -20.1669
  55   2.0000      -0.738224       -20.0881
  56   0.0000      -0.385074       -10.4784
  57   0.0000      -0.298518        -8.1231
  58   0.0000      -0.298251        -8.1158
  59   0.0000      -0.024995        -0.6802
  60   0.0000       0.063013         1.7147

MULLIKEN ATOMIC CHARGES
-----------------------
   0 C :   -0.152449
   1 Br:   -0.023032
   2 Br:   -0.022843
   3 Br:   -0.022917
   4 H :    0.221241
Sum of atomic charges:    0.0000000

LOEWDIN ATOMIC CHARGES
----------------------
   0 C :   -0.917859
   1 Br:    0.264097
   2 Br:    0.264174
   3 Br:    0.264386
   4 H :    0.125202

  Mayer bond orders larger than 0.100000
B(  0-C ,  1-Br) :   1.1013 B(  0-C ,  2-Br) :   1.1013 B(  0-C ,  3-Br) :   1.1016
B(  0-C ,  4-H ) :   0.9349

FINAL SINGLE POINT ENERGY     -7760.445955314302

DIPOLE MOMENT
-------------

Method             : SCF
Type of density    : Electron Density
Multiplicity       :   1
Irrep              :   0
Energy             : -7760.4592023580025852 Eh
Relativity type    :
Basis              : AO
                                X                 Y                 Z
Electronic contribution:      0.002844986      -0.001124317      -1.983737063
Nuclear contribution   :     -0.003541165       0.001797216       2.492586402
                        -----------------------------------------
Total Dipole Moment    :     -0.000696179       0.000672899       0.508849340
                        -----------------------------------------
Magnitude (a.u.)       :      0.508850261
Magnitude (Debye)      :      1.293394575

Rotational constants in cm-1:             0.040085             0.039945             0.020326
Rotational constants in MHz :          1201.732745          1197.533674           609.362645

                             ****ORCA TERMINATED NORMALLY****
TOTAL RUN TIME: 0 days 0 hours 1 minutes 32 seconds 695 msec
