                         Program Version 6.0.0  -   RELEASE  -
|  1> ! wb97x-v def2-tzvp def2/J RIJCOSX DEFGRID2 scfconv7 GCP(DFT/TZ) printgap
|  2> %output
|  3>     printlevel normal
|  4> end
|  5> * xyz 0 1
|  6> C -2.5979596826121565 -0.6046263974646671 -0.32075229121680826
|  7> C -1.2187343075343624 -0.2744572634847686 0.21731307077892462
|  8> H -1.2515420355670264 -0.2203602136038485 1.3187707156905921
|  9> C -0.6907188768788173 1.0511966311923813 -0.3347931932770005
| 10> H -0.7075220120885753 1.0124039206529163 -1.4358689093778545
| 11> C 0.7419588679693309 1.2730703918528155 0.13217782747506612
| 12> H 0.7354423596599077 1.4137267591394156 1.2245620961715238
| 13> C 1.6144109245019815 0.07099509376794293 -0.19744464969712702
| 14> H 1.6955041645605977 -0.03741905478716314 -1.2909498013569967
| 15> C 0.9732646059475852 -1.197585642883305 0.365650966482418
| 16> H 0.9146378698075326 -1.1512206952893234 1.4632598890885462
| 17> O -0.33985875951803496 -1.3372621904525153 -0.18626072838595836
| 18> O 1.7030691423339122 -2.353945660092003 0.049824542488752926
| 19> O 2.898646915950732 0.30251313717904543 0.3862670743657291
| 20> O 1.214014340072803 2.4637875492594827 -0.511299017113918
| 21> O -1.5423821154400372 2.097828428860095 0.14028968874053188
| 22> O -3.1333030332667944 -1.805132569033076 0.25025435402299184
| 23> H -2.532384384972025 -0.7759383057364799 -1.4002525834550363
| 24> H -3.2673080194505406 0.24469868944916556 -0.14201549164738425
| 25> H 1.8930455736416252 -2.3428100551312405 -0.9006353693169817
| 26> H 3.4968560683760304 -0.3812574155689992 0.0569282469634676
| 27> H 2.0390905937249384 2.7223799650997615 -0.08059302841687827
| 28> H -1.1427991913491562 2.9336227171652745 -0.137883759064448
| 29> H -3.3081173619674016 -1.6279017045944744 1.1838698376502366
| 30> *
| 31>
| 32>                          ****END OF INPUT****

CARTESIAN COORDINATES (ANGSTROEM)
---------------------------------
  C     -2.597960   -0.604626   -0.320752
  C     -1.218734   -0.274457    0.217313
  H     -1.251542   -0.220360    1.318771
  C     -0.690719    1.051197   -0.334793
  H     -0.707522    1.012404   -1.435869
  C      0.741959    1.273070    0.132178
  H      0.735442    1.413727    1.224562
  C      1.614411    0.070995   -0.197445
  H      1.695504   -0.037419   -1.290950
  C      0.973265   -1.197586    0.365651
  H      0.914638   -1.151221    1.463260
  O     -0.339859   -1.337262   -0.186261
  O      1.703069   -2.353946    0.049825
  O      2.898647    0.302513    0.386267
  O      1.214014    2.463788   -0.511299
  O     -1.542382    2.097828    0.140290
  O     -3.133303   -1.805133    0.250254
  H     -2.532384   -0.775938   -1.400253
  H     -3.267308    0.244699   -0.142015
  H      1.893046   -2.342810   -0.900635
  H      3.496856   -0.381257    0.056928
  H      2.039091    2.722380   -0.080593
  H     -1.142799    2.933623   -0.137884
  H     -3.308117   -1.627902    1.183870

 Total Charge           Charge          ....    0
 Multiplicity           Mult            ....    1
 Number of Electrons    NEL             ....   96
 Basis Dimension        Dim             ....  444

ORBITAL ENERGIES
----------------

  NO   OCC          E(Eh)            E(eV)
   0   2.0000     -21.698281      -590.4402
   1   2.0000     -21.695983      -590.3777
   2   2.0000     -21.692225      -590.2754
   3   2.0000     -21.689039      -590.1888
   4   2.0000     -21.684488      -590.0649
   5   2.0000     -21.669997      -589.6706
   6   2.0000     -12.159523      -330.8774
   7   2.0000     -12.117716      -329.7398
   8   2.0000     -12.116483      -329.7063
   9   2.0000     -12.113692      -329.6303
  10   2.0000     -12.111684      -329.5757
  11   2.0000     -12.094007      -329.0947
  12   2.0000      -1.726078       -46.9690
  13   2.0000      -1.700724       -46.2791
  14   2.0000      -1.694258       -46.1031
  15   2.0000      -1.685714       -45.8706
  16   2.0000      -1.682004       -45.7697
  17   2.0000      -1.669287       -45.4236
  18   2.0000      -1.344530       -36.5865
  19   2.0000      -1.325572       -36.0706
  20   2.0000      -1.236380       -33.6436
  21   2.0000      -1.208141       -32.8752
  22   2.0000      -1.170791       -31.8588
  23   2.0000      -1.129919       -30.7467
  24   2.0000      -1.096065       -29.8254
  25   2.0000      -1.068555       -29.0769
  26   2.0000      -1.061127       -28.8747
  27   2.0000      -1.044104       -28.4115
  28   2.0000      -1.039318       -28.2813
  29   2.0000      -1.009887       -27.4804
  30   2.0000      -1.001670       -27.2568
  31   2.0000      -0.996229       -27.1088
  32   2.0000      -0.979113       -26.6430
  33   2.0000      -0.975525       -26.5454
  34   2.0000      -0.956655       -26.0319
  35   2.0000      -0.948513       -25.8103
  36   2.0000      -0.944075       -25.6896
  37   2.0000      -0.932624       -25.3780
  38   2.0000      -0.929316       -25.2880
  39   2.0000      -0.918669       -24.9983
  40   2.0000      -0.905527       -24.6406
  41   2.0000      -0.892150       -24.2766
  42   2.0000      -0.848391       -23.0859
  43   2.0000      -0.833127       -22.6705
  44   2.0000      -0.821798       -22.3623
  45   2.0000      -0.810566       -22.0566
  46   2.0000      -0.803899       -21.8752
  47   2.0000      -0.776817       -21.1383
  48   0.0000      -0.243480        -6.6254
  49   0.0000      -0.201987        -5.4963
  50   0.0000      -0.183927        -5.0049
  51   0.0000      -0.152942        -4.1618
  52   0.0000      -0.128233        -3.4894

MULLIKEN ATOMIC CHARGES
-----------------------
   0 C :   -0.026494
   1 C :    0.020356
   2 H :    0.064375
   3 C :    0.082564
   4 H :    0.080647
   5 C :    0.032275
   6 H :    0.097309
   7 C :    0.003645
   8 H :    0.080907
   9 C :    0.100811
  10 H :    0.084849
  11 O :   -0.221451
  12 O :   -0.403476
  13 O :   -0.434017
  14 O :   -0.458039
  15 O :   -0.448491
  16 O :   -0.428385
  17 H :    0.094282
  18 H :    0.124618
  19 H :    0.305179
  20 H :    0.313285
  21 H :    0.321730
  22 H :    0.317898
  23 H :    0.295622
Sum of atomic charges:    0.0000000

LOEWDIN ATOMIC CHARGES
----------------------
   0 C :   -0.308008
   1 C :   -0.301188
   2 H :    0.139702
   3 C :   -0.299675
   4 H :    0.144634
   5 C :   -0.311443
   6 H :    0.146830
   7 C :   -0.327404
   8 H :    0.139795
   9 C :   -0.407479
  10 H :    0.134238
  11 O :    0.195734
  12 O :    0.012049
  13 O :   -0.013444
  14 O :   -0.017960
  15 O :   -0.012488
  16 O :   -0.045185
  17 H :    0.132069
  18 H :    0.126186
  19 H :    0.175906
  20 H :    0.174406
  21 H :    0.177884
  22 H :    0.177442
  23 H :    0.167399

  Mayer bond orders larger than 0.100000
B(  0-C ,  1-C ) :   0.9675 B(  0-C , 16-O ) :   1.0257 B(  0-C , 17-H ) :   0.9505
B(  0-C , 18-H ) :   0.9894 B(  1-C ,  2-H ) :   0.9542 B(  1-C ,  3-C ) :   0.9416
B(  1-C , 11-O ) :   0.9899 B(  3-C ,  4-H ) :   0.9601 B(  3-C ,  5-C ) :   0.9472
B(  3-C , 15-O ) :   1.0767 B(  5-C ,  6-H ) :   0.9787 B(  5-C ,  7-C ) :   0.9573
B(  5-C , 14-O ) :   1.0802 B(  7-C ,  8-H ) :   0.9491 B(  7-C ,  9-C ) :   0.9583
B(  7-C , 13-O ) :   1.0993 B(  9-C , 10-H ) :   0.9747 B(  9-C , 11-O ) :   1.0394
B(  9-C , 12-O ) :   1.1232 B( 12-O , 19-H ) :   0.8900 B( 13-O , 20-H ) :   0.8903
B( 14-O , 21-H ) :   0.8879 B( 15-O , 22-H ) :   0.8828 B( 16-O , 23-H ) :   0.9062

FINAL SINGLE POINT ENERGY      -687.245246081384

DIPOLE MOMENT
-------------

Method             : SCF
Type of density    : Electron Density
Multiplicity       :   1
Irrep              :   0
Energy             :  -687.2639735820839633 Eh
Relativity type    :
Basis              : AO
                                X                 Y                 Z
Electronic contribution:      1.998842736      -1.177079399       0.092510440
Nuclear contribution   :     -1.158771953       1.952325884      -0.147039221
                        -----------------------------------------
Total Dipole Moment    :      0.840070783       0.775246484      -0.054528781
                        -----------------------------------------
Magnitude (a.u.)       :      1.144420997
Magnitude (Debye)      :      2.908887002

Rotational constants in cm-1:             0.038885             0.025778             0.016267
Rotational constants in MHz :          1165.729053           772.811660           487.672374

                             ****ORCA TERMINATED NORMALLY****
TOTAL RUN TIME: 0 days 0 hours 4 minutes 49 seconds 773 msec
