                         Program Version 6.0.0  -   RELEASE  -
|  1> ! wb97x-v def2-tzvp def2/J RIJCOSX DEFGRID2 scfconv7 GCP(DFT/TZ) printgap
|  2> %output
|  3>     printlevel normal
|  4> end
|  5> %cpcm
|  6>     smd true
|  7>     smdsolvent "water"
|  8> end
|  9> * xyz 0 1
| 10> C -2.5979596826121565 -0.6046263974646671 -0.32075229121680826
| 11> C -1.2187343075343624 -0.2744572634847686 0.21731307077892462
| 12> H -1.2515420355670264 -0.2203602136038485 1.3187707156905921
| 13> C -0.6907188768788173 1.0511966311923813 -0.3347931932770005
| 14> H -0.7075220120885753 1.0124039206529163 -1.4358689093778545
| 15> C 0.7419588679693309 1.2730703918528155 0.13217782747506612
| 16> H 0.7354423596599077 1.4137267591394156 1.2245620961715238
| 17> C 1.6144109245019815 0.07099509376794293 -0.19744464969712702
| 18> H 1.6955041645605977 -0.03741905478716314 -1.2909498013569967
| 19> C 0.9732646059475852 -1.197585642883305 0.365650966482418
| 20> H 0.9146378698075326 -1.1512206952893234 1.4632598890885462
| 21> O -0.33985875951803496 -1.3372621904525153 -0.18626072838595836
| 22> O 1.7030691423339122 -2.353945660092003 0.049824542488752926
| 23> O 2.898646915950732 0.30251313717904543 0.3862670743657291
| 24> O 1.214014340072803 2.4637875492594827 -0.511299017113918
| 25> O -1.5423821154400372 2.097828428860095 0.14028968874053188
| 26> O -3.1333030332667944 -1.805132569033076 0.25025435402299184
| 27> H -2.532384384972025 -0.7759383057364799 -1.4002525834550363
| 28> H -3.2673080194505406 0.24469868944916556 -0.14201549164738425
| 29> H 1.8930455736416252 -2.3428100551312405 -0.9006353693169817
| 30> H 3.4968560683760304 -0.3812574155689992 0.0569282469634676
| 31> H 2.0390905937249384 2.7223799650997615 -0.08059302841687827
| 32> H -1.1427991913491562 2.9336227171652745 -0.137883759064448
| 33> H -3.3081173619674016 -1.6279017045944744 1.1838698376502366
| 34> *
| 35>
| 36>                          ****END OF INPUT****

CARTESIAN COORDINATES (ANGSTROEM)
---------------------------------
  C     -2.597960   -0.604626   -0.320752
  C     -1.218734   -0.274457    0.217313
  H     -1.251542   -0.220360    1.318771
  C     -0.690719    1.051197   -0.334793
  H     -0.707522    1.012404   -1.435869
  C      0.741959    1.273070    0.132178
  H      0.735442    1.413727    1.224562
  C      1.614411    0.070995   -0.197445
  H      1.695504   -0.037419   -1.290950
  C      0.973265   -1.197586    0.365651
  H      0.914638   -1.151221    1.463260
  O     -0.339859   -1.337262   -0.186261
  O      1.703069   -2.353946    0.049825
  O      2.898647    0.302513    0.386267
  O      1.214014    2.463788   -0.511299
  O     -1.542382    2.097828    0.140290
  O     -3.133303   -1.805133    0.250254
  H     -2.532384   -0.775938   -1.400253
  H     -3.267308    0.244699   -0.142015
  H      1.893046   -2.342810   -0.900635
  H      3.496856   -0.381257    0.056928
  H      2.039091    2.722380   -0.080593
  H     -1.142799    2.933623   -0.137884
  H     -3.308117   -1.627902    1.183870

 Total Charge           Charge          ....    0
 Multiplicity           Mult            ....    1
 Number of Electrons    NEL             ....   96
 Basis Dimension        Dim             ....  444

ORBITAL ENERGIES
----------------

  NO   OCC          E(Eh)            E(eV)
   0   2.0000     -21.692167      -590.2739
   1   2.0000     -21.690741      -590.2351
   2   2.0000     -21.684194      -590.0569
   3   2.0000     -21.682636      -590.0145
   4   2.0000     -21.681750      -589.9904
   5   2.0000     -21.676974      -589.8604
   6   2.0000     -12.151118      -330.6487
   7   2.0000     -12.104762      -329.3873
   8   2.0000     -12.103947      -329.3651
   9   2.0000     -12.103099      -329.3421
  10   2.0000     -12.101942      -329.3106
  11   2.0000     -12.091044      -329.0140
  12   2.0000      -1.723130       -46.8888
  13   2.0000      -1.691125       -46.0178
  14   2.0000      -1.686997       -45.9055
  15   2.0000      -1.681174       -45.7471
  16   2.0000      -1.678932       -45.6860
  17   2.0000      -1.675467       -45.5918
  18   2.0000      -1.334418       -36.3114
  19   2.0000      -1.318530       -35.8790
  20   2.0000      -1.230707       -33.4892
  21   2.0000      -1.200756       -32.6742
  22   2.0000      -1.166059       -31.7301
  23   2.0000      -1.125405       -30.6238
  24   2.0000      -1.088733       -29.6259
  25   2.0000      -1.061672       -28.8896
  26   2.0000      -1.055876       -28.7319
  27   2.0000      -1.038946       -28.2711
  28   2.0000      -1.035844       -28.1867
  29   2.0000      -1.003833       -27.3157
  30   2.0000      -1.000803       -27.2332
  31   2.0000      -0.990555       -26.9544
  32   2.0000      -0.974678       -26.5223
  33   2.0000      -0.971159       -26.4266
  34   2.0000      -0.960760       -26.1436
  35   2.0000      -0.946441       -25.7540
  36   2.0000      -0.945512       -25.7287
  37   2.0000      -0.928124       -25.2555
  38   2.0000      -0.924883       -25.1673
  39   2.0000      -0.917382       -24.9632
  40   2.0000      -0.899164       -24.4675
  41   2.0000      -0.887608       -24.1530
  42   2.0000      -0.841198       -22.8902
  43   2.0000      -0.828223       -22.5371
  44   2.0000      -0.817936       -22.2572
  45   2.0000      -0.804810       -21.9000
  46   2.0000      -0.792677       -21.5698
  47   2.0000      -0.766679       -20.8624
  48   0.0000      -0.234662        -6.3855
  49   0.0000      -0.193101        -5.2545
  50   0.0000      -0.175722        -4.7817
  51   0.0000      -0.148746        -4.0476
  52   0.0000      -0.120494        -3.2788

MULLIKEN ATOMIC CHARGES
-----------------------
   0 C :   -0.028291
   1 C :    0.051663
   2 H :    0.109831
   3 C :    0.067879
   4 H :    0.104169
   5 C :    0.094461
   6 H :    0.110071
   7 C :    0.011105
   8 H :    0.113802
   9 C :    0.113317
  10 H :    0.119242
  11 O :   -0.320124
  12 O :   -0.495015
  13 O :   -0.521263
  14 O :   -0.531999
  15 O :   -0.527629
  16 O :   -0.548778
  17 H :    0.125753
  18 H :    0.127787
  19 H :    0.370466
  20 H :    0.365246
  21 H :    0.365601
  22 H :    0.359944
  23 H :    0.362761
Sum of atomic charges:    0.0000000

LOEWDIN ATOMIC CHARGES
----------------------
   0 C :   -0.307715
   1 C :   -0.296040
   2 H :    0.154079
   3 C :   -0.295302
   4 H :    0.152253
   5 C :   -0.305612
   6 H :    0.154522
   7 C :   -0.315036
   8 H :    0.152783
   9 C :   -0.405579
  10 H :    0.143126
  11 O :    0.162430
  12 O :   -0.019690
  13 O :   -0.038967
  14 O :   -0.042488
  15 O :   -0.040376
  16 O :   -0.089402
  17 H :    0.136222
  18 H :    0.130058
  19 H :    0.201096
  20 H :    0.193734
  21 H :    0.192762
  22 H :    0.191155
  23 H :    0.191986

  Mayer bond orders larger than 0.100000
B(  0-C ,  1-C ) :   0.9598 B(  0-C , 16-O ) :   0.9876 B(  0-C , 17-H ) :   0.9561
B(  0-C , 18-H ) :   0.9900 B(  1-C ,  2-H ) :   0.9533 B(  1-C ,  3-C ) :   0.9599
B(  1-C , 11-O ) :   0.9439 B(  3-C ,  4-H ) :   0.9539 B(  3-C ,  5-C ) :   0.9692
B(  3-C , 15-O ) :   1.0400 B(  5-C ,  6-H ) :   0.9585 B(  5-C ,  7-C ) :   0.9696
B(  5-C , 14-O ) :   1.0470 B(  7-C ,  8-H ) :   0.9564 B(  7-C ,  9-C ) :   0.9727
B(  7-C , 13-O ) :   1.0699 B(  9-C , 10-H ) :   0.9722 B(  9-C , 11-O ) :   1.0048
B(  9-C , 12-O ) :   1.1176 B( 12-O , 19-H ) :   0.8492 B( 13-O , 20-H ) :   0.8590
B( 14-O , 21-H ) :   0.8597 B( 15-O , 22-H ) :   0.8562 B( 16-O , 23-H ) :   0.8666

FINAL SINGLE POINT ENERGY      -687.287309686820

DIPOLE MOMENT
-------------

Method             : SCF
Type of density    : Electron Density
Multiplicity       :   1
Irrep              :   0
Energy             :  -687.3060371875203600 Eh
Relativity type    :
Basis              : AO
                                X                 Y                 Z
Electronic contribution:      2.293100236      -0.884856134       0.103649291
Nuclear contribution   :     -1.158771953       1.952325884      -0.147039221
                        -----------------------------------------
Total Dipole Moment    :      1.134328283       1.067469750      -0.043389930
                        -----------------------------------------
Magnitude (a.u.)       :      1.558228163
Magnitude (Debye)      :      3.960701227

Rotational constants in cm-1:             0.038885             0.025778             0.016267
Rotational constants in MHz :          1165.729053           772.811660           487.672374

                             ****ORCA TERMINATED NORMALLY****
TOTAL RUN TIME: 0 days 0 hours 5 minutes 24 seconds 670 msec
