                         Program Version 6.0.0  -   RELEASE  -
|  1> ! pbe def2-sv(p) def2/J RI DEFGRID1 loosescf d4 GCP(DFT/SV(P)) printgap
|  2> %output
|  3>     printlevel normal
|  4> end
|  5> * xyz 0 1
|  6> C 3.063970932 -0.0797924559 0.2331500061
|  7> C 1.9361844975 0.1446575766 -0.7732140074
|  8> H 2.3995484357 0.2794519309 -1.7588416966
|  9> C 1.1240782612 1.4044147074 -0.4591235393
| 10> C 0.2265783853 1.2069610699 0.7569327082
| 11> C -0.7851798157 0.0750506943 0.5445035921
| 12> H -1.3363930801 -0.0562271414 1.4857092665
| 13> C 0.0143693937 -1.2195791606 0.2915702022
| 14> H -0.6760768227 -2.0333264362 0.0201644872
| 15> C 1.0108884228 -1.0742131119 -0.8645272227
| 16> O 0.7191906076 -1.619755922 1.4573730477
| 17> C -1.8350492711 0.3505288511 -0.5518314574
| 18> C -2.9550263159 -0.6923584107 -0.5151558362
| 19> C -2.4632900715 1.7370222435 -0.3959291713
| 20> H 3.7098251435 -0.8867833806 -0.1060580714
| 21> H 3.6652316679 0.8207742335 0.3377344063
| 22> H 2.6674388509 -0.357681619 1.2041635189
| 23> H 1.8065457864 2.2372963894 -0.2768578371
| 24> H 0.51378812 1.6623196429 -1.3266490027
| 25> H 0.848239998 0.9426676239 1.6141326699
| 26> H -0.2860320469 2.136589401 1.001366859
| 27> H 1.6147030222 -1.9830572912 -0.8986516741
| 28> H 0.4353754809 -1.0197774614 -1.789851979
| 29> H 0.0840081082 -1.8050055876 2.1611354403
| 30> H -1.353395368 0.2996770349 -1.5322347263
| 31> H -3.6977609676 -0.465553468 -1.2764059397
| 32> H -3.4478353607 -0.6842571446 0.4548400535
| 33> H -2.581880612 -1.6947124947 -0.705139321
| 34> H -3.2875009221 1.847949824 -1.0968994185
| 35> H -1.7464063969 2.5269926449 -0.5980344783
| 36> H -2.8532247967 1.8663960523 0.6114019901
| 37> *
| 38>
| 39>                          ****END OF INPUT****

CARTESIAN COORDINATES (ANGSTROEM)
---------------------------------
  C      3.063971   -0.079792    0.233150
  C      1.936184    0.144658   -0.773214
  H      2.399548    0.279452   -1.758842
  C      1.124078    1.404415   -0.459124
  C      0.226578    1.206961    0.756933
  C     -0.785180    0.075051    0.544504
  H     -1.336393   -0.056227    1.485709
  C      0.014369   -1.219579    0.291570
  H     -0.676077   -2.033326    0.020164
  C      1.010888   -1.074213   -0.864527
  O      0.719191   -1.619756    1.457373
  C     -1.835049    0.350529   -0.551831
  C     -2.955026   -0.692358   -0.515156
  C     -2.463290    1.737022   -0.395929
  H      3.709825   -0.886783   -0.106058
  H      3.665232    0.820774    0.337734
  H      2.667439   -0.357682    1.204164
  H      1.806546    2.237296   -0.276858
  H      0.513788    1.662320   -1.326649
  H      0.848240    0.942668    1.614133
  H     -0.286032    2.136589    1.001367
  H      1.614703   -1.983057   -0.898652
  H      0.435375   -1.019777   -1.789852
  H      0.084008   -1.805006    2.161135
  H     -1.353395    0.299677   -1.532235
  H     -3.697761   -0.465553   -1.276406
  H     -3.447835   -0.684257    0.454840
  H     -2.581881   -1.694712   -0.705139
  H     -3.287501    1.847950   -1.096899
  H     -1.746406    2.526993   -0.598034
  H     -2.853225    1.866396    0.611402

 Total Charge           Charge          ....    0
 Multiplicity           Mult            ....    1
 Number of Electrons    NEL             ....   88
 Basis Dimension        Dim             ....  194

ORBITAL ENERGIES
----------------

  NO   OCC          E(Eh)            E(eV)
   0   2.0000     -18.740775      -509.9624
   1   2.0000      -9.932795      -270.2851
   2   2.0000      -9.895725      -269.2764
   3   2.0000      -9.889626      -269.1104
   4   2.0000      -9.884729      -268.9771
   5   2.0000      -9.876880      -268.7636
   6   2.0000      -9.874274      -268.6927
   7   2.0000      -9.874131      -268.6888
   8   2.0000      -9.873167      -268.6625
   9   2.0000      -9.872691      -268.6496
  10   2.0000      -9.855476      -268.1811
  11   2.0000      -0.918579       -24.9958
  12   2.0000      -0.755621       -20.5615
  13   2.0000      -0.717799       -19.5323
  14   2.0000      -0.663501       -18.0548
  15   2.0000      -0.656148       -17.8547
  16   2.0000      -0.610032       -16.5998
  17   2.0000      -0.596918       -16.2430
  18   2.0000      -0.545000       -14.8302
  19   2.0000      -0.535722       -14.5777
  20   2.0000      -0.504715       -13.7340
  21   2.0000      -0.470606       -12.8058
  22   2.0000      -0.444407       -12.0929
  23   2.0000      -0.435387       -11.8475
  24   2.0000      -0.414615       -11.2822
  25   2.0000      -0.398223       -10.8362
  26   2.0000      -0.380894       -10.3646
  27   2.0000      -0.374633       -10.1943
  28   2.0000      -0.363564        -9.8931
  29   2.0000      -0.352700        -9.5974
  30   2.0000      -0.345746        -9.4082
  31   2.0000      -0.337401        -9.1811
  32   2.0000      -0.335221        -9.1218
  33   2.0000      -0.324594        -8.8327
  34   2.0000      -0.313937        -8.5427
  35   2.0000      -0.307493        -8.3673
  36   2.0000      -0.300472        -8.1762
  37   2.0000      -0.291816        -7.9407
  38   2.0000      -0.281991        -7.6734
  39   2.0000      -0.275339        -7.4924
  40   2.0000      -0.257840        -7.0162
  41   2.0000      -0.257373        -7.0035
  42   2.0000      -0.243759        -6.6330
  43   2.0000      -0.207647        -5.6504
  44   0.0000       0.019095         0.5196
  45   0.0000       0.036920         1.0046
  46   0.0000       0.052054         1.4164
  47   0.0000       0.057756         1.5716
  48   0.0000       0.073545         2.0013

MULLIKEN ATOMIC CHARGES
-----------------------
   0 C :   -0.260606
   1 C :   -0.157355
   2 H :    0.060542
   3 C :   -0.128246
   4 C :   -0.098881
   5 C :   -0.125554
   6 H :    0.036202
   7 C :    0.060603
   8 H :    0.054808
   9 C :   -0.106228
  10 O :   -0.416714
  11 C :   -0.186773
  12 C :   -0.247692
  13 C :   -0.240651
  14 H :    0.090084
  15 H :    0.086450
  16 H :    0.129223
  17 H :    0.077217
  18 H :    0.076903
  19 H :    0.076242
  20 H :    0.080265
  21 H :    0.082668
  22 H :    0.084413
  23 H :    0.295103
  24 H :    0.081157
  25 H :    0.098227
  26 H :    0.089479
  27 H :    0.107478
  28 H :    0.095471
  29 H :    0.112815
  30 H :    0.093349
Sum of atomic charges:    0.0000000

LOEWDIN ATOMIC CHARGES
----------------------
   0 C :   -0.339788
   1 C :   -0.147618
   2 H :    0.112593
   3 C :   -0.216889
   4 C :   -0.221747
   5 C :   -0.146214
   6 H :    0.105609
   7 C :   -0.043836
   8 H :    0.095829
   9 C :   -0.216711
  10 O :   -0.321552
  11 C :   -0.152527
  12 C :   -0.329601
  13 C :   -0.328104
  14 H :    0.116532
  15 H :    0.111697
  16 H :    0.123540
  17 H :    0.115151
  18 H :    0.111264
  19 H :    0.118637
  20 H :    0.114406
  21 H :    0.122418
  22 H :    0.119450
  23 H :    0.281983
  24 H :    0.114124
  25 H :    0.118276
  26 H :    0.115599
  27 H :    0.114270
  28 H :    0.117388
  29 H :    0.118440
  30 H :    0.117378

  Mayer bond orders larger than 0.100000
B(  0-C ,  1-C ) :   1.1135 B(  0-C , 14-H ) :   0.9468 B(  0-C , 15-H ) :   0.9468
B(  0-C , 16-H ) :   0.9296 B(  1-C ,  2-H ) :   0.8984 B(  1-C ,  3-C ) :   1.0953
B(  1-C ,  9-C ) :   1.0851 B(  3-C ,  4-C ) :   1.1346 B(  3-C , 17-H ) :   0.9140
B(  3-C , 18-H ) :   0.9054 B(  4-C ,  5-C ) :   1.0755 B(  4-C , 19-H ) :   0.8986
B(  4-C , 20-H ) :   0.9026 B(  5-C ,  6-H ) :   0.8734 B(  5-C ,  7-C ) :   1.0234
B(  5-C , 11-C ) :   1.0190 B(  7-C ,  8-H ) :   0.9009 B(  7-C ,  9-C ) :   1.0871
B(  7-C , 10-O ) :   1.0307 B(  9-C , 21-H ) :   0.9033 B(  9-C , 22-H ) :   0.9051
B( 10-O , 23-H ) :   0.8487 B( 11-C , 12-C ) :   1.1110 B( 11-C , 13-C ) :   1.1200
B( 11-C , 24-H ) :   0.8867 B( 12-C , 25-H ) :   0.9467 B( 12-C , 26-H ) :   0.9479
B( 12-C , 27-H ) :   0.9402 B( 13-C , 28-H ) :   0.9468 B( 13-C , 29-H ) :   0.9361
B( 13-C , 30-H ) :   0.9470

Dispersion correction           -0.033236302
FINAL SINGLE POINT ENERGY      -467.193008427853

DIPOLE MOMENT
-------------

Method             : SCF
Type of density    : Electron Density
Multiplicity       :   1
Irrep              :   0
Energy             :  -467.3047973181910493 Eh
Relativity type    :
Basis              : AO
                                X                 Y                 Z
Electronic contribution:      2.704832543      -3.395411762       2.322066910
Nuclear contribution   :     -3.293358141       3.385005798      -2.300310285
                        -----------------------------------------
Total Dipole Moment    :     -0.588525598      -0.010405964       0.021756625
                        -----------------------------------------
Magnitude (a.u.)       :      0.589019537
Magnitude (Debye)      :      1.497168680

Rotational constants in cm-1:             0.057485             0.026918             0.022720
Rotational constants in MHz :          1723.347538           806.979955           681.131600

                             ****ORCA TERMINATED NORMALLY****
TOTAL RUN TIME: 0 days 0 hours 0 minutes 14 seconds 746 msec
