                         Program Version 6.0.0  -   RELEASE  -
|  1> ! r2scan-3c def2/J RI DEFGRID2 scfconv6 printgap
|  2> %output
|  3>     printlevel normal
|  4> end
|  5> * xyz 0 1
|  6> C -2.3767145252 -1.1399442908 -0.3891564107
|  7> C -1.0763201645 -0.6231526729 0.2354677761
|  8> H -1.1594709094 -0.6490744263 1.3337630463
|  9> C -0.793786028 0.8373556956 -0.1733477319
| 10> H -0.9155159754 0.9471350701 -1.262805028
| 11> C 0.6434414484 1.2531682288 0.1724034298
| 12> H 0.70290198 1.4024773783 1.2611548793
| 13> C 1.6563956422 0.1739704953 -0.2292292375
| 14> H 1.6965541715 0.125233221 -1.3293661522
| 15> C 1.2085174709 -1.1964034385 0.3094132537
| 16> H 1.1977645224 -1.1603374815 1.4122661175
| 17> O -0.0652834489 -1.5123833297 -0.1932832365
| 18> O 2.0867857711 -2.2020889817 -0.0508699571
| 19> O 2.9090598675 0.5399129435 0.2935947676
| 20> O 0.9132179433 2.4575547483 -0.4993541261
| 21> O -1.6527664119 1.7137517623 0.5082441456
| 22> O -3.4539642641 -0.3556514868 0.0640225746
| 23> H -2.4938041827 -2.1894696897 -0.096686754
| 24> H -2.2777848758 -1.0852268813 -1.4803482853
| 25> H 1.8715339908 -2.5063114686 -0.9471306868
| 26> H 3.5173997296 -0.2106128192 0.2094575552
| 27> H 1.8069812759 2.7465426978 -0.2613260472
| 28> H -2.5651880404 1.3894434402 0.4042667513
| 29> H -4.2810959457 -0.7042617652 -0.2982977759
| 30> *
| 31>
| 32>                          ****END OF INPUT****

CARTESIAN COORDINATES (ANGSTROEM)
---------------------------------
  C     -2.376715   -1.139944   -0.389156
  C     -1.076320   -0.623153    0.235468
  H     -1.159471   -0.649074    1.333763
  C     -0.793786    0.837356   -0.173348
  H     -0.915516    0.947135   -1.262805
  C      0.643441    1.253168    0.172403
  H      0.702902    1.402477    1.261155
  C      1.656396    0.173970   -0.229229
  H      1.696554    0.125233   -1.329366
  C      1.208517   -1.196403    0.309413
  H      1.197765   -1.160337    1.412266
  O     -0.065283   -1.512383   -0.193283
  O      2.086786   -2.202089   -0.050870
  O      2.909060    0.539913    0.293595
  O      0.913218    2.457555   -0.499354
  O     -1.652766    1.713752    0.508244
  O     -3.453964   -0.355651    0.064023
  H     -2.493804   -2.189470   -0.096687
  H     -2.277785   -1.085227   -1.480348
  H      1.871534   -2.506311   -0.947131
  H      3.517400   -0.210613    0.209458
  H      1.806981    2.746543   -0.261326
  H     -2.565188    1.389443    0.404267
  H     -4.281096   -0.704262   -0.298298

 Total Charge           Charge          ....    0
 Multiplicity           Mult            ....    1
 Number of Electrons    NEL             ....   96
 Basis Dimension        Dim             ....  318

ORBITAL ENERGIES
----------------

  NO   OCC          E(Eh)            E(eV)
   0   2.0000     -18.983481      -516.5668
   1   2.0000     -18.980005      -516.4722
   2   2.0000     -18.976737      -516.3833
   3   2.0000     -18.961437      -515.9669
   4   2.0000     -18.945318      -515.5283
   5   2.0000     -18.939319      -515.3651
   6   2.0000     -10.143366      -276.0150
   7   2.0000     -10.100025      -274.8356
   8   2.0000     -10.098663      -274.7986
   9   2.0000     -10.085793      -274.4484
  10   2.0000     -10.085537      -274.4414
  11   2.0000     -10.084153      -274.4037
  12   2.0000      -1.060804       -28.8660
  13   2.0000      -1.021655       -27.8006
  14   2.0000      -1.005597       -27.3637
  15   2.0000      -0.997000       -27.1298
  16   2.0000      -0.984606       -26.7925
  17   2.0000      -0.973058       -26.4783
  18   2.0000      -0.749745       -20.4016
  19   2.0000      -0.740829       -20.1590
  20   2.0000      -0.662892       -18.0382
  21   2.0000      -0.617656       -16.8073
  22   2.0000      -0.595418       -16.2022
  23   2.0000      -0.557920       -15.1818
  24   2.0000      -0.533866       -14.5272
  25   2.0000      -0.506718       -13.7885
  26   2.0000      -0.504827       -13.7370
  27   2.0000      -0.488851       -13.3023
  28   2.0000      -0.473016       -12.8714
  29   2.0000      -0.463262       -12.6060
  30   2.0000      -0.442643       -12.0449
  31   2.0000      -0.425830       -11.5874
  32   2.0000      -0.413365       -11.2482
  33   2.0000      -0.381184       -10.3725
  34   2.0000      -0.378927       -10.3111
  35   2.0000      -0.369799       -10.0627
  36   2.0000      -0.360406        -9.8072
  37   2.0000      -0.350086        -9.5263
  38   2.0000      -0.341781        -9.3003
  39   2.0000      -0.325191        -8.8489
  40   2.0000      -0.310192        -8.4407
  41   2.0000      -0.288679        -7.8554
  42   2.0000      -0.278984        -7.5915
  43   2.0000      -0.266633        -7.2554
  44   2.0000      -0.261795        -7.1238
  45   2.0000      -0.240257        -6.5377
  46   2.0000      -0.236312        -6.4304
  47   2.0000      -0.219507        -5.9731
  48   0.0000       0.020210         0.5500
  49   0.0000       0.044375         1.2075
  50   0.0000       0.064134         1.7452
  51   0.0000       0.083799         2.2803
  52   0.0000       0.088728         2.4144

MULLIKEN ATOMIC CHARGES
-----------------------
   0 C :   -0.205654
   1 C :   -0.092933
   2 H :    0.177913
   3 C :   -0.004610
   4 H :    0.171720
   5 C :   -0.069787
   6 H :    0.171918
   7 C :    0.113981
   8 H :    0.162219
   9 C :   -0.128733
  10 H :    0.154914
  11 O :   -0.194760
  12 O :   -0.385302
  13 O :   -0.440173
  14 O :   -0.419413
  15 O :   -0.424238
  16 O :   -0.424672
  17 H :    0.139503
  18 H :    0.136532
  19 H :    0.323332
  20 H :    0.309262
  21 H :    0.311097
  22 H :    0.310802
  23 H :    0.307081
Sum of atomic charges:    0.0000000

LOEWDIN ATOMIC CHARGES
----------------------
   0 C :    0.056091
   1 C :    0.127626
   2 H :    0.189296
   3 C :    0.117797
   4 H :    0.184676
   5 C :    0.120388
   6 H :    0.190819
   7 C :    0.107466
   8 H :    0.182300
   9 C :    0.293026
  10 H :    0.195682
  11 O :   -0.688296
  12 O :   -0.496066
  13 O :   -0.578064
  14 O :   -0.558806
  15 O :   -0.572342
  16 O :   -0.623250
  17 H :    0.172051
  18 H :    0.168946
  19 H :    0.284607
  20 H :    0.282405
  21 H :    0.280218
  22 H :    0.286412
  23 H :    0.277020

  Mayer bond orders larger than 0.100000
B(  0-C ,  1-C ) :   0.9813 B(  0-C , 16-O ) :   0.9774 B(  0-C , 17-H ) :   0.9554
B(  0-C , 18-H ) :   0.9743 B(  1-C ,  2-H ) :   0.9549 B(  1-C ,  3-C ) :   0.7822
B(  1-C , 11-O ) :   0.8081 B(  3-C ,  4-H ) :   0.9751 B(  3-C ,  5-C ) :   0.9359
B(  3-C , 15-O ) :   0.8733 B(  5-C ,  6-H ) :   1.0051 B(  5-C ,  7-C ) :   0.8392
B(  5-C , 14-O ) :   0.9257 B(  7-C ,  8-H ) :   0.9567 B(  7-C ,  9-C ) :   0.7810
B(  7-C , 13-O ) :   0.9005 B(  9-C , 10-H ) :   1.0022 B(  9-C , 11-O ) :   0.9438
B(  9-C , 12-O ) :   1.0950 B( 12-O , 19-H ) :   0.8708 B( 13-O , 20-H ) :   0.8762
B( 14-O , 21-H ) :   0.8806 B( 15-O , 22-H ) :   0.8516 B( 16-O , 23-H ) :   0.8913

Dispersion correction           -0.007962901
FINAL SINGLE POINT ENERGY      -687.072727900705

DIPOLE MOMENT
-------------

Method             : SCF
Type of density    : Electron Density
Multiplicity       :   1
Irrep              :   0
Energy             :  -687.0846939732184637 Eh
Relativity type    :
Basis              : AO
                                X                 Y                 Z
Electronic contribution:      2.145919387       0.498317144       0.384779375
Nuclear contribution   :     -2.709515638      -1.767830812      -0.988006001
                        -----------------------------------------
Total Dipole Moment    :     -0.563596250      -1.269513668      -0.603226626
                        -----------------------------------------
Magnitude (a.u.)       :      1.514327589
Magnitude (Debye)      :      3.849114838

Rotational constants in cm-1:             0.043879             0.024495             0.016566
Rotational constants in MHz :          1315.448977           734.341913           496.651051

                             ****ORCA TERMINATED NORMALLY****
TOTAL RUN TIME: 0 days 0 hours 0 minutes 47 seconds 536 msec
