                         Program Version 6.0.0  -   RELEASE  -
|  1> ! r2scan-3c def2/J RI DEFGRID2 scfconv6 printgap
|  2> %output
|  3>     printlevel normal
|  4> end
|  5> %cpcm
|  6>     smd true
|  7>     smdsolvent "water"
|  8> end
|  9> * xyz 0 1
| 10> C -2.3767145252 -1.1399442908 -0.3891564107
| 11> C -1.0763201645 -0.6231526729 0.2354677761
| 12> H -1.1594709094 -0.6490744263 1.3337630463
| 13> C -0.793786028 0.8373556956 -0.1733477319
| 14> H -0.9155159754 0.9471350701 -1.262805028
| 15> C 0.6434414484 1.2531682288 0.1724034298
| 16> H 0.70290198 1.4024773783 1.2611548793
| 17> C 1.6563956422 0.1739704953 -0.2292292375
| 18> H 1.6965541715 0.125233221 -1.3293661522
| 19> C 1.2085174709 -1.1964034385 0.3094132537
| 20> H 1.1977645224 -1.1603374815 1.4122661175
| 21> O -0.0652834489 -1.5123833297 -0.1932832365
| 22> O 2.0867857711 -2.2020889817 -0.0508699571
| 23> O 2.9090598675 0.5399129435 0.2935947676
| 24> O 0.9132179433 2.4575547483 -0.4993541261
| 25> O -1.6527664119 1.7137517623 0.5082441456
| 26> O -3.4539642641 -0.3556514868 0.0640225746
| 27> H -2.4938041827 -2.1894696897 -0.096686754
| 28> H -2.2777848758 -1.0852268813 -1.4803482853
| 29> H 1.8715339908 -2.5063114686 -0.9471306868
| 30> H 3.5173997296 -0.2106128192 0.2094575552
| 31> H 1.8069812759 2.7465426978 -0.2613260472
| 32> H -2.5651880404 1.3894434402 0.4042667513
| 33> H -4.2810959457 -0.7042617652 -0.2982977759
| 34> *
| 35>
| 36>                          ****END OF INPUT****

CARTESIAN COORDINATES (ANGSTROEM)
---------------------------------
  C     -2.376715   -1.139944   -0.389156
  C     -1.076320   -0.623153    0.235468
  H     -1.159471   -0.649074    1.333763
  C     -0.793786    0.837356   -0.173348
  H     -0.915516    0.947135   -1.262805
  C      0.643441    1.253168    0.172403
  H      0.702902    1.402477    1.261155
  C      1.656396    0.173970   -0.229229
  H      1.696554    0.125233   -1.329366
  C      1.208517   -1.196403    0.309413
  H      1.197765   -1.160337    1.412266
  O     -0.065283   -1.512383   -0.193283
  O      2.086786   -2.202089   -0.050870
  O      2.909060    0.539913    0.293595
  O      0.913218    2.457555   -0.499354
  O     -1.652766    1.713752    0.508244
  O     -3.453964   -0.355651    0.064023
  H     -2.493804   -2.189470   -0.096687
  H     -2.277785   -1.085227   -1.480348
  H      1.871534   -2.506311   -0.947131
  H      3.517400   -0.210613    0.209458
  H      1.806981    2.746543   -0.261326
  H     -2.565188    1.389443    0.404267
  H     -4.281096   -0.704262   -0.298298

 Total Charge           Charge          ....    0
 Multiplicity           Mult            ....    1
 Number of Electrons    NEL             ....   96
 Basis Dimension        Dim             ....  318

ORBITAL ENERGIES
----------------

  NO   OCC          E(Eh)            E(eV)
   0   2.0000     -18.978040      -516.4187
   1   2.0000     -18.970219      -516.2059
   2   2.0000     -18.965541      -516.0786
   3   2.0000     -18.961884      -515.9791
   4   2.0000     -18.958793      -515.8950
   5   2.0000     -18.954748      -515.7849
   6   2.0000     -10.137153      -275.8460
   7   2.0000     -10.092432      -274.6290
   8   2.0000     -10.087517      -274.4953
   9   2.0000     -10.087286      -274.4890
  10   2.0000     -10.083231      -274.3787
  11   2.0000     -10.080852      -274.3139
  12   2.0000      -1.056398       -28.7461
  13   2.0000      -1.012043       -27.5391
  14   2.0000      -1.007280       -27.4095
  15   2.0000      -0.995316       -27.0839
  16   2.0000      -0.985997       -26.8303
  17   2.0000      -0.983307       -26.7571
  18   2.0000      -0.746854       -20.3229
  19   2.0000      -0.736640       -20.0450
  20   2.0000      -0.656101       -17.8534
  21   2.0000      -0.615033       -16.7359
  22   2.0000      -0.589276       -16.0350
  23   2.0000      -0.555473       -15.1152
  24   2.0000      -0.525029       -14.2868
  25   2.0000      -0.509046       -13.8518
  26   2.0000      -0.499492       -13.5919
  27   2.0000      -0.486920       -13.2498
  28   2.0000      -0.464969       -12.6525
  29   2.0000      -0.459932       -12.5154
  30   2.0000      -0.440527       -11.9873
  31   2.0000      -0.416932       -11.3453
  32   2.0000      -0.410134       -11.1603
  33   2.0000      -0.384165       -10.4537
  34   2.0000      -0.382926       -10.4199
  35   2.0000      -0.370391       -10.0789
  36   2.0000      -0.359651        -9.7866
  37   2.0000      -0.345187        -9.3930
  38   2.0000      -0.342886        -9.3304
  39   2.0000      -0.331435        -9.0188
  40   2.0000      -0.314426        -8.5560
  41   2.0000      -0.286555        -7.7976
  42   2.0000      -0.279800        -7.6137
  43   2.0000      -0.269296        -7.3279
  44   2.0000      -0.250789        -6.8243
  45   2.0000      -0.249484        -6.7888
  46   2.0000      -0.243751        -6.6328
  47   2.0000      -0.224311        -6.1038
  48   0.0000       0.034986         0.9520
  49   0.0000       0.058974         1.6048
  50   0.0000       0.083939         2.2841
  51   0.0000       0.091168         2.4808
  52   0.0000       0.099590         2.7100

MULLIKEN ATOMIC CHARGES
-----------------------
   0 C :   -0.214327
   1 C :   -0.104975
   2 H :    0.202792
   3 C :    0.008618
   4 H :    0.185360
   5 C :   -0.027634
   6 H :    0.178421
   7 C :    0.072804
   8 H :    0.183036
   9 C :   -0.103576
  10 H :    0.178234
  11 O :   -0.236975
  12 O :   -0.436896
  13 O :   -0.498032
  14 O :   -0.494944
  15 O :   -0.501723
  16 O :   -0.481270
  17 H :    0.156301
  18 H :    0.157037
  19 H :    0.372663
  20 H :    0.349055
  21 H :    0.353849
  22 H :    0.346025
  23 H :    0.356155
Sum of atomic charges:    0.0000000

LOEWDIN ATOMIC CHARGES
----------------------
   0 C :    0.059869
   1 C :    0.128898
   2 H :    0.196072
   3 C :    0.115956
   4 H :    0.192632
   5 C :    0.116670
   6 H :    0.196338
   7 C :    0.112104
   8 H :    0.191609
   9 C :    0.295448
  10 H :    0.204943
  11 O :   -0.698876
  12 O :   -0.511101
  13 O :   -0.597165
  14 O :   -0.595662
  15 O :   -0.612480
  16 O :   -0.633195
  17 H :    0.178639
  18 H :    0.176774
  19 H :    0.301551
  20 H :    0.295943
  21 H :    0.294677
  22 H :    0.294612
  23 H :    0.295746

  Mayer bond orders larger than 0.100000
B(  0-C ,  1-C ) :   0.9512 B(  0-C , 16-O ) :   0.9720 B(  0-C , 17-H ) :   0.9574
B(  0-C , 18-H ) :   0.9712 B(  1-C ,  2-H ) :   0.9567 B(  1-C ,  3-C ) :   0.8022
B(  1-C , 11-O ) :   0.8177 B(  3-C ,  4-H ) :   0.9557 B(  3-C ,  5-C ) :   0.9311
B(  3-C , 15-O ) :   0.8496 B(  5-C ,  6-H ) :   0.9738 B(  5-C ,  7-C ) :   0.8811
B(  5-C , 14-O ) :   0.9004 B(  7-C ,  8-H ) :   0.9589 B(  7-C ,  9-C ) :   0.8016
B(  7-C , 13-O ) :   0.8877 B(  9-C , 10-H ) :   0.9916 B(  9-C , 11-O ) :   0.9281
B(  9-C , 12-O ) :   1.0905 B( 12-O , 19-H ) :   0.8429 B( 13-O , 20-H ) :   0.8580
B( 14-O , 21-H ) :   0.8598 B( 15-O , 22-H ) :   0.8346 B( 16-O , 23-H ) :   0.8641

Dispersion correction           -0.007962901
FINAL SINGLE POINT ENERGY      -687.106859684408

DIPOLE MOMENT
-------------

Method             : SCF
Type of density    : Electron Density
Multiplicity       :   1
Irrep              :   0
Energy             :  -687.1188257569211828 Eh
Relativity type    :
Basis              : AO
                                X                 Y                 Z
Electronic contribution:      2.077823190      -0.017778553       0.149395673
Nuclear contribution   :     -2.709515638      -1.767830812      -0.988006001
                        -----------------------------------------
Total Dipole Moment    :     -0.631692447      -1.785609365      -0.838610328
                        -----------------------------------------
Magnitude (a.u.)       :      2.071401322
Magnitude (Debye)      :      5.265083736

Rotational constants in cm-1:             0.043879             0.024495             0.016566
Rotational constants in MHz :          1315.448977           734.341913           496.651051

                             ****ORCA TERMINATED NORMALLY****
TOTAL RUN TIME: 0 days 0 hours 0 minutes 56 seconds 710 msec
