                         Program Version 6.0.0  -   RELEASE  -
|  1> ! r2scan-3c def2/J RI DEFGRID2 scfconv6 printgap
|  2> %output
|  3>     printlevel normal
|  4> end
|  5> * xyz 0 1
|  6> C 1.99632671 -0.7959139641 -0.3607607552
|  7> O 1.1354027452 0.3378877555 -0.4087736817
|  8> S -0.3687361105 0.0517060846 0.0908242477
|  9> O -0.3214977058 -0.3451472435 1.4807586943
| 10> O -0.96903811 -0.9191772232 -0.7972378774
| 11> C -1.0624132264 1.6678195279 -0.1196807244
| 12> H 2.9647525369 -0.462719099 -0.7245273531
| 13> H 1.5887949864 -1.5847765095 -0.9947425243
| 14> H 2.0646461354 -1.1529956785 0.6678417663
| 15> H -0.4969538162 2.3329390215 0.5164583812
| 16> H -0.9550407107 1.9164667862 -1.1654489069
| 17> H -2.1020372743 1.6221393143 0.1749369677
| 18> *
| 19>
| 20>                          ****END OF INPUT****

CARTESIAN COORDINATES (ANGSTROEM)
---------------------------------
  C      1.996327   -0.795914   -0.360761
  O      1.135403    0.337888   -0.408774
  S     -0.368736    0.051706    0.090824
  O     -0.321498   -0.345147    1.480759
  O     -0.969038   -0.919177   -0.797238
  C     -1.062413    1.667820   -0.119681
  H      2.964753   -0.462719   -0.724527
  H      1.588795   -1.584777   -0.994743
  H      2.064646   -1.152996    0.667842
  H     -0.496954    2.332939    0.516458
  H     -0.955041    1.916467   -1.165449
  H     -2.102037    1.622139    0.174937

 Total Charge           Charge          ....    0
 Multiplicity           Mult            ....    1
 Number of Electrons    NEL             ....   58
 Basis Dimension        Dim             ....  167

ORBITAL ENERGIES
----------------

  NO   OCC          E(Eh)            E(eV)
   0   2.0000     -88.789780     -2416.0927
   1   2.0000     -19.007775      -517.2279
   2   2.0000     -18.945303      -515.5279
   3   2.0000     -18.945273      -515.5271
   4   2.0000     -10.097633      -274.7706
   5   2.0000     -10.087756      -274.5018
   6   2.0000      -8.057145      -219.2461
   7   2.0000      -6.004509      -163.3910
   8   2.0000      -6.001047      -163.2968
   9   2.0000      -6.000758      -163.2889
  10   2.0000      -1.115016       -30.3411
  11   2.0000      -1.014215       -27.5982
  12   2.0000      -0.972292       -26.4574
  13   2.0000      -0.773510       -21.0483
  14   2.0000      -0.693316       -18.8661
  15   2.0000      -0.578122       -15.7315
  16   2.0000      -0.512985       -13.9590
  17   2.0000      -0.479024       -13.0349
  18   2.0000      -0.464925       -12.6513
  19   2.0000      -0.438438       -11.9305
  20   2.0000      -0.432344       -11.7647
  21   2.0000      -0.414843       -11.2885
  22   2.0000      -0.404341       -11.0027
  23   2.0000      -0.369562       -10.0563
  24   2.0000      -0.311203        -8.4683
  25   2.0000      -0.310144        -8.4395
  26   2.0000      -0.296570        -8.0701
  27   2.0000      -0.284272        -7.7354
  28   2.0000      -0.255097        -6.9416
  29   0.0000       0.016784         0.4567
  30   0.0000       0.045070         1.2264
  31   0.0000       0.063052         1.7157
  32   0.0000       0.075082         2.0431
  33   0.0000       0.091798         2.4979

MULLIKEN ATOMIC CHARGES
-----------------------
   0 C :   -0.288688
   1 O :   -0.244861
   2 S :    0.967352
   3 O :   -0.523462
   4 O :   -0.523024
   5 C :   -0.467910
   6 H :    0.156974
   7 H :    0.172885
   8 H :    0.172960
   9 H :    0.191922
  10 H :    0.191723
  11 H :    0.194130
Sum of atomic charges:    0.0000000

LOEWDIN ATOMIC CHARGES
----------------------
   0 C :   -0.051960
   1 O :   -0.630200
   2 S :    0.820253
   3 O :   -0.454212
   4 O :   -0.454034
   5 C :   -0.333951
   6 H :    0.181553
   7 H :    0.177706
   8 H :    0.177701
   9 H :    0.188359
  10 H :    0.188482
  11 H :    0.190305

  Mayer bond orders larger than 0.100000
B(  0-C ,  1-O ) :   0.8258 B(  0-C ,  6-H ) :   0.9615 B(  0-C ,  7-H ) :   0.9591
B(  0-C ,  8-H ) :   0.9590 B(  1-O ,  2-S ) :   0.9206 B(  2-S ,  3-O ) :   1.6813
B(  2-S ,  4-O ) :   1.6823 B(  2-S ,  5-C ) :   0.9374 B(  5-C ,  9-H ) :   0.9296
B(  5-C , 10-H ) :   0.9296 B(  5-C , 11-H ) :   0.9273

Dispersion correction           -0.003053347
FINAL SINGLE POINT ENERGY      -703.553578386789

DIPOLE MOMENT
-------------

Method             : SCF
Type of density    : Electron Density
Multiplicity       :   1
Irrep              :   0
Energy             :  -703.5702461704729558 Eh
Relativity type    :
Basis              : AO
                                X                 Y                 Z
Electronic contribution:     -2.377358785      -1.392263363       1.012357117
Nuclear contribution   :      2.882989075       2.490695060      -1.429697779
                        -----------------------------------------
Total Dipole Moment    :      0.505630290       1.098431697      -0.417340662
                        -----------------------------------------
Magnitude (a.u.)       :      1.279213591
Magnitude (Debye)      :      3.251502547

Rotational constants in cm-1:             0.152231             0.087689             0.083645
Rotational constants in MHz :          4563.763689          2628.848482          2507.620891

                             ****ORCA TERMINATED NORMALLY****
TOTAL RUN TIME: 0 days 0 hours 0 minutes 15 seconds 380 msec
