                         Program Version 6.0.0  -   RELEASE  -
|  1> ! r2scan-3c def2/J RI DEFGRID2 scfconv6 printgap
|  2> %output
|  3>     printlevel normal
|  4> end
|  5> %cpcm
|  6>     smd true
|  7>     smdsolvent "water"
|  8> end
|  9> * xyz 0 1
| 10> C 1.99632671 -0.7959139641 -0.3607607552
| 11> O 1.1354027452 0.3378877555 -0.4087736817
| 12> S -0.3687361105 0.0517060846 0.0908242477
| 13> O -0.3214977058 -0.3451472435 1.4807586943
| 14> O -0.96903811 -0.9191772232 -0.7972378774
| 15> C -1.0624132264 1.6678195279 -0.1196807244
| 16> H 2.9647525369 -0.462719099 -0.7245273531
| 17> H 1.5887949864 -1.5847765095 -0.9947425243
| 18> H 2.0646461354 -1.1529956785 0.6678417663
| 19> H -0.4969538162 2.3329390215 0.5164583812
| 20> H -0.9550407107 1.9164667862 -1.1654489069
| 21> H -2.1020372743 1.6221393143 0.1749369677
| 22> *
| 23>
| 24>                          ****END OF INPUT****

CARTESIAN COORDINATES (ANGSTROEM)
---------------------------------
  C      1.996327   -0.795914   -0.360761
  O      1.135403    0.337888   -0.408774
  S     -0.368736    0.051706    0.090824
  O     -0.321498   -0.345147    1.480759
  O     -0.969038   -0.919177   -0.797238
  C     -1.062413    1.667820   -0.119681
  H      2.964753   -0.462719   -0.724527
  H      1.588795   -1.584777   -0.994743
  H      2.064646   -1.152996    0.667842
  H     -0.496954    2.332939    0.516458
  H     -0.955041    1.916467   -1.165449
  H     -2.102037    1.622139    0.174937

 Total Charge           Charge          ....    0
 Multiplicity           Mult            ....    1
 Number of Electrons    NEL             ....   58
 Basis Dimension        Dim             ....  167

ORBITAL ENERGIES
----------------

  NO   OCC          E(Eh)            E(eV)
   0   2.0000     -88.798972     -2416.3429
   1   2.0000     -19.010337      -517.2976
   2   2.0000     -18.960647      -515.9454
   3   2.0000     -18.960622      -515.9447
   4   2.0000     -10.084902      -274.4241
   5   2.0000     -10.069701      -274.0105
   6   2.0000      -8.066429      -219.4987
   7   2.0000      -6.013718      -163.6416
   8   2.0000      -6.010917      -163.5654
   9   2.0000      -6.009520      -163.5274
  10   2.0000      -1.124935       -30.6110
  11   2.0000      -1.020618       -27.7724
  12   2.0000      -0.989051       -26.9134
  13   2.0000      -0.765055       -20.8182
  14   2.0000      -0.682965       -18.5844
  15   2.0000      -0.576104       -15.6766
  16   2.0000      -0.512917       -13.9572
  17   2.0000      -0.483314       -13.1516
  18   2.0000      -0.469041       -12.7633
  19   2.0000      -0.429410       -11.6848
  20   2.0000      -0.424844       -11.5606
  21   2.0000      -0.404713       -11.0128
  22   2.0000      -0.400961       -10.9107
  23   2.0000      -0.371104       -10.0982
  24   2.0000      -0.320853        -8.7309
  25   2.0000      -0.317917        -8.6509
  26   2.0000      -0.305278        -8.3070
  27   2.0000      -0.298621        -8.1259
  28   2.0000      -0.267993        -7.2925
  29   0.0000       0.019260         0.5241
  30   0.0000       0.046175         1.2565
  31   0.0000       0.064806         1.7635
  32   0.0000       0.073890         2.0106
  33   0.0000       0.095830         2.6077

MULLIKEN ATOMIC CHARGES
-----------------------
   0 C :   -0.300004
   1 O :   -0.265000
   2 S :    0.970558
   3 O :   -0.582400
   4 O :   -0.581959
   5 C :   -0.464189
   6 H :    0.190149
   7 H :    0.180856
   8 H :    0.180995
   9 H :    0.222480
  10 H :    0.222412
  11 H :    0.226099
Sum of atomic charges:    0.0000000

LOEWDIN ATOMIC CHARGES
----------------------
   0 C :   -0.047830
   1 O :   -0.632914
   2 S :    0.827482
   3 O :   -0.500242
   4 O :   -0.500110
   5 C :   -0.313664
   6 H :    0.196064
   7 H :    0.180854
   8 H :    0.180883
   9 H :    0.202599
  10 H :    0.202766
  11 H :    0.204112

  Mayer bond orders larger than 0.100000
B(  0-C ,  1-O ) :   0.8152 B(  0-C ,  6-H ) :   0.9496 B(  0-C ,  7-H ) :   0.9528
B(  0-C ,  8-H ) :   0.9528 B(  1-O ,  2-S ) :   0.9393 B(  2-S ,  3-O ) :   1.6223
B(  2-S ,  4-O ) :   1.6231 B(  2-S ,  5-C ) :   0.9878 B(  5-C ,  9-H ) :   0.9092
B(  5-C , 10-H ) :   0.9092 B(  5-C , 11-H ) :   0.9038

Dispersion correction           -0.003053347
FINAL SINGLE POINT ENERGY      -703.568687517007

DIPOLE MOMENT
-------------

Method             : SCF
Type of density    : Electron Density
Multiplicity       :   1
Irrep              :   0
Energy             :  -703.5853553006912762 Eh
Relativity type    :
Basis              : AO
                                X                 Y                 Z
Electronic contribution:     -2.231685265      -0.962718611       0.863627588
Nuclear contribution   :      2.882989075       2.490695060      -1.429697779
                        -----------------------------------------
Total Dipole Moment    :      0.651303810       1.527976449      -0.566070191
                        -----------------------------------------
Magnitude (a.u.)       :      1.754806012
Magnitude (Debye)      :      4.460362413

Rotational constants in cm-1:             0.152231             0.087689             0.083645
Rotational constants in MHz :          4563.763689          2628.848482          2507.620891

                             ****ORCA TERMINATED NORMALLY****
TOTAL RUN TIME: 0 days 0 hours 0 minutes 18 seconds 792 msec
