                         Program Version 6.0.0  -   RELEASE  -
|  1> ! wb97x-v def2-tzvp def2/J RIJCOSX DEFGRID2 scfconv7 GCP(DFT/TZ) printgap
|  2> %output
|  3>     printlevel normal
|  4> end
|  5> * xyz 0 1
|  6> C -1.4670885037995998 -0.0006629491954007268 -0.2229996287970483
|  7> C -0.7238010277484752 1.2562499211320546 0.23338857179327938
|  8> C 0.7307614630559371 1.2084129187764732 -0.216805028992564
|  9> N 1.3914709517313233 0.0007290443890361219 0.31430974292458397
| 10> C 0.731915136178677 -1.2075495660082118 -0.21688181229507286
| 11> C -0.7225568689079022 -1.2568221708510017 0.23342724061243023
| 12> H -1.5286357980995673 -0.0007173080114514457 -1.3202917046113776
| 13> H -2.494756445920517 -0.0011552024151389216 0.1574616302039533
| 14> H -1.201002579580053 2.15520900666632 -0.17367064756803777
| 15> H -0.7633319986903474 1.33322866696187 1.327896352043893
| 16> H 0.7603170589471612 1.2326673876457523 -1.3224552436741397
| 17> H 1.2704483140259983 2.0914837999225946 0.14200926455528798
| 18> H 2.3454363647025325 0.0012015009057092436 -0.03418756189384743
| 19> H 0.7613877374252025 -1.2316461965897136 -1.3225393073264966
| 20> H 1.2725039143247447 -2.090127225673414 0.14178169654966186
| 21> H -1.1989120926010346 -2.156280072053168 -0.17351921257132855
| 22> H -0.761914736236974 -1.333752775925956 1.327947023981985
| 23> *
| 24>
| 25>                          ****END OF INPUT****

CARTESIAN COORDINATES (ANGSTROEM)
---------------------------------
  C     -1.467089   -0.000663   -0.223000
  C     -0.723801    1.256250    0.233389
  C      0.730761    1.208413   -0.216805
  N      1.391471    0.000729    0.314310
  C      0.731915   -1.207550   -0.216882
  C     -0.722557   -1.256822    0.233427
  H     -1.528636   -0.000717   -1.320292
  H     -2.494756   -0.001155    0.157462
  H     -1.201003    2.155209   -0.173671
  H     -0.763332    1.333229    1.327896
  H      0.760317    1.232667   -1.322455
  H      1.270448    2.091484    0.142009
  H      2.345436    0.001202   -0.034188
  H      0.761388   -1.231646   -1.322539
  H      1.272504   -2.090127    0.141782
  H     -1.198912   -2.156280   -0.173519
  H     -0.761915   -1.333753    1.327947

 Total Charge           Charge          ....    0
 Multiplicity           Mult            ....    1
 Number of Electrons    NEL             ....   48
 Basis Dimension        Dim             ....  252

ORBITAL ENERGIES
----------------

  NO   OCC          E(Eh)            E(eV)
   0   2.0000     -16.506600      -449.1674
   1   2.0000     -12.061813      -328.2186
   2   2.0000     -12.061601      -328.2129
   3   2.0000     -12.037416      -327.5547
   4   2.0000     -12.035479      -327.5020
   5   2.0000     -12.035001      -327.4890
   6   2.0000      -1.462513       -39.7970
   7   2.0000      -1.297591       -35.3092
   8   2.0000      -1.258447       -34.2441
   9   2.0000      -1.134255       -30.8646
  10   2.0000      -1.110767       -30.2255
  11   2.0000      -1.015366       -27.6295
  12   2.0000      -0.965194       -26.2643
  13   2.0000      -0.906758       -24.6742
  14   2.0000      -0.888676       -24.1821
  15   2.0000      -0.862806       -23.4781
  16   2.0000      -0.857108       -23.3231
  17   2.0000      -0.853453       -23.2236
  18   2.0000      -0.824022       -22.4228
  19   2.0000      -0.777458       -21.1557
  20   2.0000      -0.763847       -20.7853
  21   2.0000      -0.760706       -20.6999
  22   2.0000      -0.754868       -20.5410
  23   2.0000      -0.694939       -18.9103
  24   0.0000      -0.083750        -2.2790
  25   0.0000      -0.043186        -1.1751
  26   0.0000      -0.031216        -0.8494
  27   0.0000      -0.018008        -0.4900
  28   0.0000      -0.010558        -0.2873

MULLIKEN ATOMIC CHARGES
-----------------------
   0 C :   -0.174581
   1 C :   -0.164544
   2 C :   -0.142114
   3 N :   -0.304592
   4 C :   -0.142109
   5 C :   -0.164550
   6 H :    0.085956
   7 H :    0.097978
   8 H :    0.093929
   9 H :    0.087363
  10 H :    0.082115
  11 H :    0.099830
  12 H :    0.182085
  13 H :    0.082117
  14 H :    0.099825
  15 H :    0.093925
  16 H :    0.087368
Sum of atomic charges:    0.0000000

LOEWDIN ATOMIC CHARGES
----------------------
   0 C :   -0.264317
   1 C :   -0.264149
   2 C :   -0.304731
   3 N :   -0.028653
   4 C :   -0.304731
   5 C :   -0.264151
   6 H :    0.132025
   7 H :    0.130069
   8 H :    0.131660
   9 H :    0.135090
  10 H :    0.113767
  11 H :    0.123869
  12 H :    0.159867
  13 H :    0.113768
  14 H :    0.123867
  15 H :    0.131658
  16 H :    0.135092

  Mayer bond orders larger than 0.100000
B(  0-C ,  1-C ) :   0.9900 B(  0-C ,  5-C ) :   0.9899 B(  0-C ,  6-H ) :   0.9784
B(  0-C ,  7-H ) :   0.9761 B(  1-C ,  2-C ) :   1.0050 B(  1-C ,  8-H ) :   0.9745
B(  1-C ,  9-H ) :   0.9664 B(  2-C ,  3-N ) :   1.0091 B(  2-C , 10-H ) :   0.9816
B(  2-C , 11-H ) :   0.9686 B(  3-N ,  4-C ) :   1.0091 B(  3-N , 12-H ) :   0.9390
B(  4-C ,  5-C ) :   1.0049 B(  4-C , 13-H ) :   0.9816 B(  4-C , 14-H ) :   0.9686
B(  5-C , 15-H ) :   0.9746 B(  5-C , 16-H ) :   0.9664

FINAL SINGLE POINT ENERGY      -251.916855484712

DIPOLE MOMENT
-------------

Method             : SCF
Type of density    : Electron Density
Multiplicity       :   1
Irrep              :   0
Energy             :  -251.9287804747116581 Eh
Relativity type    :
Basis              : AO
                                X                 Y                 Z
Electronic contribution:      1.521096487       0.000632004       0.866097513
Nuclear contribution   :     -1.498058200      -0.000601649      -1.275164735
                        -----------------------------------------
Total Dipole Moment    :      0.023038287       0.000030355      -0.409067222
                        -----------------------------------------
Magnitude (a.u.)       :      0.409715457
Magnitude (Debye)      :      1.041413929

Rotational constants in cm-1:             0.151622             0.147315             0.084768
Rotational constants in MHz :          4545.502448          4416.405186          2541.292256

                             ****ORCA TERMINATED NORMALLY****
TOTAL RUN TIME: 0 days 0 hours 1 minutes 50 seconds 168 msec
