                         Program Version 6.0.0  -   RELEASE  -
|  1> ! wb97x-v def2-tzvp def2/J RIJCOSX DEFGRID2 scfconv7 GCP(DFT/TZ) printgap
|  2> %output
|  3>     printlevel normal
|  4> end
|  5> %cpcm
|  6>     smd true
|  7>     smdsolvent "water"
|  8> end
|  9> * xyz 0 1
| 10> C -1.4670885037995998 -0.0006629491954007268 -0.2229996287970483
| 11> C -0.7238010277484752 1.2562499211320546 0.23338857179327938
| 12> C 0.7307614630559371 1.2084129187764732 -0.216805028992564
| 13> N 1.3914709517313233 0.0007290443890361219 0.31430974292458397
| 14> C 0.731915136178677 -1.2075495660082118 -0.21688181229507286
| 15> C -0.7225568689079022 -1.2568221708510017 0.23342724061243023
| 16> H -1.5286357980995673 -0.0007173080114514457 -1.3202917046113776
| 17> H -2.494756445920517 -0.0011552024151389216 0.1574616302039533
| 18> H -1.201002579580053 2.15520900666632 -0.17367064756803777
| 19> H -0.7633319986903474 1.33322866696187 1.327896352043893
| 20> H 0.7603170589471612 1.2326673876457523 -1.3224552436741397
| 21> H 1.2704483140259983 2.0914837999225946 0.14200926455528798
| 22> H 2.3454363647025325 0.0012015009057092436 -0.03418756189384743
| 23> H 0.7613877374252025 -1.2316461965897136 -1.3225393073264966
| 24> H 1.2725039143247447 -2.090127225673414 0.14178169654966186
| 25> H -1.1989120926010346 -2.156280072053168 -0.17351921257132855
| 26> H -0.761914736236974 -1.333752775925956 1.327947023981985
| 27> *
| 28>
| 29>                          ****END OF INPUT****

CARTESIAN COORDINATES (ANGSTROEM)
---------------------------------
  C     -1.467089   -0.000663   -0.223000
  C     -0.723801    1.256250    0.233389
  C      0.730761    1.208413   -0.216805
  N      1.391471    0.000729    0.314310
  C      0.731915   -1.207550   -0.216882
  C     -0.722557   -1.256822    0.233427
  H     -1.528636   -0.000717   -1.320292
  H     -2.494756   -0.001155    0.157462
  H     -1.201003    2.155209   -0.173671
  H     -0.763332    1.333229    1.327896
  H      0.760317    1.232667   -1.322455
  H      1.270448    2.091484    0.142009
  H      2.345436    0.001202   -0.034188
  H      0.761388   -1.231646   -1.322539
  H      1.272504   -2.090127    0.141782
  H     -1.198912   -2.156280   -0.173519
  H     -0.761915   -1.333753    1.327947

 Total Charge           Charge          ....    0
 Multiplicity           Mult            ....    1
 Number of Electrons    NEL             ....   48
 Basis Dimension        Dim             ....  252

ORBITAL ENERGIES
----------------

  NO   OCC          E(Eh)            E(eV)
   0   2.0000     -16.503366      -449.0794
   1   2.0000     -12.054343      -328.0153
   2   2.0000     -12.054135      -328.0097
   3   2.0000     -12.029883      -327.3498
   4   2.0000     -12.028785      -327.3199
   5   2.0000     -12.028104      -327.3013
   6   2.0000      -1.458006       -39.6744
   7   2.0000      -1.291048       -35.1312
   8   2.0000      -1.252117       -34.0718
   9   2.0000      -1.127506       -30.6810
  10   2.0000      -1.104563       -30.0567
  11   2.0000      -1.008930       -27.4544
  12   2.0000      -0.959709       -26.1150
  13   2.0000      -0.901196       -24.5228
  14   2.0000      -0.882159       -24.0048
  15   2.0000      -0.856546       -23.3078
  16   2.0000      -0.850665       -23.1478
  17   2.0000      -0.847091       -23.0505
  18   2.0000      -0.817098       -22.2344
  19   2.0000      -0.770849       -20.9759
  20   2.0000      -0.756749       -20.5922
  21   2.0000      -0.753641       -20.5076
  22   2.0000      -0.748986       -20.3809
  23   2.0000      -0.691807       -18.8250
  24   0.0000      -0.077296        -2.1033
  25   0.0000      -0.037929        -1.0321
  26   0.0000      -0.020926        -0.5694
  27   0.0000      -0.010987        -0.2990
  28   0.0000      -0.003365        -0.0916

MULLIKEN ATOMIC CHARGES
-----------------------
   0 C :   -0.182763
   1 C :   -0.191231
   2 C :   -0.160902
   3 N :   -0.384258
   4 C :   -0.160901
   5 C :   -0.191231
   6 H :    0.098424
   7 H :    0.110442
   8 H :    0.110954
   9 H :    0.091348
  10 H :    0.097528
  11 H :    0.118341
  12 H :    0.226084
  13 H :    0.097530
  14 H :    0.118338
  15 H :    0.110949
  16 H :    0.091348
Sum of atomic charges:    0.0000000

LOEWDIN ATOMIC CHARGES
----------------------
   0 C :   -0.266415
   1 C :   -0.268851
   2 C :   -0.305849
   3 N :   -0.051152
   4 C :   -0.305850
   5 C :   -0.268853
   6 H :    0.135299
   7 H :    0.131926
   8 H :    0.135330
   9 H :    0.133152
  10 H :    0.119279
  11 H :    0.126569
  12 H :    0.171083
  13 H :    0.119281
  14 H :    0.126568
  15 H :    0.135328
  16 H :    0.133153

  Mayer bond orders larger than 0.100000
B(  0-C ,  1-C ) :   0.9833 B(  0-C ,  5-C ) :   0.9833 B(  0-C ,  6-H ) :   0.9745
B(  0-C ,  7-H ) :   0.9740 B(  1-C ,  2-C ) :   0.9979 B(  1-C ,  8-H ) :   0.9726
B(  1-C ,  9-H ) :   0.9692 B(  2-C ,  3-N ) :   1.0005 B(  2-C , 10-H ) :   0.9840
B(  2-C , 11-H ) :   0.9703 B(  3-N ,  4-C ) :   1.0005 B(  3-N , 12-H ) :   0.9271
B(  4-C ,  5-C ) :   0.9979 B(  4-C , 13-H ) :   0.9840 B(  4-C , 14-H ) :   0.9703
B(  5-C , 15-H ) :   0.9726 B(  5-C , 16-H ) :   0.9692

FINAL SINGLE POINT ENERGY      -251.924025639920

DIPOLE MOMENT
-------------

Method             : SCF
Type of density    : Electron Density
Multiplicity       :   1
Irrep              :   0
Energy             :  -251.9359506299203701 Eh
Relativity type    :
Basis              : AO
                                X                 Y                 Z
Electronic contribution:      1.532516325       0.000647476       0.630316874
Nuclear contribution   :     -1.498058200      -0.000601649      -1.275164735
                        -----------------------------------------
Total Dipole Moment    :      0.034458125       0.000045827      -0.644847862
                        -----------------------------------------
Magnitude (a.u.)       :      0.645767860
Magnitude (Debye)      :      1.641411455

Rotational constants in cm-1:             0.151622             0.147315             0.084768
Rotational constants in MHz :          4545.502448          4416.405186          2541.292256

                             ****ORCA TERMINATED NORMALLY****
TOTAL RUN TIME: 0 days 0 hours 1 minutes 56 seconds 718 msec
