                         Program Version 6.0.0  -   RELEASE  -
|  1> ! pbe def2-sv(p) def2/J RI DEFGRID1 loosescf d4 GCP(DFT/SV(P)) printgap
|  2> %output
|  3>     printlevel normal
|  4> end
|  5> * xyz 0 1
|  6> C -1.7013181851 -1.3574882103 -0.5281032958
|  7> C -1.1378368898 -0.4936216232 0.6203138771
|  8> H -1.872136289 -0.4636486793 1.4336879218
|  9> C -0.8689948099 0.9637214213 0.1668810915
| 10> H -1.2338605869 1.0801147934 -0.8608341446
| 11> C 0.6385116297 1.2708030156 0.2076147809
| 12> H 0.9707942201 1.3669233823 1.2483650911
| 13> C 1.3964715136 0.0938078013 -0.4267538553
| 14> H 0.9913054887 -0.0996726492 -1.4307962413
| 15> C 1.1707339053 -1.1605096102 0.4431849364
| 16> H 1.9814294311 -1.2130930974 1.1867735437
| 17> O 0.0015060738 -1.0965453236 1.2216061535
| 18> O 1.1929078384 -2.2724292484 -0.3983879641
| 19> O 2.7601066607 0.4159344309 -0.4983976597
| 20> O 0.9434188714 2.5029787077 -0.379864093
| 21> O -1.6164129923 1.8916896341 0.9120797776
| 22> O -2.7973442031 -0.7591275854 -1.1678834843
| 23> H -1.9638445853 -2.343930988 -0.1267966566
| 24> H -0.9407615434 -1.4926766895 -1.2997378382
| 25> H 1.1789608425 -3.0904096726 0.1213868814
| 26> H 3.2273773908 -0.2546615171 -1.0172226774
| 27> H 0.7203928827 2.4874372789 -1.3218493381
| 28> H -1.2245574084 2.0051999826 1.7897732781
| 29> H -3.5335864754 -0.6729579943 -0.545842505
| 30> *
| 31>
| 32>                          ****END OF INPUT****

CARTESIAN COORDINATES (ANGSTROEM)
---------------------------------
  C     -1.701318   -1.357488   -0.528103
  C     -1.137837   -0.493622    0.620314
  H     -1.872136   -0.463649    1.433688
  C     -0.868995    0.963721    0.166881
  H     -1.233861    1.080115   -0.860834
  C      0.638512    1.270803    0.207615
  H      0.970794    1.366923    1.248365
  C      1.396472    0.093808   -0.426754
  H      0.991305   -0.099673   -1.430796
  C      1.170734   -1.160510    0.443185
  H      1.981429   -1.213093    1.186774
  O      0.001506   -1.096545    1.221606
  O      1.192908   -2.272429   -0.398388
  O      2.760107    0.415934   -0.498398
  O      0.943419    2.502979   -0.379864
  O     -1.616413    1.891690    0.912080
  O     -2.797344   -0.759128   -1.167883
  H     -1.963845   -2.343931   -0.126797
  H     -0.940762   -1.492677   -1.299738
  H      1.178961   -3.090410    0.121387
  H      3.227377   -0.254662   -1.017223
  H      0.720393    2.487437   -1.321849
  H     -1.224557    2.005200    1.789773
  H     -3.533586   -0.672958   -0.545843

 Total Charge           Charge          ....    0
 Multiplicity           Mult            ....    1
 Number of Electrons    NEL             ....   96
 Basis Dimension        Dim             ....  192

ORBITAL ENERGIES
----------------

  NO   OCC          E(Eh)            E(eV)
   0   2.0000     -18.771807      -510.8068
   1   2.0000     -18.771248      -510.7916
   2   2.0000     -18.754778      -510.3435
   3   2.0000     -18.754719      -510.3418
   4   2.0000     -18.744569      -510.0656
   5   2.0000     -18.743812      -510.0451
   6   2.0000      -9.987930      -271.7854
   7   2.0000      -9.945768      -270.6381
   8   2.0000      -9.942442      -270.5476
   9   2.0000      -9.941741      -270.5285
  10   2.0000      -9.937134      -270.4032
  11   2.0000      -9.931149      -270.2403
  12   2.0000      -0.983909       -26.7735
  13   2.0000      -0.940259       -25.5857
  14   2.0000      -0.933941       -25.4138
  15   2.0000      -0.926960       -25.2239
  16   2.0000      -0.916529       -24.9400
  17   2.0000      -0.911290       -24.7975
  18   2.0000      -0.700927       -19.0732
  19   2.0000      -0.691546       -18.8179
  20   2.0000      -0.619658       -16.8618
  21   2.0000      -0.586234       -15.9522
  22   2.0000      -0.572360       -15.5747
  23   2.0000      -0.529735       -14.4148
  24   2.0000      -0.510609       -13.8944
  25   2.0000      -0.490910       -13.3583
  26   2.0000      -0.469551       -12.7771
  27   2.0000      -0.453155       -12.3310
  28   2.0000      -0.441643       -12.0177
  29   2.0000      -0.432563       -11.7706
  30   2.0000      -0.420258       -11.4358
  31   2.0000      -0.399617       -10.8741
  32   2.0000      -0.383461       -10.4345
  33   2.0000      -0.372768       -10.1435
  34   2.0000      -0.358938        -9.7672
  35   2.0000      -0.348510        -9.4834
  36   2.0000      -0.334965        -9.1149
  37   2.0000      -0.309068        -8.4102
  38   2.0000      -0.300255        -8.1703
  39   2.0000      -0.292344        -7.9551
  40   2.0000      -0.275020        -7.4837
  41   2.0000      -0.265933        -7.2364
  42   2.0000      -0.260556        -7.0901
  43   2.0000      -0.247012        -6.7215
  44   2.0000      -0.233808        -6.3622
  45   2.0000      -0.222552        -6.0560
  46   2.0000      -0.215115        -5.8536
  47   2.0000      -0.196781        -5.3547
  48   0.0000       0.019819         0.5393
  49   0.0000       0.023300         0.6340
  50   0.0000       0.024610         0.6697
  51   0.0000       0.036127         0.9831
  52   0.0000       0.044846         1.2203

MULLIKEN ATOMIC CHARGES
-----------------------
   0 C :    0.008278
   1 C :    0.012739
   2 H :    0.056179
   3 C :    0.064427
   4 H :    0.065573
   5 C :    0.089797
   6 H :    0.053688
   7 C :   -0.022453
   8 H :    0.058368
   9 C :    0.194830
  10 H :    0.064582
  11 O :   -0.310635
  12 O :   -0.394186
  13 O :   -0.396243
  14 O :   -0.397185
  15 O :   -0.413848
  16 O :   -0.422464
  17 H :    0.074568
  18 H :    0.110172
  19 H :    0.303456
  20 H :    0.304457
  21 H :    0.295252
  22 H :    0.298290
  23 H :    0.302359
Sum of atomic charges:   -0.0000000

LOEWDIN ATOMIC CHARGES
----------------------
   0 C :   -0.145672
   1 C :   -0.080347
   2 H :    0.110339
   3 C :   -0.081541
   4 H :    0.115731
   5 C :   -0.071592
   6 H :    0.115813
   7 C :   -0.090736
   8 H :    0.102864
   9 C :   -0.013833
  10 H :    0.101075
  11 O :   -0.148301
  12 O :   -0.310259
  13 O :   -0.309395
  14 O :   -0.300039
  15 O :   -0.312883
  16 O :   -0.326212
  17 H :    0.097680
  18 H :    0.115100
  19 H :    0.286659
  20 H :    0.289865
  21 H :    0.284685
  22 H :    0.283705
  23 H :    0.287294

  Mayer bond orders larger than 0.100000
B(  0-C ,  1-C ) :   1.0207 B(  0-C , 16-O ) :   1.0537 B(  0-C , 17-H ) :   0.9156
B(  0-C , 18-H ) :   0.9077 B(  1-C ,  2-H ) :   0.8905 B(  1-C ,  3-C ) :   0.9451
B(  1-C , 11-O ) :   1.0172 B(  3-C ,  4-H ) :   0.8684 B(  3-C ,  5-C ) :   1.0089
B(  3-C , 15-O ) :   1.0498 B(  5-C ,  6-H ) :   0.8559 B(  5-C ,  7-C ) :   0.9841
B(  5-C , 14-O ) :   1.0836 B(  7-C ,  8-H ) :   0.8805 B(  7-C ,  9-C ) :   0.9837
B(  7-C , 13-O ) :   1.1000 B(  9-C , 10-H ) :   0.8882 B(  9-C , 11-O ) :   1.0534
B(  9-C , 12-O ) :   1.1186 B( 12-O , 19-H ) :   0.8395 B( 13-O , 20-H ) :   0.8466
B( 14-O , 21-H ) :   0.8498 B( 15-O , 22-H ) :   0.8504 B( 16-O , 23-H ) :   0.8490

Dispersion correction           -0.024571880
FINAL SINGLE POINT ENERGY      -685.684767103262

DIPOLE MOMENT
-------------

Method             : SCF
Type of density    : Electron Density
Multiplicity       :   1
Irrep              :   0
Energy             :  -685.8136679467442036 Eh
Relativity type    :
Basis              : AO
                                X                 Y                 Z
Electronic contribution:      1.627697435       1.299739176       1.021507731
Nuclear contribution   :     -1.586296491      -2.514857500      -0.776806006
                        -----------------------------------------
Total Dipole Moment    :      0.041400944      -1.215118324       0.244701726
                        -----------------------------------------
Magnitude (a.u.)       :      1.240203819
Magnitude (Debye)      :      3.152347587

Rotational constants in cm-1:             0.035887             0.029511             0.019824
Rotational constants in MHz :          1075.851167           884.729972           594.300811

                             ****ORCA TERMINATED NORMALLY****
TOTAL RUN TIME: 0 days 0 hours 0 minutes 11 seconds 782 msec
