                         Program Version 6.0.0  -   RELEASE  -
|  1> ! pbe def2-sv(p) def2/J RI DEFGRID1 loosescf d4 GCP(DFT/SV(P)) printgap
|  2> %output
|  3>     printlevel normal
|  4> end
|  5> * xyz 0 1
|  6> C 2.8729179105 -0.7456332723 0.1164277848
|  7> C 1.9953984453 0.4796488207 -0.1046404687
|  8> C 0.5146319515 0.2312239978 -0.0470184793
|  9> C -0.3624485628 1.297796772 -0.2439990393
| 10> C -1.7254115666 1.0755422486 -0.1920717204
| 11> N -2.2662515228 -0.1136135836 0.0385989348
| 12> C -1.4360876485 -1.127103766 0.2261378084
| 13> C -0.0547850095 -1.0132985107 0.1943951208
| 14> H 3.9200459023 -0.4598296014 0.0540922646
| 15> H 2.6812217482 -1.5019048752 -0.6410170012
| 16> H 2.6966212634 -1.1768332949 1.0988890874
| 17> H 2.2242327443 0.916634986 -1.0807872189
| 18> H 2.2375143498 1.2376853227 0.6456817174
| 19> H 0.0189874419 2.2891631683 -0.4356296667
| 20> H -2.4294554887 1.8834801508 -0.3415263067
| 21> H -1.9080667056 -2.0830932604 0.4120847905
| 22> H 0.5522240692 -1.8880628265 0.3568130723
| 23> *
| 24>
| 25>                          ****END OF INPUT****

CARTESIAN COORDINATES (ANGSTROEM)
---------------------------------
  C      2.872918   -0.745633    0.116428
  C      1.995398    0.479649   -0.104640
  C      0.514632    0.231224   -0.047018
  C     -0.362449    1.297797   -0.243999
  C     -1.725412    1.075542   -0.192072
  N     -2.266252   -0.113614    0.038599
  C     -1.436088   -1.127104    0.226138
  C     -0.054785   -1.013299    0.194395
  H      3.920046   -0.459830    0.054092
  H      2.681222   -1.501905   -0.641017
  H      2.696621   -1.176833    1.098889
  H      2.224233    0.916635   -1.080787
  H      2.237514    1.237685    0.645682
  H      0.018987    2.289163   -0.435630
  H     -2.429455    1.883480   -0.341526
  H     -1.908067   -2.083093    0.412085
  H      0.552224   -1.888063    0.356813

 Total Charge           Charge          ....    0
 Multiplicity           Mult            ....    1
 Number of Electrons    NEL             ....   58
 Basis Dimension        Dim             ....  130

ORBITAL ENERGIES
----------------

  NO   OCC          E(Eh)            E(eV)
   0   2.0000     -13.972971      -380.2239
   1   2.0000      -9.919614      -269.9264
   2   2.0000      -9.917250      -269.8621
   3   2.0000      -9.916475      -269.8410
   4   2.0000      -9.904335      -269.5107
   5   2.0000      -9.897917      -269.3360
   6   2.0000      -9.896515      -269.2979
   7   2.0000      -9.888380      -269.0765
   8   2.0000      -0.852953       -23.2100
   9   2.0000      -0.749888       -20.4055
  10   2.0000      -0.683192       -18.5906
  11   2.0000      -0.679200       -18.4820
  12   2.0000      -0.590300       -16.0629
  13   2.0000      -0.563201       -15.3255
  14   2.0000      -0.527513       -14.3543
  15   2.0000      -0.460806       -12.5392
  16   2.0000      -0.436197       -11.8695
  17   2.0000      -0.419866       -11.4251
  18   2.0000      -0.412285       -11.2189
  19   2.0000      -0.383187       -10.4271
  20   2.0000      -0.372351       -10.1322
  21   2.0000      -0.357234        -9.7208
  22   2.0000      -0.342964        -9.3325
  23   2.0000      -0.324152        -8.8206
  24   2.0000      -0.317982        -8.6527
  25   2.0000      -0.305819        -8.3218
  26   2.0000      -0.247970        -6.7476
  27   2.0000      -0.237591        -6.4652
  28   2.0000      -0.199288        -5.4229
  29   0.0000      -0.051196        -1.3931
  30   0.0000      -0.040919        -1.1135
  31   0.0000       0.038002         1.0341
  32   0.0000       0.061819         1.6822
  33   0.0000       0.064671         1.7598

MULLIKEN ATOMIC CHARGES
-----------------------
   0 C :   -0.269134
   1 C :   -0.153055
   2 C :    0.067549
   3 C :   -0.118906
   4 C :   -0.049996
   5 N :   -0.062306
   6 C :   -0.048947
   7 C :   -0.139124
   8 H :    0.108789
   9 H :    0.111817
  10 H :    0.111718
  11 H :    0.106737
  12 H :    0.106849
  13 H :    0.047141
  14 H :    0.065396
  15 H :    0.064197
  16 H :    0.051274
Sum of atomic charges:    0.0000000

LOEWDIN ATOMIC CHARGES
----------------------
   0 C :   -0.340966
   1 C :   -0.222851
   2 C :   -0.020132
   3 C :   -0.141592
   4 C :   -0.080546
   5 N :   -0.083153
   6 C :   -0.078792
   7 C :   -0.150070
   8 H :    0.125036
   9 H :    0.122562
  10 H :    0.122501
  11 H :    0.134293
  12 H :    0.134392
  13 H :    0.124923
  14 H :    0.113555
  15 H :    0.113471
  16 H :    0.127368

  Mayer bond orders larger than 0.100000
B(  0-C ,  1-C ) :   1.2016 B(  0-C ,  8-H ) :   0.9460 B(  0-C ,  9-H ) :   0.9440
B(  0-C , 10-H ) :   0.9438 B(  1-C ,  2-C ) :   1.0600 B(  1-C , 11-H ) :   0.9018
B(  1-C , 12-H ) :   0.9015 B(  2-C ,  3-C ) :   1.3982 B(  2-C ,  7-C ) :   1.4414
B(  3-C ,  4-C ) :   1.3953 B(  3-C , 13-H ) :   0.9482 B(  4-C ,  5-N ) :   1.5326
B(  4-C , 14-H ) :   0.9519 B(  5-N ,  6-C ) :   1.5628 B(  6-C ,  7-C ) :   1.3558
B(  6-C , 15-H ) :   0.9497 B(  7-C , 16-H ) :   0.9335

Dispersion correction           -0.016237098
FINAL SINGLE POINT ENERGY      -326.177110225341

DIPOLE MOMENT
-------------

Method             : SCF
Type of density    : Electron Density
Multiplicity       :   1
Irrep              :   0
Energy             :  -326.2267357836365136 Eh
Relativity type    :
Basis              : AO
                                X                 Y                 Z
Electronic contribution:     -8.306386456       0.876442882      -0.098701827
Nuclear contribution   :      9.362997490      -0.734983959       0.064570692
                        -----------------------------------------
Total Dipole Moment    :      1.056611034       0.141458923      -0.034131135
                        -----------------------------------------
Magnitude (a.u.)       :      1.066584473
Magnitude (Debye)      :      2.711042281

Rotational constants in cm-1:             0.169791             0.049642             0.038968
Rotational constants in MHz :          5090.195288          1488.241922          1168.239968

                             ****ORCA TERMINATED NORMALLY****
TOTAL RUN TIME: 0 days 0 hours 0 minutes 7 seconds 146 msec
