                         Program Version 6.0.0  -   RELEASE  -
|  1> ! r2scan-3c def2/J RI DEFGRID2 scfconv6 printgap
|  2> %output
|  3>     printlevel normal
|  4> end
|  5> * xyz 0 1
|  6> C -2.4901655984 0.0422687932 0.1417924187
|  7> C -1.2260052157 -0.7627644675 -0.1287777663
|  8> C 0.0169946082 0.0859394546 -0.0531188844
|  9> O 0.0430710131 1.2977655661 -0.0689278727
| 10> O 1.1059889716 -0.6750815339 0.0239575391
| 11> C 2.3916556534 -0.0476108582 0.0729707715
| 12> H -2.4838959624 0.4283197785 1.1575778661
| 13> H -2.5464995399 0.8886542877 -0.5380883176
| 14> H -3.3682056784 -0.58185345 0.0072224348
| 15> H -1.2565112761 -1.1892145495 -1.1341183416
| 16> H -1.1171074797 -1.5885189883 0.5746112377
| 17> H 2.2732065031 1.0293304902 0.1974586406
| 18> H 2.9122430683 -0.2647005296 -0.8585579849
| 19> H 2.9278919216 -0.4773239406 0.9160832944
| 20> *
| 21>
| 22>                          ****END OF INPUT****

CARTESIAN COORDINATES (ANGSTROEM)
---------------------------------
  C     -2.490166    0.042269    0.141792
  C     -1.226005   -0.762764   -0.128778
  C      0.016995    0.085939   -0.053119
  O      0.043071    1.297766   -0.068928
  O      1.105989   -0.675082    0.023958
  C      2.391656   -0.047611    0.072971
  H     -2.483896    0.428320    1.157578
  H     -2.546500    0.888654   -0.538088
  H     -3.368206   -0.581853    0.007222
  H     -1.256511   -1.189215   -1.134118
  H     -1.117107   -1.588519    0.574611
  H      2.273207    1.029330    0.197459
  H      2.912243   -0.264701   -0.858558
  H      2.927892   -0.477324    0.916083

 Total Charge           Charge          ....    0
 Multiplicity           Mult            ....    1
 Number of Electrons    NEL             ....   48
 Basis Dimension        Dim             ....  164

ORBITAL ENERGIES
----------------

  NO   OCC          E(Eh)            E(eV)
   0   2.0000     -18.998409      -516.9730
   1   2.0000     -18.931017      -515.1392
   2   2.0000     -10.154354      -276.3140
   3   2.0000     -10.085050      -274.4282
   4   2.0000     -10.045946      -273.3641
   5   2.0000     -10.022477      -272.7255
   6   2.0000      -1.071994       -29.1704
   7   2.0000      -0.978232       -26.6190
   8   2.0000      -0.758607       -20.6427
   9   2.0000      -0.697977       -18.9929
  10   2.0000      -0.609638       -16.5891
  11   2.0000      -0.528038       -14.3686
  12   2.0000      -0.471649       -12.8342
  13   2.0000      -0.461121       -12.5477
  14   2.0000      -0.440869       -11.9967
  15   2.0000      -0.422017       -11.4837
  16   2.0000      -0.397276       -10.8104
  17   2.0000      -0.363775        -9.8988
  18   2.0000      -0.347308        -9.4507
  19   2.0000      -0.339187        -9.2297
  20   2.0000      -0.319496        -8.6939
  21   2.0000      -0.314490        -8.5577
  22   2.0000      -0.272724        -7.4212
  23   2.0000      -0.240564        -6.5461
  24   0.0000      -0.013664        -0.3718
  25   0.0000       0.069313         1.8861
  26   0.0000       0.088127         2.3980
  27   0.0000       0.117692         3.2026
  28   0.0000       0.135632         3.6907

MULLIKEN ATOMIC CHARGES
-----------------------
   0 C :   -0.459932
   1 C :   -0.255842
   2 C :    0.385052
   3 O :   -0.436095
   4 O :   -0.191167
   5 C :   -0.304129
   6 H :    0.149287
   7 H :    0.162602
   8 H :    0.145044
   9 H :    0.161167
  10 H :    0.159516
  11 H :    0.188990
  12 H :    0.147956
  13 H :    0.147551
Sum of atomic charges:    0.0000000

LOEWDIN ATOMIC CHARGES
----------------------
   0 C :   -0.401816
   1 C :   -0.239239
   2 C :    0.361665
   3 O :   -0.440351
   4 O :   -0.604709
   5 C :   -0.046998
   6 H :    0.158123
   7 H :    0.165169
   8 H :    0.150528
   9 H :    0.180649
  10 H :    0.178261
  11 H :    0.192807
  12 H :    0.172291
  13 H :    0.173621

  Mayer bond orders larger than 0.100000
B(  0-C ,  1-C ) :   0.9306 B(  0-C ,  6-H ) :   0.9768 B(  0-C ,  7-H ) :   0.9701
B(  0-C ,  8-H ) :   0.9721 B(  1-C ,  2-C ) :   1.0025 B(  1-C ,  9-H ) :   0.9263
B(  1-C , 10-H ) :   0.9552 B(  2-C ,  3-O ) :   1.8439 B(  2-C ,  4-O ) :   1.0771
B(  4-O ,  5-C ) :   0.8374 B(  5-C , 11-H ) :   0.9683 B(  5-C , 12-H ) :   0.9626
B(  5-C , 13-H ) :   0.9670

Dispersion correction           -0.002940142
FINAL SINGLE POINT ENERGY      -307.631822395001

DIPOLE MOMENT
-------------

Method             : SCF
Type of density    : Electron Density
Multiplicity       :   1
Irrep              :   0
Energy             :  -307.6384026311859543 Eh
Relativity type    :
Basis              : AO
                                X                 Y                 Z
Electronic contribution:      2.722880001       0.932831378      -0.293908075
Nuclear contribution   :     -2.477420463      -1.637532614       0.301600950
                        -----------------------------------------
Total Dipole Moment    :      0.245459538      -0.704701236       0.007692875
                        -----------------------------------------
Magnitude (a.u.)       :      0.746266304
Magnitude (Debye)      :      1.896858200

Rotational constants in cm-1:             0.314831             0.071490             0.060573
Rotational constants in MHz :          9438.383084          2143.225552          1815.946153

                             ****ORCA TERMINATED NORMALLY****
TOTAL RUN TIME: 0 days 0 hours 0 minutes 16 seconds 331 msec
