                         Program Version 6.0.0  -   RELEASE  -
|  1> ! r2scan-3c def2/J RI DEFGRID2 scfconv6 printgap
|  2> %output
|  3>     printlevel normal
|  4> end
|  5> %cpcm
|  6>     smd true
|  7>     smdsolvent "water"
|  8> end
|  9> * xyz 0 1
| 10> C -2.4901655984 0.0422687932 0.1417924187
| 11> C -1.2260052157 -0.7627644675 -0.1287777663
| 12> C 0.0169946082 0.0859394546 -0.0531188844
| 13> O 0.0430710131 1.2977655661 -0.0689278727
| 14> O 1.1059889716 -0.6750815339 0.0239575391
| 15> C 2.3916556534 -0.0476108582 0.0729707715
| 16> H -2.4838959624 0.4283197785 1.1575778661
| 17> H -2.5464995399 0.8886542877 -0.5380883176
| 18> H -3.3682056784 -0.58185345 0.0072224348
| 19> H -1.2565112761 -1.1892145495 -1.1341183416
| 20> H -1.1171074797 -1.5885189883 0.5746112377
| 21> H 2.2732065031 1.0293304902 0.1974586406
| 22> H 2.9122430683 -0.2647005296 -0.8585579849
| 23> H 2.9278919216 -0.4773239406 0.9160832944
| 24> *
| 25>
| 26>                          ****END OF INPUT****

CARTESIAN COORDINATES (ANGSTROEM)
---------------------------------
  C     -2.490166    0.042269    0.141792
  C     -1.226005   -0.762764   -0.128778
  C      0.016995    0.085939   -0.053119
  O      0.043071    1.297766   -0.068928
  O      1.105989   -0.675082    0.023958
  C      2.391656   -0.047611    0.072971
  H     -2.483896    0.428320    1.157578
  H     -2.546500    0.888654   -0.538088
  H     -3.368206   -0.581853    0.007222
  H     -1.256511   -1.189215   -1.134118
  H     -1.117107   -1.588519    0.574611
  H      2.273207    1.029330    0.197459
  H      2.912243   -0.264701   -0.858558
  H      2.927892   -0.477324    0.916083

 Total Charge           Charge          ....    0
 Multiplicity           Mult            ....    1
 Number of Electrons    NEL             ....   48
 Basis Dimension        Dim             ....  164

ORBITAL ENERGIES
----------------

  NO   OCC          E(Eh)            E(eV)
   0   2.0000     -19.002852      -517.0939
   1   2.0000     -18.944649      -515.5101
   2   2.0000     -10.163076      -276.5514
   3   2.0000     -10.074651      -274.1452
   4   2.0000     -10.038590      -273.1639
   5   2.0000     -10.016734      -272.5692
   6   2.0000      -1.077870       -29.3303
   7   2.0000      -0.989861       -26.9355
   8   2.0000      -0.754213       -20.5232
   9   2.0000      -0.692549       -18.8452
  10   2.0000      -0.603635       -16.4257
  11   2.0000      -0.526465       -14.3258
  12   2.0000      -0.472500       -12.8574
  13   2.0000      -0.459912       -12.5148
  14   2.0000      -0.450509       -12.2590
  15   2.0000      -0.413740       -11.2584
  16   2.0000      -0.397526       -10.8172
  17   2.0000      -0.363475        -9.8906
  18   2.0000      -0.341924        -9.3042
  19   2.0000      -0.334570        -9.1041
  20   2.0000      -0.317666        -8.6441
  21   2.0000      -0.313818        -8.5394
  22   2.0000      -0.277768        -7.5585
  23   2.0000      -0.255048        -6.9402
  24   0.0000      -0.019988        -0.5439
  25   0.0000       0.074498         2.0272
  26   0.0000       0.095287         2.5929
  27   0.0000       0.129777         3.5314
  28   0.0000       0.142483         3.8772

MULLIKEN ATOMIC CHARGES
-----------------------
   0 C :   -0.515746
   1 C :   -0.255289
   2 C :    0.418821
   3 O :   -0.518388
   4 O :   -0.209672
   5 C :   -0.319011
   6 H :    0.164857
   7 H :    0.161622
   8 H :    0.166037
   9 H :    0.192196
  10 H :    0.180892
  11 H :    0.184649
  12 H :    0.175087
  13 H :    0.173944
Sum of atomic charges:    0.0000000

LOEWDIN ATOMIC CHARGES
----------------------
   0 C :   -0.408963
   1 C :   -0.235310
   2 C :    0.372879
   3 O :   -0.499715
   4 O :   -0.607966
   5 C :   -0.041829
   6 H :    0.159815
   7 H :    0.161663
   8 H :    0.159082
   9 H :    0.192800
  10 H :    0.187932
  11 H :    0.191610
  12 H :    0.183152
  13 H :    0.184850

  Mayer bond orders larger than 0.100000
B(  0-C ,  1-C ) :   0.8982 B(  0-C ,  6-H ) :   0.9788 B(  0-C ,  7-H ) :   0.9729
B(  0-C ,  8-H ) :   0.9654 B(  1-C ,  2-C ) :   1.0098 B(  1-C ,  9-H ) :   0.9153
B(  1-C , 10-H ) :   0.9443 B(  2-C ,  3-O ) :   1.7825 B(  2-C ,  4-O ) :   1.1010
B(  4-O ,  5-C ) :   0.8250 B(  5-C , 11-H ) :   0.9647 B(  5-C , 12-H ) :   0.9539
B(  5-C , 13-H ) :   0.9575

Dispersion correction           -0.002940142
FINAL SINGLE POINT ENERGY      -307.636165274376

DIPOLE MOMENT
-------------

Method             : SCF
Type of density    : Electron Density
Multiplicity       :   1
Irrep              :   0
Energy             :  -307.6427455105616104 Eh
Relativity type    :
Basis              : AO
                                X                 Y                 Z
Electronic contribution:      2.806071310       0.577325120      -0.299057840
Nuclear contribution   :     -2.477420463      -1.637532614       0.301600950
                        -----------------------------------------
Total Dipole Moment    :      0.328650847      -1.060207494       0.002543110
                        -----------------------------------------
Magnitude (a.u.)       :      1.109980980
Magnitude (Debye)      :      2.821347436

Rotational constants in cm-1:             0.314831             0.071490             0.060573
Rotational constants in MHz :          9438.383084          2143.225552          1815.946153

                             ****ORCA TERMINATED NORMALLY****
TOTAL RUN TIME: 0 days 0 hours 0 minutes 20 seconds 635 msec
