                         Program Version 6.0.0  -   RELEASE  -
|  1> ! pbe def2-sv(p) def2/J RI DEFGRID1 loosescf d4 GCP(DFT/SV(P)) printgap
|  2> %output
|  3>     printlevel normal
|  4> end
|  5> * xyz 0 1
|  6> C -2.1235541571 -1.1647172459 -0.2053303357
|  7> C -1.260778165 -0.3293355204 0.7501149348
|  8> H -1.8532388248 -0.1410557713 1.6517628933
|  9> C -0.9018367364 1.0431317124 0.1472222989
| 10> H -1.1533734342 1.0621137504 -0.9243702904
| 11> C 0.6062300996 1.282004273 0.2610530595
| 12> H 0.8906094948 1.3374875192 1.3232093751
| 13> C 1.3234041894 0.0943205384 -0.3839266945
| 14> H 0.9584740536 -0.0098523954 -1.4172866896
| 15> C 0.9833007527 -1.1941154861 0.4011632368
| 16> H 1.8078944073 -1.4238268163 1.0879246796
| 17> O -0.1283783797 -1.0295685236 1.2498461128
| 18> O 0.8659748721 -2.2971459184 -0.4360060303
| 19> O 2.7032773578 0.369913491 -0.3781790499
| 20> O 0.90394286 2.4909152558 -0.3905910556
| 21> O -1.6432096716 2.0240060938 0.8271537147
| 22> O -1.4809205288 -1.311018986 -1.4598470637
| 23> H -3.0770565542 -0.6418322531 -0.3229376713
| 24> H -2.2928546324 -2.145438441 0.2537770026
| 25> H 0.0898864332 -2.1578468611 -1.0203718985
| 26> H 3.1797698262 -0.334508419 -0.8391238085
| 27> H 1.8667255427 2.5555830301 -0.4804596155
| 28> H -1.3301763511 2.8950138071 0.5384467763
| 29> H -2.0991988746 -1.7161246476 -2.0855244981
| 30> *
| 31>
| 32>                          ****END OF INPUT****

CARTESIAN COORDINATES (ANGSTROEM)
---------------------------------
  C     -2.123554   -1.164717   -0.205330
  C     -1.260778   -0.329336    0.750115
  H     -1.853239   -0.141056    1.651763
  C     -0.901837    1.043132    0.147222
  H     -1.153373    1.062114   -0.924370
  C      0.606230    1.282004    0.261053
  H      0.890609    1.337488    1.323209
  C      1.323404    0.094321   -0.383927
  H      0.958474   -0.009852   -1.417287
  C      0.983301   -1.194115    0.401163
  H      1.807894   -1.423827    1.087925
  O     -0.128378   -1.029569    1.249846
  O      0.865975   -2.297146   -0.436006
  O      2.703277    0.369913   -0.378179
  O      0.903943    2.490915   -0.390591
  O     -1.643210    2.024006    0.827154
  O     -1.480921   -1.311019   -1.459847
  H     -3.077057   -0.641832   -0.322938
  H     -2.292855   -2.145438    0.253777
  H      0.089886   -2.157847   -1.020372
  H      3.179770   -0.334508   -0.839124
  H      1.866726    2.555583   -0.480460
  H     -1.330176    2.895014    0.538447
  H     -2.099199   -1.716125   -2.085524

 Total Charge           Charge          ....    0
 Multiplicity           Mult            ....    1
 Number of Electrons    NEL             ....   96
 Basis Dimension        Dim             ....  192

ORBITAL ENERGIES
----------------

  NO   OCC          E(Eh)            E(eV)
   0   2.0000     -18.793479      -511.3966
   1   2.0000     -18.758868      -510.4547
   2   2.0000     -18.758680      -510.4496
   3   2.0000     -18.747717      -510.1513
   4   2.0000     -18.744220      -510.0562
   5   2.0000     -18.733785      -509.7722
   6   2.0000      -9.971490      -271.3380
   7   2.0000      -9.950064      -270.7550
   8   2.0000      -9.947601      -270.6880
   9   2.0000      -9.937613      -270.4162
  10   2.0000      -9.934600      -270.3342
  11   2.0000      -9.933684      -270.3093
  12   2.0000      -0.973115       -26.4798
  13   2.0000      -0.955091       -25.9893
  14   2.0000      -0.939981       -25.5782
  15   2.0000      -0.928517       -25.2662
  16   2.0000      -0.909804       -24.7570
  17   2.0000      -0.894508       -24.3408
  18   2.0000      -0.706268       -19.2185
  19   2.0000      -0.689336       -18.7578
  20   2.0000      -0.623801       -16.9745
  21   2.0000      -0.578999       -15.7554
  22   2.0000      -0.563833       -15.3427
  23   2.0000      -0.521649       -14.1948
  24   2.0000      -0.500474       -13.6186
  25   2.0000      -0.485213       -13.2033
  26   2.0000      -0.475438       -12.9373
  27   2.0000      -0.457047       -12.4369
  28   2.0000      -0.445663       -12.1271
  29   2.0000      -0.428869       -11.6701
  30   2.0000      -0.424082       -11.5399
  31   2.0000      -0.404304       -11.0017
  32   2.0000      -0.387115       -10.5339
  33   2.0000      -0.379787       -10.3345
  34   2.0000      -0.355005        -9.6602
  35   2.0000      -0.344923        -9.3858
  36   2.0000      -0.329127        -8.9560
  37   2.0000      -0.311514        -8.4767
  38   2.0000      -0.304648        -8.2899
  39   2.0000      -0.293823        -7.9953
  40   2.0000      -0.280067        -7.6210
  41   2.0000      -0.270025        -7.3478
  42   2.0000      -0.255750        -6.9593
  43   2.0000      -0.252449        -6.8695
  44   2.0000      -0.221575        -6.0294
  45   2.0000      -0.214270        -5.8306
  46   2.0000      -0.213144        -5.7999
  47   2.0000      -0.203183        -5.5289
  48   0.0000      -0.000132        -0.0036
  49   0.0000       0.022221         0.6047
  50   0.0000       0.048250         1.3130
  51   0.0000       0.056371         1.5339
  52   0.0000       0.068301         1.8586

MULLIKEN ATOMIC CHARGES
-----------------------
   0 C :   -0.007744
   1 C :    0.066075
   2 H :    0.091204
   3 C :    0.055714
   4 H :    0.062699
   5 C :    0.058359
   6 H :    0.061735
   7 C :   -0.009591
   8 H :    0.053198
   9 C :    0.209057
  10 H :    0.061728
  11 O :   -0.304799
  12 O :   -0.421008
  13 O :   -0.424245
  14 O :   -0.432832
  15 O :   -0.421774
  16 O :   -0.440069
  17 H :    0.099399
  18 H :    0.098928
  19 H :    0.292813
  20 H :    0.310803
  21 H :    0.309870
  22 H :    0.307991
  23 H :    0.322490
Sum of atomic charges:    0.0000000

LOEWDIN ATOMIC CHARGES
----------------------
   0 C :   -0.137652
   1 C :   -0.054675
   2 H :    0.134124
   3 C :   -0.065825
   4 H :    0.102517
   5 C :   -0.077299
   6 H :    0.107804
   7 C :   -0.097344
   8 H :    0.102513
   9 C :   -0.011319
  10 H :    0.109266
  11 O :   -0.142573
  12 O :   -0.328929
  13 O :   -0.322508
  14 O :   -0.327568
  15 O :   -0.322336
  16 O :   -0.324962
  17 H :    0.116311
  18 H :    0.110439
  19 H :    0.262262
  20 H :    0.292993
  21 H :    0.288009
  22 H :    0.287725
  23 H :    0.299025

  Mayer bond orders larger than 0.100000
B(  0-C ,  1-C ) :   1.0707 B(  0-C , 16-O ) :   1.0096 B(  0-C , 17-H ) :   0.9139
B(  0-C , 18-H ) :   0.9122 B(  1-C ,  2-H ) :   0.8810 B(  1-C ,  3-C ) :   0.9819
B(  1-C , 11-O ) :   1.0510 B(  3-C ,  4-H ) :   0.8810 B(  3-C ,  5-C ) :   1.0372
B(  3-C , 15-O ) :   1.0766 B(  5-C ,  6-H ) :   0.8700 B(  5-C ,  7-C ) :   1.0093
B(  5-C , 14-O ) :   1.0765 B(  7-C ,  8-H ) :   0.8780 B(  7-C ,  9-C ) :   0.9853
B(  7-C , 13-O ) :   1.0621 B(  9-C , 10-H ) :   0.8889 B(  9-C , 11-O ) :   1.0395
B(  9-C , 12-O ) :   1.1295 B( 12-O , 19-H ) :   0.7895 B( 13-O , 20-H ) :   0.8429
B( 14-O , 21-H ) :   0.8321 B( 15-O , 22-H ) :   0.8381 B( 16-O , 19-H ) :   0.1278
B( 16-O , 23-H ) :   0.8382

Dispersion correction           -0.025159778
FINAL SINGLE POINT ENERGY      -685.700075407319

DIPOLE MOMENT
-------------

Method             : SCF
Type of density    : Electron Density
Multiplicity       :   1
Irrep              :   0
Energy             :  -685.8324683683437115 Eh
Relativity type    :
Basis              : AO
                                X                 Y                 Z
Electronic contribution:      2.268516842       0.454488498       1.016261690
Nuclear contribution   :     -2.808190138      -0.672091525      -2.105472160
                        -----------------------------------------
Total Dipole Moment    :     -0.539673297      -0.217603027      -1.089210470
                        -----------------------------------------
Magnitude (a.u.)       :      1.234899912
Magnitude (Debye)      :      3.138866125

Rotational constants in cm-1:             0.036129             0.032577             0.021346
Rotational constants in MHz :          1083.131535           976.622108           639.935660

                             ****ORCA TERMINATED NORMALLY****
TOTAL RUN TIME: 0 days 0 hours 0 minutes 12 seconds 449 msec
