                         Program Version 6.0.0  -   RELEASE  -
|  1> ! pbe def2-sv(p) def2/J RI DEFGRID1 loosescf d4 GCP(DFT/SV(P)) printgap
|  2> %output
|  3>     printlevel normal
|  4> end
|  5> * xyz 0 1
|  6> C -1.9187768401 -0.9702190269 -0.7523237515
|  7> C -1.2743825966 -0.1597446987 0.3858528608
|  8> H -2.0317265687 0.0265519781 1.156233295
|  9> C -0.7519690447 1.2100649109 -0.1204804952
| 10> H -0.8662734042 1.278512632 -1.2077739026
| 11> C 0.741722857 1.3449919892 0.1985250213
| 12> H 0.8829731454 1.4055009346 1.2908279823
| 13> C 1.4716862994 0.0933085687 -0.3057788542
| 14> H 1.2702261831 -0.0263015473 -1.3793844885
| 15> C 0.9289261999 -1.1465990262 0.4331265727
| 16> H 1.6200205026 -1.4007531103 1.2542661966
| 17> O -0.2833022076 -0.8998195378 1.0926513915
| 18> O 0.8503700517 -2.1891011434 -0.4894862637
| 19> O 2.8441440879 0.2864398257 -0.0744134653
| 20> O 1.2344528889 2.503313623 -0.4185854051
| 21> O -1.5173502205 2.2698623082 0.386278092
| 22> O -2.4377412289 -2.2009134071 -0.3180272863
| 23> H -1.1686473963 -1.2159963239 -1.5065740816
| 24> H -2.6984221923 -0.3490619669 -1.2108145361
| 25> H 0.4486596137 -2.9692806904 -0.0768814177
| 26> H 3.3550359749 -0.4050348737 -0.5178046677
| 27> H 2.2029836136 2.4844533157 -0.3619889335
| 28> H -1.2781432637 2.4425640804 1.3087603298
| 29> H -3.1320740216 -2.0473894374 0.3384937419
| 30> *
| 31>
| 32>                          ****END OF INPUT****

CARTESIAN COORDINATES (ANGSTROEM)
---------------------------------
  C     -1.918777   -0.970219   -0.752324
  C     -1.274383   -0.159745    0.385853
  H     -2.031727    0.026552    1.156233
  C     -0.751969    1.210065   -0.120480
  H     -0.866273    1.278513   -1.207774
  C      0.741723    1.344992    0.198525
  H      0.882973    1.405501    1.290828
  C      1.471686    0.093309   -0.305779
  H      1.270226   -0.026302   -1.379384
  C      0.928926   -1.146599    0.433127
  H      1.620021   -1.400753    1.254266
  O     -0.283302   -0.899820    1.092651
  O      0.850370   -2.189101   -0.489486
  O      2.844144    0.286440   -0.074413
  O      1.234453    2.503314   -0.418585
  O     -1.517350    2.269862    0.386278
  O     -2.437741   -2.200913   -0.318027
  H     -1.168647   -1.215996   -1.506574
  H     -2.698422   -0.349062   -1.210815
  H      0.448660   -2.969281   -0.076881
  H      3.355036   -0.405035   -0.517805
  H      2.202984    2.484453   -0.361989
  H     -1.278143    2.442564    1.308760
  H     -3.132074   -2.047389    0.338494

 Total Charge           Charge          ....    0
 Multiplicity           Mult            ....    1
 Number of Electrons    NEL             ....   96
 Basis Dimension        Dim             ....  192

ORBITAL ENERGIES
----------------

  NO   OCC          E(Eh)            E(eV)
   0   2.0000     -18.768534      -510.7178
   1   2.0000     -18.767636      -510.6933
   2   2.0000     -18.763152      -510.5713
   3   2.0000     -18.749291      -510.1942
   4   2.0000     -18.746912      -510.1294
   5   2.0000     -18.744254      -510.0571
   6   2.0000      -9.985309      -271.7141
   7   2.0000      -9.946038      -270.6455
   8   2.0000      -9.943838      -270.5856
   9   2.0000      -9.943205      -270.5684
  10   2.0000      -9.942263      -270.5427
  11   2.0000      -9.930236      -270.2155
  12   2.0000      -0.981248       -26.7011
  13   2.0000      -0.948177       -25.8012
  14   2.0000      -0.934115       -25.4186
  15   2.0000      -0.925022       -25.1711
  16   2.0000      -0.912956       -24.8428
  17   2.0000      -0.910250       -24.7691
  18   2.0000      -0.705395       -19.1948
  19   2.0000      -0.692466       -18.8430
  20   2.0000      -0.619862       -16.8673
  21   2.0000      -0.586653       -15.9636
  22   2.0000      -0.569406       -15.4943
  23   2.0000      -0.527112       -14.3434
  24   2.0000      -0.510546       -13.8927
  25   2.0000      -0.487871       -13.2757
  26   2.0000      -0.474639       -12.9156
  27   2.0000      -0.453197       -12.3321
  28   2.0000      -0.435217       -11.8429
  29   2.0000      -0.425833       -11.5875
  30   2.0000      -0.417228       -11.3533
  31   2.0000      -0.405438       -11.0325
  32   2.0000      -0.388709       -10.5773
  33   2.0000      -0.384951       -10.4750
  34   2.0000      -0.358876        -9.7655
  35   2.0000      -0.347586        -9.4583
  36   2.0000      -0.333162        -9.0658
  37   2.0000      -0.309950        -8.4342
  38   2.0000      -0.303623        -8.2620
  39   2.0000      -0.290584        -7.9072
  40   2.0000      -0.285448        -7.7674
  41   2.0000      -0.263323        -7.1654
  42   2.0000      -0.253241        -6.8910
  43   2.0000      -0.241890        -6.5822
  44   2.0000      -0.233480        -6.3533
  45   2.0000      -0.227272        -6.1844
  46   2.0000      -0.216913        -5.9025
  47   2.0000      -0.198496        -5.4013
  48   0.0000       0.017272         0.4700
  49   0.0000       0.022131         0.6022
  50   0.0000       0.031118         0.8468
  51   0.0000       0.045462         1.2371
  52   0.0000       0.055439         1.5086

MULLIKEN ATOMIC CHARGES
-----------------------
   0 C :    0.010004
   1 C :    0.037249
   2 H :    0.049587
   3 C :    0.067259
   4 H :    0.070673
   5 C :    0.058471
   6 H :    0.046339
   7 C :   -0.017290
   8 H :    0.070565
   9 C :    0.211842
  10 H :    0.056129
  11 O :   -0.305394
  12 O :   -0.400605
  13 O :   -0.418664
  14 O :   -0.407808
  15 O :   -0.409028
  16 O :   -0.433498
  17 H :    0.103662
  18 H :    0.088283
  19 H :    0.307788
  20 H :    0.313916
  21 H :    0.304155
  22 H :    0.300504
  23 H :    0.295860
Sum of atomic charges:    0.0000000

LOEWDIN ATOMIC CHARGES
----------------------
   0 C :   -0.147376
   1 C :   -0.076875
   2 H :    0.109598
   3 C :   -0.064027
   4 H :    0.120170
   5 C :   -0.073051
   6 H :    0.100140
   7 C :   -0.089323
   8 H :    0.110166
   9 C :   -0.009743
  10 H :    0.096661
  11 O :   -0.145625
  12 O :   -0.312826
  13 O :   -0.317186
  14 O :   -0.315611
  15 O :   -0.307616
  16 O :   -0.334220
  17 H :    0.116963
  18 H :    0.103299
  19 H :    0.288793
  20 H :    0.295520
  21 H :    0.283923
  22 H :    0.284889
  23 H :    0.283360

  Mayer bond orders larger than 0.100000
B(  0-C ,  1-C ) :   1.0288 B(  0-C , 16-O ) :   1.0628 B(  0-C , 17-H ) :   0.9000
B(  0-C , 18-H ) :   0.9143 B(  1-C ,  2-H ) :   0.8873 B(  1-C ,  3-C ) :   0.9348
B(  1-C , 11-O ) :   1.0249 B(  3-C ,  4-H ) :   0.8779 B(  3-C ,  5-C ) :   1.0236
B(  3-C , 15-O ) :   1.0520 B(  5-C ,  6-H ) :   0.8608 B(  5-C ,  7-C ) :   1.0138
B(  5-C , 14-O ) :   1.1127 B(  7-C ,  8-H ) :   0.8807 B(  7-C ,  9-C ) :   0.9827
B(  7-C , 13-O ) :   1.0706 B(  9-C , 10-H ) :   0.8862 B(  9-C , 11-O ) :   1.0727
B(  9-C , 12-O ) :   1.1162 B( 12-O , 19-H ) :   0.8311 B( 13-O , 20-H ) :   0.8438
B( 14-O , 21-H ) :   0.8327 B( 15-O , 22-H ) :   0.8480 B( 16-O , 23-H ) :   0.8532

Dispersion correction           -0.024545407
FINAL SINGLE POINT ENERGY      -685.690726680336

DIPOLE MOMENT
-------------

Method             : SCF
Type of density    : Electron Density
Multiplicity       :   1
Irrep              :   0
Energy             :  -685.8200244577425337 Eh
Relativity type    :
Basis              : AO
                                X                 Y                 Z
Electronic contribution:      1.641393064       0.137092064       1.381712962
Nuclear contribution   :     -1.298880656      -0.731651057      -0.853568871
                        -----------------------------------------
Total Dipole Moment    :      0.342512408      -0.594558993       0.528144091
                        -----------------------------------------
Magnitude (a.u.)       :      0.865881820
Magnitude (Debye)      :      2.200896679

Rotational constants in cm-1:             0.039897             0.028146             0.018518
Rotational constants in MHz :          1196.085999           843.797545           555.168351

                             ****ORCA TERMINATED NORMALLY****
TOTAL RUN TIME: 0 days 0 hours 0 minutes 11 seconds 915 msec
