                         Program Version 6.0.0  -   RELEASE  -
|  1> ! wb97x-v def2-tzvp def2/J RIJCOSX DEFGRID2 scfconv7 GCP(DFT/TZ) printgap
|  2> %output
|  3>     printlevel normal
|  4> end
|  5> %cpcm
|  6>     smd true
|  7>     smdsolvent "water"
|  8> end
|  9> * xyz 0 1
| 10> C 0.7173170117179875 -1.4846477068469623 -0.07320913876835078
| 11> C 0.5461901164037454 -0.07205925515629903 0.4678109583039886
| 12> C 1.2946036817415296 0.9584420130849958 -0.3664775063519939
| 13> O -0.8505904404262739 0.27943685876271407 0.6460051660957752
| 14> C -1.6242416997910298 0.31496301185358333 -0.5546422268286094
| 15> H 0.11485715359946413 -2.197231612908339 0.49897925089315426
| 16> H 0.43972798595083723 -1.5533759366480582 -1.1296305897630605
| 17> H 1.767664388826494 -1.7798945661999852 0.013660237607815238
| 18> H 0.932107091548737 -0.0401874458615801 1.4932682826350723
| 19> H 1.0194583041917376 0.9042284305052717 -1.4243600012430995
| 20> H 2.3703220008271466 0.7703664060821007 -0.2935254358840733
| 21> H 1.099979427309885 1.971714063240801 -0.0009789248782501858
| 22> H -1.2531477617573308 1.0657976364084176 -1.2638187181116778
| 23> H -2.6398975732357624 0.5892033116408263 -0.258810812853968
| 24> H -1.6583966188514376 -0.6624071774494101 -1.0525403440878385
| 25> *
| 26>
| 27>                          ****END OF INPUT****

CARTESIAN COORDINATES (ANGSTROEM)
---------------------------------
  C      0.717317   -1.484648   -0.073209
  C      0.546190   -0.072059    0.467811
  C      1.294604    0.958442   -0.366478
  O     -0.850590    0.279437    0.646005
  C     -1.624242    0.314963   -0.554642
  H      0.114857   -2.197232    0.498979
  H      0.439728   -1.553376   -1.129631
  H      1.767664   -1.779895    0.013660
  H      0.932107   -0.040187    1.493268
  H      1.019458    0.904228   -1.424360
  H      2.370322    0.770366   -0.293525
  H      1.099979    1.971714   -0.000979
  H     -1.253148    1.065798   -1.263819
  H     -2.639898    0.589203   -0.258811
  H     -1.658397   -0.662407   -1.052540

 Total Charge           Charge          ....    0
 Multiplicity           Mult            ....    1
 Number of Electrons    NEL             ....   42
 Basis Dimension        Dim             ....  215

ORBITAL ENERGIES
----------------

  NO   OCC          E(Eh)            E(eV)
   0   2.0000     -21.671379      -589.7082
   1   2.0000     -12.091148      -329.0169
   2   2.0000     -12.075172      -328.5821
   3   2.0000     -12.026287      -327.2519
   4   2.0000     -12.025957      -327.2429
   5   2.0000      -1.670706       -45.4622
   6   2.0000      -1.295040       -35.2398
   7   2.0000      -1.198749       -32.6196
   8   2.0000      -1.176752       -32.0210
   9   2.0000      -1.067426       -29.0461
  10   2.0000      -0.968986       -26.3674
  11   2.0000      -0.959351       -26.1053
  12   2.0000      -0.952278       -25.9128
  13   2.0000      -0.863455       -23.4958
  14   2.0000      -0.839205       -22.8359
  15   2.0000      -0.818553       -22.2740
  16   2.0000      -0.802275       -21.8310
  17   2.0000      -0.799131       -21.7455
  18   2.0000      -0.788851       -21.4657
  19   2.0000      -0.771716       -20.9994
  20   2.0000      -0.762258       -20.7421
  21   0.0000      -0.160628        -4.3709
  22   0.0000      -0.099073        -2.6959
  23   0.0000      -0.010081        -0.2743
  24   0.0000      -0.000332        -0.0090
  25   0.0000       0.007180         0.1954

MULLIKEN ATOMIC CHARGES
-----------------------
   0 C :   -0.415034
   1 C :    0.149136
   2 C :   -0.414478
   3 O :   -0.393312
   4 C :   -0.219927
   5 H :    0.130541
   6 H :    0.133669
   7 H :    0.136412
   8 H :    0.096210
   9 H :    0.133333
  10 H :    0.136195
  11 H :    0.130458
  12 H :    0.127274
  13 H :    0.142077
  14 H :    0.127447
Sum of atomic charges:   -0.0000000

LOEWDIN ATOMIC CHARGES
----------------------
   0 C :   -0.291912
   1 C :   -0.368515
   2 C :   -0.291803
   3 O :    0.080750
   4 C :   -0.344954
   5 H :    0.122946
   6 H :    0.122621
   7 H :    0.129578
   8 H :    0.143687
   9 H :    0.122554
  10 H :    0.129519
  11 H :    0.122925
  12 H :    0.105504
  13 H :    0.111523
  14 H :    0.105578

  Mayer bond orders larger than 0.100000
B(  0-C ,  1-C ) :   0.9808 B(  0-C ,  5-H ) :   0.9749 B(  0-C ,  6-H ) :   0.9683
B(  0-C ,  7-H ) :   0.9695 B(  1-C ,  2-C ) :   0.9810 B(  1-C ,  3-O ) :   0.9737
B(  1-C ,  8-H ) :   0.9633 B(  2-C ,  9-H ) :   0.9684 B(  2-C , 10-H ) :   0.9695
B(  2-C , 11-H ) :   0.9749 B(  3-O ,  4-C ) :   0.9602 B(  4-C , 12-H ) :   0.9728
B(  4-C , 13-H ) :   0.9746 B(  4-C , 14-H ) :   0.9728

FINAL SINGLE POINT ENERGY      -233.666954824957

DIPOLE MOMENT
-------------

Method             : SCF
Type of density    : Electron Density
Multiplicity       :   1
Irrep              :   0
Energy             :  -233.6778087334574820 Eh
Relativity type    :
Basis              : AO
                                X                 Y                 Z
Electronic contribution:     -1.642589856       0.699061723       2.563526925
Nuclear contribution   :      2.067567146      -0.886366823      -3.268698722
                        -----------------------------------------
Total Dipole Moment    :      0.424977290      -0.187305100      -0.705171797
                        -----------------------------------------
Magnitude (a.u.)       :      0.844367314
Magnitude (Debye)      :      2.146211150

Rotational constants in cm-1:             0.213472             0.138457             0.108750
Rotational constants in MHz :          6399.733508          4150.838150          3260.251100

                             ****ORCA TERMINATED NORMALLY****
TOTAL RUN TIME: 0 days 0 hours 1 minutes 18 seconds 744 msec
