                         Program Version 6.0.0  -   RELEASE  -
|  1> ! pbe def2-sv(p) def2/J RI DEFGRID1 loosescf d4 GCP(DFT/SV(P)) printgap
|  2> %output
|  3>     printlevel normal
|  4> end
|  5> * xyz 0 1
|  6> C -2.4579411059 1.07434241 1.2082869844
|  7> C -1.4643196512 0.4946778808 0.2517768588
|  8> C -0.7058813012 1.2068119859 -0.571448828
|  9> C 0.2954477865 0.5127501986 -1.4356478942
| 10> C 1.0850920101 -0.4940041039 -0.5722182416
| 11> H 1.7467903097 -1.0567009426 -1.2378999179
| 12> C 0.1211312512 -1.4856874591 0.0993929558
| 13> C -1.3414615277 -1.0097025819 0.1916312769
| 14> H -1.8054214491 -1.4597228017 1.0846146424
| 15> O -2.0071067107 -1.5264996454 -0.9618350839
| 16> C 1.9612237938 0.2639068444 0.4008162201
| 17> C 1.575721494 0.6288925276 1.6132073696
| 18> C 3.326091365 0.5989084783 -0.1233515823
| 19> H -3.457592125 0.6862188603 1.0162523749
| 20> H -2.4793212641 2.1574712876 1.125927251
| 21> H -2.1921818867 0.8055446641 2.2307325582
| 22> H -0.7624543123 2.2847263118 -0.6011139362
| 23> H -0.2149710133 -0.0432818293 -2.2261033126
| 24> H 0.9733631874 1.2289076461 -1.8992269304
| 25> H 0.0908806946 -2.4100866662 -0.4801090389
| 26> H 0.4845955755 -1.7271688988 1.0974506849
| 27> H -2.9118039757 -1.1891650048 -0.9845960383
| 28> H 2.2282620552 1.184951162 2.2656197449
| 29> H 0.6011722118 0.3988855748 2.0050869733
| 30> H 3.2515414807 1.1098060123 -1.0818086635
| 31> H 3.8673374504 1.234343253 0.5719676757
| 32> H 3.8984929972 -0.3149336091 -0.2796347145
| 33> *
| 34>
| 35>                          ****END OF INPUT****

CARTESIAN COORDINATES (ANGSTROEM)
---------------------------------
  C     -2.457941    1.074342    1.208287
  C     -1.464320    0.494678    0.251777
  C     -0.705881    1.206812   -0.571449
  C      0.295448    0.512750   -1.435648
  C      1.085092   -0.494004   -0.572218
  H      1.746790   -1.056701   -1.237900
  C      0.121131   -1.485687    0.099393
  C     -1.341462   -1.009703    0.191631
  H     -1.805421   -1.459723    1.084615
  O     -2.007107   -1.526500   -0.961835
  C      1.961224    0.263907    0.400816
  C      1.575721    0.628893    1.613207
  C      3.326091    0.598908   -0.123352
  H     -3.457592    0.686219    1.016252
  H     -2.479321    2.157471    1.125927
  H     -2.192182    0.805545    2.230733
  H     -0.762454    2.284726   -0.601114
  H     -0.214971   -0.043282   -2.226103
  H      0.973363    1.228908   -1.899227
  H      0.090881   -2.410087   -0.480109
  H      0.484596   -1.727169    1.097451
  H     -2.911804   -1.189165   -0.984596
  H      2.228262    1.184951    2.265620
  H      0.601172    0.398886    2.005087
  H      3.251541    1.109806   -1.081809
  H      3.867337    1.234343    0.571968
  H      3.898493   -0.314934   -0.279635

 Total Charge           Charge          ....    0
 Multiplicity           Mult            ....    1
 Number of Electrons    NEL             ....   84
 Basis Dimension        Dim             ....  186

ORBITAL ENERGIES
----------------

  NO   OCC          E(Eh)            E(eV)
   0   2.0000     -18.740174      -509.9461
   1   2.0000      -9.935789      -270.3666
   2   2.0000      -9.895422      -269.2681
   3   2.0000      -9.891924      -269.1729
   4   2.0000      -9.886429      -269.0234
   5   2.0000      -9.883836      -268.9529
   6   2.0000      -9.883651      -268.9478
   7   2.0000      -9.879171      -268.8259
   8   2.0000      -9.878758      -268.8147
   9   2.0000      -9.876884      -268.7637
  10   2.0000      -9.863664      -268.4040
  11   2.0000      -0.916143       -24.9295
  12   2.0000      -0.762443       -20.7471
  13   2.0000      -0.716350       -19.4929
  14   2.0000      -0.674670       -18.3587
  15   2.0000      -0.658099       -17.9078
  16   2.0000      -0.609528       -16.5861
  17   2.0000      -0.607753       -16.5378
  18   2.0000      -0.548125       -14.9152
  19   2.0000      -0.531959       -14.4753
  20   2.0000      -0.480675       -13.0798
  21   2.0000      -0.466535       -12.6951
  22   2.0000      -0.439919       -11.9708
  23   2.0000      -0.424867       -11.5612
  24   2.0000      -0.398044       -10.8313
  25   2.0000      -0.392080       -10.6690
  26   2.0000      -0.378345       -10.2953
  27   2.0000      -0.376281       -10.2391
  28   2.0000      -0.371620       -10.1123
  29   2.0000      -0.352916        -9.6033
  30   2.0000      -0.348551        -9.4846
  31   2.0000      -0.344081        -9.3629
  32   2.0000      -0.332538        -9.0488
  33   2.0000      -0.328538        -8.9400
  34   2.0000      -0.313690        -8.5359
  35   2.0000      -0.302531        -8.2323
  36   2.0000      -0.283907        -7.7255
  37   2.0000      -0.276149        -7.5144
  38   2.0000      -0.256877        -6.9900
  39   2.0000      -0.217230        -5.9111
  40   2.0000      -0.210476        -5.7273
  41   2.0000      -0.200055        -5.4438
  42   0.0000      -0.020967        -0.5705
  43   0.0000      -0.005271        -0.1434
  44   0.0000       0.024422         0.6646
  45   0.0000       0.043016         1.1705
  46   0.0000       0.060912         1.6575

MULLIKEN ATOMIC CHARGES
-----------------------
   0 C :   -0.198431
   1 C :   -0.057718
   2 C :   -0.256965
   3 C :    0.069021
   4 C :   -0.197853
   5 H :    0.057546
   6 C :   -0.024882
   7 C :    0.050115
   8 H :    0.040439
   9 O :   -0.429503
  10 C :   -0.066386
  11 C :   -0.226708
  12 C :   -0.217115
  13 H :    0.094624
  14 H :    0.099149
  15 H :    0.109876
  16 H :    0.040917
  17 H :    0.091512
  18 H :    0.076313
  19 H :    0.079388
  20 H :    0.091306
  21 H :    0.293902
  22 H :    0.076180
  23 H :    0.094851
  24 H :    0.105410
  25 H :    0.095692
  26 H :    0.109322
Sum of atomic charges:   -0.0000000

LOEWDIN ATOMIC CHARGES
----------------------
   0 C :   -0.322268
   1 C :   -0.094892
   2 C :   -0.128217
   3 C :   -0.206646
   4 C :   -0.124512
   5 H :    0.119680
   6 C :   -0.213208
   7 C :   -0.032171
   8 H :    0.095822
   9 O :   -0.330752
  10 C :   -0.050528
  11 C :   -0.270376
  12 C :   -0.321690
  13 H :    0.119969
  14 H :    0.125044
  15 H :    0.126356
  16 H :    0.116029
  17 H :    0.131382
  18 H :    0.117472
  19 H :    0.130293
  20 H :    0.124553
  21 H :    0.281080
  22 H :    0.116125
  23 H :    0.116573
  24 H :    0.124159
  25 H :    0.122167
  26 H :    0.128557

  Mayer bond orders larger than 0.100000
B(  0-C ,  1-C ) :   1.1343 B(  0-C , 13-H ) :   0.9305 B(  0-C , 14-H ) :   0.9417
B(  0-C , 15-H ) :   0.9254 B(  1-C ,  2-C ) :   1.8555 B(  1-C ,  7-C ) :   1.0367
B(  2-C ,  3-C ) :   1.0581 B(  2-C , 16-H ) :   0.9420 B(  3-C ,  4-C ) :   1.1026
B(  3-C , 17-H ) :   0.8512 B(  3-C , 18-H ) :   0.9063 B(  4-C ,  5-H ) :   0.8776
B(  4-C ,  6-C ) :   1.0895 B(  4-C , 10-C ) :   0.9954 B(  6-C ,  7-C ) :   1.0789
B(  6-C , 19-H ) :   0.8715 B(  6-C , 20-H ) :   0.9070 B(  7-C ,  8-H ) :   0.8986
B(  7-C ,  9-O ) :   1.0056 B(  9-O , 21-H ) :   0.8516 B( 10-C , 11-C ) :   2.0636
B( 10-C , 12-C ) :   1.1209 B( 11-C , 22-H ) :   0.9008 B( 11-C , 23-H ) :   0.8878
B( 12-C , 24-H ) :   0.9295 B( 12-C , 25-H ) :   0.9413 B( 12-C , 26-H ) :   0.9276

Dispersion correction           -0.030039316
FINAL SINGLE POINT ENERGY      -464.783355380290

DIPOLE MOMENT
-------------

Method             : SCF
Type of density    : Electron Density
Multiplicity       :   1
Irrep              :   0
Energy             :  -464.8716253219542978 Eh
Relativity type    :
Basis              : AO
                                X                 Y                 Z
Electronic contribution:     -3.344206146      -2.415980866      -2.302323560
Nuclear contribution   :      3.083720938       2.688472890       2.431686848
                        -----------------------------------------
Total Dipole Moment    :     -0.260485208       0.272492024       0.129363288
                        -----------------------------------------
Magnitude (a.u.)       :      0.398546493
Magnitude (Debye)      :      1.013024678

Rotational constants in cm-1:             0.060105             0.027634             0.024466
Rotational constants in MHz :          1801.908911           828.443511           733.476548

                             ****ORCA TERMINATED NORMALLY****
TOTAL RUN TIME: 0 days 0 hours 0 minutes 12 seconds 580 msec
