                         Program Version 6.0.0  -   RELEASE  -
|  1> ! wb97x-v def2-tzvp def2/J RIJCOSX DEFGRID2 scfconv7 GCP(DFT/TZ) printgap
|  2> %output
|  3>     printlevel normal
|  4> end
|  5> * xyz 0 1
|  6> C -1.817213417545952 -1.46655394039549 -5.743105222917233e-05
|  7> C -0.5231012947019714 -0.7047630037671885 7.008307643940414e-06
|  8> C 0.6982972494254849 -1.3829866579444043 8.398074020464274e-06
|  9> C 1.9103043498850178 -0.6955593563492082 -4.32856029231128e-06
| 10> C 1.9103014798460387 0.6955708155101884 -1.761439273214029e-05
| 11> C 0.6982914116327638 1.382992822047463 1.4637183673003772e-05
| 12> C -0.5231041977016316 0.7047637286845148 3.5154240408199576e-05
| 13> C -1.817219263849721 1.4665496916474245 -5.795867629943724e-06
| 14> H -1.6374066472684339 -2.544298922734911 -0.0001601255614258336
| 15> H -2.424954703222832 -1.2207740455441316 0.8787199304705686
| 16> H -2.4249438344535466 -1.220598181042682 -0.8787951599206064
| 17> H 0.6966986788247698 -2.4699755260254848 1.4617599141943202e-05
| 18> H 2.8466432210043595 -1.2454276001395959 -5.0757670970316775e-06
| 19> H 2.8466380013819665 1.245443068955842 -4.668296227244423e-05
| 20> H 0.6966875070146088 2.4699816990889585 2.4079713989759034e-05
| 21> H -2.425391580377044 1.2200158061807143 0.8782573264463596
| 22> H -1.6374165125332776 2.54429502486241 0.000872168655116993
| 23> H -2.4245164377917137 1.2213441128500164 -0.8792571291276989
| 24> *
| 25>
| 26>                          ****END OF INPUT****

CARTESIAN COORDINATES (ANGSTROEM)
---------------------------------
  C     -1.817213   -1.466554   -0.000057
  C     -0.523101   -0.704763    0.000007
  C      0.698297   -1.382987    0.000008
  C      1.910304   -0.695559   -0.000004
  C      1.910301    0.695571   -0.000018
  C      0.698291    1.382993    0.000015
  C     -0.523104    0.704764    0.000035
  C     -1.817219    1.466550   -0.000006
  H     -1.637407   -2.544299   -0.000160
  H     -2.424955   -1.220774    0.878720
  H     -2.424944   -1.220598   -0.878795
  H      0.696699   -2.469976    0.000015
  H      2.846643   -1.245428   -0.000005
  H      2.846638    1.245443   -0.000047
  H      0.696688    2.469982    0.000024
  H     -2.425392    1.220016    0.878257
  H     -1.637417    2.544295    0.000872
  H     -2.424516    1.221344   -0.879257

 Total Charge           Charge          ....    0
 Multiplicity           Mult            ....    1
 Number of Electrons    NEL             ....   58
 Basis Dimension        Dim             ....  308

ORBITAL ENERGIES
----------------

  NO   OCC          E(Eh)            E(eV)
   0   2.0000     -12.055722      -328.0529
   1   2.0000     -12.053819      -328.0011
   2   2.0000     -12.045809      -327.7831
   3   2.0000     -12.044998      -327.7611
   4   2.0000     -12.043616      -327.7235
   5   2.0000     -12.042959      -327.7056
   6   2.0000     -12.042619      -327.6963
   7   2.0000     -12.042353      -327.6891
   8   2.0000      -1.382382       -37.6165
   9   2.0000      -1.295533       -35.2532
  10   2.0000      -1.281537       -34.8724
  11   2.0000      -1.205815       -32.8119
  12   2.0000      -1.175867       -31.9970
  13   2.0000      -1.090124       -29.6638
  14   2.0000      -1.071238       -29.1499
  15   2.0000      -0.955530       -26.0013
  16   2.0000      -0.947212       -25.7749
  17   2.0000      -0.904907       -24.6238
  18   2.0000      -0.865952       -23.5637
  19   2.0000      -0.865915       -23.5627
  20   2.0000      -0.848341       -23.0845
  21   2.0000      -0.829185       -22.5633
  22   2.0000      -0.826191       -22.4818
  23   2.0000      -0.823202       -22.4005
  24   2.0000      -0.802614       -21.8402
  25   2.0000      -0.792210       -21.5571
  26   2.0000      -0.751498       -20.4493
  27   2.0000      -0.630359       -17.1529
  28   2.0000      -0.624799       -17.0016
  29   0.0000      -0.235386        -6.4052
  30   0.0000      -0.230820        -6.2809
  31   0.0000      -0.067037        -1.8242
  32   0.0000      -0.052398        -1.4258
  33   0.0000      -0.017488        -0.4759

MULLIKEN ATOMIC CHARGES
-----------------------
   0 C :   -0.350819
   1 C :    0.077308
   2 C :   -0.174497
   3 C :   -0.127819
   4 C :   -0.127828
   5 C :   -0.174495
   6 C :    0.077353
   7 C :   -0.350769
   8 H :    0.116436
   9 H :    0.119735
  10 H :    0.119706
  11 H :    0.106441
  12 H :    0.113486
  13 H :    0.113448
  14 H :    0.106446
  15 H :    0.119692
  16 H :    0.116430
  17 H :    0.119745
Sum of atomic charges:    0.0000000

LOEWDIN ATOMIC CHARGES
----------------------
   0 C :   -0.249180
   1 C :   -0.143608
   2 C :   -0.119648
   3 C :   -0.146457
   4 C :   -0.146456
   5 C :   -0.119650
   6 C :   -0.143607
   7 C :   -0.249181
   8 H :    0.124232
   9 H :    0.126300
  10 H :    0.126306
  11 H :    0.141965
  12 H :    0.140092
  13 H :    0.140091
  14 H :    0.141965
  15 H :    0.126298
  16 H :    0.124232
  17 H :    0.126308

  Mayer bond orders larger than 0.100000
B(  0-C ,  1-C ) :   0.9288 B(  0-C ,  8-H ) :   0.9891 B(  0-C ,  9-H ) :   0.9797
B(  0-C , 10-H ) :   0.9796 B(  1-C ,  2-C ) :   1.4341 B(  1-C ,  6-C ) :   1.3403
B(  2-C ,  3-C ) :   1.4205 B(  2-C , 11-H ) :   0.9720 B(  3-C ,  4-C ) :   1.4270
B(  3-C , 12-H ) :   0.9767 B(  4-C ,  5-C ) :   1.4205 B(  4-C , 13-H ) :   0.9767
B(  5-C ,  6-C ) :   1.4343 B(  5-C , 14-H ) :   0.9720 B(  6-C ,  7-C ) :   0.9287
B(  7-C , 15-H ) :   0.9796 B(  7-C , 16-H ) :   0.9891 B(  7-C , 17-H ) :   0.9796

FINAL SINGLE POINT ENERGY      -310.890493365278

DIPOLE MOMENT
-------------

Method             : SCF
Type of density    : Electron Density
Multiplicity       :   1
Irrep              :   0
Energy             :  -310.9009491452782186 Eh
Relativity type    :
Basis              : AO
                                X                 Y                 Z
Electronic contribution:      5.320221024       0.000009456       0.000242819
Nuclear contribution   :     -5.568971496      -0.000010349      -0.000298107
                        -----------------------------------------
Total Dipole Moment    :     -0.248750471      -0.000000893      -0.000055288
                        -----------------------------------------
Magnitude (a.u.)       :      0.248750478
Magnitude (Debye)      :      0.632273467

Rotational constants in cm-1:             0.106181             0.071790             0.043520
Rotational constants in MHz :          3183.218393          2152.223354          1304.696895

                             ****ORCA TERMINATED NORMALLY****
TOTAL RUN TIME: 0 days 0 hours 2 minutes 3 seconds 35 msec
