                         Program Version 6.0.0  -   RELEASE  -
|  1> ! wb97x-v def2-tzvp def2/J RIJCOSX DEFGRID2 scfconv7 GCP(DFT/TZ) printgap
|  2> %output
|  3>     printlevel normal
|  4> end
|  5> %cpcm
|  6>     smd true
|  7>     smdsolvent "water"
|  8> end
|  9> * xyz 0 1
| 10> C -1.817213417545952 -1.46655394039549 -5.743105222917233e-05
| 11> C -0.5231012947019714 -0.7047630037671885 7.008307643940414e-06
| 12> C 0.6982972494254849 -1.3829866579444043 8.398074020464274e-06
| 13> C 1.9103043498850178 -0.6955593563492082 -4.32856029231128e-06
| 14> C 1.9103014798460387 0.6955708155101884 -1.761439273214029e-05
| 15> C 0.6982914116327638 1.382992822047463 1.4637183673003772e-05
| 16> C -0.5231041977016316 0.7047637286845148 3.5154240408199576e-05
| 17> C -1.817219263849721 1.4665496916474245 -5.795867629943724e-06
| 18> H -1.6374066472684339 -2.544298922734911 -0.0001601255614258336
| 19> H -2.424954703222832 -1.2207740455441316 0.8787199304705686
| 20> H -2.4249438344535466 -1.220598181042682 -0.8787951599206064
| 21> H 0.6966986788247698 -2.4699755260254848 1.4617599141943202e-05
| 22> H 2.8466432210043595 -1.2454276001395959 -5.0757670970316775e-06
| 23> H 2.8466380013819665 1.245443068955842 -4.668296227244423e-05
| 24> H 0.6966875070146088 2.4699816990889585 2.4079713989759034e-05
| 25> H -2.425391580377044 1.2200158061807143 0.8782573264463596
| 26> H -1.6374165125332776 2.54429502486241 0.000872168655116993
| 27> H -2.4245164377917137 1.2213441128500164 -0.8792571291276989
| 28> *
| 29>
| 30>                          ****END OF INPUT****

CARTESIAN COORDINATES (ANGSTROEM)
---------------------------------
  C     -1.817213   -1.466554   -0.000057
  C     -0.523101   -0.704763    0.000007
  C      0.698297   -1.382987    0.000008
  C      1.910304   -0.695559   -0.000004
  C      1.910301    0.695571   -0.000018
  C      0.698291    1.382993    0.000015
  C     -0.523104    0.704764    0.000035
  C     -1.817219    1.466550   -0.000006
  H     -1.637407   -2.544299   -0.000160
  H     -2.424955   -1.220774    0.878720
  H     -2.424944   -1.220598   -0.878795
  H      0.696699   -2.469976    0.000015
  H      2.846643   -1.245428   -0.000005
  H      2.846638    1.245443   -0.000047
  H      0.696688    2.469982    0.000024
  H     -2.425392    1.220016    0.878257
  H     -1.637417    2.544295    0.000872
  H     -2.424516    1.221344   -0.879257

 Total Charge           Charge          ....    0
 Multiplicity           Mult            ....    1
 Number of Electrons    NEL             ....   58
 Basis Dimension        Dim             ....  308

ORBITAL ENERGIES
----------------

  NO   OCC          E(Eh)            E(eV)
   0   2.0000     -12.054629      -328.0231
   1   2.0000     -12.052713      -327.9710
   2   2.0000     -12.044724      -327.7536
   3   2.0000     -12.043624      -327.7237
   4   2.0000     -12.042100      -327.6822
   5   2.0000     -12.041351      -327.6618
   6   2.0000     -12.032505      -327.4211
   7   2.0000     -12.032352      -327.4169
   8   2.0000      -1.382388       -37.6167
   9   2.0000      -1.293758       -35.2049
  10   2.0000      -1.279785       -34.8247
  11   2.0000      -1.200212       -32.6594
  12   2.0000      -1.170652       -31.8551
  13   2.0000      -1.087896       -29.6032
  14   2.0000      -1.068560       -29.0770
  15   2.0000      -0.954123       -25.9630
  16   2.0000      -0.944284       -25.6953
  17   2.0000      -0.900287       -24.4981
  18   2.0000      -0.862955       -23.4822
  19   2.0000      -0.861967       -23.4553
  20   2.0000      -0.840578       -22.8733
  21   2.0000      -0.821617       -22.3573
  22   2.0000      -0.818615       -22.2756
  23   2.0000      -0.813517       -22.1369
  24   2.0000      -0.796254       -21.6672
  25   2.0000      -0.787200       -21.4208
  26   2.0000      -0.752142       -20.4668
  27   2.0000      -0.631785       -17.1917
  28   2.0000      -0.625235       -17.0135
  29   0.0000      -0.235970        -6.4211
  30   0.0000      -0.231872        -6.3096
  31   0.0000      -0.066917        -1.8209
  32   0.0000      -0.045785        -1.2459
  33   0.0000      -0.005598        -0.1523

MULLIKEN ATOMIC CHARGES
-----------------------
   0 C :   -0.392234
   1 C :    0.055712
   2 C :   -0.220079
   3 C :   -0.176806
   4 C :   -0.176811
   5 C :   -0.220088
   6 C :    0.055758
   7 C :   -0.392188
   8 H :    0.141057
   9 H :    0.141429
  10 H :    0.141393
  11 H :    0.152354
  12 H :    0.157160
  13 H :    0.157121
  14 H :    0.152354
  15 H :    0.141396
  16 H :    0.141051
  17 H :    0.141422
Sum of atomic charges:    0.0000000

LOEWDIN ATOMIC CHARGES
----------------------
   0 C :   -0.251412
   1 C :   -0.150100
   2 C :   -0.130548
   3 C :   -0.161598
   4 C :   -0.161598
   5 C :   -0.130550
   6 C :   -0.150099
   7 C :   -0.251412
   8 H :    0.129153
   9 H :    0.132076
  10 H :    0.132078
  11 H :    0.151645
  12 H :    0.148707
  13 H :    0.148707
  14 H :    0.151645
  15 H :    0.132073
  16 H :    0.129153
  17 H :    0.132081

  Mayer bond orders larger than 0.100000
B(  0-C ,  1-C ) :   0.9407 B(  0-C ,  8-H ) :   0.9838 B(  0-C ,  9-H ) :   0.9738
B(  0-C , 10-H ) :   0.9737 B(  1-C ,  2-C ) :   1.4152 B(  1-C ,  6-C ) :   1.3155
B(  2-C ,  3-C ) :   1.3972 B(  2-C , 11-H ) :   0.9788 B(  3-C ,  4-C ) :   1.4046
B(  3-C , 12-H ) :   0.9805 B(  4-C ,  5-C ) :   1.3972 B(  4-C , 13-H ) :   0.9806
B(  5-C ,  6-C ) :   1.4153 B(  5-C , 14-H ) :   0.9787 B(  6-C ,  7-C ) :   0.9406
B(  7-C , 15-H ) :   0.9737 B(  7-C , 16-H ) :   0.9838 B(  7-C , 17-H ) :   0.9737

FINAL SINGLE POINT ENERGY      -310.891900412264

DIPOLE MOMENT
-------------

Method             : SCF
Type of density    : Electron Density
Multiplicity       :   1
Irrep              :   0
Energy             :  -310.9023561922643353 Eh
Relativity type    :
Basis              : AO
                                X                 Y                 Z
Electronic contribution:      5.162077142       0.000008902       0.000232414
Nuclear contribution   :     -5.568971496      -0.000010349      -0.000298107
                        -----------------------------------------
Total Dipole Moment    :     -0.406894354      -0.000001446      -0.000065693
                        -----------------------------------------
Magnitude (a.u.)       :      0.406894359
Magnitude (Debye)      :      1.034243269

Rotational constants in cm-1:             0.106181             0.071790             0.043520
Rotational constants in MHz :          3183.218393          2152.223354          1304.696895

                             ****ORCA TERMINATED NORMALLY****
TOTAL RUN TIME: 0 days 0 hours 2 minutes 2 seconds 340 msec
