                         Program Version 6.0.0  -   RELEASE  -
|  1> ! r2scan-3c def2/J RI DEFGRID2 scfconv6 printgap
|  2> %output
|  3>     printlevel normal
|  4> end
|  5> * xyz 0 1
|  6> C 1.2448561254 1.457710533 -0.2335042059
|  7> C 0.7142220536 0.0395349971 -0.4254583818
|  8> C 1.5312748863 -0.9589168128 0.405478446
|  9> C -0.7434178822 -0.0541251241 -0.0096509982
| 10> O -1.2787990458 0.7977134225 0.671877333
| 11> C -1.4771692877 -1.2806318478 -0.4704421474
| 12> H 1.1624471076 1.7486577729 0.8112377639
| 13> H 2.2864315711 1.5171191473 -0.5363113171
| 14> H 0.66471149 2.16300342 -0.8242767589
| 15> H 0.7897004378 -0.2390177969 -1.4803615336
| 16> H 1.2399955998 -1.982295511 0.1893155608
| 17> H 1.3887400417 -0.7676867346 1.4669399618
| 18> H 2.5867034665 -0.8439177273 0.1740080974
| 19> H -2.5392844703 -1.1752784272 -0.2668966349
| 20> H -1.099820507 -2.1437614418 0.0731217242
| 21> H -1.3115929047 -1.448800445 -1.5302190733
| 22> *
| 23>
| 24>                          ****END OF INPUT****

CARTESIAN COORDINATES (ANGSTROEM)
---------------------------------
  C      1.244856    1.457711   -0.233504
  C      0.714222    0.039535   -0.425458
  C      1.531275   -0.958917    0.405478
  C     -0.743418   -0.054125   -0.009651
  O     -1.278799    0.797713    0.671877
  C     -1.477169   -1.280632   -0.470442
  H      1.162447    1.748658    0.811238
  H      2.286432    1.517119   -0.536311
  H      0.664711    2.163003   -0.824277
  H      0.789700   -0.239018   -1.480362
  H      1.239996   -1.982296    0.189316
  H      1.388740   -0.767687    1.466940
  H      2.586703   -0.843918    0.174008
  H     -2.539284   -1.175278   -0.266897
  H     -1.099821   -2.143761    0.073122
  H     -1.311593   -1.448800   -1.530219

 Total Charge           Charge          ....    0
 Multiplicity           Mult            ....    1
 Number of Electrons    NEL             ....   48
 Basis Dimension        Dim             ....  169

ORBITAL ENERGIES
----------------

  NO   OCC          E(Eh)            E(eV)
   0   2.0000     -18.937732      -515.3219
   1   2.0000     -10.116461      -275.2829
   2   2.0000     -10.046861      -273.3890
   3   2.0000     -10.034269      -273.0463
   4   2.0000     -10.033845      -273.0348
   5   2.0000     -10.017384      -272.5869
   6   2.0000      -1.003626       -27.3101
   7   2.0000      -0.778466       -21.1831
   8   2.0000      -0.711720       -19.3669
   9   2.0000      -0.658148       -17.9091
  10   2.0000      -0.590957       -16.0808
  11   2.0000      -0.490089       -13.3360
  12   2.0000      -0.450343       -12.2544
  13   2.0000      -0.430488       -11.7142
  14   2.0000      -0.420697       -11.4478
  15   2.0000      -0.397220       -10.8089
  16   2.0000      -0.379180       -10.3180
  17   2.0000      -0.369525       -10.0553
  18   2.0000      -0.359706        -9.7881
  19   2.0000      -0.330537        -8.9944
  20   2.0000      -0.327598        -8.9144
  21   2.0000      -0.312541        -8.5047
  22   2.0000      -0.311131        -8.4663
  23   2.0000      -0.212527        -5.7831
  24   0.0000      -0.045402        -1.2355
  25   0.0000       0.066081         1.7982
  26   0.0000       0.114102         3.1049
  27   0.0000       0.120449         3.2776
  28   0.0000       0.124167         3.3787

MULLIKEN ATOMIC CHARGES
-----------------------
   0 C :   -0.496484
   1 C :    0.015822
   2 C :   -0.497892
   3 C :    0.276212
   4 O :   -0.349455
   5 C :   -0.528620
   6 H :    0.166495
   7 H :    0.142818
   8 H :    0.153234
   9 H :    0.143981
  10 H :    0.148180
  11 H :    0.166368
  12 H :    0.152628
  13 H :    0.179722
  14 H :    0.168907
  15 H :    0.158085
Sum of atomic charges:    0.0000000

LOEWDIN ATOMIC CHARGES
----------------------
   0 C :   -0.396831
   1 C :   -0.225102
   2 C :   -0.391158
   3 C :    0.222076
   4 O :   -0.465328
   5 C :   -0.384955
   6 H :    0.167894
   7 H :    0.150880
   8 H :    0.161646
   9 H :    0.166223
  10 H :    0.153636
  11 H :    0.161872
  12 H :    0.158351
  13 H :    0.175575
  14 H :    0.176536
  15 H :    0.168686

  Mayer bond orders larger than 0.100000
B(  0-C ,  1-C ) :   0.9228 B(  0-C ,  6-H ) :   0.9773 B(  0-C ,  7-H ) :   0.9759
B(  0-C ,  8-H ) :   0.9725 B(  1-C ,  2-C ) :   0.8683 B(  1-C ,  3-C ) :   0.8739
B(  1-C ,  9-H ) :   0.9310 B(  2-C , 10-H ) :   0.9726 B(  2-C , 11-H ) :   0.9791
B(  2-C , 12-H ) :   0.9674 B(  3-C ,  4-O ) :   1.9445 B(  3-C ,  5-C ) :   0.9223
B(  5-C , 13-H ) :   0.9831 B(  5-C , 14-H ) :   0.9457 B(  5-C , 15-H ) :   0.9605

Dispersion correction           -0.003919839
FINAL SINGLE POINT ENERGY      -271.704838376908

DIPOLE MOMENT
-------------

Method             : SCF
Type of density    : Electron Density
Multiplicity       :   1
Irrep              :   0
Energy             :  -271.7084846894988459 Eh
Relativity type    :
Basis              : AO
                                X                 Y                 Z
Electronic contribution:     -4.277757746       2.149909732       1.200667507
Nuclear contribution   :      4.829500862      -2.964007677      -1.794541223
                        -----------------------------------------
Total Dipole Moment    :      0.551743116      -0.814097945      -0.593873717
                        -----------------------------------------
Magnitude (a.u.)       :      1.148852437
Magnitude (Debye)      :      2.920150827

Rotational constants in cm-1:             0.158501             0.099949             0.073233
Rotational constants in MHz :          4751.751839          2996.388899          2195.467412

                             ****ORCA TERMINATED NORMALLY****
TOTAL RUN TIME: 0 days 0 hours 0 minutes 20 seconds 461 msec
