                         Program Version 6.0.0  -   RELEASE  -
|  1> ! r2scan-3c def2/J RI DEFGRID2 scfconv6 printgap
|  2> %output
|  3>     printlevel normal
|  4> end
|  5> %cpcm
|  6>     smd true
|  7>     smdsolvent "water"
|  8> end
|  9> * xyz 0 1
| 10> C 1.2448561254 1.457710533 -0.2335042059
| 11> C 0.7142220536 0.0395349971 -0.4254583818
| 12> C 1.5312748863 -0.9589168128 0.405478446
| 13> C -0.7434178822 -0.0541251241 -0.0096509982
| 14> O -1.2787990458 0.7977134225 0.671877333
| 15> C -1.4771692877 -1.2806318478 -0.4704421474
| 16> H 1.1624471076 1.7486577729 0.8112377639
| 17> H 2.2864315711 1.5171191473 -0.5363113171
| 18> H 0.66471149 2.16300342 -0.8242767589
| 19> H 0.7897004378 -0.2390177969 -1.4803615336
| 20> H 1.2399955998 -1.982295511 0.1893155608
| 21> H 1.3887400417 -0.7676867346 1.4669399618
| 22> H 2.5867034665 -0.8439177273 0.1740080974
| 23> H -2.5392844703 -1.1752784272 -0.2668966349
| 24> H -1.099820507 -2.1437614418 0.0731217242
| 25> H -1.3115929047 -1.448800445 -1.5302190733
| 26> *
| 27>
| 28>                          ****END OF INPUT****

CARTESIAN COORDINATES (ANGSTROEM)
---------------------------------
  C      1.244856    1.457711   -0.233504
  C      0.714222    0.039535   -0.425458
  C      1.531275   -0.958917    0.405478
  C     -0.743418   -0.054125   -0.009651
  O     -1.278799    0.797713    0.671877
  C     -1.477169   -1.280632   -0.470442
  H      1.162447    1.748658    0.811238
  H      2.286432    1.517119   -0.536311
  H      0.664711    2.163003   -0.824277
  H      0.789700   -0.239018   -1.480362
  H      1.239996   -1.982296    0.189316
  H      1.388740   -0.767687    1.466940
  H      2.586703   -0.843918    0.174008
  H     -2.539284   -1.175278   -0.266897
  H     -1.099821   -2.143761    0.073122
  H     -1.311593   -1.448800   -1.530219

 Total Charge           Charge          ....    0
 Multiplicity           Mult            ....    1
 Number of Electrons    NEL             ....   48
 Basis Dimension        Dim             ....  169

ORBITAL ENERGIES
----------------

  NO   OCC          E(Eh)            E(eV)
   0   2.0000     -18.946609      -515.5635
   1   2.0000     -10.122245      -275.4403
   2   2.0000     -10.037608      -273.1372
   3   2.0000     -10.021615      -272.7020
   4   2.0000     -10.019393      -272.6416
   5   2.0000     -10.011330      -272.4221
   6   2.0000      -1.015130       -27.6231
   7   2.0000      -0.769686       -20.9442
   8   2.0000      -0.702490       -19.1157
   9   2.0000      -0.647772       -17.6268
  10   2.0000      -0.583112       -15.8673
  11   2.0000      -0.486790       -13.2462
  12   2.0000      -0.446672       -12.1546
  13   2.0000      -0.424122       -11.5409
  14   2.0000      -0.416847       -11.3430
  15   2.0000      -0.393499       -10.7076
  16   2.0000      -0.371807       -10.1174
  17   2.0000      -0.358017        -9.7421
  18   2.0000      -0.349443        -9.5088
  19   2.0000      -0.332264        -9.0414
  20   2.0000      -0.322851        -8.7852
  21   2.0000      -0.305321        -8.3082
  22   2.0000      -0.301739        -8.2107
  23   2.0000      -0.221919        -6.0387
  24   0.0000      -0.047316        -1.2875
  25   0.0000       0.077939         2.1208
  26   0.0000       0.126452         3.4409
  27   0.0000       0.135594         3.6897
  28   0.0000       0.136376         3.7110

MULLIKEN ATOMIC CHARGES
-----------------------
   0 C :   -0.558086
   1 C :    0.042669
   2 C :   -0.531663
   3 C :    0.314298
   4 O :   -0.454901
   5 C :   -0.561815
   6 H :    0.165541
   7 H :    0.164381
   8 H :    0.164660
   9 H :    0.173941
  10 H :    0.169803
  11 H :    0.171678
  12 H :    0.168248
  13 H :    0.179778
  14 H :    0.201794
  15 H :    0.189673
Sum of atomic charges:    0.0000000

LOEWDIN ATOMIC CHARGES
----------------------
   0 C :   -0.407204
   1 C :   -0.217651
   2 C :   -0.392282
   3 C :    0.240612
   4 O :   -0.541814
   5 C :   -0.382432
   6 H :    0.163404
   7 H :    0.159170
   8 H :    0.161357
   9 H :    0.179763
  10 H :    0.161954
  11 H :    0.162833
  12 H :    0.163410
  13 H :    0.174889
  14 H :    0.191042
  15 H :    0.182949

  Mayer bond orders larger than 0.100000
B(  0-C ,  1-C ) :   0.8851 B(  0-C ,  6-H ) :   0.9811 B(  0-C ,  7-H ) :   0.9695
B(  0-C ,  8-H ) :   0.9755 B(  1-C ,  2-C ) :   0.8635 B(  1-C ,  3-C ) :   0.8892
B(  1-C ,  9-H ) :   0.9209 B(  2-C , 10-H ) :   0.9657 B(  2-C , 11-H ) :   0.9761
B(  2-C , 12-H ) :   0.9639 B(  3-C ,  4-O ) :   1.8678 B(  3-C ,  5-C ) :   0.9445
B(  5-C , 13-H ) :   0.9800 B(  5-C , 14-H ) :   0.9298 B(  5-C , 15-H ) :   0.9468

Dispersion correction           -0.003919839
FINAL SINGLE POINT ENERGY      -271.711009409067

DIPOLE MOMENT
-------------

Method             : SCF
Type of density    : Electron Density
Multiplicity       :   1
Irrep              :   0
Energy             :  -271.7146557216578344 Eh
Relativity type    :
Basis              : AO
                                X                 Y                 Z
Electronic contribution:     -4.014730702       1.713387507       0.879691420
Nuclear contribution   :      4.829500862      -2.964007677      -1.794541223
                        -----------------------------------------
Total Dipole Moment    :      0.814770160      -1.250620170      -0.914849803
                        -----------------------------------------
Magnitude (a.u.)       :      1.750671696
Magnitude (Debye)      :      4.449853816

Rotational constants in cm-1:             0.158501             0.099949             0.073233
Rotational constants in MHz :          4751.751839          2996.388899          2195.467412

                             ****ORCA TERMINATED NORMALLY****
TOTAL RUN TIME: 0 days 0 hours 0 minutes 23 seconds 73 msec
