                         Program Version 6.0.0  -   RELEASE  -
|  1> ! wb97x-v def2-tzvp def2/J RIJCOSX DEFGRID2 scfconv7 GCP(DFT/TZ) printgap
|  2> %output
|  3>     printlevel normal
|  4> end
|  5> * xyz 0 1
|  6> C -2.0417964312501677e-05 -3.787943597523039e-05 -1.619666199121035e-05
|  7> H 0.6010723652626235 -0.19069738895241942 0.8917190365404754
|  8> H 0.6562142663028203 0.26839240440413153 -0.8308032816042351
|  9> H -0.5645309009561329 -0.8988305027214671 -0.25763374818627116
| 10> H -0.6927594033275881 0.8211309263571954 0.1966957954974439
| 11> *
| 12>
| 13>                          ****END OF INPUT****

CARTESIAN COORDINATES (ANGSTROEM)
---------------------------------
  C     -0.000020   -0.000038   -0.000016
  H      0.601072   -0.190697    0.891719
  H      0.656214    0.268392   -0.830803
  H     -0.564531   -0.898831   -0.257634
  H     -0.692759    0.821131    0.196696

 Total Charge           Charge          ....    0
 Multiplicity           Mult            ....    1
 Number of Electrons    NEL             ....   10
 Basis Dimension        Dim             ....   55

ORBITAL ENERGIES
----------------

  NO   OCC          E(Eh)            E(eV)
   0   2.0000     -12.028343      -327.3078
   1   2.0000      -1.176209       -32.0063
   2   2.0000      -0.810118       -22.0444
   3   2.0000      -0.810099       -22.0439
   4   2.0000      -0.810095       -22.0438
   5   0.0000       0.017291         0.4705
   6   0.0000       0.066042         1.7971
   7   0.0000       0.066047         1.7972
   8   0.0000       0.066059         1.7975
   9   0.0000       0.193334         5.2609

MULLIKEN ATOMIC CHARGES
-----------------------
   0 C :   -0.473987
   1 H :    0.118486
   2 H :    0.118495
   3 H :    0.118500
   4 H :    0.118506
Sum of atomic charges:    0.0000000

LOEWDIN ATOMIC CHARGES
----------------------
   0 C :   -0.399939
   1 H :    0.099980
   2 H :    0.099988
   3 H :    0.099984
   4 H :    0.099987

  Mayer bond orders larger than 0.100000
B(  0-C ,  1-H ) :   0.9804 B(  0-C ,  2-H ) :   0.9804 B(  0-C ,  3-H ) :   0.9804
B(  0-C ,  4-H ) :   0.9804

FINAL SINGLE POINT ENERGY       -40.511898637486

DIPOLE MOMENT
-------------

Method             : SCF
Type of density    : Electron Density
Multiplicity       :   1
Irrep              :   0
Energy             :   -40.5152769107862980 Eh
Relativity type    :
Basis              : AO
                                X                 Y                 Z
Electronic contribution:     -0.000036109      -0.000099357      -0.000051846
Nuclear contribution   :      0.000054786       0.000103221       0.000029914
                        -----------------------------------------
Total Dipole Moment    :      0.000018677       0.000003864      -0.000021932
                        -----------------------------------------
Magnitude (a.u.)       :      0.000029065
Magnitude (Debye)      :      0.000073877

Rotational constants in cm-1:             5.257561             5.257376             5.257227
Rotational constants in MHz :        157617.703019        157612.180480        157607.686985

                             ****ORCA TERMINATED NORMALLY****
TOTAL RUN TIME: 0 days 0 hours 0 minutes 6 seconds 496 msec
