                         Program Version 6.0.0  -   RELEASE  -
|  1> ! wb97x-v def2-tzvp def2/J RIJCOSX DEFGRID2 scfconv7 GCP(DFT/TZ) printgap
|  2> %output
|  3>     printlevel normal
|  4> end
|  5> %cpcm
|  6>     smd true
|  7>     smdsolvent "water"
|  8> end
|  9> * xyz 0 1
| 10> C -2.0417964312501677e-05 -3.787943597523039e-05 -1.619666199121035e-05
| 11> H 0.6010723652626235 -0.19069738895241942 0.8917190365404754
| 12> H 0.6562142663028203 0.26839240440413153 -0.8308032816042351
| 13> H -0.5645309009561329 -0.8988305027214671 -0.25763374818627116
| 14> H -0.6927594033275881 0.8211309263571954 0.1966957954974439
| 15> *
| 16>
| 17>                          ****END OF INPUT****

CARTESIAN COORDINATES (ANGSTROEM)
---------------------------------
  C     -0.000020   -0.000038   -0.000016
  H      0.601072   -0.190697    0.891719
  H      0.656214    0.268392   -0.830803
  H     -0.564531   -0.898831   -0.257634
  H     -0.692759    0.821131    0.196696

 Total Charge           Charge          ....    0
 Multiplicity           Mult            ....    1
 Number of Electrons    NEL             ....   10
 Basis Dimension        Dim             ....   55

ORBITAL ENERGIES
----------------

  NO   OCC          E(Eh)            E(eV)
   0   2.0000     -12.021092      -327.1105
   1   2.0000      -1.170193       -31.8426
   2   2.0000      -0.803737       -21.8708
   3   2.0000      -0.803720       -21.8703
   4   2.0000      -0.803712       -21.8701
   5   0.0000       0.025134         0.6839
   6   0.0000       0.074372         2.0238
   7   0.0000       0.074373         2.0238
   8   0.0000       0.074387         2.0242
   9   0.0000       0.197130         5.3642

MULLIKEN ATOMIC CHARGES
-----------------------
   0 C :   -0.543098
   1 H :    0.135729
   2 H :    0.135782
   3 H :    0.135772
   4 H :    0.135815
Sum of atomic charges:    0.0000000

LOEWDIN ATOMIC CHARGES
----------------------
   0 C :   -0.411967
   1 H :    0.102970
   2 H :    0.102999
   3 H :    0.102993
   4 H :    0.103006

  Mayer bond orders larger than 0.100000
B(  0-C ,  1-H ) :   0.9757 B(  0-C ,  2-H ) :   0.9757 B(  0-C ,  3-H ) :   0.9757
B(  0-C ,  4-H ) :   0.9757

FINAL SINGLE POINT ENERGY       -40.508529849249

DIPOLE MOMENT
-------------

Method             : SCF
Type of density    : Electron Density
Multiplicity       :   1
Irrep              :   0
Energy             :   -40.5119081225489950 Eh
Relativity type    :
Basis              : AO
                                X                 Y                 Z
Electronic contribution:     -0.000131223      -0.000036815      -0.000160870
Nuclear contribution   :      0.000054786       0.000103221       0.000029914
                        -----------------------------------------
Total Dipole Moment    :     -0.000076437       0.000066406      -0.000130956
                        -----------------------------------------
Magnitude (a.u.)       :      0.000165535
Magnitude (Debye)      :      0.000420757

Rotational constants in cm-1:             5.257561             5.257376             5.257227
Rotational constants in MHz :        157617.703019        157612.180480        157607.686985

                             ****ORCA TERMINATED NORMALLY****
TOTAL RUN TIME: 0 days 0 hours 0 minutes 6 seconds 769 msec
