                         Program Version 6.0.0  -   RELEASE  -
|  1> ! pbe def2-sv(p) def2/J RI DEFGRID1 loosescf d4 GCP(DFT/SV(P)) printgap
|  2> %output
|  3>     printlevel normal
|  4> end
|  5> * xyz 0 1
|  6> C 1.678230645 1.422031105 -1.0833297809
|  7> C 3.0514018827 1.5411165363 -1.1855788472
|  8> C 3.8761180539 0.7438945371 -0.4065943762
|  9> C 3.316005764 -0.1696744896 0.479974269
| 10> C 1.9411741121 -0.2943708202 0.5777709105
| 11> C 1.1114159857 0.4969935158 -0.2100967378
| 12> C -0.3555359011 0.3772339738 -0.1128411964
| 13> C -1.1211730673 1.5193122536 0.1014202988
| 14> C -2.4993719449 1.4441952985 0.2026478491
| 15> C -3.1482012479 0.2170310272 0.0827085278
| 16> C -2.3938723242 -0.9309911026 -0.1484052867
| 17> C -1.0062052157 -0.8519266056 -0.2448155054
| 18> Cl -0.1205356315 -2.2911445791 -0.5869110257
| 19> Cl -3.1888234631 -2.4492167305 -0.3194775454
| 20> Cl -4.8617067573 0.1120373411 0.2102226975
| 21> Cl -3.4233914899 2.8694371604 0.4801698562
| 22> Cl 4.3358384453 -1.1619919478 1.4709158179
| 23> Cl 5.5967413832 0.8887112658 -0.5362142534
| 24> H 1.0410489203 2.0350972321 -1.6990392786
| 25> H 3.4936557281 2.2484514187 -1.8671853616
| 26> H 1.5249178891 -0.995405317 1.2817626908
| 27> H -0.6327421796 2.4739639984 0.2076976701
| 28> *
| 29>
| 30>                          ****END OF INPUT****

CARTESIAN COORDINATES (ANGSTROEM)
---------------------------------
  C      1.678231    1.422031   -1.083330
  C      3.051402    1.541117   -1.185579
  C      3.876118    0.743895   -0.406594
  C      3.316006   -0.169674    0.479974
  C      1.941174   -0.294371    0.577771
  C      1.111416    0.496994   -0.210097
  C     -0.355536    0.377234   -0.112841
  C     -1.121173    1.519312    0.101420
  C     -2.499372    1.444195    0.202648
  C     -3.148201    0.217031    0.082709
  C     -2.393872   -0.930991   -0.148405
  C     -1.006205   -0.851927   -0.244816
  Cl    -0.120536   -2.291145   -0.586911
  Cl    -3.188823   -2.449217   -0.319478
  Cl    -4.861707    0.112037    0.210223
  Cl    -3.423391    2.869437    0.480170
  Cl     4.335838   -1.161992    1.470916
  Cl     5.596741    0.888711   -0.536214
  H      1.041049    2.035097   -1.699039
  H      3.493656    2.248451   -1.867185
  H      1.524918   -0.995405    1.281763
  H     -0.632742    2.473964    0.207698

 Total Charge           Charge          ....    0
 Multiplicity           Mult            ....    1
 Number of Electrons    NEL             ....  178
 Basis Dimension        Dim             ....  284

ORBITAL ENERGIES
----------------

  NO   OCC          E(Eh)            E(eV)
   0   2.0000    -100.662588     -2739.1683
   1   2.0000    -100.662266     -2739.1595
   2   2.0000    -100.662138     -2739.1560
   3   2.0000    -100.660925     -2739.1230
   4   2.0000    -100.654138     -2738.9384
   5   2.0000    -100.652761     -2738.9009
   6   2.0000      -9.984215      -271.6843
   7   2.0000      -9.983630      -271.6684
   8   2.0000      -9.980166      -271.5741
   9   2.0000      -9.980027      -271.5703
  10   2.0000      -9.970890      -271.3217
  11   2.0000      -9.970127      -271.3009
  12   2.0000      -9.943883      -270.5868
  13   2.0000      -9.932895      -270.2878
  14   2.0000      -9.930282      -270.2167
  15   2.0000      -9.922306      -269.9997
  16   2.0000      -9.922238      -269.9978
  17   2.0000      -9.918900      -269.9070
  18   2.0000      -9.198242      -250.2969
  19   2.0000      -9.197843      -250.2860
  20   2.0000      -9.197772      -250.2841
  21   2.0000      -9.196730      -250.2557
  22   2.0000      -9.189708      -250.0647
  23   2.0000      -9.188312      -250.0267
  24   2.0000      -7.030045      -191.2973
  25   2.0000      -7.029614      -191.2855
  26   2.0000      -7.029424      -191.2803
  27   2.0000      -7.028352      -191.2512
  28   2.0000      -7.021303      -191.0594
  29   2.0000      -7.019953      -191.0226
  30   2.0000      -7.018298      -190.9776
  31   2.0000      -7.017889      -190.9665
  32   2.0000      -7.017869      -190.9659
  33   2.0000      -7.017121      -190.9456
  34   2.0000      -7.016808      -190.9371
  35   2.0000      -7.016729      -190.9349
  36   2.0000      -7.016704      -190.9342
  37   2.0000      -7.015831      -190.9105
  38   2.0000      -7.009788      -190.7460
  39   2.0000      -7.008849      -190.7205
  40   2.0000      -7.008344      -190.7067
  41   2.0000      -7.007469      -190.6829
  42   2.0000      -0.874056       -23.7843
  43   2.0000      -0.847321       -23.0568
  44   2.0000      -0.834195       -22.6996
  45   2.0000      -0.814885       -22.1741
  46   2.0000      -0.790423       -21.5085
  47   2.0000      -0.787286       -21.4232
  48   2.0000      -0.781843       -21.2750
  49   2.0000      -0.762497       -20.7486
  50   2.0000      -0.707360       -19.2483
  51   2.0000      -0.686259       -18.6741
  52   2.0000      -0.669421       -18.2159
  53   2.0000      -0.654146       -17.8002
  54   2.0000      -0.585918       -15.9436
  55   2.0000      -0.580036       -15.7836
  56   2.0000      -0.561720       -15.2852
  57   2.0000      -0.538766       -14.6606
  58   2.0000      -0.496185       -13.5019
  59   2.0000      -0.489054       -13.3078
  60   2.0000      -0.469893       -12.7864
  61   2.0000      -0.453955       -12.3528
  62   2.0000      -0.440539       -11.9877
  63   2.0000      -0.428424       -11.6580
  64   2.0000      -0.420927       -11.4540
  65   2.0000      -0.414289       -11.2734
  66   2.0000      -0.413416       -11.2496
  67   2.0000      -0.405748       -11.0410
  68   2.0000      -0.390092       -10.6149
  69   2.0000      -0.385683       -10.4950
  70   2.0000      -0.373912       -10.1747
  71   2.0000      -0.356925        -9.7124
  72   2.0000      -0.350371        -9.5341
  73   2.0000      -0.347665        -9.4604
  74   2.0000      -0.333962        -9.0876
  75   2.0000      -0.315092        -8.5741
  76   2.0000      -0.312154        -8.4941
  77   2.0000      -0.305164        -8.3039
  78   2.0000      -0.304027        -8.2730
  79   2.0000      -0.298553        -8.1240
  80   2.0000      -0.290358        -7.9010
  81   2.0000      -0.287589        -7.8257
  82   2.0000      -0.283243        -7.7074
  83   2.0000      -0.267597        -7.2817
  84   2.0000      -0.264369        -7.1938
  85   2.0000      -0.246416        -6.7053
  86   2.0000      -0.237258        -6.4561
  87   2.0000      -0.230790        -6.2801
  88   2.0000      -0.220243        -5.9931
  89   0.0000      -0.086320        -2.3489
  90   0.0000      -0.072684        -1.9778
  91   0.0000      -0.062639        -1.7045
  92   0.0000      -0.051990        -1.4147
  93   0.0000      -0.046411        -1.2629

MULLIKEN ATOMIC CHARGES
-----------------------
   0 C :   -0.091106
   1 C :   -0.095809
   2 C :    0.080301
   3 C :    0.085132
   4 C :   -0.135818
   5 C :    0.086978
   6 C :    0.081532
   7 C :   -0.190676
   8 C :    0.089702
   9 C :    0.027531
  10 C :    0.009976
  11 C :    0.017731
  12 Cl:   -0.020931
  13 Cl:   -0.013954
  14 Cl:   -0.013111
  15 Cl:   -0.039758
  16 Cl:   -0.050672
  17 Cl:   -0.049200
  18 H :    0.059797
  19 H :    0.057864
  20 H :    0.052011
  21 H :    0.052482
Sum of atomic charges:    0.0000000

LOEWDIN ATOMIC CHARGES
----------------------
   0 C :   -0.110844
   1 C :   -0.129221
   2 C :   -0.150998
   3 C :   -0.149761
   4 C :   -0.123450
   5 C :   -0.035780
   6 C :   -0.039983
   7 C :   -0.126467
   8 C :   -0.156703
   9 C :   -0.177695
  10 C :   -0.172368
  11 C :   -0.151768
  12 Cl:    0.180632
  13 Cl:    0.171959
  14 Cl:    0.172434
  15 Cl:    0.161042
  16 Cl:    0.145738
  17 Cl:    0.148123
  18 H :    0.133328
  19 H :    0.137065
  20 H :    0.133514
  21 H :    0.141204

  Mayer bond orders larger than 0.100000
B(  0-C ,  1-C ) :   1.3343 B(  0-C ,  5-C ) :   1.3601 B(  0-C , 18-H ) :   0.9619
B(  1-C ,  2-C ) :   1.3816 B(  1-C , 19-H ) :   0.9659 B(  2-C ,  3-C ) :   1.4023
B(  2-C , 17-Cl) :   1.0421 B(  3-C ,  4-C ) :   1.3767 B(  3-C , 16-Cl) :   1.0373
B(  4-C ,  5-C ) :   1.3210 B(  4-C , 20-H ) :   0.9611 B(  5-C ,  6-C ) :   0.9585
B(  6-C ,  7-C ) :   1.3134 B(  6-C , 11-C ) :   1.3973 B(  7-C ,  8-C ) :   1.3210
B(  7-C , 21-H ) :   0.9756 B(  8-C ,  9-C ) :   1.3964 B(  8-C , 15-Cl) :   1.0374
B(  9-C , 10-C ) :   1.4157 B(  9-C , 14-Cl) :   1.1207 B( 10-C , 11-C ) :   1.3875
B( 10-C , 13-Cl) :   1.1201 B( 11-C , 12-Cl) :   1.1003

Dispersion correction           -0.045059048
FINAL SINGLE POINT ENERGY     -3217.959822093980

DIPOLE MOMENT
-------------

Method             : SCF
Type of density    : Electron Density
Multiplicity       :   1
Irrep              :   0
Energy             : -3217.9845991849415441 Eh
Relativity type    :
Basis              : AO
                                X                 Y                 Z
Electronic contribution:     -7.409236464      -7.659747141       2.686588734
Nuclear contribution   :      7.321962008       8.133470413      -2.913025682
                        -----------------------------------------
Total Dipole Moment    :     -0.087274456       0.473723272      -0.226436948
                        -----------------------------------------
Magnitude (a.u.)       :      0.532263338
Magnitude (Debye)      :      1.352905887

Rotational constants in cm-1:             0.015549             0.003848             0.003280
Rotational constants in MHz :           466.159206           115.375074            98.341073

                             ****ORCA TERMINATED NORMALLY****
TOTAL RUN TIME: 0 days 0 hours 0 minutes 21 seconds 819 msec
