                         Program Version 6.0.0  -   RELEASE  -
|  1> ! wb97x-v def2-tzvp def2/J RIJCOSX DEFGRID2 scfconv7 GCP(DFT/TZ) printgap
|  2> %output
|  3>     printlevel normal
|  4> end
|  5> * xyz 0 1
|  6> C -2.565596127636854 -4.281355690121432e-06 -0.00031926176225342335
|  7> C -1.8733013486558905 -1.2101785706921877 7.061820930145049e-05
|  8> C -0.485186466749682 -1.220944167849046 0.000611306575496556
|  9> C 0.18315692719002105 1.0911005744287222e-05 0.0007781547873259882
| 10> C -0.4851969758475521 1.22096154099918 0.0004167324444695435
| 11> C -1.873315348913951 1.2101787036990432 -0.00013131391526371622
| 12> N 1.647398886616051 -1.9686736182994168e-05 0.00012081221452907032
| 13> O 2.2319737051631803 -1.0827554731411169 -0.0009374646385389852
| 14> O 2.232025569116888 1.082736724403253 -0.0008522547332512608
| 15> H -3.6504955894112703 -1.148434773041101e-05 -0.0008620957278268609
| 16> H -2.415617000293401 -2.149211457758637 -0.0001941259591418961
| 17> H 0.06829486679905147 -2.1512098035202674 0.0007402607495470211
| 18> H 0.06828280270869315 2.151236932244768 0.000388274256377885
| 19> H -2.4156436626769446 2.1492056274466456 -0.0005568673143390292
| 20> *
| 21>
| 22>                          ****END OF INPUT****

CARTESIAN COORDINATES (ANGSTROEM)
---------------------------------
  C     -2.565596   -0.000004   -0.000319
  C     -1.873301   -1.210179    0.000071
  C     -0.485186   -1.220944    0.000611
  C      0.183157    0.000011    0.000778
  C     -0.485197    1.220962    0.000417
  C     -1.873315    1.210179   -0.000131
  N      1.647399   -0.000020    0.000121
  O      2.231974   -1.082755   -0.000937
  O      2.232026    1.082737   -0.000852
  H     -3.650496   -0.000011   -0.000862
  H     -2.415617   -2.149211   -0.000194
  H      0.068295   -2.151210    0.000740
  H      0.068283    2.151237    0.000388
  H     -2.415644    2.149206   -0.000557

 Total Charge           Charge          ....    0
 Multiplicity           Mult            ....    1
 Number of Electrons    NEL             ....   64
 Basis Dimension        Dim             ....  309

ORBITAL ENERGIES
----------------

  NO   OCC          E(Eh)            E(eV)
   0   2.0000     -21.709219      -590.7379
   1   2.0000     -21.709091      -590.7344
   2   2.0000     -16.775550      -456.4859
   3   2.0000     -12.124566      -329.9262
   4   2.0000     -12.088606      -328.9477
   5   2.0000     -12.088155      -328.9354
   6   2.0000     -12.086260      -328.8838
   7   2.0000     -12.082194      -328.7732
   8   2.0000     -12.081471      -328.7535
   9   2.0000      -1.902508       -51.7699
  10   2.0000      -1.747090       -47.5407
  11   2.0000      -1.442229       -39.2451
  12   2.0000      -1.373558       -37.3764
  13   2.0000      -1.311697       -35.6931
  14   2.0000      -1.273404       -34.6511
  15   2.0000      -1.180677       -32.1279
  16   2.0000      -1.155216       -31.4350
  17   2.0000      -1.129450       -30.7339
  18   2.0000      -1.097192       -29.8561
  19   2.0000      -1.076473       -29.2923
  20   2.0000      -0.989304       -26.9203
  21   2.0000      -0.985052       -26.8046
  22   2.0000      -0.938892       -25.5486
  23   2.0000      -0.920984       -25.0612
  24   2.0000      -0.907539       -24.6954
  25   2.0000      -0.902106       -24.5476
  26   2.0000      -0.894975       -24.3535
  27   2.0000      -0.861219       -23.4350
  28   2.0000      -0.844280       -22.9740
  29   2.0000      -0.810842       -22.0641
  30   2.0000      -0.687460       -18.7067
  31   2.0000      -0.672344       -18.2954
  32   0.0000      -0.484579       -13.1861
  33   0.0000      -0.266478        -7.2512
  34   0.0000      -0.265816        -7.2332
  35   0.0000      -0.233070        -6.3422
  36   0.0000      -0.121971        -3.3190

MULLIKEN ATOMIC CHARGES
-----------------------
   0 C :   -0.118414
   1 C :   -0.075042
   2 C :   -0.182553
   3 C :    0.068794
   4 C :   -0.182509
   5 C :   -0.075142
   6 N :    0.449318
   7 O :   -0.311083
   8 O :   -0.311109
   9 H :    0.133005
  10 H :    0.134216
  11 H :    0.168167
  12 H :    0.168167
  13 H :    0.134186
Sum of atomic charges:    0.0000000

LOEWDIN ATOMIC CHARGES
----------------------
   0 C :   -0.112299
   1 C :   -0.125251
   2 C :   -0.086125
   3 C :   -0.159139
   4 C :   -0.086122
   5 C :   -0.125251
   6 N :   -0.002263
   7 O :   -0.031442
   8 O :   -0.031499
   9 H :    0.147092
  10 H :    0.147782
  11 H :    0.158366
  12 H :    0.158368
  13 H :    0.147782

  Mayer bond orders larger than 0.100000
B(  0-C ,  1-C ) :   1.4188 B(  0-C ,  5-C ) :   1.4187 B(  0-C ,  9-H ) :   0.9682
B(  1-C ,  2-C ) :   1.4335 B(  1-C , 10-H ) :   0.9691 B(  2-C ,  3-C ) :   1.4284
B(  2-C , 11-H ) :   0.9306 B(  3-C ,  4-C ) :   1.4284 B(  3-C ,  6-N ) :   0.9859
B(  4-C ,  5-C ) :   1.4334 B(  4-C , 12-H ) :   0.9306 B(  5-C , 13-H ) :   0.9692
B(  6-N ,  7-O ) :   1.6504 B(  6-N ,  8-O ) :   1.6504 B(  7-O ,  8-O ) :   0.2003

FINAL SINGLE POINT ENERGY      -436.779204492180

DIPOLE MOMENT
-------------

Method             : SCF
Type of density    : Electron Density
Multiplicity       :   1
Irrep              :   0
Energy             :  -436.7863976978798064 Eh
Relativity type    :
Basis              : AO
                                X                 Y                 Z
Electronic contribution:      5.913887021      -0.000081689       0.000887603
Nuclear contribution   :     -7.785304065       0.000019414      -0.000085028
                        -----------------------------------------
Total Dipole Moment    :     -1.871417044      -0.000062275       0.000802575
                        -----------------------------------------
Magnitude (a.u.)       :      1.871417217
Magnitude (Debye)      :      4.756764540

Rotational constants in cm-1:             0.132586             0.043000             0.032469
Rotational constants in MHz :          3974.814535          1289.099189           973.407082

                             ****ORCA TERMINATED NORMALLY****
TOTAL RUN TIME: 0 days 0 hours 2 minutes 36 seconds 351 msec
