                         Program Version 6.0.0  -   RELEASE  -
|  1> ! wb97x-v def2-tzvp def2/J RIJCOSX DEFGRID2 scfconv7 GCP(DFT/TZ) printgap
|  2> %output
|  3>     printlevel normal
|  4> end
|  5> %cpcm
|  6>     smd true
|  7>     smdsolvent "water"
|  8> end
|  9> * xyz 0 1
| 10> C -2.565596127636854 -4.281355690121432e-06 -0.00031926176225342335
| 11> C -1.8733013486558905 -1.2101785706921877 7.061820930145049e-05
| 12> C -0.485186466749682 -1.220944167849046 0.000611306575496556
| 13> C 0.18315692719002105 1.0911005744287222e-05 0.0007781547873259882
| 14> C -0.4851969758475521 1.22096154099918 0.0004167324444695435
| 15> C -1.873315348913951 1.2101787036990432 -0.00013131391526371622
| 16> N 1.647398886616051 -1.9686736182994168e-05 0.00012081221452907032
| 17> O 2.2319737051631803 -1.0827554731411169 -0.0009374646385389852
| 18> O 2.232025569116888 1.082736724403253 -0.0008522547332512608
| 19> H -3.6504955894112703 -1.148434773041101e-05 -0.0008620957278268609
| 20> H -2.415617000293401 -2.149211457758637 -0.0001941259591418961
| 21> H 0.06829486679905147 -2.1512098035202674 0.0007402607495470211
| 22> H 0.06828280270869315 2.151236932244768 0.000388274256377885
| 23> H -2.4156436626769446 2.1492056274466456 -0.0005568673143390292
| 24> *
| 25>
| 26>                          ****END OF INPUT****

CARTESIAN COORDINATES (ANGSTROEM)
---------------------------------
  C     -2.565596   -0.000004   -0.000319
  C     -1.873301   -1.210179    0.000071
  C     -0.485186   -1.220944    0.000611
  C      0.183157    0.000011    0.000778
  C     -0.485197    1.220962    0.000417
  C     -1.873315    1.210179   -0.000131
  N      1.647399   -0.000020    0.000121
  O      2.231974   -1.082755   -0.000937
  O      2.232026    1.082737   -0.000852
  H     -3.650496   -0.000011   -0.000862
  H     -2.415617   -2.149211   -0.000194
  H      0.068295   -2.151210    0.000740
  H      0.068283    2.151237    0.000388
  H     -2.415644    2.149206   -0.000557

 Total Charge           Charge          ....    0
 Multiplicity           Mult            ....    1
 Number of Electrons    NEL             ....   64
 Basis Dimension        Dim             ....  309

ORBITAL ENERGIES
----------------

  NO   OCC          E(Eh)            E(eV)
   0   2.0000     -21.722154      -591.0899
   1   2.0000     -21.722026      -591.0864
   2   2.0000     -16.786380      -456.7806
   3   2.0000     -12.115293      -329.6739
   4   2.0000     -12.075540      -328.5922
   5   2.0000     -12.075132      -328.5810
   6   2.0000     -12.069072      -328.4162
   7   2.0000     -12.064654      -328.2959
   8   2.0000     -12.063956      -328.2769
   9   2.0000      -1.914963       -52.1088
  10   2.0000      -1.760323       -47.9008
  11   2.0000      -1.436181       -39.0805
  12   2.0000      -1.367261       -37.2051
  13   2.0000      -1.296979       -35.2926
  14   2.0000      -1.269258       -34.5383
  15   2.0000      -1.185618       -32.2623
  16   2.0000      -1.161665       -31.6105
  17   2.0000      -1.124457       -30.5980
  18   2.0000      -1.087843       -29.6017
  19   2.0000      -1.085767       -29.5452
  20   2.0000      -0.975789       -26.5526
  21   2.0000      -0.968860       -26.3640
  22   2.0000      -0.933149       -25.3923
  23   2.0000      -0.933118       -25.3914
  24   2.0000      -0.911933       -24.8149
  25   2.0000      -0.900590       -24.5063
  26   2.0000      -0.893582       -24.3156
  27   2.0000      -0.843828       -22.9617
  28   2.0000      -0.826596       -22.4928
  29   2.0000      -0.798879       -21.7386
  30   2.0000      -0.676009       -18.3951
  31   2.0000      -0.657773       -17.8989
  32   0.0000      -0.492416       -13.3993
  33   0.0000      -0.253028        -6.8852
  34   0.0000      -0.251308        -6.8385
  35   0.0000      -0.237823        -6.4715
  36   0.0000      -0.125944        -3.4271

MULLIKEN ATOMIC CHARGES
-----------------------
   0 C :   -0.137693
   1 C :   -0.119714
   2 C :   -0.200332
   3 C :    0.123162
   4 C :   -0.200296
   5 C :   -0.119809
   6 N :    0.507624
   7 O :   -0.372203
   8 O :   -0.372247
   9 H :    0.173240
  10 H :    0.173779
  11 H :    0.185372
  12 H :    0.185368
  13 H :    0.173750
Sum of atomic charges:    0.0000000

LOEWDIN ATOMIC CHARGES
----------------------
   0 C :   -0.103345
   1 C :   -0.122513
   2 C :   -0.084789
   3 C :   -0.163907
   4 C :   -0.084788
   5 C :   -0.122513
   6 N :    0.011780
   7 O :   -0.066363
   8 O :   -0.066435
   9 H :    0.158629
  10 H :    0.158625
  11 H :    0.163496
  12 H :    0.163497
  13 H :    0.158626

  Mayer bond orders larger than 0.100000
B(  0-C ,  1-C ) :   1.3977 B(  0-C ,  5-C ) :   1.3976 B(  0-C ,  9-H ) :   0.9686
B(  1-C ,  2-C ) :   1.4396 B(  1-C , 10-H ) :   0.9688 B(  2-C ,  3-C ) :   1.3671
B(  2-C , 11-H ) :   0.9438 B(  3-C ,  4-C ) :   1.3671 B(  3-C ,  6-N ) :   0.9981
B(  4-C ,  5-C ) :   1.4396 B(  4-C , 12-H ) :   0.9438 B(  5-C , 13-H ) :   0.9689
B(  6-N ,  7-O ) :   1.6140 B(  6-N ,  8-O ) :   1.6140 B(  7-O ,  8-O ) :   0.1877

FINAL SINGLE POINT ENERGY      -436.783814308114

DIPOLE MOMENT
-------------

Method             : SCF
Type of density    : Electron Density
Multiplicity       :   1
Irrep              :   0
Energy             :  -436.7910075138140655 Eh
Relativity type    :
Basis              : AO
                                X                 Y                 Z
Electronic contribution:      5.252302861      -0.000132016       0.001122781
Nuclear contribution   :     -7.785304065       0.000019414      -0.000085028
                        -----------------------------------------
Total Dipole Moment    :     -2.533001204      -0.000112602       0.001037753
                        -----------------------------------------
Magnitude (a.u.)       :      2.533001419
Magnitude (Debye)      :      6.438377940

Rotational constants in cm-1:             0.132586             0.043000             0.032469
Rotational constants in MHz :          3974.814535          1289.099189           973.407082

                             ****ORCA TERMINATED NORMALLY****
TOTAL RUN TIME: 0 days 0 hours 2 minutes 17 seconds 777 msec
