                         Program Version 6.0.0  -   RELEASE  -
|  1> ! pbe def2-sv(p) def2/J RI DEFGRID1 loosescf d4 GCP(DFT/SV(P)) printgap
|  2> %output
|  3>     printlevel normal
|  4> end
|  5> * xyz 0 1
|  6> C -1.7472256196 -1.0184454226 -0.7187884495
|  7> C -1.0607472333 -0.4840088618 0.545235385
|  8> H -1.7623453695 -0.5953010934 1.3803081988
|  9> C -0.7183855616 1.0084288583 0.4267726213
| 10> H -1.5781356127 1.5117322991 -0.0265436513
| 11> C 0.5225193644 1.2495602514 -0.4551521877
| 12> H 0.8226783904 2.2978926179 -0.2857151828
| 13> C 1.6812092683 0.3430090507 0.0104193267
| 14> H 2.4679568197 0.3332895899 -0.7573398595
| 15> C 1.2374418469 -1.1200250599 0.1801268605
| 16> H 1.9969742508 -1.6202959495 0.8027302447
| 17> O 0.0622139127 -1.2701096871 0.9307417267
| 18> O 1.1626503299 -1.6975221665 -1.0849286444
| 19> O 2.1894035161 0.7606462275 1.25515236
| 20> O 0.1825158319 1.0531783351 -1.8010978161
| 21> O -0.5378936417 1.5961525892 1.691821595
| 22> O -3.0182071671 -0.411800269 -0.8040510749
| 23> H -1.8468025139 -2.1074351008 -0.6147007159
| 24> H -1.1376469943 -0.7859208894 -1.5964175584
| 25> H 1.0157549203 -2.6516107674 -1.0046311758
| 26> H 2.6646111749 1.5986032158 1.1525085229
| 27> H 0.934151112 1.2763367133 -2.3692076246
| 28> H 0.2116830511 1.1577101194 2.1292023912
| 29> H -3.4195050962 -0.6438842153 -1.653070045
| 30> *
| 31>
| 32>                          ****END OF INPUT****

CARTESIAN COORDINATES (ANGSTROEM)
---------------------------------
  C     -1.747226   -1.018445   -0.718788
  C     -1.060747   -0.484009    0.545235
  H     -1.762345   -0.595301    1.380308
  C     -0.718386    1.008429    0.426773
  H     -1.578136    1.511732   -0.026544
  C      0.522519    1.249560   -0.455152
  H      0.822678    2.297893   -0.285715
  C      1.681209    0.343009    0.010419
  H      2.467957    0.333290   -0.757340
  C      1.237442   -1.120025    0.180127
  H      1.996974   -1.620296    0.802730
  O      0.062214   -1.270110    0.930742
  O      1.162650   -1.697522   -1.084929
  O      2.189404    0.760646    1.255152
  O      0.182516    1.053178   -1.801098
  O     -0.537894    1.596153    1.691822
  O     -3.018207   -0.411800   -0.804051
  H     -1.846803   -2.107435   -0.614701
  H     -1.137647   -0.785921   -1.596418
  H      1.015755   -2.651611   -1.004631
  H      2.664611    1.598603    1.152509
  H      0.934151    1.276337   -2.369208
  H      0.211683    1.157710    2.129202
  H     -3.419505   -0.643884   -1.653070

 Total Charge           Charge          ....    0
 Multiplicity           Mult            ....    1
 Number of Electrons    NEL             ....   96
 Basis Dimension        Dim             ....  192

ORBITAL ENERGIES
----------------

  NO   OCC          E(Eh)            E(eV)
   0   2.0000     -18.773941      -510.8649
   1   2.0000     -18.763533      -510.5817
   2   2.0000     -18.762883      -510.5640
   3   2.0000     -18.758288      -510.4390
   4   2.0000     -18.738244      -509.8935
   5   2.0000     -18.730405      -509.6802
   6   2.0000      -9.986384      -271.7433
   7   2.0000      -9.950171      -270.7579
   8   2.0000      -9.942563      -270.5509
   9   2.0000      -9.928576      -270.1703
  10   2.0000      -9.927620      -270.1443
  11   2.0000      -9.913382      -269.7568
  12   2.0000      -0.979447       -26.6521
  13   2.0000      -0.948290       -25.8043
  14   2.0000      -0.934441       -25.4274
  15   2.0000      -0.918908       -25.0048
  16   2.0000      -0.910570       -24.7779
  17   2.0000      -0.902271       -24.5521
  18   2.0000      -0.693219       -18.8634
  19   2.0000      -0.689850       -18.7718
  20   2.0000      -0.615697       -16.7540
  21   2.0000      -0.578126       -15.7316
  22   2.0000      -0.562992       -15.3198
  23   2.0000      -0.527444       -14.3525
  24   2.0000      -0.494877       -13.4663
  25   2.0000      -0.478458       -13.0195
  26   2.0000      -0.469178       -12.7670
  27   2.0000      -0.460738       -12.5373
  28   2.0000      -0.441403       -12.0112
  29   2.0000      -0.422696       -11.5022
  30   2.0000      -0.408945       -11.1280
  31   2.0000      -0.386263       -10.5108
  32   2.0000      -0.378923       -10.3110
  33   2.0000      -0.369150       -10.0451
  34   2.0000      -0.360932        -9.8215
  35   2.0000      -0.344543        -9.3755
  36   2.0000      -0.331838        -9.0298
  37   2.0000      -0.320557        -8.7228
  38   2.0000      -0.293740        -7.9931
  39   2.0000      -0.284429        -7.7397
  40   2.0000      -0.277875        -7.5613
  41   2.0000      -0.258788        -7.0420
  42   2.0000      -0.255747        -6.9592
  43   2.0000      -0.239122        -6.5068
  44   2.0000      -0.229857        -6.2547
  45   2.0000      -0.214737        -5.8433
  46   2.0000      -0.202399        -5.5076
  47   2.0000      -0.197106        -5.3635
  48   0.0000       0.006971         0.1897
  49   0.0000       0.013278         0.3613
  50   0.0000       0.032890         0.8950
  51   0.0000       0.036107         0.9825
  52   0.0000       0.075965         2.0671

MULLIKEN ATOMIC CHARGES
-----------------------
   0 C :    0.002999
   1 C :    0.025770
   2 H :    0.081416
   3 C :    0.078819
   4 H :    0.088572
   5 C :    0.043113
   6 H :    0.053608
   7 C :   -0.011547
   8 H :    0.062547
   9 C :    0.212976
  10 H :    0.068016
  11 O :   -0.314323
  12 O :   -0.393478
  13 O :   -0.412563
  14 O :   -0.393297
  15 O :   -0.433372
  16 O :   -0.436219
  17 H :    0.054068
  18 H :    0.107120
  19 H :    0.305522
  20 H :    0.311017
  21 H :    0.301584
  22 H :    0.296228
  23 H :    0.301423
Sum of atomic charges:    0.0000000

LOEWDIN ATOMIC CHARGES
----------------------
   0 C :   -0.151939
   1 C :   -0.062188
   2 H :    0.121958
   3 C :   -0.062231
   4 H :    0.126271
   5 C :   -0.081090
   6 H :    0.094673
   7 C :   -0.090524
   8 H :    0.102763
   9 C :   -0.000511
  10 H :    0.100456
  11 O :   -0.141258
  12 O :   -0.306044
  13 O :   -0.304185
  14 O :   -0.303011
  15 O :   -0.320293
  16 O :   -0.342510
  17 H :    0.088340
  18 H :    0.106714
  19 H :    0.288075
  20 H :    0.292481
  21 H :    0.286560
  22 H :    0.270124
  23 H :    0.287368

  Mayer bond orders larger than 0.100000
B(  0-C ,  1-C ) :   1.0614 B(  0-C , 16-O ) :   1.0678 B(  0-C , 17-H ) :   0.9068
B(  0-C , 18-H ) :   0.8887 B(  1-C ,  2-H ) :   0.8925 B(  1-C ,  3-C ) :   1.0308
B(  1-C , 11-O ) :   0.9875 B(  3-C ,  4-H ) :   0.8808 B(  3-C ,  5-C ) :   0.9752
B(  3-C , 15-O ) :   1.0518 B(  5-C ,  6-H ) :   0.9024 B(  5-C ,  7-C ) :   0.9604
B(  5-C , 14-O ) :   1.0711 B(  7-C ,  8-H ) :   0.8921 B(  7-C ,  9-C ) :   0.9890
B(  7-C , 13-O ) :   1.0435 B(  9-C , 10-H ) :   0.9021 B(  9-C , 11-O ) :   1.0773
B(  9-C , 12-O ) :   1.1299 B( 12-O , 19-H ) :   0.8375 B( 13-O , 20-H ) :   0.8402
B( 14-O , 21-H ) :   0.8418 B( 15-O , 22-H ) :   0.8230 B( 16-O , 23-H ) :   0.8514

Dispersion correction           -0.025812586
FINAL SINGLE POINT ENERGY      -685.691436272132

DIPOLE MOMENT
-------------

Method             : SCF
Type of density    : Electron Density
Multiplicity       :   1
Irrep              :   0
Energy             :  -685.8219627407416965 Eh
Relativity type    :
Basis              : AO
                                X                 Y                 Z
Electronic contribution:      0.874973829      -0.037172624       1.586619721
Nuclear contribution   :      0.347138468      -0.214279114      -2.664321976
                        -----------------------------------------
Total Dipole Moment    :      1.222112297      -0.251451738      -1.077702255
                        -----------------------------------------
Magnitude (a.u.)       :      1.648705126
Magnitude (Debye)      :      4.190675393

Rotational constants in cm-1:             0.040708             0.028679             0.024880
Rotational constants in MHz :          1220.392458           859.775591           745.878323

                             ****ORCA TERMINATED NORMALLY****
TOTAL RUN TIME: 0 days 0 hours 0 minutes 12 seconds 282 msec
