                         Program Version 6.0.0  -   RELEASE  -
|  1> ! wb97x-v def2-tzvp def2/J RIJCOSX DEFGRID2 scfconv7 GCP(DFT/TZ) printgap
|  2> %output
|  3>     printlevel normal
|  4> end
|  5> * xyz 0 1
|  6> C -2.581781453872522 -0.6110888890332965 -0.3123538505424513
|  7> C -1.2050831069761014 -0.2694144609252489 0.2206317209814404
|  8> H -1.225817844236289 -0.2426077005513576 1.3223278343567437
|  9> C -0.6879906328700771 1.0647910001844414 -0.3139101600114107
| 10> H -0.7048296379412912 1.0356773446740797 -1.4164876665981594
| 11> C 0.7495009485826405 1.2968718182926775 0.15198524630855537
| 12> H 0.7474138101865226 1.4245533037666978 1.2423801199310052
| 13> C 1.633332462960528 0.10791378964021785 -0.20038972438243977
| 14> H 1.7203920082957502 0.0191998493653517 -1.2952115907981934
| 15> C 0.9927097959902361 -1.1730254163149467 0.3311163146774592
| 16> H 0.9233304169905008 -1.1436985489478282 1.4310867530918472
| 17> O -0.3210168165014755 -1.314488226842924 -0.22166197980096555
| 18> O 1.7639181372822892 -2.2617415721456733 -0.10195755027789594
| 19> O 2.914115384882064 0.3201575423778792 0.39484291520280473
| 20> O 1.2591607808562686 2.526807054493204 -0.37532488821192317
| 21> O -1.5450473168178291 2.1014900303545088 0.1699586983287846
| 22> O -3.0868378775146414 -1.8288004521679688 0.2479159440274273
| 23> H -2.540536900122509 -0.6734025582266728 -1.4095552883106677
| 24> H -3.2849161554653974 0.1770243100692505 -0.03359123026401034
| 25> H 1.5791708608011656 -3.0151922127150725 0.4747316420769674
| 26> H 3.496865189345819 -0.384783428342594 0.08196489543050804
| 27> H 1.2887154520339659 2.4432881604614765 -1.3401125095182609
| 28> H -1.1287860769040274 2.9418533087403906 -0.06975079258677028
| 29> H -2.483967752206405 -2.5358690679767513 -0.0177123371833211
| 30> *
| 31>
| 32>                          ****END OF INPUT****

CARTESIAN COORDINATES (ANGSTROEM)
---------------------------------
  C     -2.581781   -0.611089   -0.312354
  C     -1.205083   -0.269414    0.220632
  H     -1.225818   -0.242608    1.322328
  C     -0.687991    1.064791   -0.313910
  H     -0.704830    1.035677   -1.416488
  C      0.749501    1.296872    0.151985
  H      0.747414    1.424553    1.242380
  C      1.633332    0.107914   -0.200390
  H      1.720392    0.019200   -1.295212
  C      0.992710   -1.173025    0.331116
  H      0.923330   -1.143699    1.431087
  O     -0.321017   -1.314488   -0.221662
  O      1.763918   -2.261742   -0.101958
  O      2.914115    0.320158    0.394843
  O      1.259161    2.526807   -0.375325
  O     -1.545047    2.101490    0.169959
  O     -3.086838   -1.828800    0.247916
  H     -2.540537   -0.673403   -1.409555
  H     -3.284916    0.177024   -0.033591
  H      1.579171   -3.015192    0.474732
  H      3.496865   -0.384783    0.081965
  H      1.288715    2.443288   -1.340113
  H     -1.128786    2.941853   -0.069751
  H     -2.483968   -2.535869   -0.017712

 Total Charge           Charge          ....    0
 Multiplicity           Mult            ....    1
 Number of Electrons    NEL             ....   96
 Basis Dimension        Dim             ....  444

ORBITAL ENERGIES
----------------

  NO   OCC          E(Eh)            E(eV)
   0   2.0000     -21.706456      -590.6627
   1   2.0000     -21.698269      -590.4399
   2   2.0000     -21.691958      -590.2682
   3   2.0000     -21.685660      -590.0968
   4   2.0000     -21.684968      -590.0780
   5   2.0000     -21.671569      -589.7134
   6   2.0000     -12.166968      -331.0800
   7   2.0000     -12.116164      -329.6976
   8   2.0000     -12.115740      -329.6861
   9   2.0000     -12.114244      -329.6453
  10   2.0000     -12.112793      -329.6059
  11   2.0000     -12.095749      -329.1421
  12   2.0000      -1.734217       -47.1905
  13   2.0000      -1.698001       -46.2049
  14   2.0000      -1.692924       -46.0668
  15   2.0000      -1.687432       -45.9174
  16   2.0000      -1.684104       -45.8268
  17   2.0000      -1.671130       -45.4737
  18   2.0000      -1.342896       -36.5421
  19   2.0000      -1.330146       -36.1951
  20   2.0000      -1.238752       -33.7081
  21   2.0000      -1.208082       -32.8736
  22   2.0000      -1.171025       -31.8652
  23   2.0000      -1.129753       -30.7421
  24   2.0000      -1.098051       -29.8795
  25   2.0000      -1.084944       -29.5228
  26   2.0000      -1.051750       -28.6196
  27   2.0000      -1.043826       -28.4039
  28   2.0000      -1.031165       -28.0594
  29   2.0000      -1.022787       -27.8314
  30   2.0000      -1.004927       -27.3455
  31   2.0000      -0.994946       -27.0738
  32   2.0000      -0.985506       -26.8170
  33   2.0000      -0.964628       -26.2489
  34   2.0000      -0.963755       -26.2251
  35   2.0000      -0.950695       -25.8697
  36   2.0000      -0.946711       -25.7613
  37   2.0000      -0.938185       -25.5293
  38   2.0000      -0.932475       -25.3739
  39   2.0000      -0.914598       -24.8875
  40   2.0000      -0.903577       -24.5876
  41   2.0000      -0.888861       -24.1871
  42   2.0000      -0.847934       -23.0734
  43   2.0000      -0.836377       -22.7590
  44   2.0000      -0.831041       -22.6138
  45   2.0000      -0.813827       -22.1454
  46   2.0000      -0.800511       -21.7830
  47   2.0000      -0.776734       -21.1360
  48   0.0000      -0.245508        -6.6806
  49   0.0000      -0.201884        -5.4936
  50   0.0000      -0.185387        -5.0446
  51   0.0000      -0.157681        -4.2907
  52   0.0000      -0.126243        -3.4353

MULLIKEN ATOMIC CHARGES
-----------------------
   0 C :   -0.013272
   1 C :    0.040817
   2 H :    0.083161
   3 C :    0.051766
   4 H :    0.066525
   5 C :    0.041601
   6 H :    0.103303
   7 C :    0.065430
   8 H :    0.074347
   9 C :    0.066543
  10 H :    0.079723
  11 O :   -0.281572
  12 O :   -0.413361
  13 O :   -0.416957
  14 O :   -0.425710
  15 O :   -0.435350
  16 O :   -0.450855
  17 H :    0.088098
  18 H :    0.124923
  19 H :    0.318709
  20 H :    0.311196
  21 H :    0.300238
  22 H :    0.314681
  23 H :    0.306013
Sum of atomic charges:   -0.0000000

LOEWDIN ATOMIC CHARGES
----------------------
   0 C :   -0.305926
   1 C :   -0.300329
   2 H :    0.145399
   3 C :   -0.312184
   4 H :    0.137398
   5 C :   -0.309223
   6 H :    0.156717
   7 C :   -0.317947
   8 H :    0.140506
   9 C :   -0.410801
  10 H :    0.125536
  11 O :    0.179636
  12 O :    0.013274
  13 O :   -0.002703
  14 O :   -0.009862
  15 O :   -0.009296
  16 O :   -0.050429
  17 H :    0.120724
  18 H :    0.137526
  19 H :    0.179944
  20 H :    0.175034
  21 H :    0.172094
  22 H :    0.176076
  23 H :    0.168834

  Mayer bond orders larger than 0.100000
B(  0-C ,  1-C ) :   0.9805 B(  0-C , 16-O ) :   1.0164 B(  0-C , 17-H ) :   0.9696
B(  0-C , 18-H ) :   0.9650 B(  1-C ,  2-H ) :   0.9585 B(  1-C ,  3-C ) :   0.9329
B(  1-C , 11-O ) :   0.9662 B(  3-C ,  4-H ) :   0.9373 B(  3-C ,  5-C ) :   0.9918
B(  3-C , 15-O ) :   1.0810 B(  5-C ,  6-H ) :   0.9530 B(  5-C ,  7-C ) :   0.9735
B(  5-C , 14-O ) :   0.9948 B(  7-C ,  8-H ) :   0.9540 B(  7-C ,  9-C ) :   0.9253
B(  7-C , 13-O ) :   1.1581 B(  9-C , 10-H ) :   0.9854 B(  9-C , 11-O ) :   1.0203
B(  9-C , 12-O ) :   1.2006 B( 12-O , 19-H ) :   0.8914 B( 13-O , 20-H ) :   0.8892
B( 14-O , 21-H ) :   0.8938 B( 15-O , 22-H ) :   0.8804 B( 16-O , 23-H ) :   0.8953

FINAL SINGLE POINT ENERGY      -687.246923561186

DIPOLE MOMENT
-------------

Method             : SCF
Type of density    : Electron Density
Multiplicity       :   1
Irrep              :   0
Energy             :  -687.2656731248858932 Eh
Relativity type    :
Basis              : AO
                                X                 Y                 Z
Electronic contribution:      2.192498234      -0.654261255       0.382002232
Nuclear contribution   :     -1.556508202       0.178861532      -0.920843463
                        -----------------------------------------
Total Dipole Moment    :      0.635990032      -0.475399723      -0.538841230
                        -----------------------------------------
Magnitude (a.u.)       :      0.959603089
Magnitude (Debye)      :      2.439117212

Rotational constants in cm-1:             0.038789             0.025979             0.016295
Rotational constants in MHz :          1162.857081           778.828238           488.500391

                             ****ORCA TERMINATED NORMALLY****
TOTAL RUN TIME: 0 days 0 hours 4 minutes 48 seconds 206 msec
