                         Program Version 6.0.0  -   RELEASE  -
|  1> ! wb97x-v def2-tzvp def2/J RIJCOSX DEFGRID2 scfconv7 GCP(DFT/TZ) printgap
|  2> %output
|  3>     printlevel normal
|  4> end
|  5> %cpcm
|  6>     smd true
|  7>     smdsolvent "water"
|  8> end
|  9> * xyz 0 1
| 10> C -2.581781453872522 -0.6110888890332965 -0.3123538505424513
| 11> C -1.2050831069761014 -0.2694144609252489 0.2206317209814404
| 12> H -1.225817844236289 -0.2426077005513576 1.3223278343567437
| 13> C -0.6879906328700771 1.0647910001844414 -0.3139101600114107
| 14> H -0.7048296379412912 1.0356773446740797 -1.4164876665981594
| 15> C 0.7495009485826405 1.2968718182926775 0.15198524630855537
| 16> H 0.7474138101865226 1.4245533037666978 1.2423801199310052
| 17> C 1.633332462960528 0.10791378964021785 -0.20038972438243977
| 18> H 1.7203920082957502 0.0191998493653517 -1.2952115907981934
| 19> C 0.9927097959902361 -1.1730254163149467 0.3311163146774592
| 20> H 0.9233304169905008 -1.1436985489478282 1.4310867530918472
| 21> O -0.3210168165014755 -1.314488226842924 -0.22166197980096555
| 22> O 1.7639181372822892 -2.2617415721456733 -0.10195755027789594
| 23> O 2.914115384882064 0.3201575423778792 0.39484291520280473
| 24> O 1.2591607808562686 2.526807054493204 -0.37532488821192317
| 25> O -1.5450473168178291 2.1014900303545088 0.1699586983287846
| 26> O -3.0868378775146414 -1.8288004521679688 0.2479159440274273
| 27> H -2.540536900122509 -0.6734025582266728 -1.4095552883106677
| 28> H -3.2849161554653974 0.1770243100692505 -0.03359123026401034
| 29> H 1.5791708608011656 -3.0151922127150725 0.4747316420769674
| 30> H 3.496865189345819 -0.384783428342594 0.08196489543050804
| 31> H 1.2887154520339659 2.4432881604614765 -1.3401125095182609
| 32> H -1.1287860769040274 2.9418533087403906 -0.06975079258677028
| 33> H -2.483967752206405 -2.5358690679767513 -0.0177123371833211
| 34> *
| 35>
| 36>                          ****END OF INPUT****

CARTESIAN COORDINATES (ANGSTROEM)
---------------------------------
  C     -2.581781   -0.611089   -0.312354
  C     -1.205083   -0.269414    0.220632
  H     -1.225818   -0.242608    1.322328
  C     -0.687991    1.064791   -0.313910
  H     -0.704830    1.035677   -1.416488
  C      0.749501    1.296872    0.151985
  H      0.747414    1.424553    1.242380
  C      1.633332    0.107914   -0.200390
  H      1.720392    0.019200   -1.295212
  C      0.992710   -1.173025    0.331116
  H      0.923330   -1.143699    1.431087
  O     -0.321017   -1.314488   -0.221662
  O      1.763918   -2.261742   -0.101958
  O      2.914115    0.320158    0.394843
  O      1.259161    2.526807   -0.375325
  O     -1.545047    2.101490    0.169959
  O     -3.086838   -1.828800    0.247916
  H     -2.540537   -0.673403   -1.409555
  H     -3.284916    0.177024   -0.033591
  H      1.579171   -3.015192    0.474732
  H      3.496865   -0.384783    0.081965
  H      1.288715    2.443288   -1.340113
  H     -1.128786    2.941853   -0.069751
  H     -2.483968   -2.535869   -0.017712

 Total Charge           Charge          ....    0
 Multiplicity           Mult            ....    1
 Number of Electrons    NEL             ....   96
 Basis Dimension        Dim             ....  444

ORBITAL ENERGIES
----------------

  NO   OCC          E(Eh)            E(eV)
   0   2.0000     -21.692614      -590.2860
   1   2.0000     -21.691923      -590.2672
   2   2.0000     -21.683654      -590.0422
   3   2.0000     -21.682976      -590.0238
   4   2.0000     -21.681693      -589.9889
   5   2.0000     -21.677351      -589.8707
   6   2.0000     -12.152094      -330.6753
   7   2.0000     -12.104183      -329.3716
   8   2.0000     -12.103893      -329.3637
   9   2.0000     -12.102955      -329.3382
  10   2.0000     -12.102119      -329.3154
  11   2.0000     -12.091197      -329.0182
  12   2.0000      -1.723733       -46.9052
  13   2.0000      -1.691317       -46.0231
  14   2.0000      -1.687044       -45.9068
  15   2.0000      -1.682133       -45.7732
  16   2.0000      -1.679176       -45.6927
  17   2.0000      -1.675925       -45.6043
  18   2.0000      -1.332503       -36.2592
  19   2.0000      -1.320472       -35.9319
  20   2.0000      -1.231355       -33.5069
  21   2.0000      -1.199385       -32.6369
  22   2.0000      -1.166046       -31.7297
  23   2.0000      -1.122124       -30.5346
  24   2.0000      -1.087806       -29.6007
  25   2.0000      -1.077580       -29.3224
  26   2.0000      -1.045817       -28.4581
  27   2.0000      -1.042520       -28.3684
  28   2.0000      -1.024047       -27.8657
  29   2.0000      -1.016523       -27.6610
  30   2.0000      -0.999217       -27.1901
  31   2.0000      -0.989833       -26.9347
  32   2.0000      -0.979913       -26.6648
  33   2.0000      -0.964113       -26.2349
  34   2.0000      -0.961324       -26.1590
  35   2.0000      -0.948786       -25.8178
  36   2.0000      -0.944935       -25.7130
  37   2.0000      -0.933404       -25.3992
  38   2.0000      -0.925752       -25.1910
  39   2.0000      -0.913049       -24.8453
  40   2.0000      -0.899850       -24.4862
  41   2.0000      -0.881605       -23.9897
  42   2.0000      -0.841837       -22.9076
  43   2.0000      -0.829186       -22.5633
  44   2.0000      -0.823946       -22.4207
  45   2.0000      -0.805271       -21.9125
  46   2.0000      -0.790163       -21.5014
  47   2.0000      -0.765795       -20.8383
  48   0.0000      -0.236025        -6.4226
  49   0.0000      -0.191095        -5.2000
  50   0.0000      -0.175684        -4.7806
  51   0.0000      -0.150234        -4.0881
  52   0.0000      -0.116983        -3.1833

MULLIKEN ATOMIC CHARGES
-----------------------
   0 C :   -0.014339
   1 C :    0.060738
   2 H :    0.102289
   3 C :    0.022693
   4 H :    0.111248
   5 C :    0.114954
   6 H :    0.117599
   7 C :    0.064658
   8 H :    0.111786
   9 C :    0.077736
  10 H :    0.108973
  11 O :   -0.332102
  12 O :   -0.489526
  13 O :   -0.521436
  14 O :   -0.530536
  15 O :   -0.525491
  16 O :   -0.549218
  17 H :    0.119080
  18 H :    0.130396
  19 H :    0.378073
  20 H :    0.362344
  21 H :    0.363594
  22 H :    0.358559
  23 H :    0.357928
Sum of atomic charges:   -0.0000000

LOEWDIN ATOMIC CHARGES
----------------------
   0 C :   -0.307073
   1 C :   -0.297719
   2 H :    0.152604
   3 C :   -0.300300
   4 H :    0.152246
   5 C :   -0.307676
   6 H :    0.159603
   7 C :   -0.311692
   8 H :    0.152517
   9 C :   -0.402990
  10 H :    0.138615
  11 O :    0.161785
  12 O :   -0.010758
  13 O :   -0.040589
  14 O :   -0.045796
  15 O :   -0.040592
  16 O :   -0.088248
  17 H :    0.129539
  18 H :    0.137069
  19 H :    0.201720
  20 H :    0.192671
  21 H :    0.197519
  22 H :    0.190960
  23 H :    0.186586

  Mayer bond orders larger than 0.100000
B(  0-C ,  1-C ) :   0.9672 B(  0-C , 16-O ) :   0.9820 B(  0-C , 17-H ) :   0.9706
B(  0-C , 18-H ) :   0.9666 B(  1-C ,  2-H ) :   0.9493 B(  1-C ,  3-C ) :   0.9590
B(  1-C , 11-O ) :   0.9539 B(  3-C ,  4-H ) :   0.9510 B(  3-C ,  5-C ) :   0.9948
B(  3-C , 15-O ) :   1.0313 B(  5-C ,  6-H ) :   0.9381 B(  5-C ,  7-C ) :   0.9775
B(  5-C , 14-O ) :   0.9821 B(  7-C ,  8-H ) :   0.9559 B(  7-C ,  9-C ) :   0.9513
B(  7-C , 13-O ) :   1.0876 B(  9-C , 10-H ) :   0.9816 B(  9-C , 11-O ) :   1.0073
B(  9-C , 12-O ) :   1.1927 B( 12-O , 19-H ) :   0.8529 B( 13-O , 20-H ) :   0.8584
B( 14-O , 21-H ) :   0.8597 B( 15-O , 22-H ) :   0.8555 B( 16-O , 23-H ) :   0.8636

FINAL SINGLE POINT ENERGY      -687.288157383610

DIPOLE MOMENT
-------------

Method             : SCF
Type of density    : Electron Density
Multiplicity       :   1
Irrep              :   0
Energy             :  -687.3069069473102672 Eh
Relativity type    :
Basis              : AO
                                X                 Y                 Z
Electronic contribution:      2.338119034      -0.815491453       0.121451775
Nuclear contribution   :     -1.556508202       0.178861532      -0.920843463
                        -----------------------------------------
Total Dipole Moment    :      0.781610832      -0.636629921      -0.799391687
                        -----------------------------------------
Magnitude (a.u.)       :      1.286561393
Magnitude (Debye)      :      3.270179177

Rotational constants in cm-1:             0.038789             0.025979             0.016295
Rotational constants in MHz :          1162.857081           778.828238           488.500391

                             ****ORCA TERMINATED NORMALLY****
TOTAL RUN TIME: 0 days 0 hours 5 minutes 25 seconds 328 msec
