                         Program Version 6.0.0  -   RELEASE  -
|  1> ! wb97x-v def2-tzvp def2/J RIJCOSX DEFGRID2 scfconv7 GCP(DFT/TZ) printgap
|  2> %output
|  3>     printlevel normal
|  4> end
|  5> * xyz 0 1
|  6> C -1.612704764682691 -0.12476337225765444 0.475563056100896
|  7> C -0.6630223778447841 0.5073396222630651 -0.5390273015996634
|  8> C 0.6835939271564346 -0.19517616156700107 -0.6204638918259777
|  9> O 1.4432724408090136 -0.10335490409865673 0.6031284171264821
| 10> H -1.7891448658373388 -1.1808989959487814 0.2414171352307692
| 11> H -1.2147683584496642 -0.06618636867562913 1.4948871971178144
| 12> H -2.580917893644611 0.38537599301208475 0.4768074977840845
| 13> H -0.5004837176886383 1.5656603198319738 -0.2995899444525747
| 14> H -1.1132130467113057 0.472067578561123 -1.539348606002202
| 15> H 0.5438297433331613 -1.2516479682661108 -0.8935352949756963
| 16> H 1.3084039806559724 0.27184433429454863 -1.3880193138814787
| 17> H 0.966430870423491 -0.6005455595354979 1.279374830895422
| 18> *
| 19>
| 20>                          ****END OF INPUT****

CARTESIAN COORDINATES (ANGSTROEM)
---------------------------------
  C     -1.612705   -0.124763    0.475563
  C     -0.663022    0.507340   -0.539027
  C      0.683594   -0.195176   -0.620464
  O      1.443272   -0.103355    0.603128
  H     -1.789145   -1.180899    0.241417
  H     -1.214768   -0.066186    1.494887
  H     -2.580918    0.385376    0.476807
  H     -0.500484    1.565660   -0.299590
  H     -1.113213    0.472068   -1.539349
  H      0.543830   -1.251648   -0.893535
  H      1.308404    0.271844   -1.388019
  H      0.966431   -0.600546    1.279375

 Total Charge           Charge          ....    0
 Multiplicity           Mult            ....    1
 Number of Electrons    NEL             ....   34
 Basis Dimension        Dim             ....  172

ORBITAL ENERGIES
----------------

  NO   OCC          E(Eh)            E(eV)
   0   2.0000     -21.667173      -589.5938
   1   2.0000     -12.089947      -328.9842
   2   2.0000     -12.045493      -327.7745
   3   2.0000     -12.042795      -327.7011
   4   2.0000      -1.664639       -45.2971
   5   2.0000      -1.293269       -35.1916
   6   2.0000      -1.193620       -32.4800
   7   2.0000      -1.093203       -29.7476
   8   2.0000      -1.012919       -27.5629
   9   2.0000      -0.949067       -25.8254
  10   2.0000      -0.922136       -25.0926
  11   2.0000      -0.874223       -23.7888
  12   2.0000      -0.857768       -23.3411
  13   2.0000      -0.826713       -22.4960
  14   2.0000      -0.793010       -21.5789
  15   2.0000      -0.779477       -21.2106
  16   2.0000      -0.763390       -20.7729
  17   0.0000      -0.140305        -3.8179
  18   0.0000      -0.051454        -1.4001
  19   0.0000      -0.009312        -0.2534
  20   0.0000      -0.001884        -0.0513
  21   0.0000       0.003293         0.0896

MULLIKEN ATOMIC CHARGES
-----------------------
   0 C :   -0.371272
   1 C :   -0.145901
   2 C :   -0.027237
   3 O :   -0.456377
   4 H :    0.109109
   5 H :    0.100729
   6 H :    0.118423
   7 H :    0.098204
   8 H :    0.085720
   9 H :    0.088373
  10 H :    0.103144
  11 H :    0.297086
Sum of atomic charges:   -0.0000000

LOEWDIN ATOMIC CHARGES
----------------------
   0 C :   -0.314795
   1 C :   -0.304539
   2 C :   -0.333838
   3 O :   -0.063574
   4 H :    0.116490
   5 H :    0.111814
   6 H :    0.119357
   7 H :    0.134090
   8 H :    0.135144
   9 H :    0.112630
  10 H :    0.124337
  11 H :    0.162884

  Mayer bond orders larger than 0.100000
B(  0-C ,  1-C ) :   0.9720 B(  0-C ,  4-H ) :   0.9763 B(  0-C ,  5-H ) :   0.9814
B(  0-C ,  6-H ) :   0.9811 B(  1-C ,  2-C ) :   0.9855 B(  1-C ,  7-H ) :   0.9703
B(  1-C ,  8-H ) :   0.9615 B(  2-C ,  3-O ) :   0.9906 B(  2-C ,  9-H ) :   0.9794
B(  2-C , 10-H ) :   0.9734 B(  3-O , 11-H ) :   0.9084

FINAL SINGLE POINT ENERGY      -194.360582583737

DIPOLE MOMENT
-------------

Method             : SCF
Type of density    : Electron Density
Multiplicity       :   1
Irrep              :   0
Energy             :  -194.3689300942366458 Eh
Relativity type    :
Basis              : AO
                                X                 Y                 Z
Electronic contribution:      3.380148685       0.142899808       0.562359141
Nuclear contribution   :     -4.031791139      -0.404603187      -0.680590465
                        -----------------------------------------
Total Dipole Moment    :     -0.651642454      -0.261703379      -0.118231323
                        -----------------------------------------
Magnitude (a.u.)       :      0.712113188
Magnitude (Debye)      :      1.810047877

Rotational constants in cm-1:             0.472789             0.168183             0.141330
Rotational constants in MHz :         14173.854145          5041.994167          4236.973621

                             ****ORCA TERMINATED NORMALLY****
TOTAL RUN TIME: 0 days 0 hours 0 minutes 40 seconds 477 msec
