                         Program Version 6.0.0  -   RELEASE  -
|  1> ! wb97x-v def2-tzvp def2/J RIJCOSX DEFGRID2 scfconv7 GCP(DFT/TZ) printgap
|  2> %output
|  3>     printlevel normal
|  4> end
|  5> %cpcm
|  6>     smd true
|  7>     smdsolvent "water"
|  8> end
|  9> * xyz 0 1
| 10> C -1.612704764682691 -0.12476337225765444 0.475563056100896
| 11> C -0.6630223778447841 0.5073396222630651 -0.5390273015996634
| 12> C 0.6835939271564346 -0.19517616156700107 -0.6204638918259777
| 13> O 1.4432724408090136 -0.10335490409865673 0.6031284171264821
| 14> H -1.7891448658373388 -1.1808989959487814 0.2414171352307692
| 15> H -1.2147683584496642 -0.06618636867562913 1.4948871971178144
| 16> H -2.580917893644611 0.38537599301208475 0.4768074977840845
| 17> H -0.5004837176886383 1.5656603198319738 -0.2995899444525747
| 18> H -1.1132130467113057 0.472067578561123 -1.539348606002202
| 19> H 0.5438297433331613 -1.2516479682661108 -0.8935352949756963
| 20> H 1.3084039806559724 0.27184433429454863 -1.3880193138814787
| 21> H 0.966430870423491 -0.6005455595354979 1.279374830895422
| 22> *
| 23>
| 24>                          ****END OF INPUT****

CARTESIAN COORDINATES (ANGSTROEM)
---------------------------------
  C     -1.612705   -0.124763    0.475563
  C     -0.663022    0.507340   -0.539027
  C      0.683594   -0.195176   -0.620464
  O      1.443272   -0.103355    0.603128
  H     -1.789145   -1.180899    0.241417
  H     -1.214768   -0.066186    1.494887
  H     -2.580918    0.385376    0.476807
  H     -0.500484    1.565660   -0.299590
  H     -1.113213    0.472068   -1.539349
  H      0.543830   -1.251648   -0.893535
  H      1.308404    0.271844   -1.388019
  H      0.966431   -0.600546    1.279375

 Total Charge           Charge          ....    0
 Multiplicity           Mult            ....    1
 Number of Electrons    NEL             ....   34
 Basis Dimension        Dim             ....  172

ORBITAL ENERGIES
----------------

  NO   OCC          E(Eh)            E(eV)
   0   2.0000     -21.671062      -589.6996
   1   2.0000     -12.082726      -328.7877
   2   2.0000     -12.034223      -327.4679
   3   2.0000     -12.027026      -327.2720
   4   2.0000      -1.668844       -45.4116
   5   2.0000      -1.282819       -34.9073
   6   2.0000      -1.185678       -32.2639
   7   2.0000      -1.085988       -29.5512
   8   2.0000      -1.013110       -27.5681
   9   2.0000      -0.951321       -25.8868
  10   2.0000      -0.923519       -25.1302
  11   2.0000      -0.863720       -23.5030
  12   2.0000      -0.847535       -23.0626
  13   2.0000      -0.816893       -22.2288
  14   2.0000      -0.782312       -21.2878
  15   2.0000      -0.767437       -20.8830
  16   2.0000      -0.752230       -20.4692
  17   0.0000      -0.134914        -3.6712
  18   0.0000      -0.030006        -0.8165
  19   0.0000       0.000783         0.0213
  20   0.0000       0.014557         0.3961
  21   0.0000       0.015525         0.4225

MULLIKEN ATOMIC CHARGES
-----------------------
   0 C :   -0.399445
   1 C :   -0.173698
   2 C :   -0.033507
   3 O :   -0.567922
   4 H :    0.121557
   5 H :    0.120902
   6 H :    0.130721
   7 H :    0.102635
   8 H :    0.104904
   9 H :    0.111740
  10 H :    0.122736
  11 H :    0.359378
Sum of atomic charges:   -0.0000000

LOEWDIN ATOMIC CHARGES
----------------------
   0 C :   -0.317218
   1 C :   -0.305411
   2 C :   -0.333306
   3 O :   -0.107433
   4 H :    0.120049
   5 H :    0.117231
   6 H :    0.120223
   7 H :    0.133424
   8 H :    0.140761
   9 H :    0.120496
  10 H :    0.126777
  11 H :    0.184408

  Mayer bond orders larger than 0.100000
B(  0-C ,  1-C ) :   0.9763 B(  0-C ,  4-H ) :   0.9742 B(  0-C ,  5-H ) :   0.9755
B(  0-C ,  6-H ) :   0.9783 B(  1-C ,  2-C ) :   0.9903 B(  1-C ,  7-H ) :   0.9713
B(  1-C ,  8-H ) :   0.9603 B(  2-C ,  3-O ) :   0.9511 B(  2-C ,  9-H ) :   0.9810
B(  2-C , 10-H ) :   0.9715 B(  3-O , 11-H ) :   0.8716

FINAL SINGLE POINT ENERGY      -194.368376129067

DIPOLE MOMENT
-------------

Method             : SCF
Type of density    : Electron Density
Multiplicity       :   1
Irrep              :   0
Energy             :  -194.3767236395666487 Eh
Relativity type    :
Basis              : AO
                                X                 Y                 Z
Electronic contribution:      3.182814781       0.003362176       0.526143983
Nuclear contribution   :     -4.031791139      -0.404603187      -0.680590465
                        -----------------------------------------
Total Dipole Moment    :     -0.848976358      -0.401241010      -0.154446482
                        -----------------------------------------
Magnitude (a.u.)       :      0.951634867
Magnitude (Debye)      :      2.418863602

Rotational constants in cm-1:             0.472789             0.168183             0.141330
Rotational constants in MHz :         14173.854145          5041.994167          4236.973621

                             ****ORCA TERMINATED NORMALLY****
TOTAL RUN TIME: 0 days 0 hours 0 minutes 47 seconds 890 msec
