                         Program Version 6.0.0  -   RELEASE  -
|  1> ! pbe def2-sv(p) def2/J RI DEFGRID1 loosescf d4 GCP(DFT/SV(P)) printgap
|  2> %output
|  3>     printlevel normal
|  4> end
|  5> * xyz 0 1
|  6> C -2.0050867292 -0.8654467932 -0.629877913
|  7> C -1.4226574129 -0.0808067602 0.545796496
|  8> C -0.0196655628 0.3905128773 0.2591612754
|  9> O 0.3416615118 1.548784185 0.3136194688
| 10> O 0.7820209493 -0.6176406917 -0.0548267302
| 11> C 2.1528660125 -0.3504401462 -0.3631001759
| 12> H -2.0548815309 -0.2390670623 -1.5171582861
| 13> H -1.3872702092 -1.7318005956 -0.8476473639
| 14> H -3.0084046432 -1.1997776114 -0.3841857718
| 15> H -1.3822958437 -0.7227502898 1.427244757
| 16> H -2.030716728 0.7952768122 0.7704195976
| 17> H 2.3179004069 -0.5963925767 -1.410845471
| 18> H 2.7590505979 -0.9890681625 0.2757814622
| 19> H 2.3759323052 0.7013580575 -0.1810474968
| 20> *
| 21>
| 22>                          ****END OF INPUT****

CARTESIAN COORDINATES (ANGSTROEM)
---------------------------------
  C     -2.005087   -0.865447   -0.629878
  C     -1.422657   -0.080807    0.545796
  C     -0.019666    0.390513    0.259161
  O      0.341662    1.548784    0.313619
  O      0.782021   -0.617641   -0.054827
  C      2.152866   -0.350440   -0.363100
  H     -2.054882   -0.239067   -1.517158
  H     -1.387270   -1.731801   -0.847647
  H     -3.008405   -1.199778   -0.384186
  H     -1.382296   -0.722750    1.427245
  H     -2.030717    0.795277    0.770420
  H      2.317900   -0.596393   -1.410845
  H      2.759051   -0.989068    0.275781
  H      2.375932    0.701358   -0.181047

 Total Charge           Charge          ....    0
 Multiplicity           Mult            ....    1
 Number of Electrons    NEL             ....   48
 Basis Dimension        Dim             ....  100

ORBITAL ENERGIES
----------------

  NO   OCC          E(Eh)            E(eV)
   0   2.0000     -18.799935      -511.5722
   1   2.0000     -18.730035      -509.6702
   2   2.0000     -10.005270      -272.2572
   3   2.0000      -9.940525      -270.4954
   4   2.0000      -9.899333      -269.3745
   5   2.0000      -9.885901      -269.0090
   6   2.0000      -1.005220       -27.3534
   7   2.0000      -0.907517       -24.6948
   8   2.0000      -0.716795       -19.5050
   9   2.0000      -0.655745       -17.8437
  10   2.0000      -0.576287       -15.6816
  11   2.0000      -0.507625       -13.8132
  12   2.0000      -0.449727       -12.2377
  13   2.0000      -0.435365       -11.8469
  14   2.0000      -0.418160       -11.3787
  15   2.0000      -0.390442       -10.6245
  16   2.0000      -0.380070       -10.3422
  17   2.0000      -0.363323        -9.8865
  18   2.0000      -0.336013        -9.1434
  19   2.0000      -0.322120        -8.7653
  20   2.0000      -0.311339        -8.4720
  21   2.0000      -0.295525        -8.0416
  22   2.0000      -0.255211        -6.9447
  23   2.0000      -0.215695        -5.8694
  24   0.0000      -0.018524        -0.5041
  25   0.0000       0.044918         1.2223
  26   0.0000       0.061241         1.6664
  27   0.0000       0.087223         2.3735
  28   0.0000       0.092417         2.5148

MULLIKEN ATOMIC CHARGES
-----------------------
   0 C :   -0.301325
   1 C :   -0.147742
   2 C :    0.091039
   3 O :   -0.199655
   4 O :   -0.246609
   5 C :   -0.129504
   6 H :    0.110942
   7 H :    0.118540
   8 H :    0.111110
   9 H :    0.111887
  10 H :    0.104480
  11 H :    0.121150
  12 H :    0.121947
  13 H :    0.133740
Sum of atomic charges:   -0.0000000

LOEWDIN ATOMIC CHARGES
----------------------
   0 C :   -0.336655
   1 C :   -0.249486
   2 C :    0.033830
   3 O :   -0.169929
   4 O :   -0.075028
   5 C :   -0.208661
   6 H :    0.122879
   7 H :    0.123495
   8 H :    0.122943
   9 H :    0.138559
  10 H :    0.133646
  11 H :    0.119728
  12 H :    0.120280
  13 H :    0.124398

  Mayer bond orders larger than 0.100000
B(  0-C ,  1-C ) :   1.1353 B(  0-C ,  6-H ) :   0.9570 B(  0-C ,  7-H ) :   0.9507
B(  0-C ,  8-H ) :   0.9515 B(  1-C ,  2-C ) :   1.0266 B(  1-C ,  9-H ) :   0.9011
B(  1-C , 10-H ) :   0.9185 B(  2-C ,  3-O ) :   2.0862 B(  2-C ,  4-O ) :   1.1908
B(  4-O ,  5-C ) :   0.9376 B(  5-C , 11-H ) :   0.9604 B(  5-C , 12-H ) :   0.9613
B(  5-C , 13-H ) :   0.9285

Dispersion correction           -0.009155860
FINAL SINGLE POINT ENERGY      -307.025140763754

DIPOLE MOMENT
-------------

Method             : SCF
Type of density    : Electron Density
Multiplicity       :   1
Irrep              :   0
Energy             :  -307.0796310888097196 Eh
Relativity type    :
Basis              : AO
                                X                 Y                 Z
Electronic contribution:      2.347894295       2.960941355       1.608740504
Nuclear contribution   :     -2.244949578      -3.722182380      -1.748136794
                        -----------------------------------------
Total Dipole Moment    :      0.102944717      -0.761241025      -0.139396290
                        -----------------------------------------
Magnitude (a.u.)       :      0.780715594
Magnitude (Debye)      :      1.984421335

Rotational constants in cm-1:             0.205116             0.086416             0.066795
Rotational constants in MHz :          6149.225490          2590.699995          2002.465593

                             ****ORCA TERMINATED NORMALLY****
TOTAL RUN TIME: 0 days 0 hours 0 minutes 7 seconds 47 msec
