                         Program Version 6.0.0  -   RELEASE  -
|  1> ! r2scan-3c def2/J RI DEFGRID2 scfconv6 printgap
|  2> %output
|  3>     printlevel normal
|  4> end
|  5> * xyz 0 1
|  6> C -4.382783845 0.5121092437 0.1690273757
|  7> C -3.5626305601 1.4968544823 0.6895702583
|  8> C -2.1851486764 1.3531921963 0.6400833231
|  9> C -1.5991283624 0.2213388706 0.0728380408
| 10> C -2.4332054465 -0.7723794434 -0.433168787
| 11> C -3.8073815539 -0.6197346636 -0.3867770045
| 12> Cl -4.8226044666 -1.8690508342 -1.0353077277
| 13> C -0.1369295597 0.0423610833 0.0025766753
| 14> C 0.4402249226 -1.1221668135 0.4993371394
| 15> C 1.8118151051 -1.2958529287 0.4402653049
| 16> C 2.6293780839 -0.3180326035 -0.1207516879
| 17> C 2.0412267959 0.837635737 -0.6285177459
| 18> C 0.6709265274 1.0199978908 -0.5693906598
| 19> Cl 3.0373704292 2.0559750487 -1.339759807
| 20> Cl 4.3413593467 -0.5353983694 -0.1884523188
| 21> Cl 2.5227292737 -2.7375081949 1.0702723516
| 22> Cl -1.1935664092 2.5876654372 1.3540882218
| 23> H -5.4539377904 0.6209545843 0.2000540355
| 24> H -3.9911043884 2.3781434826 1.1372461155
| 25> H -1.9977561128 -1.6521864394 -0.877561035
| 26> H -0.1727209178 -1.8862747085 0.9481479523
| 27> H 0.2395565215 1.9165278118 -0.9828636037
| 28> *
| 29>
| 30>                          ****END OF INPUT****

CARTESIAN COORDINATES (ANGSTROEM)
---------------------------------
  C     -4.382784    0.512109    0.169027
  C     -3.562631    1.496854    0.689570
  C     -2.185149    1.353192    0.640083
  C     -1.599128    0.221339    0.072838
  C     -2.433205   -0.772379   -0.433169
  C     -3.807382   -0.619735   -0.386777
  Cl    -4.822604   -1.869051   -1.035308
  C     -0.136930    0.042361    0.002577
  C      0.440225   -1.122167    0.499337
  C      1.811815   -1.295853    0.440265
  C      2.629378   -0.318033   -0.120752
  C      2.041227    0.837636   -0.628518
  C      0.670927    1.019998   -0.569391
  Cl     3.037370    2.055975   -1.339760
  Cl     4.341359   -0.535398   -0.188452
  Cl     2.522729   -2.737508    1.070272
  Cl    -1.193566    2.587665    1.354088
  H     -5.453938    0.620955    0.200054
  H     -3.991104    2.378143    1.137246
  H     -1.997756   -1.652186   -0.877561
  H     -0.172721   -1.886275    0.948148
  H      0.239557    1.916528   -0.982864

 Total Charge           Charge          ....    0
 Multiplicity           Mult            ....    1
 Number of Electrons    NEL             ....  162
 Basis Dimension        Dim             ....  388

ORBITAL ENERGIES
----------------

  NO   OCC          E(Eh)            E(eV)
   0   2.0000    -101.238155     -2754.8303
   1   2.0000    -101.238067     -2754.8279
   2   2.0000    -101.237238     -2754.8053
   3   2.0000    -101.236586     -2754.7876
   4   2.0000    -101.235407     -2754.7555
   5   2.0000     -10.130406      -275.6624
   6   2.0000     -10.129491      -275.6375
   7   2.0000     -10.129000      -275.6241
   8   2.0000     -10.123517      -275.4749
   9   2.0000     -10.121978      -275.4330
  10   2.0000     -10.088101      -274.5112
  11   2.0000     -10.084952      -274.4255
  12   2.0000     -10.073600      -274.1166
  13   2.0000     -10.073354      -274.1099
  14   2.0000     -10.072403      -274.0840
  15   2.0000     -10.072370      -274.0831
  16   2.0000     -10.071236      -274.0523
  17   2.0000      -9.393823      -255.6189
  18   2.0000      -9.393693      -255.6154
  19   2.0000      -9.392981      -255.5960
  20   2.0000      -9.392509      -255.5832
  21   2.0000      -9.391228      -255.5483
  22   2.0000      -7.140397      -194.3001
  23   2.0000      -7.140334      -194.2984
  24   2.0000      -7.139495      -194.2755
  25   2.0000      -7.138819      -194.2571
  26   2.0000      -7.137505      -194.2214
  27   2.0000      -7.130104      -194.0200
  28   2.0000      -7.130024      -194.0178
  29   2.0000      -7.129321      -193.9987
  30   2.0000      -7.129265      -193.9972
  31   2.0000      -7.128968      -193.9891
  32   2.0000      -7.128821      -193.9851
  33   2.0000      -7.128475      -193.9757
  34   2.0000      -7.128142      -193.9666
  35   2.0000      -7.127483      -193.9487
  36   2.0000      -7.126994      -193.9354
  37   2.0000      -0.914928       -24.8964
  38   2.0000      -0.896788       -24.4028
  39   2.0000      -0.862228       -23.4624
  40   2.0000      -0.861211       -23.4348
  41   2.0000      -0.837904       -22.8005
  42   2.0000      -0.819250       -22.2929
  43   2.0000      -0.804059       -21.8795
  44   2.0000      -0.767502       -20.8848
  45   2.0000      -0.725222       -19.7343
  46   2.0000      -0.720740       -19.6123
  47   2.0000      -0.702387       -19.1129
  48   2.0000      -0.632979       -17.2242
  49   2.0000      -0.610056       -16.6005
  50   2.0000      -0.596993       -16.2450
  51   2.0000      -0.570848       -15.5336
  52   2.0000      -0.517764       -14.0891
  53   2.0000      -0.500469       -13.6184
  54   2.0000      -0.497071       -13.5260
  55   2.0000      -0.476266       -12.9599
  56   2.0000      -0.466863       -12.7040
  57   2.0000      -0.449338       -12.2271
  58   2.0000      -0.434042       -11.8109
  59   2.0000      -0.432243       -11.7619
  60   2.0000      -0.429604       -11.6901
  61   2.0000      -0.421096       -11.4586
  62   2.0000      -0.405050       -11.0220
  63   2.0000      -0.394820       -10.7436
  64   2.0000      -0.377906       -10.2833
  65   2.0000      -0.369477       -10.0540
  66   2.0000      -0.365417        -9.9435
  67   2.0000      -0.359114        -9.7720
  68   2.0000      -0.357222        -9.7205
  69   2.0000      -0.335372        -9.1259
  70   2.0000      -0.317221        -8.6320
  71   2.0000      -0.316330        -8.6078
  72   2.0000      -0.307817        -8.3761
  73   2.0000      -0.305455        -8.3119
  74   2.0000      -0.300985        -8.1902
  75   2.0000      -0.299501        -8.1498
  76   2.0000      -0.282615        -7.6903
  77   2.0000      -0.274842        -7.4788
  78   2.0000      -0.246670        -6.7122
  79   2.0000      -0.245383        -6.6772
  80   2.0000      -0.233783        -6.3616
  81   0.0000      -0.087137        -2.3711
  82   0.0000      -0.069764        -1.8984
  83   0.0000      -0.065483        -1.7819
  84   0.0000      -0.046730        -1.2716
  85   0.0000      -0.046575        -1.2674

MULLIKEN ATOMIC CHARGES
-----------------------
   0 C :   -0.188599
   1 C :   -0.184207
   2 C :    0.064203
   3 C :    0.124229
   4 C :   -0.274221
   5 C :    0.188966
   6 Cl:   -0.134594
   7 C :    0.192015
   8 C :   -0.271738
   9 C :    0.110512
  10 C :    0.047723
  11 C :    0.103900
  12 C :   -0.247741
  13 Cl:   -0.097638
  14 Cl:   -0.076371
  15 Cl:   -0.098459
  16 Cl:   -0.110533
  17 H :    0.166338
  18 H :    0.165857
  19 H :    0.171485
  20 H :    0.172148
  21 H :    0.176722
Sum of atomic charges:    0.0000000

LOEWDIN ATOMIC CHARGES
----------------------
   0 C :   -0.158906
   1 C :   -0.153340
   2 C :   -0.148370
   3 C :   -0.071873
   4 C :   -0.142529
   5 C :   -0.162868
   6 Cl:    0.137262
   7 C :   -0.066795
   8 C :   -0.147838
   9 C :   -0.171660
  10 C :   -0.194626
  11 C :   -0.171240
  12 C :   -0.149343
  13 Cl:    0.164720
  14 Cl:    0.175534
  15 Cl:    0.164038
  16 Cl:    0.162553
  17 H :    0.182750
  18 H :    0.183091
  19 H :    0.189286
  20 H :    0.189570
  21 H :    0.190581

  Mayer bond orders larger than 0.100000
B(  0-C ,  1-C ) :   1.3714 B(  0-C ,  5-C ) :   1.3786 B(  0-C , 17-H ) :   0.9416
B(  1-C ,  2-C ) :   1.3501 B(  1-C , 18-H ) :   0.9446 B(  2-C ,  3-C ) :   1.3434
B(  2-C ,  7-C ) :  -0.1039 B(  2-C , 16-Cl) :   1.0622 B(  3-C ,  4-C ) :   1.3760
B(  3-C ,  7-C ) :   0.7578 B(  4-C ,  5-C ) :   1.3955 B(  4-C , 19-H ) :   0.9307
B(  5-C ,  6-Cl) :   0.9286 B(  7-C ,  8-C ) :   1.3635 B(  7-C , 12-C ) :   1.3505
B(  8-C ,  9-C ) :   1.3404 B(  8-C , 20-H ) :   0.9299 B(  9-C , 10-C ) :   1.2232
B(  9-C , 15-Cl) :   1.0664 B( 10-C , 11-C ) :   1.2129 B( 10-C , 14-Cl) :   1.1985
B( 11-C , 12-C ) :   1.3597 B( 11-C , 13-Cl) :   1.0681 B( 12-C , 21-H ) :   0.9184

Dispersion correction           -0.013315006
FINAL SINGLE POINT ENERGY     -2761.070106498783

DIPOLE MOMENT
-------------

Method             : SCF
Type of density    : Electron Density
Multiplicity       :   1
Irrep              :   0
Energy             : -2761.0676742606965490 Eh
Relativity type    :
Basis              : AO
                                X                 Y                 Z
Electronic contribution:     14.951902876      -1.753122644      -0.524168073
Nuclear contribution   :    -15.887529668       1.960868995       0.585527876
                        -----------------------------------------
Total Dipole Moment    :     -0.935626792       0.207746351       0.061359803
                        -----------------------------------------
Magnitude (a.u.)       :      0.960375482
Magnitude (Debye)      :      2.441080478

Rotational constants in cm-1:             0.014449             0.005132             0.004248
Rotational constants in MHz :           433.171701           153.855218           127.364085

                             ****ORCA TERMINATED NORMALLY****
TOTAL RUN TIME: 0 days 0 hours 1 minutes 4 seconds 814 msec
