                         Program Version 6.0.0  -   RELEASE  -
|  1> ! r2scan-3c def2/J RI DEFGRID2 scfconv6 printgap
|  2> %output
|  3>     printlevel normal
|  4> end
|  5> %cpcm
|  6>     smd true
|  7>     smdsolvent "water"
|  8> end
|  9> * xyz 0 1
| 10> C -4.382783845 0.5121092437 0.1690273757
| 11> C -3.5626305601 1.4968544823 0.6895702583
| 12> C -2.1851486764 1.3531921963 0.6400833231
| 13> C -1.5991283624 0.2213388706 0.0728380408
| 14> C -2.4332054465 -0.7723794434 -0.433168787
| 15> C -3.8073815539 -0.6197346636 -0.3867770045
| 16> Cl -4.8226044666 -1.8690508342 -1.0353077277
| 17> C -0.1369295597 0.0423610833 0.0025766753
| 18> C 0.4402249226 -1.1221668135 0.4993371394
| 19> C 1.8118151051 -1.2958529287 0.4402653049
| 20> C 2.6293780839 -0.3180326035 -0.1207516879
| 21> C 2.0412267959 0.837635737 -0.6285177459
| 22> C 0.6709265274 1.0199978908 -0.5693906598
| 23> Cl 3.0373704292 2.0559750487 -1.339759807
| 24> Cl 4.3413593467 -0.5353983694 -0.1884523188
| 25> Cl 2.5227292737 -2.7375081949 1.0702723516
| 26> Cl -1.1935664092 2.5876654372 1.3540882218
| 27> H -5.4539377904 0.6209545843 0.2000540355
| 28> H -3.9911043884 2.3781434826 1.1372461155
| 29> H -1.9977561128 -1.6521864394 -0.877561035
| 30> H -0.1727209178 -1.8862747085 0.9481479523
| 31> H 0.2395565215 1.9165278118 -0.9828636037
| 32> *
| 33>
| 34>                          ****END OF INPUT****

CARTESIAN COORDINATES (ANGSTROEM)
---------------------------------
  C     -4.382784    0.512109    0.169027
  C     -3.562631    1.496854    0.689570
  C     -2.185149    1.353192    0.640083
  C     -1.599128    0.221339    0.072838
  C     -2.433205   -0.772379   -0.433169
  C     -3.807382   -0.619735   -0.386777
  Cl    -4.822604   -1.869051   -1.035308
  C     -0.136930    0.042361    0.002577
  C      0.440225   -1.122167    0.499337
  C      1.811815   -1.295853    0.440265
  C      2.629378   -0.318033   -0.120752
  C      2.041227    0.837636   -0.628518
  C      0.670927    1.019998   -0.569391
  Cl     3.037370    2.055975   -1.339760
  Cl     4.341359   -0.535398   -0.188452
  Cl     2.522729   -2.737508    1.070272
  Cl    -1.193566    2.587665    1.354088
  H     -5.453938    0.620955    0.200054
  H     -3.991104    2.378143    1.137246
  H     -1.997756   -1.652186   -0.877561
  H     -0.172721   -1.886275    0.948148
  H      0.239557    1.916528   -0.982864

 Total Charge           Charge          ....    0
 Multiplicity           Mult            ....    1
 Number of Electrons    NEL             ....  162
 Basis Dimension        Dim             ....  388

ORBITAL ENERGIES
----------------

  NO   OCC          E(Eh)            E(eV)
   0   2.0000    -101.239133     -2754.8569
   1   2.0000    -101.236450     -2754.7839
   2   2.0000    -101.236399     -2754.7825
   3   2.0000    -101.229519     -2754.5952
   4   2.0000    -101.228702     -2754.5730
   5   2.0000     -10.126415      -275.5538
   6   2.0000     -10.123857      -275.4841
   7   2.0000     -10.123801      -275.4826
   8   2.0000     -10.112182      -275.1665
   9   2.0000     -10.109971      -275.1063
  10   2.0000     -10.076214      -274.1877
  11   2.0000     -10.075960      -274.1808
  12   2.0000     -10.062579      -273.8167
  13   2.0000     -10.062381      -273.8113
  14   2.0000     -10.059254      -273.7262
  15   2.0000     -10.058227      -273.6983
  16   2.0000     -10.057293      -273.6729
  17   2.0000      -9.394831      -255.6463
  18   2.0000      -9.392339      -255.5785
  19   2.0000      -9.392281      -255.5770
  20   2.0000      -9.385591      -255.3949
  21   2.0000      -9.384694      -255.3705
  22   2.0000      -7.141393      -194.3272
  23   2.0000      -7.138741      -194.2550
  24   2.0000      -7.138681      -194.2534
  25   2.0000      -7.131777      -194.0655
  26   2.0000      -7.131181      -194.0493
  27   2.0000      -7.130829      -194.0397
  28   2.0000      -7.130197      -194.0225
  29   2.0000      -7.128656      -193.9806
  30   2.0000      -7.128595      -193.9789
  31   2.0000      -7.127883      -193.9596
  32   2.0000      -7.127831      -193.9581
  33   2.0000      -7.121951      -193.7981
  34   2.0000      -7.121272      -193.7797
  35   2.0000      -7.121024      -193.7729
  36   2.0000      -7.120495      -193.7585
  37   2.0000      -0.910853       -24.7856
  38   2.0000      -0.886378       -24.1196
  39   2.0000      -0.859210       -23.3803
  40   2.0000      -0.853619       -23.2282
  41   2.0000      -0.834406       -22.7053
  42   2.0000      -0.815201       -22.1827
  43   2.0000      -0.795482       -21.6462
  44   2.0000      -0.756941       -20.5974
  45   2.0000      -0.718185       -19.5428
  46   2.0000      -0.712019       -19.3750
  47   2.0000      -0.692839       -18.8531
  48   2.0000      -0.621983       -16.9250
  49   2.0000      -0.601355       -16.3637
  50   2.0000      -0.586776       -15.9670
  51   2.0000      -0.561012       -15.2659
  52   2.0000      -0.508691       -13.8422
  53   2.0000      -0.492312       -13.3965
  54   2.0000      -0.486909       -13.2495
  55   2.0000      -0.465140       -12.6571
  56   2.0000      -0.458098       -12.4655
  57   2.0000      -0.440600       -11.9893
  58   2.0000      -0.428452       -11.6588
  59   2.0000      -0.423524       -11.5247
  60   2.0000      -0.417644       -11.3647
  61   2.0000      -0.414634       -11.2828
  62   2.0000      -0.394477       -10.7343
  63   2.0000      -0.384924       -10.4743
  64   2.0000      -0.368198       -10.0192
  65   2.0000      -0.359143        -9.7728
  66   2.0000      -0.356364        -9.6971
  67   2.0000      -0.351519        -9.5653
  68   2.0000      -0.351140        -9.5550
  69   2.0000      -0.332454        -9.0465
  70   2.0000      -0.316951        -8.6247
  71   2.0000      -0.313850        -8.5403
  72   2.0000      -0.306385        -8.3372
  73   2.0000      -0.298735        -8.1290
  74   2.0000      -0.294478        -8.0132
  75   2.0000      -0.292841        -7.9686
  76   2.0000      -0.282869        -7.6973
  77   2.0000      -0.264454        -7.1962
  78   2.0000      -0.241492        -6.5713
  79   2.0000      -0.238553        -6.4914
  80   2.0000      -0.226002        -6.1498
  81   0.0000      -0.078007        -2.1227
  82   0.0000      -0.061344        -1.6692
  83   0.0000      -0.054528        -1.4838
  84   0.0000      -0.043716        -1.1896
  85   0.0000      -0.037559        -1.0220

MULLIKEN ATOMIC CHARGES
-----------------------
   0 C :   -0.204591
   1 C :   -0.212002
   2 C :    0.069555
   3 C :    0.124145
   4 C :   -0.258026
   5 C :    0.171822
   6 Cl:   -0.154704
   7 C :    0.142572
   8 C :   -0.239406
   9 C :    0.092766
  10 C :    0.061030
  11 C :    0.090773
  12 C :   -0.242016
  13 Cl:   -0.115260
  14 Cl:   -0.098747
  15 Cl:   -0.115192
  16 Cl:   -0.131555
  17 H :    0.201365
  18 H :    0.200634
  19 H :    0.203576
  20 H :    0.206831
  21 H :    0.206431
Sum of atomic charges:    0.0000000

LOEWDIN ATOMIC CHARGES
----------------------
   0 C :   -0.155682
   1 C :   -0.151606
   2 C :   -0.150529
   3 C :   -0.070753
   4 C :   -0.135949
   5 C :   -0.170734
   6 Cl:    0.121535
   7 C :   -0.063443
   8 C :   -0.134527
   9 C :   -0.175190
  10 C :   -0.197820
  11 C :   -0.175909
  12 C :   -0.144905
  13 Cl:    0.151435
  14 Cl:    0.159288
  15 Cl:    0.151661
  16 Cl:    0.149088
  17 H :    0.194618
  18 H :    0.195110
  19 H :    0.200745
  20 H :    0.202993
  21 H :    0.200574

  Mayer bond orders larger than 0.100000
B(  0-C ,  1-C ) :   1.3929 B(  0-C ,  5-C ) :   1.3487 B(  0-C , 17-H ) :   0.9385
B(  1-C ,  2-C ) :   1.3265 B(  1-C , 18-H ) :   0.9424 B(  2-C ,  3-C ) :   1.3199
B(  2-C ,  7-C ) :  -0.1006 B(  2-C , 16-Cl) :   1.0355 B(  3-C ,  4-C ) :   1.4104
B(  3-C ,  7-C ) :   0.7527 B(  4-C ,  5-C ) :   1.3813 B(  4-C , 19-H ) :   0.9151
B(  5-C ,  6-Cl) :   0.9221 B(  7-C ,  8-C ) :   1.3883 B(  7-C , 12-C ) :   1.3511
B(  8-C ,  9-C ) :   1.3379 B(  8-C , 20-H ) :   0.9158 B(  9-C , 10-C ) :   1.2132
B(  9-C , 15-Cl) :   1.0649 B( 10-C , 11-C ) :   1.2059 B( 10-C , 14-Cl) :   1.1725
B( 11-C , 12-C ) :   1.3526 B( 11-C , 13-Cl) :   1.0634 B( 12-C , 21-H ) :   0.9122

Dispersion correction           -0.013315006
FINAL SINGLE POINT ENERGY     -2761.072601172660

DIPOLE MOMENT
-------------

Method             : SCF
Type of density    : Electron Density
Multiplicity       :   1
Irrep              :   0
Energy             : -2761.0701689345733030 Eh
Relativity type    :
Basis              : AO
                                X                 Y                 Z
Electronic contribution:     14.438619413      -1.735474175      -0.523077393
Nuclear contribution   :    -15.887529668       1.960868995       0.585527876
                        -----------------------------------------
Total Dipole Moment    :     -1.448910256       0.225394820       0.062450483
                        -----------------------------------------
Magnitude (a.u.)       :      1.467666112
Magnitude (Debye)      :      3.730510789

Rotational constants in cm-1:             0.014449             0.005132             0.004248
Rotational constants in MHz :           433.171701           153.855218           127.364085

                             ****ORCA TERMINATED NORMALLY****
TOTAL RUN TIME: 0 days 0 hours 1 minutes 23 seconds 739 msec
