                         Program Version 6.0.0  -   RELEASE  -
|  1> ! pbe def2-sv(p) def2/J RI DEFGRID1 loosescf d4 GCP(DFT/SV(P)) printgap
|  2> %output
|  3>     printlevel normal
|  4> end
|  5> * xyz 0 1
|  6> C -2.5528581569 -0.6717440951 -0.370500795
|  7> C -1.1729161721 -0.313908004 0.1754101143
|  8> H -1.2356997346 -0.2689241135 1.2737850049
|  9> C -0.6915612035 1.0462696161 -0.3486811081
| 10> H -0.6540617076 1.0096218349 -1.4490179175
| 11> C 0.7271372786 1.3185505329 0.1676998024
| 12> H 0.6941783821 1.4210817032 1.2644643161
| 13> C 1.6497660659 0.1463374605 -0.1759664793
| 14> H 1.7528570598 0.0740107642 -1.2692020081
| 15> C 1.0190085487 -1.1646694531 0.3220542152
| 16> H 0.9601550166 -1.1311457942 1.4318558276
| 17> O -0.2718607725 -1.3335639214 -0.2083011838
| 18> O 1.8109530281 -2.2130030996 -0.1044141311
| 19> O 2.8941487423 0.3849858682 0.4293055512
| 20> O 1.1697468579 2.5191557355 -0.4149974418
| 21> O -1.5875162203 2.0364772979 0.0778039173
| 22> O -3.0994174922 -1.6981887521 0.4237737808
| 23> H -2.4339234942 -0.9989368926 -1.4097195276
| 24> H -3.1716302615 0.2316831439 -0.3275226914
| 25> H 1.3185462832 -3.0446658712 -0.0223794509
| 26> H 3.4734054849 -0.3746440976 0.2688889971
| 27> H 2.0965856798 2.657497836 -0.1696497402
| 28> H -1.2068271285 2.9016373217 -0.141774876
| 29> H -3.9628655945 -1.949380161 0.0658339816
| 30> *
| 31>
| 32>                          ****END OF INPUT****

CARTESIAN COORDINATES (ANGSTROEM)
---------------------------------
  C     -2.552858   -0.671744   -0.370501
  C     -1.172916   -0.313908    0.175410
  H     -1.235700   -0.268924    1.273785
  C     -0.691561    1.046270   -0.348681
  H     -0.654062    1.009622   -1.449018
  C      0.727137    1.318551    0.167700
  H      0.694178    1.421082    1.264464
  C      1.649766    0.146337   -0.175966
  H      1.752857    0.074011   -1.269202
  C      1.019009   -1.164669    0.322054
  H      0.960155   -1.131146    1.431856
  O     -0.271861   -1.333564   -0.208301
  O      1.810953   -2.213003   -0.104414
  O      2.894149    0.384986    0.429306
  O      1.169747    2.519156   -0.414997
  O     -1.587516    2.036477    0.077804
  O     -3.099417   -1.698189    0.423774
  H     -2.433923   -0.998937   -1.409720
  H     -3.171630    0.231683   -0.327523
  H      1.318546   -3.044666   -0.022379
  H      3.473405   -0.374644    0.268889
  H      2.096586    2.657498   -0.169650
  H     -1.206827    2.901637   -0.141775
  H     -3.962866   -1.949380    0.065834

 Total Charge           Charge          ....    0
 Multiplicity           Mult            ....    1
 Number of Electrons    NEL             ....   96
 Basis Dimension        Dim             ....  192

ORBITAL ENERGIES
----------------

  NO   OCC          E(Eh)            E(eV)
   0   2.0000     -18.769153      -510.7346
   1   2.0000     -18.765940      -510.6472
   2   2.0000     -18.758635      -510.4484
   3   2.0000     -18.754978      -510.3489
   4   2.0000     -18.750577      -510.2291
   5   2.0000     -18.743240      -510.0295
   6   2.0000      -9.985230      -271.7119
   7   2.0000      -9.942587      -270.5515
   8   2.0000      -9.941240      -270.5149
   9   2.0000      -9.941210      -270.5141
  10   2.0000      -9.938917      -270.4517
  11   2.0000      -9.927079      -270.1296
  12   2.0000      -0.985773       -26.8242
  13   2.0000      -0.946278       -25.7495
  14   2.0000      -0.935785       -25.4640
  15   2.0000      -0.921746       -25.0820
  16   2.0000      -0.916212       -24.9314
  17   2.0000      -0.911878       -24.8135
  18   2.0000      -0.704341       -19.1661
  19   2.0000      -0.692383       -18.8407
  20   2.0000      -0.615417       -16.7463
  21   2.0000      -0.580051       -15.7840
  22   2.0000      -0.551820       -15.0158
  23   2.0000      -0.526287       -14.3210
  24   2.0000      -0.513650       -13.9771
  25   2.0000      -0.480538       -13.0761
  26   2.0000      -0.471611       -12.8332
  27   2.0000      -0.460621       -12.5341
  28   2.0000      -0.452088       -12.3020
  29   2.0000      -0.437037       -11.8924
  30   2.0000      -0.410342       -11.1660
  31   2.0000      -0.397776       -10.8240
  32   2.0000      -0.384082       -10.4514
  33   2.0000      -0.375448       -10.2165
  34   2.0000      -0.357811        -9.7365
  35   2.0000      -0.353994        -9.6327
  36   2.0000      -0.323007        -8.7895
  37   2.0000      -0.317389        -8.6366
  38   2.0000      -0.306815        -8.3489
  39   2.0000      -0.293544        -7.9877
  40   2.0000      -0.283427        -7.7124
  41   2.0000      -0.268252        -7.2995
  42   2.0000      -0.249405        -6.7866
  43   2.0000      -0.241583        -6.5738
  44   2.0000      -0.228823        -6.2266
  45   2.0000      -0.221868        -6.0373
  46   2.0000      -0.211028        -5.7424
  47   2.0000      -0.204909        -5.5759
  48   0.0000       0.019403         0.5280
  49   0.0000       0.029346         0.7985
  50   0.0000       0.034032         0.9261
  51   0.0000       0.047909         1.3037
  52   0.0000       0.058836         1.6010

MULLIKEN ATOMIC CHARGES
-----------------------
   0 C :    0.074653
   1 C :    0.016679
   2 H :    0.063141
   3 C :    0.055635
   4 H :    0.055619
   5 C :    0.065636
   6 H :    0.055611
   7 C :    0.034264
   8 H :    0.058470
   9 C :    0.182192
  10 H :    0.037424
  11 O :   -0.306080
  12 O :   -0.392652
  13 O :   -0.427204
  14 O :   -0.427429
  15 O :   -0.416995
  16 O :   -0.434138
  17 H :    0.065729
  18 H :    0.089302
  19 H :    0.313443
  20 H :    0.312682
  21 H :    0.313066
  22 H :    0.311413
  23 H :    0.299541
Sum of atomic charges:    0.0000000

LOEWDIN ATOMIC CHARGES
----------------------
   0 C :   -0.125696
   1 C :   -0.053551
   2 H :    0.111609
   3 C :   -0.065326
   4 H :    0.104372
   5 C :   -0.074838
   6 H :    0.105109
   7 C :   -0.091612
   8 H :    0.107561
   9 C :   -0.003812
  10 H :    0.080759
  11 O :   -0.145960
  12 O :   -0.304708
  13 O :   -0.323308
  14 O :   -0.325027
  15 O :   -0.316350
  16 O :   -0.344261
  17 H :    0.101007
  18 H :    0.108239
  19 H :    0.294731
  20 H :    0.292331
  21 H :    0.292055
  22 H :    0.290481
  23 H :    0.286194

  Mayer bond orders larger than 0.100000
B(  0-C ,  1-C ) :   1.0749 B(  0-C , 16-O ) :   1.1082 B(  0-C , 17-H ) :   0.8992
B(  0-C , 18-H ) :   0.9114 B(  1-C ,  2-H ) :   0.8691 B(  1-C ,  3-C ) :   1.0063
B(  1-C , 11-O ) :   0.9928 B(  3-C ,  4-H ) :   0.8699 B(  3-C ,  5-C ) :   1.0253
B(  3-C , 15-O ) :   1.0635 B(  5-C ,  6-H ) :   0.8735 B(  5-C ,  7-C ) :   1.0099
B(  5-C , 14-O ) :   1.0823 B(  7-C ,  8-H ) :   0.8644 B(  7-C ,  9-C ) :   0.9938
B(  7-C , 13-O ) :   1.0643 B(  9-C , 10-H ) :   0.8827 B(  9-C , 11-O ) :   1.0209
B(  9-C , 12-O ) :   1.1613 B( 12-O , 19-H ) :   0.8360 B( 13-O , 20-H ) :   0.8377
B( 14-O , 21-H ) :   0.8359 B( 15-O , 22-H ) :   0.8343 B( 16-O , 23-H ) :   0.8521

Dispersion correction           -0.023509143
FINAL SINGLE POINT ENERGY      -685.701706370096

DIPOLE MOMENT
-------------

Method             : SCF
Type of density    : Electron Density
Multiplicity       :   1
Irrep              :   0
Energy             :  -685.8312558517978914 Eh
Relativity type    :
Basis              : AO
                                X                 Y                 Z
Electronic contribution:      2.283360829      -0.741880369       0.173372752
Nuclear contribution   :     -2.209216835       0.490694023      -0.451475467
                        -----------------------------------------
Total Dipole Moment    :      0.074143994      -0.251186345      -0.278102715
                        -----------------------------------------
Magnitude (a.u.)       :      0.382011822
Magnitude (Debye)      :      0.970996886

Rotational constants in cm-1:             0.039799             0.025681             0.016369
Rotational constants in MHz :          1193.147617           769.900243           490.726610

                             ****ORCA TERMINATED NORMALLY****
TOTAL RUN TIME: 0 days 0 hours 0 minutes 12 seconds 337 msec
