                         Program Version 6.0.0  -   RELEASE  -
|  1> ! pbe def2-sv(p) def2/J RI DEFGRID1 loosescf d4 GCP(DFT/SV(P)) printgap
|  2> %output
|  3>     printlevel normal
|  4> end
|  5> * xyz 0 1
|  6> C -3.5248318458 -0.0993173895 -0.2752353786
|  7> C -2.022055915 0.0352837467 -0.5123617184
|  8> H -1.8705309003 0.50288401 -1.490745045
|  9> C -1.3230422795 -1.3374707352 -0.4997358059
| 10> C -0.3375388565 -1.490676127 0.6571238955
| 11> C 0.7121981526 -0.3711164058 0.7205242195
| 12> H 1.0516315361 -0.308806475 1.763921781
| 13> C 0.0798626645 0.9759526197 0.4629770941
| 14> O 0.7141618267 1.9896230084 0.2353855876
| 15> C -1.4193260341 0.9769258016 0.5443158241
| 16> C 1.9913703527 -0.6362903565 -0.1122875844
| 17> C 1.842967125 -0.2857980957 -1.5914980021
| 18> C 3.1781930025 0.1271627967 0.4772814415
| 19> H -3.7168933425 -0.5789993626 0.6816645725
| 20> H -4.000702549 0.8783950003 -0.2727498516
| 21> H -3.9778723079 -0.6981956524 -1.0613065115
| 22> H -2.0718459548 -2.1266875045 -0.4185324061
| 23> H -0.7999444525 -1.4906957303 -1.4426397829
| 24> H -0.8982564374 -1.5061125379 1.5932984255
| 25> H 0.1701201371 -2.4523127089 0.5710336801
| 26> H -1.713153692 0.6372815633 1.5385892475
| 27> H -1.7877529413 1.9933649833 0.3977595401
| 28> H 2.2063118125 -1.7083605874 -0.0350361618
| 29> H 1.0626467424 -0.8729088236 -2.0657780992
| 30> H 2.7777167228 -0.4861660042 -2.1099987384
| 31> H 1.6092295405 0.7694797127 -1.7114805635
| 32> H 3.357679853 -0.1689377402 1.5087016434
| 33> H 2.984460438 1.1966325278 0.4509315611
| 34> H 4.078637207 -0.0740364681 -0.0981076804
| 35> *
| 36>
| 37>                          ****END OF INPUT****

CARTESIAN COORDINATES (ANGSTROEM)
---------------------------------
  C     -3.524832   -0.099317   -0.275235
  C     -2.022056    0.035284   -0.512362
  H     -1.870531    0.502884   -1.490745
  C     -1.323042   -1.337471   -0.499736
  C     -0.337539   -1.490676    0.657124
  C      0.712198   -0.371116    0.720524
  H      1.051632   -0.308806    1.763922
  C      0.079863    0.975953    0.462977
  O      0.714162    1.989623    0.235386
  C     -1.419326    0.976926    0.544316
  C      1.991370   -0.636290   -0.112288
  C      1.842967   -0.285798   -1.591498
  C      3.178193    0.127163    0.477281
  H     -3.716893   -0.578999    0.681665
  H     -4.000703    0.878395   -0.272750
  H     -3.977872   -0.698196   -1.061307
  H     -2.071846   -2.126688   -0.418532
  H     -0.799944   -1.490696   -1.442640
  H     -0.898256   -1.506113    1.593298
  H      0.170120   -2.452313    0.571034
  H     -1.713154    0.637282    1.538589
  H     -1.787753    1.993365    0.397760
  H      2.206312   -1.708361   -0.035036
  H      1.062647   -0.872909   -2.065778
  H      2.777717   -0.486166   -2.109999
  H      1.609230    0.769480   -1.711481
  H      3.357680   -0.168938    1.508702
  H      2.984460    1.196633    0.450932
  H      4.078637   -0.074036   -0.098108

 Total Charge           Charge          ....    0
 Multiplicity           Mult            ....    1
 Number of Electrons    NEL             ....   86
 Basis Dimension        Dim             ....  190

ORBITAL ENERGIES
----------------

  NO   OCC          E(Eh)            E(eV)
   0   2.0000     -18.732833      -509.7463
   1   2.0000      -9.969458      -271.2827
   2   2.0000      -9.907980      -269.6098
   3   2.0000      -9.899695      -269.3844
   4   2.0000      -9.898293      -269.3462
   5   2.0000      -9.893405      -269.2132
   6   2.0000      -9.889835      -269.1161
   7   2.0000      -9.889053      -269.0948
   8   2.0000      -9.880802      -268.8703
   9   2.0000      -9.868281      -268.5296
  10   2.0000      -9.861997      -268.3586
  11   2.0000      -0.931894       -25.3581
  12   2.0000      -0.767794       -20.8927
  13   2.0000      -0.727420       -19.7941
  14   2.0000      -0.677683       -18.4407
  15   2.0000      -0.656508       -17.8645
  16   2.0000      -0.616322       -16.7710
  17   2.0000      -0.602910       -16.4060
  18   2.0000      -0.556394       -15.1403
  19   2.0000      -0.523554       -14.2466
  20   2.0000      -0.501536       -13.6475
  21   2.0000      -0.455992       -12.4082
  22   2.0000      -0.443283       -12.0623
  23   2.0000      -0.431054       -11.7296
  24   2.0000      -0.414027       -11.2663
  25   2.0000      -0.388865       -10.5816
  26   2.0000      -0.387453       -10.5431
  27   2.0000      -0.375842       -10.2272
  28   2.0000      -0.364742        -9.9251
  29   2.0000      -0.356476        -9.7002
  30   2.0000      -0.349234        -9.5031
  31   2.0000      -0.343337        -9.3427
  32   2.0000      -0.337115        -9.1734
  33   2.0000      -0.336017        -9.1435
  34   2.0000      -0.319433        -8.6922
  35   2.0000      -0.313948        -8.5430
  36   2.0000      -0.300813        -8.1855
  37   2.0000      -0.289055        -7.8656
  38   2.0000      -0.287292        -7.8176
  39   2.0000      -0.283133        -7.7044
  40   2.0000      -0.272466        -7.4142
  41   2.0000      -0.264168        -7.1884
  42   2.0000      -0.187052        -5.0899
  43   0.0000      -0.052245        -1.4217
  44   0.0000       0.023407         0.6369
  45   0.0000       0.040706         1.1077
  46   0.0000       0.048448         1.3183
  47   0.0000       0.069697         1.8965

MULLIKEN ATOMIC CHARGES
-----------------------
   0 C :   -0.227057
   1 C :   -0.224212
   2 H :    0.078807
   3 C :   -0.112647
   4 C :   -0.085122
   5 C :   -0.145614
   6 H :    0.097944
   7 C :   -0.003794
   8 O :   -0.157986
   9 C :   -0.049921
  10 C :   -0.139394
  11 C :   -0.264346
  12 C :   -0.251682
  13 H :    0.095860
  14 H :    0.101641
  15 H :    0.107037
  16 H :    0.077209
  17 H :    0.094310
  18 H :    0.068038
  19 H :    0.084849
  20 H :    0.084359
  21 H :    0.085968
  22 H :    0.065841
  23 H :    0.099737
  24 H :    0.095816
  25 H :    0.121983
  26 H :    0.089474
  27 H :    0.119812
  28 H :    0.093090
Sum of atomic charges:   -0.0000000

LOEWDIN ATOMIC CHARGES
----------------------
   0 C :   -0.327526
   1 C :   -0.143940
   2 H :    0.121359
   3 C :   -0.222860
   4 C :   -0.216059
   5 C :   -0.161423
   6 H :    0.147162
   7 C :    0.057766
   8 O :   -0.129093
   9 C :   -0.236007
  10 C :   -0.135567
  11 C :   -0.338786
  12 C :   -0.337821
  13 H :    0.116487
  14 H :    0.119486
  15 H :    0.119943
  16 H :    0.120909
  17 H :    0.119806
  18 H :    0.117008
  19 H :    0.121386
  20 H :    0.134179
  21 H :    0.129182
  22 H :    0.113448
  23 H :    0.111926
  24 H :    0.119685
  25 H :    0.125452
  26 H :    0.112352
  27 H :    0.126519
  28 H :    0.115028

  Mayer bond orders larger than 0.100000
B(  0-C ,  1-C ) :   1.1132 B(  0-C , 13-H ) :   0.9477 B(  0-C , 14-H ) :   0.9470
B(  0-C , 15-H ) :   0.9468 B(  1-C ,  2-H ) :   0.8989 B(  1-C ,  3-C ) :   1.0631
B(  1-C ,  9-C ) :   1.1113 B(  3-C ,  4-C ) :   1.2005 B(  3-C , 16-H ) :   0.9061
B(  3-C , 17-H ) :   0.8996 B(  4-C ,  5-C ) :   1.0928 B(  4-C , 18-H ) :   0.8821
B(  4-C , 19-H ) :   0.9059 B(  5-C ,  6-H ) :   0.8496 B(  5-C ,  7-C ) :   0.9180
B(  5-C , 10-C ) :   1.0244 B(  7-C ,  8-O ) :   2.1546 B(  7-C ,  9-C ) :   1.0923
B(  9-C , 20-H ) :   0.8594 B(  9-C , 21-H ) :   0.8909 B( 10-C , 11-C ) :   1.1296
B( 10-C , 12-C ) :   1.1030 B( 10-C , 22-H ) :   0.9018 B( 11-C , 23-H ) :   0.9385
B( 11-C , 24-H ) :   0.9439 B( 11-C , 25-H ) :   0.9336 B( 12-C , 26-H ) :   0.9456
B( 12-C , 27-H ) :   0.9377 B( 12-C , 28-H ) :   0.9462

Dispersion correction           -0.030711139
FINAL SINGLE POINT ENERGY      -466.025983000438

DIPOLE MOMENT
-------------

Method             : SCF
Type of density    : Electron Density
Multiplicity       :   1
Irrep              :   0
Energy             :  -466.1224724025418027 Eh
Relativity type    :
Basis              : AO
                                X                 Y                 Z
Electronic contribution:      0.865319476       5.193030798       2.198105153
Nuclear contribution   :     -1.432791745      -6.063104717      -2.060917561
                        -----------------------------------------
Total Dipole Moment    :     -0.567472269      -0.870073918       0.137187592
                        -----------------------------------------
Magnitude (a.u.)       :      1.047794748
Magnitude (Debye)      :      2.663282595

Rotational constants in cm-1:             0.065687             0.025207             0.022175
Rotational constants in MHz :          1969.251665           755.678339           664.799837

                             ****ORCA TERMINATED NORMALLY****
TOTAL RUN TIME: 0 days 0 hours 0 minutes 12 seconds 952 msec
