                         Program Version 6.0.0  -   RELEASE  -
|  1> ! pbe def2-sv(p) def2/J RI DEFGRID1 loosescf d4 GCP(DFT/SV(P)) printgap
|  2> %output
|  3>     printlevel normal
|  4> end
|  5> * xyz 0 1
|  6> C -2.5747896989 0.9070535789 1.4486060449
|  7> C -1.5770719 0.4841581755 0.4182921326
|  8> C -0.8239905831 1.3133885826 -0.2931775652
|  9> C 0.1583244275 0.7657365022 -1.276139389
| 10> C 0.9769555629 -0.4028030236 -0.6830601414
| 11> H 1.3526789006 -0.9902067819 -1.5253169591
| 12> C 0.1161383497 -1.327391462 0.2057950512
| 13> C -1.3820784204 -0.9950731395 0.1801483915
| 14> H -1.8791963332 -1.57452792 0.9757169092
| 15> O -1.8996129514 -1.4176352669 -1.0772289451
| 16> C 2.172394248 0.1028973504 0.0898557295
| 17> C 3.3903092728 -0.3476691237 -0.169810326
| 18> C 1.9245323846 1.1303962222 1.1519039843
| 19> H -3.5664564183 0.5262755602 1.2077813077
| 20> H -2.62091715 1.9906105227 1.5137454021
| 21> H -2.2963207796 0.5071760211 2.4235913641
| 22> H -0.9071527032 2.384909201 -0.1842364556
| 23> H -0.3890700786 0.3786805647 -2.1393477241
| 24> H 0.8380444053 1.5408491158 -1.6313119038
| 25> H 0.2322494588 -2.3614547912 -0.1192832066
| 26> H 0.4499426727 -1.2646635499 1.242090926
| 27> H -2.8330917961 -1.1765034273 -1.1311856763
| 28> H 4.2530013532 -0.0075849644 0.3784695874
| 29> H 3.5771562591 -1.076314396 -0.94074671
| 30> H 2.8127072716 1.2714014622 1.7620433014
| 31> H 1.6648180338 2.0842800756 0.6963479366
| 32> H 1.095311413 0.8378661473 1.7917662009
| 33> *
| 34>
| 35>                          ****END OF INPUT****

CARTESIAN COORDINATES (ANGSTROEM)
---------------------------------
  C     -2.574790    0.907054    1.448606
  C     -1.577072    0.484158    0.418292
  C     -0.823991    1.313389   -0.293178
  C      0.158324    0.765737   -1.276139
  C      0.976956   -0.402803   -0.683060
  H      1.352679   -0.990207   -1.525317
  C      0.116138   -1.327391    0.205795
  C     -1.382078   -0.995073    0.180148
  H     -1.879196   -1.574528    0.975717
  O     -1.899613   -1.417635   -1.077229
  C      2.172394    0.102897    0.089856
  C      3.390309   -0.347669   -0.169810
  C      1.924532    1.130396    1.151904
  H     -3.566456    0.526276    1.207781
  H     -2.620917    1.990611    1.513745
  H     -2.296321    0.507176    2.423591
  H     -0.907153    2.384909   -0.184236
  H     -0.389070    0.378681   -2.139348
  H      0.838044    1.540849   -1.631312
  H      0.232249   -2.361455   -0.119283
  H      0.449943   -1.264664    1.242091
  H     -2.833092   -1.176503   -1.131186
  H      4.253001   -0.007585    0.378470
  H      3.577156   -1.076314   -0.940747
  H      2.812707    1.271401    1.762043
  H      1.664818    2.084280    0.696348
  H      1.095311    0.837866    1.791766

 Total Charge           Charge          ....    0
 Multiplicity           Mult            ....    1
 Number of Electrons    NEL             ....   84
 Basis Dimension        Dim             ....  186

ORBITAL ENERGIES
----------------

  NO   OCC          E(Eh)            E(eV)
   0   2.0000     -18.742339      -510.0050
   1   2.0000      -9.937397      -270.4103
   2   2.0000      -9.893649      -269.2199
   3   2.0000      -9.893580      -269.2180
   4   2.0000      -9.887964      -269.0652
   5   2.0000      -9.885422      -268.9960
   6   2.0000      -9.883344      -268.9395
   7   2.0000      -9.881567      -268.8911
   8   2.0000      -9.881224      -268.8818
   9   2.0000      -9.875835      -268.7351
  10   2.0000      -9.862646      -268.3762
  11   2.0000      -0.919052       -25.0087
  12   2.0000      -0.761817       -20.7301
  13   2.0000      -0.719125       -19.5684
  14   2.0000      -0.673537       -18.3279
  15   2.0000      -0.660545       -17.9743
  16   2.0000      -0.616296       -16.7703
  17   2.0000      -0.601950       -16.3799
  18   2.0000      -0.550987       -14.9931
  19   2.0000      -0.527555       -14.3555
  20   2.0000      -0.479849       -13.0574
  21   2.0000      -0.472350       -12.8533
  22   2.0000      -0.442379       -12.0378
  23   2.0000      -0.421778       -11.4772
  24   2.0000      -0.398549       -10.8451
  25   2.0000      -0.392765       -10.6877
  26   2.0000      -0.384093       -10.4517
  27   2.0000      -0.375505       -10.2180
  28   2.0000      -0.373055       -10.1514
  29   2.0000      -0.354074        -9.6348
  30   2.0000      -0.346463        -9.4277
  31   2.0000      -0.340744        -9.2721
  32   2.0000      -0.331605        -9.0234
  33   2.0000      -0.329460        -8.9651
  34   2.0000      -0.315696        -8.5905
  35   2.0000      -0.301566        -8.2060
  36   2.0000      -0.291349        -7.9280
  37   2.0000      -0.273570        -7.4442
  38   2.0000      -0.255770        -6.9598
  39   2.0000      -0.217596        -5.9211
  40   2.0000      -0.214943        -5.8489
  41   2.0000      -0.200908        -5.4670
  42   0.0000      -0.022604        -0.6151
  43   0.0000      -0.002325        -0.0633
  44   0.0000       0.021727         0.5912
  45   0.0000       0.048885         1.3302
  46   0.0000       0.058341         1.5875

MULLIKEN ATOMIC CHARGES
-----------------------
   0 C :   -0.199570
   1 C :   -0.069217
   2 C :   -0.259880
   3 C :    0.036302
   4 C :   -0.139995
   5 H :    0.056846
   6 C :   -0.045394
   7 C :    0.054808
   8 H :    0.041376
   9 O :   -0.426142
  10 C :   -0.089719
  11 C :   -0.233691
  12 C :   -0.185499
  13 H :    0.097599
  14 H :    0.098403
  15 H :    0.108690
  16 H :    0.041160
  17 H :    0.090134
  18 H :    0.085283
  19 H :    0.080776
  20 H :    0.090478
  21 H :    0.296328
  22 H :    0.077249
  23 H :    0.082301
  24 H :    0.097301
  25 H :    0.109067
  26 H :    0.105009
Sum of atomic charges:   -0.0000000

LOEWDIN ATOMIC CHARGES
----------------------
   0 C :   -0.322939
   1 C :   -0.097282
   2 C :   -0.137043
   3 C :   -0.215625
   4 C :   -0.119377
   5 H :    0.123877
   6 C :   -0.206097
   7 C :   -0.037972
   8 H :    0.096349
   9 O :   -0.329610
  10 C :   -0.049140
  11 C :   -0.269643
  12 C :   -0.323169
  13 H :    0.121824
  14 H :    0.124268
  15 H :    0.127256
  16 H :    0.114628
  17 H :    0.135051
  18 H :    0.120418
  19 H :    0.128108
  20 H :    0.124455
  21 H :    0.283544
  22 H :    0.114125
  23 H :    0.115641
  24 H :    0.123444
  25 H :    0.130101
  26 H :    0.124810

  Mayer bond orders larger than 0.100000
B(  0-C ,  1-C ) :   1.1389 B(  0-C , 13-H ) :   0.9306 B(  0-C , 14-H ) :   0.9422
B(  0-C , 15-H ) :   0.9270 B(  1-C ,  2-C ) :   1.8645 B(  1-C ,  7-C ) :   1.0044
B(  2-C ,  3-C ) :   1.0813 B(  2-C , 16-H ) :   0.9435 B(  3-C ,  4-C ) :   1.0995
B(  3-C , 17-H ) :   0.8471 B(  3-C , 18-H ) :   0.9143 B(  4-C ,  5-H ) :   0.8676
B(  4-C ,  6-C ) :   1.0617 B(  4-C , 10-C ) :   1.0207 B(  6-C ,  7-C ) :   1.0935
B(  6-C , 19-H ) :   0.8830 B(  6-C , 20-H ) :   0.9110 B(  7-C ,  8-H ) :   0.8982
B(  7-C ,  9-O ) :   1.0210 B(  9-O , 21-H ) :   0.8528 B( 10-C , 11-C ) :   2.0319
B( 10-C , 12-C ) :   1.1372 B( 11-C , 22-H ) :   0.9075 B( 11-C , 23-H ) :   0.9082
B( 12-C , 24-H ) :   0.9341 B( 12-C , 25-H ) :   0.9146 B( 12-C , 26-H ) :   0.9162

Dispersion correction           -0.029723295
FINAL SINGLE POINT ENERGY      -464.785733168235

DIPOLE MOMENT
-------------

Method             : SCF
Type of density    : Electron Density
Multiplicity       :   1
Irrep              :   0
Energy             :  -464.8742420754625755 Eh
Relativity type    :
Basis              : AO
                                X                 Y                 Z
Electronic contribution:     -2.230004713      -2.588211903      -3.694250983
Nuclear contribution   :      1.645242962       2.859893316       4.037022107
                        -----------------------------------------
Total Dipole Moment    :     -0.584761751       0.271681412       0.342771124
                        -----------------------------------------
Magnitude (a.u.)       :      0.730239097
Magnitude (Debye)      :      1.856120276

Rotational constants in cm-1:             0.060972             0.027162             0.023263
Rotational constants in MHz :          1827.905593           814.295531           697.419499

                             ****ORCA TERMINATED NORMALLY****
TOTAL RUN TIME: 0 days 0 hours 0 minutes 12 seconds 452 msec
