                         Program Version 6.0.0  -   RELEASE  -
|  1> ! pbe def2-sv(p) def2/J RI DEFGRID1 loosescf d4 GCP(DFT/SV(P)) printgap
|  2> %output
|  3>     printlevel normal
|  4> end
|  5> * xyz 0 1
|  6> C 1.8680852264 0.9259368673 -0.2736146131
|  7> C 0.9644302025 -0.0752186278 0.4352611018
|  8> C -0.3800830642 -0.2849022723 -0.2753289603
|  9> H -0.195965798 -0.5349349897 -1.326843193
| 10> C -1.2786988853 0.9481692654 -0.1951283975
| 11> O -1.0429832287 -1.4310349141 0.237998093
| 12> H 1.4324889676 1.9210968863 -0.2625545968
| 13> H 2.0272501704 0.6289856212 -1.30751617
| 14> H 2.8335145186 0.9713751461 0.2236729313
| 15> H 0.7791527997 0.2592093672 1.459085651
| 16> H 1.4663326232 -1.0444836099 0.4840962795
| 17> H -1.4095996736 1.2558377287 0.8403633534
| 18> H -0.8433616775 1.7697961673 -0.754260879
| 19> H -2.2528534936 0.7171788476 -0.6193198937
| 20> H -1.2676524895 -1.269550029 1.1652726733
| 21> *
| 22>
| 23>                          ****END OF INPUT****

CARTESIAN COORDINATES (ANGSTROEM)
---------------------------------
  C      1.868085    0.925937   -0.273615
  C      0.964430   -0.075219    0.435261
  C     -0.380083   -0.284902   -0.275329
  H     -0.195966   -0.534935   -1.326843
  C     -1.278699    0.948169   -0.195128
  O     -1.042983   -1.431035    0.237998
  H      1.432489    1.921097   -0.262555
  H      2.027250    0.628986   -1.307516
  H      2.833515    0.971375    0.223673
  H      0.779153    0.259209    1.459086
  H      1.466333   -1.044484    0.484096
  H     -1.409600    1.255838    0.840363
  H     -0.843362    1.769796   -0.754261
  H     -2.252853    0.717179   -0.619320
  H     -1.267652   -1.269550    1.165273

 Total Charge           Charge          ....    0
 Multiplicity           Mult            ....    1
 Number of Electrons    NEL             ....   42
 Basis Dimension        Dim             ....   90

ORBITAL ENERGIES
----------------

  NO   OCC          E(Eh)            E(eV)
   0   2.0000     -18.734649      -509.7957
   1   2.0000      -9.933838      -270.3135
   2   2.0000      -9.882677      -268.9213
   3   2.0000      -9.877556      -268.7820
   4   2.0000      -9.874826      -268.7077
   5   2.0000      -0.912845       -24.8398
   6   2.0000      -0.708014       -19.2661
   7   2.0000      -0.646510       -17.5924
   8   2.0000      -0.573389       -15.6027
   9   2.0000      -0.526089       -14.3156
  10   2.0000      -0.435401       -11.8479
  11   2.0000      -0.417760       -11.3678
  12   2.0000      -0.385913       -10.5012
  13   2.0000      -0.379763       -10.3339
  14   2.0000      -0.346249        -9.4219
  15   2.0000      -0.337858        -9.1936
  16   2.0000      -0.322913        -8.7869
  17   2.0000      -0.305215        -8.3053
  18   2.0000      -0.292750        -7.9661
  19   2.0000      -0.264078        -7.1859
  20   2.0000      -0.208262        -5.6671
  21   0.0000       0.030247         0.8231
  22   0.0000       0.047776         1.3001
  23   0.0000       0.072469         1.9720
  24   0.0000       0.081027         2.2049
  25   0.0000       0.094500         2.5715

MULLIKEN ATOMIC CHARGES
-----------------------
   0 C :   -0.289080
   1 C :   -0.168878
   2 C :    0.019896
   3 H :    0.070038
   4 C :   -0.265941
   5 O :   -0.428576
   6 H :    0.105612
   7 H :    0.102514
   8 H :    0.105573
   9 H :    0.068229
  10 H :    0.092995
  11 H :    0.084394
  12 H :    0.103630
  13 H :    0.111488
  14 H :    0.288104
Sum of atomic charges:   -0.0000000

LOEWDIN ATOMIC CHARGES
----------------------
   0 C :   -0.341749
   1 C :   -0.248508
   2 C :   -0.059593
   3 H :    0.111152
   4 C :   -0.354414
   5 O :   -0.331743
   6 H :    0.116610
   7 H :    0.119291
   8 H :    0.122146
   9 H :    0.108567
  10 H :    0.119095
  11 H :    0.113557
  12 H :    0.123202
  13 H :    0.124165
  14 H :    0.278221

  Mayer bond orders larger than 0.100000
B(  0-C ,  1-C ) :   1.1366 B(  0-C ,  6-H ) :   0.9506 B(  0-C ,  7-H ) :   0.9542
B(  0-C ,  8-H ) :   0.9484 B(  1-C ,  2-C ) :   1.0754 B(  1-C ,  9-H ) :   0.9150
B(  1-C , 10-H ) :   0.9205 B(  2-C ,  3-H ) :   0.9052 B(  2-C ,  4-C ) :   1.1068
B(  2-C ,  5-O ) :   1.0392 B(  4-C , 11-H ) :   0.9429 B(  4-C , 12-H ) :   0.9353
B(  4-C , 13-H ) :   0.9453 B(  5-O , 14-H ) :   0.8568

Dispersion correction           -0.009587850
FINAL SINGLE POINT ENERGY      -233.092321562957

DIPOLE MOMENT
-------------

Method             : SCF
Type of density    : Electron Density
Multiplicity       :   1
Irrep              :   0
Energy             :  -233.1517832370929852 Eh
Relativity type    :
Basis              : AO
                                X                 Y                 Z
Electronic contribution:     -2.274037857      -3.884882666       0.423756202
Nuclear contribution   :      2.394925124       4.364192848      -0.088401779
                        -----------------------------------------
Total Dipole Moment    :      0.120887267       0.479310182       0.335354424
                        -----------------------------------------
Magnitude (a.u.)       :      0.597339578
Magnitude (Debye)      :      1.518316545

Rotational constants in cm-1:             0.254934             0.115205             0.088702
Rotational constants in MHz :          7642.741150          3453.757215          2659.217494

                             ****ORCA TERMINATED NORMALLY****
TOTAL RUN TIME: 0 days 0 hours 0 minutes 5 seconds 385 msec
