                         Program Version 6.0.0  -   RELEASE  -
|  1> ! pbe def2-sv(p) def2/J RI DEFGRID1 loosescf d4 GCP(DFT/SV(P)) printgap
|  2> %output
|  3>     printlevel normal
|  4> end
|  5> * xyz 0 1
|  6> C -1.3683028033 -0.0339574702 -0.4243536733
|  7> C -0.7703032421 1.3016516725 0.0352825632
|  8> C 0.7322889212 1.1340823879 0.3511678597
|  9> N 1.342691754 0.0259213199 -0.3609480094
| 10> C 0.7743218337 -1.2468994775 0.0671460227
| 11> C -0.7396649434 -1.1814996087 0.3620872308
| 12> H -1.1770412388 -0.1845123563 -1.490000461
| 13> H -2.4501477648 -0.0257009963 -0.2850951464
| 14> H -0.9105323915 2.0502947734 -0.746446387
| 15> H -1.2890220764 1.6524819644 0.9283345118
| 16> H 1.2792393567 2.0449856549 0.0988181837
| 17> H 0.8753483344 0.9416394221 1.4178185988
| 18> H 1.1841571266 0.1557352034 -1.3552674195
| 19> H 0.9812208801 -1.9834145123 -0.7111938028
| 20> H 1.3108126086 -1.5564513834 0.9708361706
| 21> H -1.2106414349 -2.1285521609 0.0980419362
| 22> H -0.9067871115 -1.0094755004 1.4267937755
| 23> *
| 24>
| 25>                          ****END OF INPUT****

CARTESIAN COORDINATES (ANGSTROEM)
---------------------------------
  C     -1.368303   -0.033957   -0.424354
  C     -0.770303    1.301652    0.035283
  C      0.732289    1.134082    0.351168
  N      1.342692    0.025921   -0.360948
  C      0.774322   -1.246899    0.067146
  C     -0.739665   -1.181500    0.362087
  H     -1.177041   -0.184512   -1.490000
  H     -2.450148   -0.025701   -0.285095
  H     -0.910532    2.050295   -0.746446
  H     -1.289022    1.652482    0.928335
  H      1.279239    2.044986    0.098818
  H      0.875348    0.941639    1.417819
  H      1.184157    0.155735   -1.355267
  H      0.981221   -1.983415   -0.711194
  H      1.310813   -1.556451    0.970836
  H     -1.210641   -2.128552    0.098042
  H     -0.906787   -1.009476    1.426794

 Total Charge           Charge          ....    0
 Multiplicity           Mult            ....    1
 Number of Electrons    NEL             ....   48
 Basis Dimension        Dim             ....  106

ORBITAL ENERGIES
----------------

  NO   OCC          E(Eh)            E(eV)
   0   2.0000     -13.961565      -379.9135
   1   2.0000      -9.902167      -269.4517
   2   2.0000      -9.901570      -269.4354
   3   2.0000      -9.884308      -268.9657
   4   2.0000      -9.879688      -268.8400
   5   2.0000      -9.879535      -268.8358
   6   2.0000      -0.822544       -22.3826
   7   2.0000      -0.700145       -19.0519
   8   2.0000      -0.667005       -18.1501
   9   2.0000      -0.571331       -15.5467
  10   2.0000      -0.552303       -15.0289
  11   2.0000      -0.483340       -13.1524
  12   2.0000      -0.452061       -12.3012
  13   2.0000      -0.422081       -11.4854
  14   2.0000      -0.402252       -10.9458
  15   2.0000      -0.371890       -10.1196
  16   2.0000      -0.350602        -9.5404
  17   2.0000      -0.333022        -9.0620
  18   2.0000      -0.327024        -8.8988
  19   2.0000      -0.313423        -8.5287
  20   2.0000      -0.299616        -8.1530
  21   2.0000      -0.271738        -7.3944
  22   2.0000      -0.269103        -7.3227
  23   2.0000      -0.167494        -4.5577
  24   0.0000       0.023790         0.6474
  25   0.0000       0.047328         1.2879
  26   0.0000       0.070435         1.9166
  27   0.0000       0.084585         2.3017
  28   0.0000       0.086254         2.3471

MULLIKEN ATOMIC CHARGES
-----------------------
   0 C :   -0.179039
   1 C :   -0.168869
   2 C :   -0.079402
   3 N :   -0.335318
   4 C :   -0.071950
   5 C :   -0.180296
   6 H :    0.074992
   7 H :    0.088431
   8 H :    0.079598
   9 H :    0.079139
  10 H :    0.088611
  11 H :    0.078122
  12 H :    0.194136
  13 H :    0.081449
  14 H :    0.083951
  15 H :    0.086335
  16 H :    0.080111
Sum of atomic charges:   -0.0000000

LOEWDIN ATOMIC CHARGES
----------------------
   0 C :   -0.231692
   1 C :   -0.251698
   2 C :   -0.174187
   3 N :   -0.259261
   4 C :   -0.171338
   5 C :   -0.251171
   6 H :    0.108913
   7 H :    0.119064
   8 H :    0.114226
   9 H :    0.116345
  10 H :    0.112758
  11 H :    0.111616
  12 H :    0.203715
  13 H :    0.111625
  14 H :    0.108399
  15 H :    0.118938
  16 H :    0.113747

  Mayer bond orders larger than 0.100000
B(  0-C ,  1-C ) :   1.1442 B(  0-C ,  5-C ) :   1.1444 B(  0-C ,  6-H ) :   0.9159
B(  0-C ,  7-H ) :   0.9225 B(  1-C ,  2-C ) :   1.0955 B(  1-C ,  8-H ) :   0.9214
B(  1-C ,  9-H ) :   0.9146 B(  2-C ,  3-N ) :   1.1398 B(  2-C , 10-H ) :   0.9376
B(  2-C , 11-H ) :   0.9191 B(  3-N ,  4-C ) :   1.1192 B(  3-N , 12-H ) :   0.8805
B(  4-C ,  5-C ) :   1.0635 B(  4-C , 13-H ) :   0.9361 B(  4-C , 14-H ) :   0.9350
B(  5-C , 15-H ) :   0.9196 B(  5-C , 16-H ) :   0.9226

Dispersion correction           -0.013967735
FINAL SINGLE POINT ENERGY      -251.273579035057

DIPOLE MOMENT
-------------

Method             : SCF
Type of density    : Electron Density
Multiplicity       :   1
Irrep              :   0
Energy             :  -251.3370100000296929 Eh
Relativity type    :
Basis              : AO
                                X                 Y                 Z
Electronic contribution:      1.760577219       0.048391012      -0.504201331
Nuclear contribution   :     -2.162998476      -0.040171021       0.328859733
                        -----------------------------------------
Total Dipole Moment    :     -0.402421258       0.008219991      -0.175341598
                        -----------------------------------------
Magnitude (a.u.)       :      0.439038851
Magnitude (Debye)      :      1.115948073

Rotational constants in cm-1:             0.153144             0.145648             0.089036
Rotational constants in MHz :          4591.143027          4366.406642          2669.244751

                             ****ORCA TERMINATED NORMALLY****
TOTAL RUN TIME: 0 days 0 hours 0 minutes 6 seconds 120 msec
