                         Program Version 6.0.0  -   RELEASE  -
|  1> ! pbe def2-sv(p) def2/J RI DEFGRID1 loosescf d4 GCP(DFT/SV(P)) printgap
|  2> %output
|  3>     printlevel normal
|  4> end
|  5> * xyz 0 1
|  6> C -1.6567535788 -1.3543121651 -0.5973504988
|  7> C -1.1340421391 -0.5036756656 0.5697063707
|  8> H -1.9042837129 -0.508202313 1.3488004562
|  9> C -0.8741623775 0.9596206652 0.146561411
| 10> H -1.2211639909 1.1065163544 -0.8812304404
| 11> C 0.6286997516 1.2727482471 0.2127508975
| 12> H 0.9287214697 1.3832146856 1.2685283249
| 13> C 1.4376405883 0.1202428143 -0.3876832176
| 14> H 1.1178694861 -0.0432148714 -1.4273723193
| 15> C 1.1763705282 -1.1600415431 0.4212742573
| 16> H 1.9845708892 -1.258091792 1.1600618652
| 17> O 0.0022493238 -1.0855723497 1.1970611717
| 18> O 1.1603144427 -2.2399983469 -0.4550718722
| 19> O 2.8152805615 0.3793501315 -0.3404358967
| 20> O 0.9490381646 2.4408482662 -0.5027234319
| 21> O -1.6036694162 1.8920182173 0.9062395425
| 22> O -2.8836795113 -0.80380848 -1.0151676286
| 23> H -1.7868544516 -2.3821437128 -0.2373902745
| 24> H -0.925156787 -1.3562377615 -1.4140944731
| 25> H 1.2364971679 -3.0736199319 0.0337652116
| 26> H 2.9693695104 1.2521908289 -0.7364451509
| 27> H 0.3275981545 3.140549695 -0.2522887384
| 28> H -1.4238169775 1.7621376283 1.8491375672
| 29> H -3.2486448108 -1.3453708151 -1.7291173392
| 30> *
| 31>
| 32>                          ****END OF INPUT****

CARTESIAN COORDINATES (ANGSTROEM)
---------------------------------
  C     -1.656754   -1.354312   -0.597350
  C     -1.134042   -0.503676    0.569706
  H     -1.904284   -0.508202    1.348800
  C     -0.874162    0.959621    0.146561
  H     -1.221164    1.106516   -0.881230
  C      0.628700    1.272748    0.212751
  H      0.928721    1.383215    1.268528
  C      1.437641    0.120243   -0.387683
  H      1.117869   -0.043215   -1.427372
  C      1.176371   -1.160042    0.421274
  H      1.984571   -1.258092    1.160062
  O      0.002249   -1.085572    1.197061
  O      1.160314   -2.239998   -0.455072
  O      2.815281    0.379350   -0.340436
  O      0.949038    2.440848   -0.502723
  O     -1.603669    1.892018    0.906240
  O     -2.883680   -0.803808   -1.015168
  H     -1.786854   -2.382144   -0.237390
  H     -0.925157   -1.356238   -1.414094
  H      1.236497   -3.073620    0.033765
  H      2.969370    1.252191   -0.736445
  H      0.327598    3.140550   -0.252289
  H     -1.423817    1.762138    1.849138
  H     -3.248645   -1.345371   -1.729117

 Total Charge           Charge          ....    0
 Multiplicity           Mult            ....    1
 Number of Electrons    NEL             ....   96
 Basis Dimension        Dim             ....  192

ORBITAL ENERGIES
----------------

  NO   OCC          E(Eh)            E(eV)
   0   2.0000     -18.768062      -510.7049
   1   2.0000     -18.762325      -510.5488
   2   2.0000     -18.754935      -510.3477
   3   2.0000     -18.754149      -510.3263
   4   2.0000     -18.751571      -510.2562
   5   2.0000     -18.744070      -510.0521
   6   2.0000      -9.983980      -271.6779
   7   2.0000      -9.942994      -270.5626
   8   2.0000      -9.938570      -270.4422
   9   2.0000      -9.938556      -270.4419
  10   2.0000      -9.937951      -270.4254
  11   2.0000      -9.930260      -270.2161
  12   2.0000      -0.979152       -26.6441
  13   2.0000      -0.944645       -25.7051
  14   2.0000      -0.930935       -25.3320
  15   2.0000      -0.924838       -25.1661
  16   2.0000      -0.912534       -24.8313
  17   2.0000      -0.911709       -24.8089
  18   2.0000      -0.700626       -19.0650
  19   2.0000      -0.690457       -18.7883
  20   2.0000      -0.620542       -16.8858
  21   2.0000      -0.582784       -15.8584
  22   2.0000      -0.564530       -15.3616
  23   2.0000      -0.508738       -13.8435
  24   2.0000      -0.508032       -13.8243
  25   2.0000      -0.489287       -13.3142
  26   2.0000      -0.483456       -13.1555
  27   2.0000      -0.455800       -12.4029
  28   2.0000      -0.434153       -11.8139
  29   2.0000      -0.425396       -11.5756
  30   2.0000      -0.412009       -11.2113
  31   2.0000      -0.404000       -10.9934
  32   2.0000      -0.385051       -10.4778
  33   2.0000      -0.378199       -10.2913
  34   2.0000      -0.360967        -9.8224
  35   2.0000      -0.341271        -9.2865
  36   2.0000      -0.327608        -8.9147
  37   2.0000      -0.310122        -8.4389
  38   2.0000      -0.299503        -8.1499
  39   2.0000      -0.294842        -8.0231
  40   2.0000      -0.286837        -7.8052
  41   2.0000      -0.258312        -7.0290
  42   2.0000      -0.250746        -6.8231
  43   2.0000      -0.245203        -6.6723
  44   2.0000      -0.231735        -6.3058
  45   2.0000      -0.219388        -5.9698
  46   2.0000      -0.213959        -5.8221
  47   2.0000      -0.203166        -5.5284
  48   0.0000       0.018911         0.5146
  49   0.0000       0.025688         0.6990
  50   0.0000       0.025858         0.7036
  51   0.0000       0.041634         1.1329
  52   0.0000       0.059271         1.6129

MULLIKEN ATOMIC CHARGES
-----------------------
   0 C :   -0.000368
   1 C :    0.032848
   2 H :    0.068662
   3 C :    0.052534
   4 H :    0.078408
   5 C :    0.065789
   6 H :    0.040289
   7 C :    0.014361
   8 H :    0.069365
   9 C :    0.207868
  10 H :    0.072050
  11 O :   -0.309620
  12 O :   -0.385793
  13 O :   -0.417532
  14 O :   -0.428548
  15 O :   -0.420093
  16 O :   -0.430316
  17 H :    0.068398
  18 H :    0.096543
  19 H :    0.303687
  20 H :    0.309377
  21 H :    0.307519
  22 H :    0.299091
  23 H :    0.305480
Sum of atomic charges:   -0.0000000

LOEWDIN ATOMIC CHARGES
----------------------
   0 C :   -0.143534
   1 C :   -0.063341
   2 H :    0.118172
   3 C :   -0.079873
   4 H :    0.122015
   5 C :   -0.082297
   6 H :    0.098483
   7 C :   -0.076232
   8 H :    0.108027
   9 C :    0.000878
  10 H :    0.106367
  11 O :   -0.148745
  12 O :   -0.299273
  13 O :   -0.316175
  14 O :   -0.326890
  15 O :   -0.312393
  16 O :   -0.339790
  17 H :    0.097207
  18 H :    0.100363
  19 H :    0.287587
  20 H :    0.287858
  21 H :    0.288910
  22 H :    0.283056
  23 H :    0.289619

  Mayer bond orders larger than 0.100000
B(  0-C ,  1-C ) :   1.0563 B(  0-C , 16-O ) :   1.0712 B(  0-C , 17-H ) :   0.9081
B(  0-C , 18-H ) :   0.9045 B(  1-C ,  2-H ) :   0.8860 B(  1-C ,  3-C ) :   0.9785
B(  1-C , 11-O ) :   1.0398 B(  3-C ,  4-H ) :   0.8703 B(  3-C ,  5-C ) :   1.0125
B(  3-C , 15-O ) :   1.0178 B(  5-C ,  6-H ) :   0.8610 B(  5-C ,  7-C ) :   1.0120
B(  5-C , 14-O ) :   1.0740 B(  7-C ,  8-H ) :   0.8792 B(  7-C ,  9-C ) :   0.9910
B(  7-C , 13-O ) :   1.0842 B(  9-C , 10-H ) :   0.8859 B(  9-C , 11-O ) :   1.0494
B(  9-C , 12-O ) :   1.1402 B( 12-O , 19-H ) :   0.8414 B( 13-O , 20-H ) :   0.8353
B( 14-O , 21-H ) :   0.8339 B( 15-O , 22-H ) :   0.8496 B( 16-O , 23-H ) :   0.8497

Dispersion correction           -0.024541476
FINAL SINGLE POINT ENERGY      -685.691297163059

DIPOLE MOMENT
-------------

Method             : SCF
Type of density    : Electron Density
Multiplicity       :   1
Irrep              :   0
Energy             :  -685.8210766764829032 Eh
Relativity type    :
Basis              : AO
                                X                 Y                 Z
Electronic contribution:      1.535114487       0.777728253       1.105528974
Nuclear contribution   :     -1.818505285      -1.231881643      -0.957836918
                        -----------------------------------------
Total Dipole Moment    :     -0.283390798      -0.454153391       0.147692056
                        -----------------------------------------
Magnitude (a.u.)       :      0.555318458
Magnitude (Debye)      :      1.411507347

Rotational constants in cm-1:             0.036661             0.029306             0.019688
Rotational constants in MHz :          1099.058326           878.557934           590.233263

                             ****ORCA TERMINATED NORMALLY****
TOTAL RUN TIME: 0 days 0 hours 0 minutes 12 seconds 147 msec
