                         Program Version 6.0.0  -   RELEASE  -
|  1> ! pbe def2-sv(p) def2/J RI DEFGRID1 loosescf d4 GCP(DFT/SV(P)) printgap
|  2> %output
|  3>     printlevel normal
|  4> end
|  5> * xyz 0 1
|  6> C -2.2630070881 -0.4639030917 -1.1736245947
|  7> C -1.7556620377 -0.0302423049 0.1686606979
|  8> O -2.5079006655 0.3386084765 1.0528726922
|  9> C -0.258673152 -0.0407849772 0.3788045463
| 10> C 0.3047398041 1.2972154186 -0.1549897622
| 11> C 1.7846971167 1.1656642507 -0.5311055855
| 12> C 2.4837933756 0.1792785559 0.3973870703
| 13> C 1.932171702 -1.2370333177 0.1847203831
| 14> C 0.4706409682 -1.2098354448 -0.2814964552
| 15> H -1.6682416469 -0.0311155375 -1.9716958411
| 16> H -2.1804493621 -1.5468377617 -1.2397817505
| 17> H -3.306827491 -0.1828853252 -1.2832934143
| 18> H -0.0912232264 -0.0845145357 1.4598575435
| 19> H -0.2644359215 1.6223584966 -1.0277143725
| 20> H 0.1766696033 2.0584687038 0.6159432336
| 21> H 1.8837406864 0.8164291941 -1.5595727114
| 22> H 2.2596046103 2.1453701514 -0.468429395
| 23> H 3.5590420299 0.1892001845 0.2159695352
| 24> H 2.3231742259 0.49506719 1.4297179009
| 25> H 2.529990807 -1.7598518925 -0.5631762498
| 26> H 2.0119103807 -1.7973252343 1.1175847259
| 27> H 0.430252266 -1.1002598122 -1.3644085879
| 28> H -0.0128329822 -2.1517211193 -0.0186837911
| 29> *
| 30>
| 31>                          ****END OF INPUT****

CARTESIAN COORDINATES (ANGSTROEM)
---------------------------------
  C     -2.263007   -0.463903   -1.173625
  C     -1.755662   -0.030242    0.168661
  O     -2.507901    0.338608    1.052873
  C     -0.258673   -0.040785    0.378805
  C      0.304740    1.297215   -0.154990
  C      1.784697    1.165664   -0.531106
  C      2.483793    0.179279    0.397387
  C      1.932172   -1.237033    0.184720
  C      0.470641   -1.209835   -0.281496
  H     -1.668242   -0.031116   -1.971696
  H     -2.180449   -1.546838   -1.239782
  H     -3.306827   -0.182885   -1.283293
  H     -0.091223   -0.084515    1.459858
  H     -0.264436    1.622358   -1.027714
  H      0.176670    2.058469    0.615943
  H      1.883741    0.816429   -1.559573
  H      2.259605    2.145370   -0.468429
  H      3.559042    0.189200    0.215970
  H      2.323174    0.495067    1.429718
  H      2.529991   -1.759852   -0.563176
  H      2.011910   -1.797325    1.117585
  H      0.430252   -1.100260   -1.364409
  H     -0.012833   -2.151721   -0.018684

 Total Charge           Charge          ....    0
 Multiplicity           Mult            ....    1
 Number of Electrons    NEL             ....   70
 Basis Dimension        Dim             ....  154

ORBITAL ENERGIES
----------------

  NO   OCC          E(Eh)            E(eV)
   0   2.0000     -18.729748      -509.6624
   1   2.0000      -9.967840      -271.2387
   2   2.0000      -9.897717      -269.3306
   3   2.0000      -9.895077      -269.2587
   4   2.0000      -9.893218      -269.2081
   5   2.0000      -9.889531      -269.1078
   6   2.0000      -9.888965      -269.0924
   7   2.0000      -9.887151      -269.0431
   8   2.0000      -9.884974      -268.9838
   9   2.0000      -0.927247       -25.2317
  10   2.0000      -0.766839       -20.8668
  11   2.0000      -0.693541       -18.8722
  12   2.0000      -0.672662       -18.3041
  13   2.0000      -0.652369       -17.7519
  14   2.0000      -0.570508       -15.5243
  15   2.0000      -0.552636       -15.0380
  16   2.0000      -0.490500       -13.3472
  17   2.0000      -0.469542       -12.7769
  18   2.0000      -0.448701       -12.2098
  19   2.0000      -0.427799       -11.6410
  20   2.0000      -0.402807       -10.9609
  21   2.0000      -0.396901       -10.8002
  22   2.0000      -0.385860       -10.4998
  23   2.0000      -0.368996       -10.0409
  24   2.0000      -0.353660        -9.6236
  25   2.0000      -0.344428        -9.3724
  26   2.0000      -0.335050        -9.1172
  27   2.0000      -0.330534        -8.9943
  28   2.0000      -0.325061        -8.8453
  29   2.0000      -0.319156        -8.6847
  30   2.0000      -0.301942        -8.2163
  31   2.0000      -0.280681        -7.6377
  32   2.0000      -0.268238        -7.2991
  33   2.0000      -0.267024        -7.2661
  34   2.0000      -0.187014        -5.0889
  35   0.0000      -0.043803        -1.1919
  36   0.0000       0.020086         0.5466
  37   0.0000       0.038737         1.0541
  38   0.0000       0.057328         1.5600
  39   0.0000       0.063149         1.7184

MULLIKEN ATOMIC CHARGES
-----------------------
   0 C :   -0.258461
   1 C :    0.020353
   2 O :   -0.169246
   3 C :   -0.182933
   4 C :   -0.146381
   5 C :   -0.140323
   6 C :   -0.160055
   7 C :   -0.141168
   8 C :   -0.123174
   9 H :    0.121362
  10 H :    0.129110
  11 H :    0.118464
  12 H :    0.072756
  13 H :    0.087205
  14 H :    0.096566
  15 H :    0.076593
  16 H :    0.090316
  17 H :    0.088755
  18 H :    0.083843
  19 H :    0.081662
  20 H :    0.086233
  21 H :    0.074660
  22 H :    0.093863
Sum of atomic charges:    0.0000000

LOEWDIN ATOMIC CHARGES
----------------------
   0 C :   -0.361329
   1 C :    0.047879
   2 O :   -0.136762
   3 C :   -0.167864
   4 C :   -0.208854
   5 C :   -0.227665
   6 C :   -0.229922
   7 C :   -0.225690
   8 C :   -0.221786
   9 H :    0.132897
  10 H :    0.146149
  11 H :    0.135490
  12 H :    0.128181
  13 H :    0.117479
  14 H :    0.125713
  15 H :    0.114994
  16 H :    0.121607
  17 H :    0.119542
  18 H :    0.116893
  19 H :    0.117912
  20 H :    0.118996
  21 H :    0.115899
  22 H :    0.120241

  Mayer bond orders larger than 0.100000
B(  0-C ,  1-C ) :   1.0792 B(  0-C ,  9-H ) :   0.9252 B(  0-C , 10-H ) :   0.9110
B(  0-C , 11-H ) :   0.9295 B(  1-C ,  2-O ) :   2.2024 B(  1-C ,  3-C ) :   0.9438
B(  3-C ,  4-C ) :   1.0674 B(  3-C ,  8-C ) :   1.1204 B(  3-C , 12-H ) :   0.8655
B(  4-C ,  5-C ) :   1.1442 B(  4-C , 13-H ) :   0.9128 B(  4-C , 14-H ) :   0.9129
B(  5-C ,  6-C ) :   1.1853 B(  5-C , 15-H ) :   0.9057 B(  5-C , 16-H ) :   0.9179
B(  6-C ,  7-C ) :   1.1382 B(  6-C , 17-H ) :   0.9224 B(  6-C , 18-H ) :   0.9126
B(  7-C ,  8-C ) :   1.1466 B(  7-C , 19-H ) :   0.9180 B(  7-C , 20-H ) :   0.9203
B(  8-C , 21-H ) :   0.8770 B(  8-C , 22-H ) :   0.9236

Dispersion correction           -0.022135894
FINAL SINGLE POINT ENERGY      -387.599008380768

DIPOLE MOMENT
-------------

Method             : SCF
Type of density    : Electron Density
Multiplicity       :   1
Irrep              :   0
Energy             :  -387.6764133014654590 Eh
Relativity type    :
Basis              : AO
                                X                 Y                 Z
Electronic contribution:     -6.332154704       0.965317134       3.628151299
Nuclear contribution   :      7.140126117      -1.240503512      -4.354064849
                        -----------------------------------------
Total Dipole Moment    :      0.807971413      -0.275186378      -0.725913550
                        -----------------------------------------
Magnitude (a.u.)       :      1.120489102
Magnitude (Debye)      :      2.848056959

Rotational constants in cm-1:             0.101084             0.035194             0.032264
Rotational constants in MHz :          3030.411461          1055.095481           967.261795

                             ****ORCA TERMINATED NORMALLY****
TOTAL RUN TIME: 0 days 0 hours 0 minutes 9 seconds 574 msec
