                         Program Version 6.0.0  -   RELEASE  -
|  1> ! pbe def2-sv(p) def2/J RI DEFGRID1 loosescf d4 GCP(DFT/SV(P)) printgap
|  2> %output
|  3>     printlevel normal
|  4> end
|  5> * xyz 0 1
|  6> C -2.6577337552 0.9106104307 0.9374932407
|  7> C -1.285027798 0.6170132415 0.3389751013
|  8> H -0.5136540372 1.0058267385 1.0157030735
|  9> C -1.0864482174 1.2594736226 -1.0344078316
| 10> C 0.3711449559 1.1518506584 -1.4925124931
| 11> C 1.0512865645 -0.152917244 -1.0176509551
| 12> H 1.7187463893 -0.4955330159 -1.8169657699
| 13> C -0.0125896883 -1.2362851715 -0.8210732329
| 14> C -1.0344296136 -0.8684025415 0.219984533
| 15> O -1.6225128564 -1.7019707994 0.8842670609
| 16> C 1.9373522112 0.049600875 0.2032941838
| 17> C 2.8255162998 1.0326886425 0.2512399019
| 18> C 1.8630570434 -0.9519812623 1.3169630808
| 19> H -3.4418048903 0.597500702 0.2512962322
| 20> H -2.7840933921 0.3609975919 1.8673102699
| 21> H -2.767824448 1.9729021079 1.1356890933
| 22> H -1.7525094609 0.7710119268 -1.7485250335
| 23> H -1.376094201 2.309495381 -0.9866160641
| 24> H 0.4035958327 1.2069333301 -2.5809078996
| 25> H 0.9254893577 2.0046735003 -1.1051976941
| 26> H -0.5630145454 -1.357704498 -1.7586015535
| 27> H 0.4209743628 -2.2071086779 -0.5808335632
| 28> H 3.4762277803 1.1613885811 1.0989611407
| 29> H 2.9554539037 1.7418092066 -0.5479493805
| 30> H 2.5103652014 -0.6517822885 2.1366692307
| 31> H 0.8506192292 -1.0635273952 1.7001834972
| 32> H 2.1917175373 -1.9289950792 0.9640009913
| 33> *
| 34>
| 35>                          ****END OF INPUT****

CARTESIAN COORDINATES (ANGSTROEM)
---------------------------------
  C     -2.657734    0.910610    0.937493
  C     -1.285028    0.617013    0.338975
  H     -0.513654    1.005827    1.015703
  C     -1.086448    1.259474   -1.034408
  C      0.371145    1.151851   -1.492512
  C      1.051287   -0.152917   -1.017651
  H      1.718746   -0.495533   -1.816966
  C     -0.012590   -1.236285   -0.821073
  C     -1.034430   -0.868403    0.219985
  O     -1.622513   -1.701971    0.884267
  C      1.937352    0.049601    0.203294
  C      2.825516    1.032689    0.251240
  C      1.863057   -0.951981    1.316963
  H     -3.441805    0.597501    0.251296
  H     -2.784093    0.360998    1.867310
  H     -2.767824    1.972902    1.135689
  H     -1.752509    0.771012   -1.748525
  H     -1.376094    2.309495   -0.986616
  H      0.403596    1.206933   -2.580908
  H      0.925489    2.004674   -1.105198
  H     -0.563015   -1.357704   -1.758602
  H      0.420974   -2.207109   -0.580834
  H      3.476228    1.161389    1.098961
  H      2.955454    1.741809   -0.547949
  H      2.510365   -0.651782    2.136669
  H      0.850619   -1.063527    1.700183
  H      2.191718   -1.928995    0.964001

 Total Charge           Charge          ....    0
 Multiplicity           Mult            ....    1
 Number of Electrons    NEL             ....   84
 Basis Dimension        Dim             ....  186

ORBITAL ENERGIES
----------------

  NO   OCC          E(Eh)            E(eV)
   0   2.0000     -18.739591      -509.9302
   1   2.0000      -9.971137      -271.3284
   2   2.0000      -9.910018      -269.6653
   3   2.0000      -9.905161      -269.5331
   4   2.0000      -9.900599      -269.4090
   5   2.0000      -9.895731      -269.2765
   6   2.0000      -9.894070      -269.2313
   7   2.0000      -9.892327      -269.1839
   8   2.0000      -9.884576      -268.9730
   9   2.0000      -9.876097      -268.7423
  10   2.0000      -9.875506      -268.7262
  11   2.0000      -0.934640       -25.4329
  12   2.0000      -0.775346       -21.0982
  13   2.0000      -0.726548       -19.7704
  14   2.0000      -0.685101       -18.6425
  15   2.0000      -0.662457       -18.0264
  16   2.0000      -0.620478       -16.8841
  17   2.0000      -0.601503       -16.3677
  18   2.0000      -0.557606       -15.1732
  19   2.0000      -0.532265       -14.4837
  20   2.0000      -0.475217       -12.9313
  21   2.0000      -0.466583       -12.6964
  22   2.0000      -0.438720       -11.9382
  23   2.0000      -0.428999       -11.6737
  24   2.0000      -0.416967       -11.3462
  25   2.0000      -0.395812       -10.7706
  26   2.0000      -0.384069       -10.4510
  27   2.0000      -0.377533       -10.2732
  28   2.0000      -0.375365       -10.2142
  29   2.0000      -0.361636        -9.8406
  30   2.0000      -0.353789        -9.6271
  31   2.0000      -0.339498        -9.2382
  32   2.0000      -0.337385        -9.1807
  33   2.0000      -0.328492        -8.9387
  34   2.0000      -0.321992        -8.7618
  35   2.0000      -0.315020        -8.5721
  36   2.0000      -0.302725        -8.2376
  37   2.0000      -0.291677        -7.9369
  38   2.0000      -0.282793        -7.6952
  39   2.0000      -0.273255        -7.4357
  40   2.0000      -0.219483        -5.9724
  41   2.0000      -0.192608        -5.2411
  42   0.0000      -0.052662        -1.4330
  43   0.0000      -0.024037        -0.6541
  44   0.0000       0.025083         0.6825
  45   0.0000       0.050436         1.3724
  46   0.0000       0.057751         1.5715

MULLIKEN ATOMIC CHARGES
-----------------------
   0 C :   -0.204607
   1 C :   -0.171497
   2 H :    0.102583
   3 C :   -0.143146
   4 C :   -0.094639
   5 C :   -0.146578
   6 H :    0.090732
   7 C :   -0.042157
   8 C :   -0.046496
   9 O :   -0.167668
  10 C :   -0.084539
  11 C :   -0.243706
  12 C :   -0.216569
  13 H :    0.095530
  14 H :    0.115258
  15 H :    0.095292
  16 H :    0.079450
  17 H :    0.089971
  18 H :    0.078139
  19 H :    0.088824
  20 H :    0.108308
  21 H :    0.092330
  22 H :    0.086976
  23 H :    0.093491
  24 H :    0.100469
  25 H :    0.129973
  26 H :    0.114275
Sum of atomic charges:   -0.0000000

LOEWDIN ATOMIC CHARGES
----------------------
   0 C :   -0.323505
   1 C :   -0.179568
   2 H :    0.144056
   3 C :   -0.213660
   4 C :   -0.214020
   5 C :   -0.133223
   6 H :    0.137186
   7 C :   -0.238724
   8 C :    0.048334
   9 O :   -0.131606
  10 C :   -0.057356
  11 C :   -0.268842
  12 C :   -0.325240
  13 H :    0.120798
  14 H :    0.127193
  15 H :    0.118367
  16 H :    0.116011
  17 H :    0.123822
  18 H :    0.119091
  19 H :    0.122635
  20 H :    0.147424
  21 H :    0.132813
  22 H :    0.119258
  23 H :    0.116662
  24 H :    0.126772
  25 H :    0.132214
  26 H :    0.133110

  Mayer bond orders larger than 0.100000
B(  0-C ,  1-C ) :   1.1292 B(  0-C , 13-H ) :   0.9516 B(  0-C , 14-H ) :   0.9392
B(  0-C , 15-H ) :   0.9467 B(  1-C ,  2-H ) :   0.8389 B(  1-C ,  3-C ) :   1.1183
B(  1-C ,  8-C ) :   0.9332 B(  3-C ,  4-C ) :   1.1578 B(  3-C , 16-H ) :   0.9007
B(  3-C , 17-H ) :   0.9150 B(  4-C ,  5-C ) :   1.0685 B(  4-C , 18-H ) :   0.9097
B(  4-C , 19-H ) :   0.9074 B(  5-C ,  6-H ) :   0.8672 B(  5-C ,  7-C ) :   1.1319
B(  5-C , 10-C ) :   0.9863 B(  7-C ,  8-C ) :   1.0324 B(  7-C , 20-H ) :   0.8597
B(  7-C , 21-H ) :   0.8755 B(  8-C ,  9-O ) :   2.1668 B( 10-C , 11-C ) :   2.0321
B( 10-C , 12-C ) :   1.1487 B( 11-C , 22-H ) :   0.9055 B( 11-C , 23-H ) :   0.9076
B( 12-C , 24-H ) :   0.9313 B( 12-C , 25-H ) :   0.9083 B( 12-C , 26-H ) :   0.9193

Dispersion correction           -0.029802893
FINAL SINGLE POINT ENERGY      -464.819727941403

DIPOLE MOMENT
-------------

Method             : SCF
Type of density    : Electron Density
Multiplicity       :   1
Irrep              :   0
Energy             :  -464.9057879883445139 Eh
Relativity type    :
Basis              : AO
                                X                 Y                 Z
Electronic contribution:     -1.627639358      -4.496231641       0.288898503
Nuclear contribution   :      2.090750099       5.067024898      -0.883571440
                        -----------------------------------------
Total Dipole Moment    :      0.463110741       0.570793257      -0.594672937
                        -----------------------------------------
Magnitude (a.u.)       :      0.945469409
Magnitude (Debye)      :      2.403192252

Rotational constants in cm-1:             0.052578             0.030734             0.025548
Rotational constants in MHz :          1576.248733           921.370155           765.915962

                             ****ORCA TERMINATED NORMALLY****
TOTAL RUN TIME: 0 days 0 hours 0 minutes 17 seconds 543 msec
