                         Program Version 6.0.0  -   RELEASE  -
|  1> ! r2scan-3c def2/J RI DEFGRID2 scfconv6 printgap
|  2> %output
|  3>     printlevel normal
|  4> end
|  5> * xyz 0 1
|  6> C -4.2216419476 -0.3135464879 -0.0714799683
|  7> C -2.7392913262 -0.1100944074 -0.0219304738
|  8> C -1.9396378354 -0.9303439336 0.7671907487
|  9> C -0.5717212787 -0.7449564658 0.8280748983
| 10> C 0.0285965708 0.2765166983 0.0981413022
| 11> C -0.7670246528 1.1161475759 -0.6716288297
| 12> C -2.1334408022 0.9151342723 -0.7382887766
| 13> C 1.4915564113 0.5536586077 0.2127370129
| 14> O 1.8831733726 1.6355647579 0.6673775057
| 15> N 2.3402156075 -0.4069103932 -0.1793698387
| 16> C 3.7672299792 -0.2253452547 -0.0235622966
| 17> C 1.9518891585 -1.6442805756 -0.8160475132
| 18> H -4.4661465935 -1.3722500399 -0.0397180863
| 19> H -4.6874896461 0.1647529844 0.7896732647
| 20> H -4.6430873787 0.1241799313 -0.9721642158
| 21> H -2.3953517283 -1.7240679289 1.3403092756
| 22> H 0.0336097114 -1.3850199792 1.4523145225
| 23> H -0.3034484965 1.9238559844 -1.2191988371
| 24> H -2.7370236632 1.568463591 -1.3508224388
| 25> H 4.1810604256 -1.046018831 0.5628597225
| 26> H 3.9390516239 0.7174204576 0.4919380453
| 27> H 4.2536848659 -0.1979010737 -0.9995984245
| 28> H 2.5576726324 -1.7854593032 -1.7119979445
| 29> H 0.9032510975 -1.6163544672 -1.0968407812
| 30> H 2.1239701165 -2.4864789167 -0.1428039698
| 31> *
| 32>
| 33>                          ****END OF INPUT****

CARTESIAN COORDINATES (ANGSTROEM)
---------------------------------
  C     -4.221642   -0.313546   -0.071480
  C     -2.739291   -0.110094   -0.021930
  C     -1.939638   -0.930344    0.767191
  C     -0.571721   -0.744956    0.828075
  C      0.028597    0.276517    0.098141
  C     -0.767025    1.116148   -0.671629
  C     -2.133441    0.915134   -0.738289
  C      1.491556    0.553659    0.212737
  O      1.883173    1.635565    0.667378
  N      2.340216   -0.406910   -0.179370
  C      3.767230   -0.225345   -0.023562
  C      1.951889   -1.644281   -0.816048
  H     -4.466147   -1.372250   -0.039718
  H     -4.687490    0.164753    0.789673
  H     -4.643087    0.124180   -0.972164
  H     -2.395352   -1.724068    1.340309
  H      0.033610   -1.385020    1.452315
  H     -0.303448    1.923856   -1.219199
  H     -2.737024    1.568464   -1.350822
  H      4.181060   -1.046019    0.562860
  H      3.939052    0.717420    0.491938
  H      4.253685   -0.197901   -0.999598
  H      2.557673   -1.785459   -1.711998
  H      0.903251   -1.616354   -1.096841
  H      2.123970   -2.486479   -0.142804

 Total Charge           Charge          ....    0
 Multiplicity           Mult            ....    1
 Number of Electrons    NEL             ....   88
 Basis Dimension        Dim             ....  303

ORBITAL ENERGIES
----------------

  NO   OCC          E(Eh)            E(eV)
   0   2.0000     -18.902160      -514.3539
   1   2.0000     -14.195123      -386.2689
   2   2.0000     -10.120553      -275.3942
   3   2.0000     -10.068274      -273.9717
   4   2.0000     -10.058493      -273.7055
   5   2.0000     -10.048755      -273.4405
   6   2.0000     -10.044147      -273.3151
   7   2.0000     -10.041315      -273.2381
   8   2.0000     -10.038338      -273.1571
   9   2.0000     -10.036799      -273.1152
  10   2.0000     -10.035513      -273.0802
  11   2.0000     -10.031604      -272.9738
  12   2.0000      -0.990897       -26.9637
  13   2.0000      -0.904596       -24.6153
  14   2.0000      -0.834871       -22.7180
  15   2.0000      -0.755794       -20.5662
  16   2.0000      -0.721045       -19.6206
  17   2.0000      -0.697614       -18.9830
  18   2.0000      -0.683731       -18.6053
  19   2.0000      -0.651921       -17.7397
  20   2.0000      -0.583761       -15.8849
  21   2.0000      -0.568280       -15.4637
  22   2.0000      -0.523384       -14.2420
  23   2.0000      -0.495067       -13.4715
  24   2.0000      -0.456076       -12.4105
  25   2.0000      -0.446792       -12.1578
  26   2.0000      -0.438104       -11.9214
  27   2.0000      -0.433088       -11.7849
  28   2.0000      -0.412250       -11.2179
  29   2.0000      -0.398086       -10.8325
  30   2.0000      -0.393852       -10.7173
  31   2.0000      -0.377991       -10.2857
  32   2.0000      -0.375161       -10.2087
  33   2.0000      -0.367284        -9.9943
  34   2.0000      -0.363517        -9.8918
  35   2.0000      -0.354017        -9.6333
  36   2.0000      -0.339144        -9.2286
  37   2.0000      -0.328390        -8.9360
  38   2.0000      -0.321324        -8.7437
  39   2.0000      -0.309874        -8.4321
  40   2.0000      -0.242261        -6.5923
  41   2.0000      -0.235584        -6.4106
  42   2.0000      -0.215383        -5.8609
  43   2.0000      -0.204449        -5.5633
  44   0.0000      -0.043167        -1.1746
  45   0.0000      -0.036994        -1.0066
  46   0.0000       0.013738         0.3738
  47   0.0000       0.063437         1.7262
  48   0.0000       0.081128         2.2076

MULLIKEN ATOMIC CHARGES
-----------------------
   0 C :   -0.543692
   1 C :    0.236499
   2 C :   -0.214313
   3 C :   -0.199702
   4 C :    0.069880
   5 C :   -0.186554
   6 C :   -0.222967
   7 C :    0.210510
   8 O :   -0.449841
   9 N :    0.079399
  10 C :   -0.412365
  11 C :   -0.401643
  12 H :    0.152410
  13 H :    0.172916
  14 H :    0.151704
  15 H :    0.145132
  16 H :    0.145261
  17 H :    0.155149
  18 H :    0.145938
  19 H :    0.139114
  20 H :    0.203502
  21 H :    0.146330
  22 H :    0.142515
  23 H :    0.175056
  24 H :    0.159759
Sum of atomic charges:   -0.0000000

LOEWDIN ATOMIC CHARGES
----------------------
   0 C :   -0.388968
   1 C :   -0.094050
   2 C :   -0.160474
   3 C :   -0.139303
   4 C :   -0.041098
   5 C :   -0.117724
   6 C :   -0.159129
   7 C :    0.349009
   8 O :   -0.479210
   9 N :   -0.834439
  10 C :   -0.110576
  11 C :   -0.105673
  12 H :    0.162019
  13 H :    0.167902
  14 H :    0.160666
  15 H :    0.169311
  16 H :    0.173993
  17 H :    0.180074
  18 H :    0.169506
  19 H :    0.173072
  20 H :    0.210484
  21 H :    0.172876
  22 H :    0.175015
  23 H :    0.196632
  24 H :    0.170084

  Mayer bond orders larger than 0.100000
B(  0-C ,  1-C ) :   0.7856 B(  0-C , 12-H ) :   0.9871 B(  0-C , 13-H ) :   0.9683
B(  0-C , 14-H ) :   0.9913 B(  1-C ,  2-C ) :   1.3854 B(  1-C ,  6-C ) :   1.3951
B(  2-C ,  3-C ) :   1.4436 B(  2-C , 15-H ) :   0.9463 B(  3-C ,  4-C ) :   1.4086
B(  3-C , 16-H ) :   0.9480 B(  4-C ,  5-C ) :   1.4297 B(  4-C ,  7-C ) :   0.8794
B(  4-C ,  8-O ) :  -0.1080 B(  5-C ,  6-C ) :   1.4222 B(  5-C , 17-H ) :   0.9566
B(  6-C , 18-H ) :   0.9448 B(  7-C ,  8-O ) :   1.8754 B(  7-C ,  9-N ) :   1.2352
B(  9-N , 10-C ) :   0.9261 B(  9-N , 11-C ) :   0.9192 B( 10-C , 19-H ) :   0.9508
B( 10-C , 20-H ) :   0.9552 B( 10-C , 21-H ) :   0.9578 B( 11-C , 22-H ) :   0.9531
B( 11-C , 23-H ) :   0.9554 B( 11-C , 24-H ) :   0.9588

Dispersion correction           -0.009189658
FINAL SINGLE POINT ENERGY      -518.740424446771

DIPOLE MOMENT
-------------

Method             : SCF
Type of density    : Electron Density
Multiplicity       :   1
Irrep              :   0
Energy             :  -518.7471416746822115 Eh
Relativity type    :
Basis              : AO
                                X                 Y                 Z
Electronic contribution:      0.832202990       5.237169696       2.088258460
Nuclear contribution   :     -1.122819833      -6.652950864      -2.708077684
                        -----------------------------------------
Total Dipole Moment    :     -0.290616844      -1.415781169      -0.619819225
                        -----------------------------------------
Magnitude (a.u.)       :      1.572599866
Magnitude (Debye)      :      3.997231194

Rotational constants in cm-1:             0.079808             0.017019             0.015532
Rotational constants in MHz :          2392.590095           510.220694           465.637044

                             ****ORCA TERMINATED NORMALLY****
TOTAL RUN TIME: 0 days 0 hours 0 minutes 41 seconds 402 msec
