                         Program Version 6.0.0  -   RELEASE  -
|  1> ! r2scan-3c def2/J RI DEFGRID2 scfconv6 printgap
|  2> %output
|  3>     printlevel normal
|  4> end
|  5> %cpcm
|  6>     smd true
|  7>     smdsolvent "water"
|  8> end
|  9> * xyz 0 1
| 10> C -4.2216419476 -0.3135464879 -0.0714799683
| 11> C -2.7392913262 -0.1100944074 -0.0219304738
| 12> C -1.9396378354 -0.9303439336 0.7671907487
| 13> C -0.5717212787 -0.7449564658 0.8280748983
| 14> C 0.0285965708 0.2765166983 0.0981413022
| 15> C -0.7670246528 1.1161475759 -0.6716288297
| 16> C -2.1334408022 0.9151342723 -0.7382887766
| 17> C 1.4915564113 0.5536586077 0.2127370129
| 18> O 1.8831733726 1.6355647579 0.6673775057
| 19> N 2.3402156075 -0.4069103932 -0.1793698387
| 20> C 3.7672299792 -0.2253452547 -0.0235622966
| 21> C 1.9518891585 -1.6442805756 -0.8160475132
| 22> H -4.4661465935 -1.3722500399 -0.0397180863
| 23> H -4.6874896461 0.1647529844 0.7896732647
| 24> H -4.6430873787 0.1241799313 -0.9721642158
| 25> H -2.3953517283 -1.7240679289 1.3403092756
| 26> H 0.0336097114 -1.3850199792 1.4523145225
| 27> H -0.3034484965 1.9238559844 -1.2191988371
| 28> H -2.7370236632 1.568463591 -1.3508224388
| 29> H 4.1810604256 -1.046018831 0.5628597225
| 30> H 3.9390516239 0.7174204576 0.4919380453
| 31> H 4.2536848659 -0.1979010737 -0.9995984245
| 32> H 2.5576726324 -1.7854593032 -1.7119979445
| 33> H 0.9032510975 -1.6163544672 -1.0968407812
| 34> H 2.1239701165 -2.4864789167 -0.1428039698
| 35> *
| 36>
| 37>                          ****END OF INPUT****

CARTESIAN COORDINATES (ANGSTROEM)
---------------------------------
  C     -4.221642   -0.313546   -0.071480
  C     -2.739291   -0.110094   -0.021930
  C     -1.939638   -0.930344    0.767191
  C     -0.571721   -0.744956    0.828075
  C      0.028597    0.276517    0.098141
  C     -0.767025    1.116148   -0.671629
  C     -2.133441    0.915134   -0.738289
  C      1.491556    0.553659    0.212737
  O      1.883173    1.635565    0.667378
  N      2.340216   -0.406910   -0.179370
  C      3.767230   -0.225345   -0.023562
  C      1.951889   -1.644281   -0.816048
  H     -4.466147   -1.372250   -0.039718
  H     -4.687490    0.164753    0.789673
  H     -4.643087    0.124180   -0.972164
  H     -2.395352   -1.724068    1.340309
  H      0.033610   -1.385020    1.452315
  H     -0.303448    1.923856   -1.219199
  H     -2.737024    1.568464   -1.350822
  H      4.181060   -1.046019    0.562860
  H      3.939052    0.717420    0.491938
  H      4.253685   -0.197901   -0.999598
  H      2.557673   -1.785459   -1.711998
  H      0.903251   -1.616354   -1.096841
  H      2.123970   -2.486479   -0.142804

 Total Charge           Charge          ....    0
 Multiplicity           Mult            ....    1
 Number of Electrons    NEL             ....   88
 Basis Dimension        Dim             ....  303

ORBITAL ENERGIES
----------------

  NO   OCC          E(Eh)            E(eV)
   0   2.0000     -18.921202      -514.8721
   1   2.0000     -14.199760      -386.3951
   2   2.0000     -10.132902      -275.7303
   3   2.0000     -10.053834      -273.5787
   4   2.0000     -10.050570      -273.4899
   5   2.0000     -10.046768      -273.3865
   6   2.0000     -10.045456      -273.3508
   7   2.0000     -10.039191      -273.1803
   8   2.0000     -10.038261      -273.1550
   9   2.0000     -10.032941      -273.0102
  10   2.0000     -10.032630      -273.0018
  11   2.0000     -10.019167      -272.6354
  12   2.0000      -1.008046       -27.4303
  13   2.0000      -0.909149       -24.7392
  14   2.0000      -0.834574       -22.7099
  15   2.0000      -0.753636       -20.5075
  16   2.0000      -0.719429       -19.5767
  17   2.0000      -0.690746       -18.7962
  18   2.0000      -0.678175       -18.4541
  19   2.0000      -0.646789       -17.6000
  20   2.0000      -0.581070       -15.8117
  21   2.0000      -0.565582       -15.3903
  22   2.0000      -0.519914       -14.1476
  23   2.0000      -0.492668       -13.4062
  24   2.0000      -0.452437       -12.3114
  25   2.0000      -0.445330       -12.1180
  26   2.0000      -0.436609       -11.8807
  27   2.0000      -0.428869       -11.6701
  28   2.0000      -0.411012       -11.1842
  29   2.0000      -0.390098       -10.6151
  30   2.0000      -0.389404       -10.5962
  31   2.0000      -0.375008       -10.2045
  32   2.0000      -0.367335        -9.9957
  33   2.0000      -0.364442        -9.9170
  34   2.0000      -0.360035        -9.7971
  35   2.0000      -0.349904        -9.5214
  36   2.0000      -0.340612        -9.2685
  37   2.0000      -0.330164        -8.9842
  38   2.0000      -0.319584        -8.6963
  39   2.0000      -0.306196        -8.3320
  40   2.0000      -0.246634        -6.7112
  41   2.0000      -0.241446        -6.5701
  42   2.0000      -0.221792        -6.0353
  43   2.0000      -0.219484        -5.9725
  44   0.0000      -0.046068        -1.2536
  45   0.0000      -0.037020        -1.0074
  46   0.0000       0.005477         0.1490
  47   0.0000       0.070732         1.9247
  48   0.0000       0.094069         2.5598

MULLIKEN ATOMIC CHARGES
-----------------------
   0 C :   -0.567579
   1 C :    0.213665
   2 C :   -0.242118
   3 C :   -0.205578
   4 C :    0.035514
   5 C :   -0.221513
   6 C :   -0.259028
   7 C :    0.253514
   8 O :   -0.568756
   9 N :    0.090341
  10 C :   -0.433164
  11 C :   -0.415846
  12 H :    0.171717
  13 H :    0.187391
  14 H :    0.171044
  15 H :    0.177844
  16 H :    0.182415
  17 H :    0.181100
  18 H :    0.178511
  19 H :    0.171175
  20 H :    0.187811
  21 H :    0.177261
  22 H :    0.168976
  23 H :    0.180534
  24 H :    0.184771
Sum of atomic charges:   -0.0000000

LOEWDIN ATOMIC CHARGES
----------------------
   0 C :   -0.392727
   1 C :   -0.094702
   2 C :   -0.163082
   3 C :   -0.138056
   4 C :   -0.056953
   5 C :   -0.133982
   6 C :   -0.165740
   7 C :    0.348161
   8 O :   -0.573932
   9 N :   -0.815249
  10 C :   -0.107709
  11 C :   -0.097525
  12 H :    0.169154
  13 H :    0.174119
  14 H :    0.167089
  15 H :    0.181799
  16 H :    0.186934
  17 H :    0.186375
  18 H :    0.181390
  19 H :    0.186914
  20 H :    0.202955
  21 H :    0.185871
  22 H :    0.187184
  23 H :    0.198703
  24 H :    0.183010

  Mayer bond orders larger than 0.100000
B(  0-C ,  1-C ) :   0.8041 B(  0-C , 12-H ) :   0.9790 B(  0-C , 13-H ) :   0.9606
B(  0-C , 14-H ) :   0.9853 B(  1-C ,  2-C ) :   1.3537 B(  1-C ,  6-C ) :   1.3677
B(  2-C ,  3-C ) :   1.4247 B(  2-C , 15-H ) :   0.9576 B(  3-C ,  4-C ) :   1.3886
B(  3-C , 16-H ) :   0.9524 B(  4-C ,  5-C ) :   1.3682 B(  4-C ,  7-C ) :   0.8847
B(  4-C ,  8-O ) :  -0.1130 B(  5-C ,  6-C ) :   1.4080 B(  5-C , 17-H ) :   0.9625
B(  6-C , 18-H ) :   0.9559 B(  7-C ,  8-O ) :   1.7900 B(  7-C ,  9-N ) :   1.3038
B(  9-N , 10-C ) :   0.9143 B(  9-N , 11-C ) :   0.9172 B( 10-C , 19-H ) :   0.9428
B( 10-C , 20-H ) :   0.9575 B( 10-C , 21-H ) :   0.9478 B( 11-C , 22-H ) :   0.9451
B( 11-C , 23-H ) :   0.9504 B( 11-C , 24-H ) :   0.9476

Dispersion correction           -0.009189658
FINAL SINGLE POINT ENERGY      -518.753174838304

DIPOLE MOMENT
-------------

Method             : SCF
Type of density    : Electron Density
Multiplicity       :   1
Irrep              :   0
Energy             :  -518.7598920662152295 Eh
Relativity type    :
Basis              : AO
                                X                 Y                 Z
Electronic contribution:      0.714186664       4.390065810       1.781460640
Nuclear contribution   :     -1.122819833      -6.652950864      -2.708077684
                        -----------------------------------------
Total Dipole Moment    :     -0.408633170      -2.262885055      -0.926617045
                        -----------------------------------------
Magnitude (a.u.)       :      2.479162961
Magnitude (Debye)      :      6.301531455

Rotational constants in cm-1:             0.079808             0.017019             0.015532
Rotational constants in MHz :          2392.590095           510.220694           465.637044

                             ****ORCA TERMINATED NORMALLY****
TOTAL RUN TIME: 0 days 0 hours 0 minutes 52 seconds 27 msec
