                         Program Version 6.0.0  -   RELEASE  -
|  1> ! pbe def2-sv(p) def2/J RI DEFGRID1 loosescf d4 GCP(DFT/SV(P)) printgap
|  2> %output
|  3>     printlevel normal
|  4> end
|  5> * xyz 0 1
|  6> C 0.7403876821 -0.0003632483 0.0001558261
|  7> C 1.4443370511 0.9575402373 -0.7264498598
|  8> C 2.838106251 0.963657731 -0.7299307383
|  9> C 3.5346820834 0.0004171472 -0.0003517152
| 10> C 2.8389075377 -0.9633367324 0.7292974319
| 11> C 1.4450817877 -0.9580725316 0.7264092255
| 12> Cl 0.5842292941 -2.1276794561 1.6349361074
| 13> Cl 3.6958893832 -2.1455284448 1.6254198994
| 14> Cl 5.246482569 0.0011500261 -0.0003536078
| 15> Cl 3.6939890893 2.1463026033 -1.6264110527
| 16> Cl 0.5824377308 2.1267223496 -1.6346397017
| 17> C -0.7403984949 -0.0004266458 0.0003343802
| 18> C -1.4446394525 0.9574697338 0.7267841014
| 19> C -2.8384428469 0.9634392017 0.7297783289
| 20> C -3.53471968 0.0001572243 -9.53493e-05
| 21> C -2.8386359831 -0.9633761085 -0.7297045138
| 22> C -1.444845473 -0.9580373553 -0.7262788857
| 23> Cl -0.5833884981 -2.1278739231 -1.6342890149
| 24> Cl -3.6951250617 -2.1460254738 -1.6255962455
| 25> Cl -5.2465596693 0.0006007809 -0.0002944525
| 26> Cl -3.6947412869 2.1458871378 1.626115466
| 27> Cl -0.5831527254 2.1267599279 1.6351301405
| 28> *
| 29>
| 30>                          ****END OF INPUT****

CARTESIAN COORDINATES (ANGSTROEM)
---------------------------------
  C      0.740388   -0.000363    0.000156
  C      1.444337    0.957540   -0.726450
  C      2.838106    0.963658   -0.729931
  C      3.534682    0.000417   -0.000352
  C      2.838908   -0.963337    0.729297
  C      1.445082   -0.958073    0.726409
  Cl     0.584229   -2.127679    1.634936
  Cl     3.695889   -2.145528    1.625420
  Cl     5.246483    0.001150   -0.000354
  Cl     3.693989    2.146303   -1.626411
  Cl     0.582438    2.126722   -1.634640
  C     -0.740398   -0.000427    0.000334
  C     -1.444639    0.957470    0.726784
  C     -2.838443    0.963439    0.729778
  C     -3.534720    0.000157   -0.000095
  C     -2.838636   -0.963376   -0.729705
  C     -1.444845   -0.958037   -0.726279
  Cl    -0.583388   -2.127874   -1.634289
  Cl    -3.695125   -2.146025   -1.625596
  Cl    -5.246560    0.000601   -0.000294
  Cl    -3.694741    2.145887    1.626115
  Cl    -0.583153    2.126760    1.635130

 Total Charge           Charge          ....    0
 Multiplicity           Mult            ....    1
 Number of Electrons    NEL             ....  242
 Basis Dimension        Dim             ....  348

ORBITAL ENERGIES
----------------

  NO   OCC          E(Eh)            E(eV)
   0   2.0000    -100.667222     -2739.2944
   1   2.0000    -100.667206     -2739.2939
   2   2.0000    -100.667193     -2739.2936
   3   2.0000    -100.667173     -2739.2930
   4   2.0000    -100.667076     -2739.2904
   5   2.0000    -100.667073     -2739.2903
   6   2.0000    -100.665167     -2739.2384
   7   2.0000    -100.665159     -2739.2382
   8   2.0000    -100.665150     -2739.2380
   9   2.0000    -100.665147     -2739.2379
  10   2.0000      -9.989343      -271.8238
  11   2.0000      -9.989296      -271.8226
  12   2.0000      -9.989282      -271.8222
  13   2.0000      -9.989249      -271.8213
  14   2.0000      -9.989023      -271.8151
  15   2.0000      -9.989015      -271.8149
  16   2.0000      -9.984943      -271.7041
  17   2.0000      -9.984932      -271.7038
  18   2.0000      -9.984929      -271.7037
  19   2.0000      -9.984923      -271.7036
  20   2.0000      -9.956753      -270.9370
  21   2.0000      -9.956711      -270.9359
  22   2.0000      -9.202918      -250.4241
  23   2.0000      -9.202908      -250.4239
  24   2.0000      -9.202893      -250.4234
  25   2.0000      -9.202871      -250.4228
  26   2.0000      -9.202862      -250.4226
  27   2.0000      -9.202858      -250.4225
  28   2.0000      -9.200948      -250.3705
  29   2.0000      -9.200942      -250.3704
  30   2.0000      -9.200933      -250.3701
  31   2.0000      -9.200929      -250.3700
  32   2.0000      -7.034647      -191.4225
  33   2.0000      -7.034644      -191.4224
  34   2.0000      -7.034514      -191.4189
  35   2.0000      -7.034511      -191.4188
  36   2.0000      -7.034503      -191.4186
  37   2.0000      -7.034503      -191.4186
  38   2.0000      -7.032729      -191.3703
  39   2.0000      -7.032726      -191.3702
  40   2.0000      -7.032724      -191.3701
  41   2.0000      -7.032720      -191.3700
  42   2.0000      -7.022937      -191.1038
  43   2.0000      -7.022935      -191.1038
  44   2.0000      -7.022918      -191.1033
  45   2.0000      -7.022916      -191.1033
  46   2.0000      -7.022900      -191.1028
  47   2.0000      -7.022899      -191.1028
  48   2.0000      -7.021944      -191.0768
  49   2.0000      -7.021942      -191.0768
  50   2.0000      -7.021932      -191.0765
  51   2.0000      -7.021931      -191.0764
  52   2.0000      -7.021698      -191.0701
  53   2.0000      -7.021695      -191.0700
  54   2.0000      -7.020955      -191.0499
  55   2.0000      -7.020951      -191.0498
  56   2.0000      -7.020949      -191.0497
  57   2.0000      -7.020945      -191.0496
  58   2.0000      -7.019840      -191.0196
  59   2.0000      -7.019837      -191.0195
  60   2.0000      -7.019834      -191.0194
  61   2.0000      -7.019831      -191.0193
  62   2.0000      -0.890500       -24.2317
  63   2.0000      -0.880702       -23.9651
  64   2.0000      -0.848304       -23.0835
  65   2.0000      -0.845328       -23.0025
  66   2.0000      -0.843581       -22.9550
  67   2.0000      -0.826203       -22.4821
  68   2.0000      -0.805041       -21.9063
  69   2.0000      -0.801540       -21.8110
  70   2.0000      -0.792608       -21.5680
  71   2.0000      -0.787717       -21.4349
  72   2.0000      -0.765200       -20.8222
  73   2.0000      -0.758928       -20.6515
  74   2.0000      -0.710926       -19.3453
  75   2.0000      -0.664337       -18.0775
  76   2.0000      -0.664291       -18.0763
  77   2.0000      -0.661439       -17.9987
  78   2.0000      -0.596356       -16.2277
  79   2.0000      -0.568272       -15.4635
  80   2.0000      -0.562855       -15.3161
  81   2.0000      -0.554224       -15.0812
  82   2.0000      -0.512482       -13.9454
  83   2.0000      -0.502624       -13.6771
  84   2.0000      -0.496070       -13.4987
  85   2.0000      -0.476408       -12.9637
  86   2.0000      -0.448607       -12.2072
  87   2.0000      -0.439288       -11.9536
  88   2.0000      -0.428842       -11.6694
  89   2.0000      -0.428738       -11.6665
  90   2.0000      -0.428383       -11.6569
  91   2.0000      -0.424466       -11.5503
  92   2.0000      -0.423133       -11.5140
  93   2.0000      -0.407194       -11.0803
  94   2.0000      -0.393092       -10.6966
  95   2.0000      -0.390821       -10.6348
  96   2.0000      -0.383238       -10.4284
  97   2.0000      -0.374444       -10.1891
  98   2.0000      -0.363623        -9.8947
  99   2.0000      -0.353455        -9.6180
 100   2.0000      -0.352187        -9.5835
 101   2.0000      -0.324092        -8.8190
 102   2.0000      -0.314691        -8.5632
 103   2.0000      -0.309229        -8.4146
 104   2.0000      -0.309191        -8.4135
 105   2.0000      -0.307798        -8.3756
 106   2.0000      -0.307622        -8.3708
 107   2.0000      -0.306985        -8.3535
 108   2.0000      -0.306145        -8.3306
 109   2.0000      -0.296282        -8.0622
 110   2.0000      -0.293668        -7.9911
 111   2.0000      -0.284740        -7.7482
 112   2.0000      -0.283392        -7.7115
 113   2.0000      -0.283231        -7.7071
 114   2.0000      -0.278979        -7.5914
 115   2.0000      -0.264941        -7.2094
 116   2.0000      -0.264188        -7.1889
 117   2.0000      -0.239615        -6.5203
 118   2.0000      -0.231848        -6.3089
 119   2.0000      -0.228022        -6.2048
 120   2.0000      -0.228004        -6.2043
 121   0.0000      -0.089406        -2.4329
 122   0.0000      -0.078167        -2.1270
 123   0.0000      -0.074354        -2.0233
 124   0.0000      -0.071531        -1.9465
 125   0.0000      -0.068311        -1.8588

MULLIKEN ATOMIC CHARGES
-----------------------
   0 C :   -0.060029
   1 C :    0.035742
   2 C :    0.013648
   3 C :    0.007214
   4 C :    0.013607
   5 C :    0.035736
   6 Cl:   -0.010956
   7 Cl:   -0.009785
   8 Cl:   -0.004448
   9 Cl:   -0.009763
  10 Cl:   -0.010969
  11 C :   -0.060081
  12 C :    0.035754
  13 C :    0.013613
  14 C :    0.007253
  15 C :    0.013546
  16 C :    0.035839
  17 Cl:   -0.010982
  18 Cl:   -0.009779
  19 Cl:   -0.004447
  20 Cl:   -0.009765
  21 Cl:   -0.010951
Sum of atomic charges:    0.0000000

LOEWDIN ATOMIC CHARGES
----------------------
   0 C :   -0.083875
   1 C :   -0.148986
   2 C :   -0.182272
   3 C :   -0.173678
   4 C :   -0.182248
   5 C :   -0.149014
   6 Cl:    0.188056
   7 Cl:    0.179572
   8 Cl:    0.184795
   9 Cl:    0.179614
  10 Cl:    0.188029
  11 C :   -0.083861
  12 C :   -0.149020
  13 C :   -0.182264
  14 C :   -0.173664
  15 C :   -0.182266
  16 C :   -0.148926
  17 Cl:    0.187945
  18 Cl:    0.179613
  19 Cl:    0.184773
  20 Cl:    0.179616
  21 Cl:    0.188061

  Mayer bond orders larger than 0.100000
B(  0-C ,  1-C ) :   1.4034 B(  0-C ,  5-C ) :   1.4034 B(  0-C , 11-C ) :   0.9834
B(  1-C ,  2-C ) :   1.3766 B(  1-C , 10-Cl) :   1.1279 B(  2-C ,  3-C ) :   1.4026
B(  2-C ,  9-Cl) :   1.1216 B(  3-C ,  4-C ) :   1.4026 B(  3-C ,  8-Cl) :   1.1250
B(  4-C ,  5-C ) :   1.3765 B(  4-C ,  7-Cl) :   1.1216 B(  5-C ,  6-Cl) :   1.1280
B( 11-C , 12-C ) :   1.4034 B( 11-C , 16-C ) :   1.4035 B( 12-C , 13-C ) :   1.3766
B( 12-C , 21-Cl) :   1.1280 B( 13-C , 14-C ) :   1.4026 B( 13-C , 20-Cl) :   1.1216
B( 14-C , 15-C ) :   1.4027 B( 14-C , 19-Cl) :   1.1250 B( 15-C , 16-C ) :   1.3766
B( 15-C , 18-Cl) :   1.1216 B( 16-C , 17-Cl) :   1.1279

Dispersion correction           -0.063207532
FINAL SINGLE POINT ENERGY     -5055.068907824932

DIPOLE MOMENT
-------------

Method             : SCF
Type of density    : Electron Density
Multiplicity       :   1
Irrep              :   0
Energy             : -5055.0665953006455311 Eh
Relativity type    :
Basis              : AO
                                X                 Y                 Z
Electronic contribution:     -0.000011655       0.000569058       0.000194192
Nuclear contribution   :     -0.000081640      -0.000423504      -0.000023540
                        -----------------------------------------
Total Dipole Moment    :     -0.000093295       0.000145555       0.000170652
                        -----------------------------------------
Magnitude (a.u.)       :      0.000242924
Magnitude (Debye)      :      0.000617465

Rotational constants in cm-1:             0.007704             0.003042             0.002754
Rotational constants in MHz :           230.951717            91.197699            82.575150

                             ****ORCA TERMINATED NORMALLY****
TOTAL RUN TIME: 0 days 0 hours 0 minutes 19 seconds 660 msec
