                         Program Version 6.0.0  -   RELEASE  -
|  1> ! r2scan-3c def2/J RI DEFGRID2 scfconv6 printgap
|  2> %output
|  3>     printlevel normal
|  4> end
|  5> * xyz 0 1
|  6> C -2.6218514674 -1.4567465854 -0.0040857855
|  7> O -2.2180088778 -0.1024888127 -0.0160830818
|  8> C -0.8772987859 0.1832678812 -0.0084563777
|  9> C -0.5523551427 1.5401076598 -0.0300784489
| 10> C 0.7743621958 1.9224201055 -0.0227447693
| 11> C 1.7840508309 0.9801354124 0.0071125948
| 12> C 1.4706378128 -0.3796136186 0.0290866054
| 13> C 0.1274487896 -0.7689646044 0.0239936374
| 14> N 2.4623902105 -1.3303083425 -0.0131394947
| 15> H -2.2845037525 -1.9619795403 0.9051904053
| 16> H -2.2494900464 -1.9884459632 -0.8839929852
| 17> H -3.7091664509 -1.4316662932 -0.0253618744
| 18> H -1.351316291 2.2634454786 -0.0514734962
| 19> H 1.0239560681 2.9728462165 -0.0376656465
| 20> H 2.8183554154 1.288918029 0.0112304231
| 21> H -0.1026472151 -1.8226893824 0.0411565539
| 22> H 3.3821984649 -1.0269156899 0.2588878024
| 23> H 2.2104494498 -2.2587001808 0.2815704813
| 24> *
| 25>
| 26>                          ****END OF INPUT****

CARTESIAN COORDINATES (ANGSTROEM)
---------------------------------
  C     -2.621851   -1.456747   -0.004086
  O     -2.218009   -0.102489   -0.016083
  C     -0.877299    0.183268   -0.008456
  C     -0.552355    1.540108   -0.030078
  C      0.774362    1.922420   -0.022745
  C      1.784051    0.980135    0.007113
  C      1.470638   -0.379614    0.029087
  C      0.127449   -0.768965    0.023994
  N      2.462390   -1.330308   -0.013139
  H     -2.284504   -1.961980    0.905190
  H     -2.249490   -1.988446   -0.883993
  H     -3.709166   -1.431666   -0.025362
  H     -1.351316    2.263445   -0.051473
  H      1.023956    2.972846   -0.037666
  H      2.818355    1.288918    0.011230
  H     -0.102647   -1.822689    0.041157
  H      3.382198   -1.026916    0.258888
  H      2.210449   -2.258700    0.281570

 Total Charge           Charge          ....    0
 Multiplicity           Mult            ....    1
 Number of Electrons    NEL             ....   66
 Basis Dimension        Dim             ....  226

ORBITAL ENERGIES
----------------

  NO   OCC          E(Eh)            E(eV)
   0   2.0000     -18.978595      -516.4338
   1   2.0000     -14.168093      -385.5334
   2   2.0000     -10.086896      -274.4784
   3   2.0000     -10.082425      -274.3567
   4   2.0000     -10.072207      -274.0787
   5   2.0000     -10.026496      -272.8348
   6   2.0000     -10.021562      -272.7006
   7   2.0000     -10.014675      -272.5132
   8   2.0000     -10.010693      -272.4048
   9   2.0000      -1.024579       -27.8802
  10   2.0000      -0.891563       -24.2606
  11   2.0000      -0.800512       -21.7830
  12   2.0000      -0.714669       -19.4471
  13   2.0000      -0.700038       -19.0490
  14   2.0000      -0.655960       -17.8496
  15   2.0000      -0.572788       -15.5863
  16   2.0000      -0.564423       -15.3587
  17   2.0000      -0.505221       -13.7478
  18   2.0000      -0.489453       -13.3187
  19   2.0000      -0.448925       -12.2159
  20   2.0000      -0.435033       -11.8378
  21   2.0000      -0.432423       -11.7668
  22   2.0000      -0.427830       -11.6419
  23   2.0000      -0.393096       -10.6967
  24   2.0000      -0.374641       -10.1945
  25   2.0000      -0.359253        -9.7758
  26   2.0000      -0.335572        -9.1314
  27   2.0000      -0.317767        -8.6469
  28   2.0000      -0.312749        -8.5103
  29   2.0000      -0.295800        -8.0491
  30   2.0000      -0.264056        -7.1853
  31   2.0000      -0.206792        -5.6271
  32   2.0000      -0.175917        -4.7869
  33   0.0000      -0.014257        -0.3880
  34   0.0000      -0.000802        -0.0218
  35   0.0000       0.068211         1.8561
  36   0.0000       0.071996         1.9591
  37   0.0000       0.095051         2.5865

MULLIKEN ATOMIC CHARGES
-----------------------
   0 C :   -0.336639
   1 O :   -0.188485
   2 C :    0.368055
   3 C :   -0.357392
   4 C :   -0.095931
   5 C :   -0.407896
   6 C :    0.542859
   7 C :   -0.539694
   8 N :   -0.523814
   9 H :    0.150526
  10 H :    0.152542
  11 H :    0.153842
  12 H :    0.156193
  13 H :    0.146442
  14 H :    0.136916
  15 H :    0.135599
  16 H :    0.254265
  17 H :    0.252612
Sum of atomic charges:   -0.0000000

LOEWDIN ATOMIC CHARGES
----------------------
   0 C :   -0.058638
   1 O :   -0.684229
   2 C :    0.198888
   3 C :   -0.172567
   4 C :   -0.144871
   5 C :   -0.192832
   6 C :    0.136284
   7 C :   -0.172838
   8 N :   -0.605706
   9 H :    0.162984
  10 H :    0.163966
  11 H :    0.179452
  12 H :    0.178654
  13 H :    0.167635
  14 H :    0.166357
  15 H :    0.174954
  16 H :    0.251882
  17 H :    0.250627

  Mayer bond orders larger than 0.100000
B(  0-C ,  1-O ) :   0.8618 B(  0-C ,  9-H ) :   0.9646 B(  0-C , 10-H ) :   0.9646
B(  0-C , 11-H ) :   0.9681 B(  1-O ,  2-C ) :   1.0251 B(  2-C ,  3-C ) :   1.3987
B(  2-C ,  7-C ) :   1.3971 B(  3-C ,  4-C ) :   1.3969 B(  3-C , 12-H ) :   0.9467
B(  4-C ,  5-C ) :   1.4069 B(  4-C , 13-H ) :   0.9469 B(  5-C ,  6-C ) :   1.3362
B(  5-C , 14-H ) :   0.9452 B(  6-C ,  7-C ) :   1.3649 B(  6-C ,  8-N ) :   0.9391
B(  7-C , 15-H ) :   0.8892 B(  8-N , 16-H ) :   0.9274 B(  8-N , 17-H ) :   0.9273

Dispersion correction           -0.005725037
FINAL SINGLE POINT ENERGY      -402.030307478780

DIPOLE MOMENT
-------------

Method             : SCF
Type of density    : Electron Density
Multiplicity       :   1
Irrep              :   0
Energy             :  -402.0345168642791123 Eh
Relativity type    :
Basis              : AO
                                X                 Y                 Z
Electronic contribution:      0.653446212       2.808147803      -0.161815328
Nuclear contribution   :     -0.265309622      -3.728834659       0.468344391
                        -----------------------------------------
Total Dipole Moment    :      0.388136590      -0.920686855       0.306529063
                        -----------------------------------------
Magnitude (a.u.)       :      1.045119306
Magnitude (Debye)      :      2.656482162

Rotational constants in cm-1:             0.095698             0.043329             0.030012
Rotational constants in MHz :          2868.945554          1298.975055           899.734304

                             ****ORCA TERMINATED NORMALLY****
TOTAL RUN TIME: 0 days 0 hours 0 minutes 28 seconds 261 msec
