                         Program Version 6.0.0  -   RELEASE  -
|  1> ! r2scan-3c def2/J RI DEFGRID2 scfconv6 printgap
|  2> %output
|  3>     printlevel normal
|  4> end
|  5> * xyz 0 1
|  6> C -1.8303745836 -0.0841573234 -0.6255688563
|  7> C -0.8459152987 -0.0231315779 0.5392839639
|  8> C 0.156154943 -1.1799019161 0.5021852019
|  9> C 1.2115558483 -0.7254994116 -0.5041008209
| 10> C 1.3254940053 0.7915618801 -0.2931982359
| 11> C 0.0526556469 1.220293465 0.4616076265
| 12> H -1.3068702121 -0.0357836663 -1.5763557163
| 13> H -2.4027522694 -1.0086878715 -0.5916431738
| 14> H -2.5265719958 0.7502020133 -0.5750349496
| 15> H -1.4169904104 -0.032509425 1.4722336092
| 16> H 0.6110529931 -1.2999294669 1.4868639173
| 17> H -0.3082695687 -2.1237779283 0.2203180341
| 18> H 2.1641333578 -1.2317064284 -0.3537168632
| 19> H 0.8756335391 -0.9446064767 -1.5178564066
| 20> H 2.2109126203 1.0290377184 0.296215745
| 21> H 1.41738064 1.3119977199 -1.2457249748
| 22> H 0.3093970841 1.5527698406 1.4677798972
| 23> H -0.4561181949 2.042943163 -0.0389168502
| 24> *
| 25>
| 26>                          ****END OF INPUT****

CARTESIAN COORDINATES (ANGSTROEM)
---------------------------------
  C     -1.830375   -0.084157   -0.625569
  C     -0.845915   -0.023132    0.539284
  C      0.156155   -1.179902    0.502185
  C      1.211556   -0.725499   -0.504101
  C      1.325494    0.791562   -0.293198
  C      0.052656    1.220293    0.461608
  H     -1.306870   -0.035784   -1.576356
  H     -2.402752   -1.008688   -0.591643
  H     -2.526572    0.750202   -0.575035
  H     -1.416990   -0.032509    1.472234
  H      0.611053   -1.299929    1.486864
  H     -0.308270   -2.123778    0.220318
  H      2.164133   -1.231706   -0.353717
  H      0.875634   -0.944606   -1.517856
  H      2.210913    1.029038    0.296216
  H      1.417381    1.311998   -1.245725
  H      0.309397    1.552770    1.467780
  H     -0.456118    2.042943   -0.038917

 Total Charge           Charge          ....    0
 Multiplicity           Mult            ....    1
 Number of Electrons    NEL             ....   48
 Basis Dimension        Dim             ....  174

ORBITAL ENERGIES
----------------

  NO   OCC          E(Eh)            E(eV)
   0   2.0000     -10.026008      -272.8216
   1   2.0000     -10.017976      -272.6030
   2   2.0000     -10.017791      -272.5979
   3   2.0000     -10.016694      -272.5681
   4   2.0000     -10.016362      -272.5591
   5   2.0000     -10.012283      -272.4481
   6   2.0000      -0.803350       -21.8603
   7   2.0000      -0.703432       -19.1414
   8   2.0000      -0.671445       -18.2710
   9   2.0000      -0.623499       -16.9663
  10   2.0000      -0.526792       -14.3348
  11   2.0000      -0.507763       -13.8169
  12   2.0000      -0.454485       -12.3672
  13   2.0000      -0.437798       -11.9131
  14   2.0000      -0.398847       -10.8532
  15   2.0000      -0.372630       -10.1398
  16   2.0000      -0.360502        -9.8098
  17   2.0000      -0.350917        -9.5489
  18   2.0000      -0.303334        -8.2542
  19   2.0000      -0.300464        -8.1760
  20   2.0000      -0.290627        -7.9084
  21   2.0000      -0.286411        -7.7936
  22   2.0000      -0.282122        -7.6769
  23   2.0000      -0.274858        -7.4793
  24   0.0000       0.075831         2.0635
  25   0.0000       0.101271         2.7557
  26   0.0000       0.123585         3.3629
  27   0.0000       0.128157         3.4873
  28   0.0000       0.131158         3.5690

MULLIKEN ATOMIC CHARGES
-----------------------
   0 C :   -0.523013
   1 C :    0.031201
   2 C :   -0.303239
   3 C :   -0.339762
   4 C :   -0.327113
   5 C :   -0.365100
   6 H :    0.150398
   7 H :    0.145996
   8 H :    0.148833
   9 H :    0.153435
  10 H :    0.152703
  11 H :    0.149969
  12 H :    0.150937
  13 H :    0.160909
  14 H :    0.151249
  15 H :    0.157067
  16 H :    0.155178
  17 H :    0.150352
Sum of atomic charges:   -0.0000000

LOEWDIN ATOMIC CHARGES
----------------------
   0 C :   -0.411886
   1 C :   -0.238150
   2 C :   -0.300153
   3 C :   -0.308404
   4 C :   -0.308514
   5 C :   -0.302142
   6 H :    0.153554
   7 H :    0.152902
   8 H :    0.152960
   9 H :    0.156734
  10 H :    0.157658
  11 H :    0.158528
  12 H :    0.155755
  13 H :    0.153105
  14 H :    0.156018
  15 H :    0.156108
  16 H :    0.157396
  17 H :    0.158532

  Mayer bond orders larger than 0.100000
B(  0-C ,  1-C ) :   0.9265 B(  0-C ,  6-H ) :   0.9822 B(  0-C ,  7-H ) :   0.9775
B(  0-C ,  8-H ) :   0.9737 B(  1-C ,  2-C ) :   0.8942 B(  1-C ,  5-C ) :   0.9094
B(  1-C ,  9-H ) :   0.9397 B(  2-C ,  3-C ) :   0.8894 B(  2-C , 10-H ) :   0.9763
B(  2-C , 11-H ) :   0.9667 B(  3-C ,  4-C ) :   0.9225 B(  3-C , 12-H ) :   0.9527
B(  3-C , 13-H ) :   1.0024 B(  4-C ,  5-C ) :   0.9217 B(  4-C , 14-H ) :   0.9819
B(  4-C , 15-H ) :   0.9829 B(  5-C , 16-H ) :   0.9687 B(  5-C , 17-H ) :   0.9773

Dispersion correction           -0.004773506
FINAL SINGLE POINT ENERGY      -235.783300198149

DIPOLE MOMENT
-------------

Method             : SCF
Type of density    : Electron Density
Multiplicity       :   1
Irrep              :   0
Energy             :  -235.7861211563789539 Eh
Relativity type    :
Basis              : AO
                                X                 Y                 Z
Electronic contribution:      0.776000643      -0.010489874       0.935111105
Nuclear contribution   :     -0.777795717       0.009333964      -0.896731632
                        -----------------------------------------
Total Dipole Moment    :     -0.001795074      -0.001155910       0.038379474
                        -----------------------------------------
Magnitude (a.u.)       :      0.038438814
Magnitude (Debye)      :      0.097703700

Rotational constants in cm-1:             0.168913             0.113145             0.090851
Rotational constants in MHz :          5063.871287          3392.016034          2723.651197

                             ****ORCA TERMINATED NORMALLY****
TOTAL RUN TIME: 0 days 0 hours 0 minutes 11 seconds 68 msec
