                         Program Version 6.0.0  -   RELEASE  -
|  1> ! r2scan-3c def2/J RI DEFGRID2 scfconv6 printgap
|  2> %output
|  3>     printlevel normal
|  4> end
|  5> %cpcm
|  6>     smd true
|  7>     smdsolvent "water"
|  8> end
|  9> * xyz 0 1
| 10> C -1.8303745836 -0.0841573234 -0.6255688563
| 11> C -0.8459152987 -0.0231315779 0.5392839639
| 12> C 0.156154943 -1.1799019161 0.5021852019
| 13> C 1.2115558483 -0.7254994116 -0.5041008209
| 14> C 1.3254940053 0.7915618801 -0.2931982359
| 15> C 0.0526556469 1.220293465 0.4616076265
| 16> H -1.3068702121 -0.0357836663 -1.5763557163
| 17> H -2.4027522694 -1.0086878715 -0.5916431738
| 18> H -2.5265719958 0.7502020133 -0.5750349496
| 19> H -1.4169904104 -0.032509425 1.4722336092
| 20> H 0.6110529931 -1.2999294669 1.4868639173
| 21> H -0.3082695687 -2.1237779283 0.2203180341
| 22> H 2.1641333578 -1.2317064284 -0.3537168632
| 23> H 0.8756335391 -0.9446064767 -1.5178564066
| 24> H 2.2109126203 1.0290377184 0.296215745
| 25> H 1.41738064 1.3119977199 -1.2457249748
| 26> H 0.3093970841 1.5527698406 1.4677798972
| 27> H -0.4561181949 2.042943163 -0.0389168502
| 28> *
| 29>
| 30>                          ****END OF INPUT****

CARTESIAN COORDINATES (ANGSTROEM)
---------------------------------
  C     -1.830375   -0.084157   -0.625569
  C     -0.845915   -0.023132    0.539284
  C      0.156155   -1.179902    0.502185
  C      1.211556   -0.725499   -0.504101
  C      1.325494    0.791562   -0.293198
  C      0.052656    1.220293    0.461608
  H     -1.306870   -0.035784   -1.576356
  H     -2.402752   -1.008688   -0.591643
  H     -2.526572    0.750202   -0.575035
  H     -1.416990   -0.032509    1.472234
  H      0.611053   -1.299929    1.486864
  H     -0.308270   -2.123778    0.220318
  H      2.164133   -1.231706   -0.353717
  H      0.875634   -0.944606   -1.517856
  H      2.210913    1.029038    0.296216
  H      1.417381    1.311998   -1.245725
  H      0.309397    1.552770    1.467780
  H     -0.456118    2.042943   -0.038917

 Total Charge           Charge          ....    0
 Multiplicity           Mult            ....    1
 Number of Electrons    NEL             ....   48
 Basis Dimension        Dim             ....  174

ORBITAL ENERGIES
----------------

  NO   OCC          E(Eh)            E(eV)
   0   2.0000     -10.019473      -272.6437
   1   2.0000     -10.011365      -272.4231
   2   2.0000     -10.011067      -272.4150
   3   2.0000     -10.009893      -272.3830
   4   2.0000     -10.009664      -272.3768
   5   2.0000     -10.004912      -272.2475
   6   2.0000      -0.796772       -21.6813
   7   2.0000      -0.696918       -18.9641
   8   2.0000      -0.665167       -18.1001
   9   2.0000      -0.617023       -16.7900
  10   2.0000      -0.520585       -14.1658
  11   2.0000      -0.501452       -13.6452
  12   2.0000      -0.447822       -12.1859
  13   2.0000      -0.431248       -11.7349
  14   2.0000      -0.391921       -10.6647
  15   2.0000      -0.365814        -9.9543
  16   2.0000      -0.353497        -9.6191
  17   2.0000      -0.343959        -9.3596
  18   2.0000      -0.297168        -8.0864
  19   2.0000      -0.294144        -8.0041
  20   2.0000      -0.284087        -7.7304
  21   2.0000      -0.279775        -7.6131
  22   2.0000      -0.275214        -7.4889
  23   2.0000      -0.267874        -7.2892
  24   0.0000       0.083778         2.2797
  25   0.0000       0.108624         2.9558
  26   0.0000       0.128706         3.5023
  27   0.0000       0.132614         3.6086
  28   0.0000       0.137333         3.7370

MULLIKEN ATOMIC CHARGES
-----------------------
   0 C :   -0.558006
   1 C :    0.033591
   2 C :   -0.326023
   3 C :   -0.354569
   4 C :   -0.343521
   5 C :   -0.384660
   6 H :    0.161875
   7 H :    0.155808
   8 H :    0.158677
   9 H :    0.160415
  10 H :    0.161664
  11 H :    0.158548
  12 H :    0.158527
  13 H :    0.170243
  14 H :    0.160073
  15 H :    0.164801
  16 H :    0.163687
  17 H :    0.158869
Sum of atomic charges:   -0.0000000

LOEWDIN ATOMIC CHARGES
----------------------
   0 C :   -0.419935
   1 C :   -0.237854
   2 C :   -0.304394
   3 C :   -0.312533
   4 C :   -0.312648
   5 C :   -0.306226
   6 H :    0.156695
   7 H :    0.154952
   8 H :    0.155010
   9 H :    0.158435
  10 H :    0.159740
  11 H :    0.160408
  12 H :    0.157222
  13 H :    0.155708
  14 H :    0.157932
  15 H :    0.157858
  16 H :    0.159355
  17 H :    0.160276

  Mayer bond orders larger than 0.100000
B(  0-C ,  1-C ) :   0.9205 B(  0-C ,  6-H ) :   0.9792 B(  0-C ,  7-H ) :   0.9751
B(  0-C ,  8-H ) :   0.9712 B(  1-C ,  2-C ) :   0.8925 B(  1-C ,  5-C ) :   0.9080
B(  1-C ,  9-H ) :   0.9409 B(  2-C ,  3-C ) :   0.8888 B(  2-C , 10-H ) :   0.9750
B(  2-C , 11-H ) :   0.9658 B(  3-C ,  4-C ) :   0.9183 B(  3-C , 12-H ) :   0.9520
B(  3-C , 13-H ) :   0.9996 B(  4-C ,  5-C ) :   0.9176 B(  4-C , 14-H ) :   0.9811
B(  4-C , 15-H ) :   0.9813 B(  5-C , 16-H ) :   0.9679 B(  5-C , 17-H ) :   0.9770

Dispersion correction           -0.004773506
FINAL SINGLE POINT ENERGY      -235.781162537410

DIPOLE MOMENT
-------------

Method             : SCF
Type of density    : Electron Density
Multiplicity       :   1
Irrep              :   0
Energy             :  -235.7839834956405980 Eh
Relativity type    :
Basis              : AO
                                X                 Y                 Z
Electronic contribution:      0.772609868      -0.011131996       0.939153173
Nuclear contribution   :     -0.777795717       0.009333964      -0.896731632
                        -----------------------------------------
Total Dipole Moment    :     -0.005185850      -0.001798032       0.042421541
                        -----------------------------------------
Magnitude (a.u.)       :      0.042775146
Magnitude (Debye)      :      0.108725781

Rotational constants in cm-1:             0.168913             0.113145             0.090851
Rotational constants in MHz :          5063.871287          3392.016034          2723.651197

                             ****ORCA TERMINATED NORMALLY****
TOTAL RUN TIME: 0 days 0 hours 0 minutes 13 seconds 9 msec
