                         Program Version 6.0.0  -   RELEASE  -
|  1> ! pbe def2-sv(p) def2/J RI DEFGRID1 loosescf d4 GCP(DFT/SV(P)) printgap
|  2> %output
|  3>     printlevel normal
|  4> end
|  5> * xyz 0 1
|  6> C -2.0549428881 0.0500802185 -0.0007171002
|  7> C -0.7050033619 0.6970179358 0.0024253525
|  8> C 0.452885462 0.0470441383 -0.000692125
|  9> C 1.7685200898 0.7660187053 -2.99913e-05
| 10> C 0.5333549082 -1.4547854384 0.0010381112
| 11> H -2.3714138088 -0.1636329754 -1.0227645037
| 12> H -2.0435445332 -0.8875891056 0.5496733702
| 13> H -2.7933278392 0.7105957129 0.4471519853
| 14> H -0.7042855735 1.7791705069 -0.0114398779
| 15> H 1.6284278215 1.8437307018 0.0203869719
| 16> H 2.355164819 0.4722068028 0.869787896
| 17> H 2.3398195802 0.5045507169 -0.8902406698
| 18> H 0.1470006523 -1.8578067959 0.9369157868
| 19> H -0.0584754239 -1.8735943107 -0.8106234964
| 20> H 1.5624287658 -1.7832983313 -0.1129686196
| 21> *
| 22>
| 23>                          ****END OF INPUT****

CARTESIAN COORDINATES (ANGSTROEM)
---------------------------------
  C     -2.054943    0.050080   -0.000717
  C     -0.705003    0.697018    0.002425
  C      0.452885    0.047044   -0.000692
  C      1.768520    0.766019   -0.000030
  C      0.533355   -1.454785    0.001038
  H     -2.371414   -0.163633   -1.022765
  H     -2.043545   -0.887589    0.549673
  H     -2.793328    0.710596    0.447152
  H     -0.704286    1.779171   -0.011440
  H      1.628428    1.843731    0.020387
  H      2.355165    0.472207    0.869788
  H      2.339820    0.504551   -0.890241
  H      0.147001   -1.857807    0.936916
  H     -0.058475   -1.873594   -0.810623
  H      1.562429   -1.783298   -0.112969

 Total Charge           Charge          ....    0
 Multiplicity           Mult            ....    1
 Number of Electrons    NEL             ....   40
 Basis Dimension        Dim             ....   90

ORBITAL ENERGIES
----------------

  NO   OCC          E(Eh)            E(eV)
   0   2.0000      -9.887058      -269.0405
   1   2.0000      -9.875708      -268.7317
   2   2.0000      -9.873767      -268.6788
   3   2.0000      -9.873516      -268.6720
   4   2.0000      -9.870938      -268.6019
   5   2.0000      -0.728043       -19.8111
   6   2.0000      -0.654010       -17.7965
   7   2.0000      -0.616391       -16.7729
   8   2.0000      -0.561365       -15.2755
   9   2.0000      -0.451095       -12.2749
  10   2.0000      -0.409329       -11.1384
  11   2.0000      -0.386346       -10.5130
  12   2.0000      -0.383273       -10.4294
  13   2.0000      -0.356139        -9.6910
  14   2.0000      -0.342914        -9.3312
  15   2.0000      -0.339247        -9.2314
  16   2.0000      -0.318874        -8.6770
  17   2.0000      -0.306125        -8.3301
  18   2.0000      -0.283109        -7.7038
  19   2.0000      -0.196308        -5.3418
  20   0.0000      -0.000616        -0.0168
  21   0.0000       0.041993         1.1427
  22   0.0000       0.068433         1.8622
  23   0.0000       0.074239         2.0201
  24   0.0000       0.099287         2.7017

MULLIKEN ATOMIC CHARGES
-----------------------
   0 C :   -0.222511
   1 C :   -0.201882
   2 C :   -0.111332
   3 C :   -0.223170
   4 C :   -0.237626
   5 H :    0.113839
   6 H :    0.103551
   7 H :    0.102010
   8 H :    0.048180
   9 H :    0.095489
  10 H :    0.104976
  11 H :    0.105102
  12 H :    0.117056
  13 H :    0.111537
  14 H :    0.094780
Sum of atomic charges:   -0.0000000

LOEWDIN ATOMIC CHARGES
----------------------
   0 C :   -0.338514
   1 C :   -0.170715
   2 C :   -0.081143
   3 C :   -0.322277
   4 C :   -0.329273
   5 H :    0.129184
   6 H :    0.122766
   7 H :    0.124592
   8 H :    0.113518
   9 H :    0.120548
  10 H :    0.124448
  11 H :    0.124440
  12 H :    0.131789
  13 H :    0.129251
  14 H :    0.121387

  Mayer bond orders larger than 0.100000
B(  0-C ,  1-C ) :   1.1211 B(  0-C ,  5-H ) :   0.9346 B(  0-C ,  6-H ) :   0.9362
B(  0-C ,  7-H ) :   0.9452 B(  1-C ,  2-C ) :   1.9624 B(  1-C ,  8-H ) :   0.9200
B(  2-C ,  3-C ) :   1.1312 B(  2-C ,  4-C ) :   1.1173 B(  3-C ,  9-H ) :   0.9452
B(  3-C , 10-H ) :   0.9334 B(  3-C , 11-H ) :   0.9305 B(  4-C , 12-H ) :   0.9297
B(  4-C , 13-H ) :   0.9327 B(  4-C , 14-H ) :   0.9442

Dispersion correction           -0.010206023
FINAL SINGLE POINT ENERGY      -196.033959063383

DIPOLE MOMENT
-------------

Method             : SCF
Type of density    : Electron Density
Multiplicity       :   1
Irrep              :   0
Energy             :  -196.0812527248232016 Eh
Relativity type    :
Basis              : AO
                                X                 Y                 Z
Electronic contribution:     -0.029081331       1.058884915       0.009460421
Nuclear contribution   :      0.057973799      -1.178031010      -0.022629781
                        -----------------------------------------
Total Dipole Moment    :      0.028892468      -0.119146095      -0.013169360
                        -----------------------------------------
Magnitude (a.u.)       :      0.123304496
Magnitude (Debye)      :      0.313415121

Rotational constants in cm-1:             0.273354             0.120968             0.087956
Rotational constants in MHz :          8194.943107          3626.543295          2636.852019

                             ****ORCA TERMINATED NORMALLY****
TOTAL RUN TIME: 0 days 0 hours 0 minutes 4 seconds 539 msec
