                         Program Version 6.0.0  -   RELEASE  -
|  1> ! pbe def2-sv(p) def2/J RI DEFGRID1 loosescf d4 GCP(DFT/SV(P)) printgap
|  2> %output
|  3>     printlevel normal
|  4> end
|  5> * xyz 0 1
|  6> C -2.5517517168 -0.7004504647 -0.3371160741
|  7> C -1.175758001 -0.3136077797 0.2182031597
|  8> H -1.2201110524 -0.2966634149 1.3199125082
|  9> C -0.7243913998 1.0624370707 -0.2957431991
| 10> H -0.7408796895 1.0585953226 -1.3912871419
| 11> C 0.7118041862 1.3379258536 0.176408228
| 12> H 0.7187284611 1.4354358872 1.2760878671
| 13> C 1.64105711 0.1775807281 -0.2036404497
| 14> H 1.7161430687 0.1392030203 -1.3016413178
| 15> C 1.0471049115 -1.1519456345 0.3008876645
| 16> H 1.0454979753 -1.1398027176 1.4029516461
| 17> O -0.2646535539 -1.3163800345 -0.1964621066
| 18> O 1.7813498592 -2.2546449244 -0.064673371
| 19> O 2.9098048324 0.3287426928 0.3739436822
| 20> O 1.2310733836 2.5093939585 -0.4069479272
| 21> O -1.5877567625 2.09957263 0.089451556
| 22> O -3.1046255399 -1.8027341507 0.3309221076
| 23> H -2.4460600375 -0.9025958199 -1.4094809472
| 24> H -3.2446815086 0.1302046809 -0.1938269022
| 25> H 1.7782528425 -2.3503142022 -1.0306424256
| 26> H 3.2605891838 1.195443086 0.1156870863
| 27> H 0.5481512949 3.1973773232 -0.3869723786
| 28> H -1.6912084873 2.1051570606 1.0530193603
| 29> H -2.5101212117 -2.5592145484 0.2226404489
| 30> *
| 31>
| 32>                          ****END OF INPUT****

CARTESIAN COORDINATES (ANGSTROEM)
---------------------------------
  C     -2.551752   -0.700450   -0.337116
  C     -1.175758   -0.313608    0.218203
  H     -1.220111   -0.296663    1.319913
  C     -0.724391    1.062437   -0.295743
  H     -0.740880    1.058595   -1.391287
  C      0.711804    1.337926    0.176408
  H      0.718728    1.435436    1.276088
  C      1.641057    0.177581   -0.203640
  H      1.716143    0.139203   -1.301641
  C      1.047105   -1.151946    0.300888
  H      1.045498   -1.139803    1.402952
  O     -0.264654   -1.316380   -0.196462
  O      1.781350   -2.254645   -0.064673
  O      2.909805    0.328743    0.373944
  O      1.231073    2.509394   -0.406948
  O     -1.587757    2.099573    0.089452
  O     -3.104626   -1.802734    0.330922
  H     -2.446060   -0.902596   -1.409481
  H     -3.244682    0.130205   -0.193827
  H      1.778253   -2.350314   -1.030642
  H      3.260589    1.195443    0.115687
  H      0.548151    3.197377   -0.386972
  H     -1.691208    2.105157    1.053019
  H     -2.510121   -2.559215    0.222640

 Total Charge           Charge          ....    0
 Multiplicity           Mult            ....    1
 Number of Electrons    NEL             ....   96
 Basis Dimension        Dim             ....  192

ORBITAL ENERGIES
----------------

  NO   OCC          E(Eh)            E(eV)
   0   2.0000     -18.780884      -511.0538
   1   2.0000     -18.777159      -510.9525
   2   2.0000     -18.761809      -510.5348
   3   2.0000     -18.760925      -510.5107
   4   2.0000     -18.751654      -510.2584
   5   2.0000     -18.747927      -510.1570
   6   2.0000      -9.990776      -271.8628
   7   2.0000      -9.953721      -270.8545
   8   2.0000      -9.951681      -270.7990
   9   2.0000      -9.949360      -270.7358
  10   2.0000      -9.945202      -270.6227
  11   2.0000      -9.935425      -270.3567
  12   2.0000      -0.989542       -26.9268
  13   2.0000      -0.960418       -26.1343
  14   2.0000      -0.941462       -25.6185
  15   2.0000      -0.929654       -25.2972
  16   2.0000      -0.921124       -25.0651
  17   2.0000      -0.914877       -24.8951
  18   2.0000      -0.711147       -19.3513
  19   2.0000      -0.695575       -18.9276
  20   2.0000      -0.621188       -16.9034
  21   2.0000      -0.592991       -16.1361
  22   2.0000      -0.565572       -15.3900
  23   2.0000      -0.552211       -15.0264
  24   2.0000      -0.510808       -13.8998
  25   2.0000      -0.492429       -13.3997
  26   2.0000      -0.481026       -13.0894
  27   2.0000      -0.461729       -12.5643
  28   2.0000      -0.450414       -12.2564
  29   2.0000      -0.439136       -11.9495
  30   2.0000      -0.417809       -11.3692
  31   2.0000      -0.416501       -11.3336
  32   2.0000      -0.398198       -10.8355
  33   2.0000      -0.378656       -10.3037
  34   2.0000      -0.362615        -9.8673
  35   2.0000      -0.359130        -9.7724
  36   2.0000      -0.326044        -8.8721
  37   2.0000      -0.317539        -8.6407
  38   2.0000      -0.308582        -8.3969
  39   2.0000      -0.302426        -8.2294
  40   2.0000      -0.290727        -7.9111
  41   2.0000      -0.286845        -7.8054
  42   2.0000      -0.261581        -7.1180
  43   2.0000      -0.243451        -6.6246
  44   2.0000      -0.239594        -6.5197
  45   2.0000      -0.225910        -6.1473
  46   2.0000      -0.221084        -6.0160
  47   2.0000      -0.210118        -5.7176
  48   0.0000       0.002670         0.0726
  49   0.0000       0.019993         0.5440
  50   0.0000       0.036867         1.0032
  51   0.0000       0.041654         1.1335
  52   0.0000       0.046824         1.2741

MULLIKEN ATOMIC CHARGES
-----------------------
   0 C :    0.109819
   1 C :   -0.034916
   2 H :    0.045170
   3 C :    0.038312
   4 H :    0.067957
   5 C :    0.059647
   6 H :    0.039034
   7 C :    0.044056
   8 H :    0.041708
   9 C :    0.205975
  10 H :    0.056654
  11 O :   -0.315165
  12 O :   -0.365225
  13 O :   -0.407644
  14 O :   -0.421672
  15 O :   -0.413759
  16 O :   -0.432389
  17 H :    0.072079
  18 H :    0.085363
  19 H :    0.301871
  20 H :    0.311037
  21 H :    0.306289
  22 H :    0.304189
  23 H :    0.301609
Sum of atomic charges:   -0.0000000

LOEWDIN ATOMIC CHARGES
----------------------
   0 C :   -0.124768
   1 C :   -0.081966
   2 H :    0.099526
   3 C :   -0.084885
   4 H :    0.120066
   5 C :   -0.087101
   6 H :    0.096663
   7 C :   -0.087869
   8 H :    0.100534
   9 C :    0.007150
  10 H :    0.101701
  11 O :   -0.159240
  12 O :   -0.276916
  13 O :   -0.314231
  14 O :   -0.327939
  15 O :   -0.304939
  16 O :   -0.334361
  17 H :    0.103249
  18 H :    0.117251
  19 H :    0.288367
  20 H :    0.290713
  21 H :    0.285825
  22 H :    0.288156
  23 H :    0.285010

  Mayer bond orders larger than 0.100000
B(  0-C ,  1-C ) :   1.0432 B(  0-C , 16-O ) :   1.0848 B(  0-C , 17-H ) :   0.9066
B(  0-C , 18-H ) :   0.9122 B(  1-C ,  2-H ) :   0.8675 B(  1-C ,  3-C ) :   0.9851
B(  1-C , 11-O ) :   0.9827 B(  3-C ,  4-H ) :   0.8617 B(  3-C ,  5-C ) :   1.0051
B(  3-C , 15-O ) :   1.0107 B(  5-C ,  6-H ) :   0.8685 B(  5-C ,  7-C ) :   1.0106
B(  5-C , 14-O ) :   1.0864 B(  7-C ,  8-H ) :   0.8614 B(  7-C ,  9-C ) :   0.9831
B(  7-C , 13-O ) :   1.0886 B(  9-C , 10-H ) :   0.8787 B(  9-C , 11-O ) :   0.9915
B(  9-C , 12-O ) :   1.1694 B( 12-O , 19-H ) :   0.8424 B( 13-O , 20-H ) :   0.8385
B( 14-O , 21-H ) :   0.8307 B( 15-O , 22-H ) :   0.8432 B( 16-O , 23-H ) :   0.8471

Dispersion correction           -0.023603731
FINAL SINGLE POINT ENERGY      -685.700319838736

DIPOLE MOMENT
-------------

Method             : SCF
Type of density    : Electron Density
Multiplicity       :   1
Irrep              :   0
Energy             :  -685.8298192517921734 Eh
Relativity type    :
Basis              : AO
                                X                 Y                 Z
Electronic contribution:      2.500586884      -1.159760313       0.072956164
Nuclear contribution   :     -2.599160879       1.881913047      -0.301676911
                        -----------------------------------------
Total Dipole Moment    :     -0.098573995       0.722152734      -0.228720746
                        -----------------------------------------
Magnitude (a.u.)       :      0.763894354
Magnitude (Debye)      :      1.941665141

Rotational constants in cm-1:             0.039113             0.025852             0.016326
Rotational constants in MHz :          1172.580604           775.024962           489.447894

                             ****ORCA TERMINATED NORMALLY****
TOTAL RUN TIME: 0 days 0 hours 0 minutes 12 seconds 96 msec
