                         Program Version 6.0.0  -   RELEASE  -
|  1> ! pbe def2-sv(p) def2/J RI DEFGRID1 loosescf d4 GCP(DFT/SV(P)) printgap
|  2> %output
|  3>     printlevel normal
|  4> end
|  5> * xyz 0 1
|  6> C -2.8625361869 0.3976658291 -0.1064329876
|  7> N -1.8164418709 -0.5699232044 0.1261469135
|  8> C -0.4843485913 -0.2523006697 0.0353654219
|  9> C 0.4640162516 -1.2824422379 -0.0097313129
| 10> C 1.8134888388 -1.0027371861 -0.0385348323
| 11> C 2.2603011636 0.3098756223 -0.0278063995
| 12> C 1.3324057156 1.336318138 0.0127659125
| 13> C -0.0226612142 1.0676102769 0.0426293072
| 14> H -2.7945211223 0.8583021731 -1.0992224628
| 15> H -2.8119492847 1.1851431799 0.6464185311
| 16> H -3.8233894708 -0.1012618006 -0.0147670884
| 17> H -2.0400539761 -1.5172698863 -0.1353468292
| 18> H 0.1250225389 -2.3089645709 -0.0198628479
| 19> H 2.5257814398 -1.8146925818 -0.0733227939
| 20> H 3.3173406074 0.5278011282 -0.0529548044
| 21> H 1.667391215 2.363860171 0.0181450649
| 22> H -0.7227632285 1.887102216 0.0711711039
| 23> *
| 24>
| 25>                          ****END OF INPUT****

CARTESIAN COORDINATES (ANGSTROEM)
---------------------------------
  C     -2.862536    0.397666   -0.106433
  N     -1.816442   -0.569923    0.126147
  C     -0.484349   -0.252301    0.035365
  C      0.464016   -1.282442   -0.009731
  C      1.813489   -1.002737   -0.038535
  C      2.260301    0.309876   -0.027806
  C      1.332406    1.336318    0.012766
  C     -0.022661    1.067610    0.042629
  H     -2.794521    0.858302   -1.099222
  H     -2.811949    1.185143    0.646419
  H     -3.823389   -0.101262   -0.014767
  H     -2.040054   -1.517270   -0.135347
  H      0.125023   -2.308965   -0.019863
  H      2.525781   -1.814693   -0.073323
  H      3.317341    0.527801   -0.052955
  H      1.667391    2.363860    0.018145
  H     -0.722763    1.887102    0.071171

 Total Charge           Charge          ....    0
 Multiplicity           Mult            ....    1
 Number of Electrons    NEL             ....   58
 Basis Dimension        Dim             ....  130

ORBITAL ENERGIES
----------------

  NO   OCC          E(Eh)            E(eV)
   0   2.0000     -13.998480      -380.9180
   1   2.0000      -9.922846      -270.0144
   2   2.0000      -9.918063      -269.8842
   3   2.0000      -9.881316      -268.8843
   4   2.0000      -9.881151      -268.8798
   5   2.0000      -9.877440      -268.7788
   6   2.0000      -9.876450      -268.7519
   7   2.0000      -9.871771      -268.6246
   8   2.0000      -0.848275       -23.0827
   9   2.0000      -0.753980       -20.5168
  10   2.0000      -0.665943       -18.1212
  11   2.0000      -0.657953       -17.9038
  12   2.0000      -0.608262       -16.5517
  13   2.0000      -0.542648       -14.7662
  14   2.0000      -0.519447       -14.1349
  15   2.0000      -0.477720       -12.9994
  16   2.0000      -0.442584       -12.0433
  17   2.0000      -0.414666       -11.2836
  18   2.0000      -0.396434       -10.7875
  19   2.0000      -0.385206       -10.4820
  20   2.0000      -0.371269       -10.1027
  21   2.0000      -0.364438        -9.9169
  22   2.0000      -0.346834        -9.4378
  23   2.0000      -0.326664        -8.8890
  24   2.0000      -0.305194        -8.3048
  25   2.0000      -0.288356        -7.8466
  26   2.0000      -0.257114        -6.9964
  27   2.0000      -0.217788        -5.9263
  28   2.0000      -0.164332        -4.4717
  29   0.0000      -0.022546        -0.6135
  30   0.0000      -0.005273        -0.1435
  31   0.0000       0.033053         0.8994
  32   0.0000       0.053355         1.4519
  33   0.0000       0.059459         1.6180

MULLIKEN ATOMIC CHARGES
-----------------------
   0 C :   -0.178510
   1 N :   -0.281043
   2 C :    0.207017
   3 C :   -0.136444
   4 C :   -0.062417
   5 C :   -0.055375
   6 C :   -0.056685
   7 C :   -0.164111
   8 H :    0.104513
   9 H :    0.120957
  10 H :    0.109419
  11 H :    0.215476
  12 H :    0.019101
  13 H :    0.046004
  14 H :    0.041370
  15 H :    0.045594
  16 H :    0.025137
Sum of atomic charges:    0.0000000

LOEWDIN ATOMIC CHARGES
----------------------
   0 C :   -0.260505
   1 N :   -0.180702
   2 C :   -0.001014
   3 C :   -0.160845
   4 C :   -0.119030
   5 C :   -0.161781
   6 C :   -0.115988
   7 C :   -0.171837
   8 H :    0.106914
   9 H :    0.119537
  10 H :    0.121857
  11 H :    0.226409
  12 H :    0.115877
  13 H :    0.120902
  14 H :    0.118714
  15 H :    0.120714
  16 H :    0.120779

  Mayer bond orders larger than 0.100000
B(  0-C ,  1-N ) :   1.0632 B(  0-C ,  8-H ) :   0.9429 B(  0-C ,  9-H ) :   0.9450
B(  0-C , 10-H ) :   0.9586 B(  1-N ,  2-C ) :   1.1966 B(  1-N , 11-H ) :   0.8675
B(  2-C ,  3-C ) :   1.3080 B(  2-C ,  7-C ) :   1.3219 B(  3-C ,  4-C ) :   1.4122
B(  3-C , 12-H ) :   0.9590 B(  4-C ,  5-C ) :   1.3542 B(  4-C , 13-H ) :   0.9607
B(  5-C ,  6-C ) :   1.3806 B(  5-C , 14-H ) :   0.9670 B(  6-C ,  7-C ) :   1.3760
B(  6-C , 15-H ) :   0.9607 B(  7-C , 16-H ) :   0.9598

Dispersion correction           -0.016410653
FINAL SINGLE POINT ENERGY      -326.172874599958

DIPOLE MOMENT
-------------

Method             : SCF
Type of density    : Electron Density
Multiplicity       :   1
Irrep              :   0
Energy             :  -326.2248266345332013 Eh
Relativity type    :
Basis              : AO
                                X                 Y                 Z
Electronic contribution:      3.483521205      -1.227642385       0.431792336
Nuclear contribution   :     -4.285326093       1.010115916      -0.618257639
                        -----------------------------------------
Total Dipole Moment    :     -0.801804887      -0.217526469      -0.186465303
                        -----------------------------------------
Magnitude (a.u.)       :      0.851456488
Magnitude (Debye)      :      2.164230399

Rotational constants in cm-1:             0.168374             0.051088             0.039582
Rotational constants in MHz :          5047.737632          1531.584674          1186.627244

                             ****ORCA TERMINATED NORMALLY****
TOTAL RUN TIME: 0 days 0 hours 0 minutes 7 seconds 434 msec
