                         Program Version 6.0.0  -   RELEASE  -
|  1> ! wb97x-v def2-tzvp def2/J RIJCOSX DEFGRID2 scfconv7 GCP(DFT/TZ) printgap
|  2> %output
|  3>     printlevel normal
|  4> end
|  5> * xyz 0 1
|  6> C 2.924494197409857 0.00032240679069957457 -0.8378342258745329
|  7> C 2.5186294192335414 -1.1377541877021964 0.1051136159406623
|  8> H 2.65688002505439 -2.1632428354987403 -0.23844477874892758
|  9> C 1.0848684542447582 -0.786296624688856 0.5959838162605451
| 10> H 0.9695156274990846 -1.1897107598955678 1.6066779117975087
| 11> C 1.0848369569204643 0.7864015140325074 0.5960400942237946
| 12> H 0.969208419383893 1.189747345488151 1.6067275841520394
| 13> C 2.518648512687378 1.1380159163398686 0.10553661414197911
| 14> H 2.656941800487887 2.163636108769045 -0.23761242735227803
| 15> C 3.2980095482758793 0.7335840292782397 1.3741976590435525
| 16> H 3.2651376021692817 1.340778126000811 2.274336149077425
| 17> C 3.298062874274892 -0.7338091199489617 1.3738943929438254
| 18> H 3.265218141049493 -1.3413746557451764 2.273783819638757
| 19> O 4.52397414634403 -3.603582646321397e-05 1.1542185962246705
| 20> C -0.2700226039307236 1.1266401057530346 -0.11536967715364602
| 21> C -1.2898212472330475 0.6691629041400105 0.9396642992208436
| 22> C -1.2898135223353475 -0.6687855526809373 0.9398908105895988
| 23> C -0.27012020767708406 -1.1266173870232772 -0.11508431398309169
| 24> C -0.5670104105653705 -0.00014298064561315172 -1.1592450423625777
| 25> Cl -2.3125252723769543 -5.8614248375893486e-05 -1.6916880782242598
| 26> Cl 0.3296659479579717 -0.0006010757358793516 -2.6904486853251326
| 27> Cl -0.4442518212766144 -2.7867573903073413 -0.7046615330592925
| 28> Cl -2.1211776695935316 -1.7269746011056455 1.9865505292001142
| 29> Cl -2.1211892856815324 1.7277171215961744 1.985950086862294
| 30> Cl -0.44396604104356646 2.7866081020531124 -0.7054600233288887
| 31> H 2.417152950585847 0.000583263514411627 -1.7870559845218923
| 32> H 3.997663839467985 0.0003286247921611108 -1.0282217116998058
| 33> *
| 34>
| 35>                          ****END OF INPUT****

CARTESIAN COORDINATES (ANGSTROEM)
---------------------------------
  C      2.924494    0.000322   -0.837834
  C      2.518629   -1.137754    0.105114
  H      2.656880   -2.163243   -0.238445
  C      1.084868   -0.786297    0.595984
  H      0.969516   -1.189711    1.606678
  C      1.084837    0.786402    0.596040
  H      0.969208    1.189747    1.606728
  C      2.518649    1.138016    0.105537
  H      2.656942    2.163636   -0.237612
  C      3.298010    0.733584    1.374198
  H      3.265138    1.340778    2.274336
  C      3.298063   -0.733809    1.373894
  H      3.265218   -1.341375    2.273784
  O      4.523974   -0.000036    1.154219
  C     -0.270023    1.126640   -0.115370
  C     -1.289821    0.669163    0.939664
  C     -1.289814   -0.668786    0.939891
  C     -0.270120   -1.126617   -0.115084
  C     -0.567010   -0.000143   -1.159245
  Cl    -2.312525   -0.000059   -1.691688
  Cl     0.329666   -0.000601   -2.690449
  Cl    -0.444252   -2.786757   -0.704662
  Cl    -2.121178   -1.726975    1.986551
  Cl    -2.121189    1.727717    1.985950
  Cl    -0.443966    2.786608   -0.705460
  H      2.417153    0.000583   -1.787056
  H      3.997664    0.000329   -1.028222

 Total Charge           Charge          ....    0
 Multiplicity           Mult            ....    1
 Number of Electrons    NEL             ....  190
 Basis Dimension        Dim             ....  673

ORBITAL ENERGIES
----------------

  NO   OCC          E(Eh)            E(eV)
   0   2.0000    -107.179259     -2916.4959
   1   2.0000    -107.179233     -2916.4952
   2   2.0000    -107.168029     -2916.1903
   3   2.0000    -107.162971     -2916.0527
   4   2.0000    -107.162956     -2916.0523
   5   2.0000    -107.156921     -2915.8880
   6   2.0000     -21.701385      -590.5247
   7   2.0000     -12.218495      -332.4821
   8   2.0000     -12.179142      -331.4113
   9   2.0000     -12.178582      -331.3961
  10   2.0000     -12.150926      -330.6435
  11   2.0000     -12.148358      -330.5736
  12   2.0000     -12.120086      -329.8043
  13   2.0000     -12.118877      -329.7714
  14   2.0000     -12.104056      -329.3681
  15   2.0000     -12.102998      -329.3393
  16   2.0000     -12.082932      -328.7933
  17   2.0000     -12.082660      -328.7859
  18   2.0000     -12.049444      -327.8820
  19   2.0000     -11.331897      -308.3566
  20   2.0000     -11.331879      -308.3561
  21   2.0000     -11.321833      -308.0827
  22   2.0000     -11.316067      -307.9258
  23   2.0000     -11.316032      -307.9249
  24   2.0000     -11.310198      -307.7661
  25   2.0000      -9.123955      -248.2754
  26   2.0000      -9.123400      -248.2603
  27   2.0000      -9.121019      -248.1955
  28   2.0000      -9.120984      -248.1946
  29   2.0000      -9.120494      -248.1812
  30   2.0000      -9.120395      -248.1786
  31   2.0000      -9.113418      -247.9887
  32   2.0000      -9.110550      -247.9107
  33   2.0000      -9.110462      -247.9083
  34   2.0000      -9.107968      -247.8404
  35   2.0000      -9.107498      -247.8276
  36   2.0000      -9.104903      -247.7570
  37   2.0000      -9.104815      -247.7546
  38   2.0000      -9.104753      -247.7529
  39   2.0000      -9.104731      -247.7523
  40   2.0000      -9.101658      -247.6687
  41   2.0000      -9.098749      -247.5895
  42   2.0000      -9.098717      -247.5887
  43   2.0000      -1.730328       -47.0846
  44   2.0000      -1.522268       -41.4230
  45   2.0000      -1.467970       -39.9455
  46   2.0000      -1.454602       -39.5817
  47   2.0000      -1.437921       -39.1278
  48   2.0000      -1.433641       -39.0114
  49   2.0000      -1.415607       -38.5206
  50   2.0000      -1.401389       -38.1337
  51   2.0000      -1.381315       -37.5875
  52   2.0000      -1.285662       -34.9846
  53   2.0000      -1.284629       -34.9565
  54   2.0000      -1.238205       -33.6933
  55   2.0000      -1.237985       -33.6873
  56   2.0000      -1.231965       -33.5235
  57   2.0000      -1.120636       -30.4941
  58   2.0000      -1.111021       -30.2324
  59   2.0000      -1.070058       -29.1178
  60   2.0000      -1.064655       -28.9707
  61   2.0000      -1.045692       -28.4547
  62   2.0000      -1.023788       -27.8587
  63   2.0000      -1.018052       -27.7026
  64   2.0000      -0.995714       -27.0948
  65   2.0000      -0.983990       -26.7757
  66   2.0000      -0.970454       -26.4074
  67   2.0000      -0.956824       -26.0365
  68   2.0000      -0.948761       -25.8171
  69   2.0000      -0.935549       -25.4576
  70   2.0000      -0.933385       -25.3987
  71   2.0000      -0.921116       -25.0648
  72   2.0000      -0.905857       -24.6496
  73   2.0000      -0.887348       -24.1460
  74   2.0000      -0.881855       -23.9965
  75   2.0000      -0.865747       -23.5582
  76   2.0000      -0.851542       -23.1716
  77   2.0000      -0.842937       -22.9375
  78   2.0000      -0.836376       -22.7590
  79   2.0000      -0.830169       -22.5900
  80   2.0000      -0.828855       -22.5543
  81   2.0000      -0.824637       -22.4395
  82   2.0000      -0.823117       -22.3982
  83   2.0000      -0.819707       -22.3053
  84   2.0000      -0.815386       -22.1878
  85   2.0000      -0.815121       -22.1806
  86   2.0000      -0.808161       -21.9912
  87   2.0000      -0.807931       -21.9849
  88   2.0000      -0.801782       -21.8176
  89   2.0000      -0.798163       -21.7191
  90   2.0000      -0.794316       -21.6144
  91   2.0000      -0.791663       -21.5423
  92   2.0000      -0.776939       -21.1416
  93   2.0000      -0.774729       -21.0814
  94   2.0000      -0.710727       -19.3399
  95   0.0000      -0.359303        -9.7771
  96   0.0000      -0.325785        -8.8650
  97   0.0000      -0.306828        -8.3492
  98   0.0000      -0.295813        -8.0495
  99   0.0000      -0.274231        -7.4622

MULLIKEN ATOMIC CHARGES
-----------------------
   0 C :   -0.311603
   1 C :    0.150631
   2 H :    0.131884
   3 C :   -0.355151
   4 H :    0.105375
   5 C :   -0.355037
   6 H :    0.105405
   7 C :    0.150706
   8 H :    0.131842
   9 C :   -0.037467
  10 H :    0.118981
  11 C :   -0.037474
  12 H :    0.118979
  13 O :   -0.320707
  14 C :    0.339613
  15 C :   -0.108792
  16 C :   -0.108568
  17 C :    0.339608
  18 C :   -0.049871
  19 Cl:   -0.070516
  20 Cl:   -0.051548
  21 Cl:   -0.062987
  22 Cl:   -0.005866
  23 Cl:   -0.005870
  24 Cl:   -0.062981
  25 H :    0.119236
  26 H :    0.132178
Sum of atomic charges:   -0.0000000

LOEWDIN ATOMIC CHARGES
----------------------
   0 C :   -0.201824
   1 C :   -0.173233
   2 H :    0.146146
   3 C :   -0.136890
   4 H :    0.168353
   5 C :   -0.136891
   6 H :    0.168352
   7 C :   -0.173261
   8 H :    0.146148
   9 C :   -0.216877
  10 H :    0.135052
  11 C :   -0.216905
  12 H :    0.135054
  13 O :    0.160817
  14 C :   -0.472902
  15 C :   -0.483494
  16 C :   -0.483481
  17 C :   -0.472942
  18 C :   -0.673789
  19 Cl:    0.364617
  20 Cl:    0.414424
  21 Cl:    0.403150
  22 Cl:    0.468237
  23 Cl:    0.468245
  24 Cl:    0.403157
  25 H :    0.114273
  26 H :    0.146464

  Mayer bond orders larger than 0.100000
B(  0-C ,  1-C ) :   1.0084 B(  0-C ,  7-C ) :   1.0085 B(  0-C , 25-H ) :   0.9581
B(  0-C , 26-H ) :   0.9434 B(  1-C ,  2-H ) :   0.9361 B(  1-C ,  3-C ) :   0.9030
B(  1-C , 11-C ) :   0.8278 B(  3-C ,  4-H ) :   0.9453 B(  3-C ,  5-C ) :   1.0956
B(  3-C , 11-C ) :   0.1194 B(  3-C , 17-C ) :   0.8665 B(  3-C , 18-C ) :   0.1125
B(  5-C ,  6-H ) :   0.9453 B(  5-C ,  7-C ) :   0.9029 B(  5-C ,  9-C ) :   0.1193
B(  5-C , 14-C ) :   0.8666 B(  5-C , 18-C ) :   0.1123 B(  7-C ,  8-H ) :   0.9361
B(  7-C ,  9-C ) :   0.8277 B(  9-C , 10-H ) :   0.9906 B(  9-C , 11-C ) :   1.0355
B(  9-C , 13-O ) :   1.0261 B( 11-C , 12-H ) :   0.9906 B( 11-C , 13-O ) :   1.0261
B( 14-C , 15-C ) :   0.8534 B( 14-C , 18-C ) :   1.0202 B( 14-C , 24-Cl) :   1.1286
B( 15-C , 16-C ) :   1.6923 B( 15-C , 23-Cl) :   1.2236 B( 16-C , 17-C ) :   0.8534
B( 16-C , 22-Cl) :   1.2236 B( 17-C , 18-C ) :   1.0201 B( 17-C , 21-Cl) :   1.1286
B( 18-C , 19-Cl) :   1.0886 B( 18-C , 20-Cl) :   1.1175

FINAL SINGLE POINT ENERGY     -3298.145465430925

DIPOLE MOMENT
-------------

Method             : SCF
Type of density    : Electron Density
Multiplicity       :   1
Irrep              :   0
Energy             : -3298.1631900765250975 Eh
Relativity type    :
Basis              : AO
                                X                 Y                 Z
Electronic contribution:    -28.270646264      -0.000695871      -5.993489453
Nuclear contribution   :     28.559698138       0.000796879       6.659171645
                        -----------------------------------------
Total Dipole Moment    :      0.289051873       0.000101008       0.665682192
                        -----------------------------------------
Magnitude (a.u.)       :      0.725729823
Magnitude (Debye)      :      1.844658614

Rotational constants in cm-1:             0.009958             0.007271             0.007077
Rotational constants in MHz :           298.537622           217.987710           212.165296

                             ****ORCA TERMINATED NORMALLY****
TOTAL RUN TIME: 0 days 0 hours 16 minutes 17 seconds 489 msec
