                         Program Version 6.0.0  -   RELEASE  -
|  1> ! wb97x-v def2-tzvp def2/J RIJCOSX DEFGRID2 scfconv7 GCP(DFT/TZ) printgap
|  2> %output
|  3>     printlevel normal
|  4> end
|  5> %cpcm
|  6>     smd true
|  7>     smdsolvent "water"
|  8> end
|  9> * xyz 0 1
| 10> C 2.924494197409857 0.00032240679069957457 -0.8378342258745329
| 11> C 2.5186294192335414 -1.1377541877021964 0.1051136159406623
| 12> H 2.65688002505439 -2.1632428354987403 -0.23844477874892758
| 13> C 1.0848684542447582 -0.786296624688856 0.5959838162605451
| 14> H 0.9695156274990846 -1.1897107598955678 1.6066779117975087
| 15> C 1.0848369569204643 0.7864015140325074 0.5960400942237946
| 16> H 0.969208419383893 1.189747345488151 1.6067275841520394
| 17> C 2.518648512687378 1.1380159163398686 0.10553661414197911
| 18> H 2.656941800487887 2.163636108769045 -0.23761242735227803
| 19> C 3.2980095482758793 0.7335840292782397 1.3741976590435525
| 20> H 3.2651376021692817 1.340778126000811 2.274336149077425
| 21> C 3.298062874274892 -0.7338091199489617 1.3738943929438254
| 22> H 3.265218141049493 -1.3413746557451764 2.273783819638757
| 23> O 4.52397414634403 -3.603582646321397e-05 1.1542185962246705
| 24> C -0.2700226039307236 1.1266401057530346 -0.11536967715364602
| 25> C -1.2898212472330475 0.6691629041400105 0.9396642992208436
| 26> C -1.2898135223353475 -0.6687855526809373 0.9398908105895988
| 27> C -0.27012020767708406 -1.1266173870232772 -0.11508431398309169
| 28> C -0.5670104105653705 -0.00014298064561315172 -1.1592450423625777
| 29> Cl -2.3125252723769543 -5.8614248375893486e-05 -1.6916880782242598
| 30> Cl 0.3296659479579717 -0.0006010757358793516 -2.6904486853251326
| 31> Cl -0.4442518212766144 -2.7867573903073413 -0.7046615330592925
| 32> Cl -2.1211776695935316 -1.7269746011056455 1.9865505292001142
| 33> Cl -2.1211892856815324 1.7277171215961744 1.985950086862294
| 34> Cl -0.44396604104356646 2.7866081020531124 -0.7054600233288887
| 35> H 2.417152950585847 0.000583263514411627 -1.7870559845218923
| 36> H 3.997663839467985 0.0003286247921611108 -1.0282217116998058
| 37> *
| 38>
| 39>                          ****END OF INPUT****

CARTESIAN COORDINATES (ANGSTROEM)
---------------------------------
  C      2.924494    0.000322   -0.837834
  C      2.518629   -1.137754    0.105114
  H      2.656880   -2.163243   -0.238445
  C      1.084868   -0.786297    0.595984
  H      0.969516   -1.189711    1.606678
  C      1.084837    0.786402    0.596040
  H      0.969208    1.189747    1.606728
  C      2.518649    1.138016    0.105537
  H      2.656942    2.163636   -0.237612
  C      3.298010    0.733584    1.374198
  H      3.265138    1.340778    2.274336
  C      3.298063   -0.733809    1.373894
  H      3.265218   -1.341375    2.273784
  O      4.523974   -0.000036    1.154219
  C     -0.270023    1.126640   -0.115370
  C     -1.289821    0.669163    0.939664
  C     -1.289814   -0.668786    0.939891
  C     -0.270120   -1.126617   -0.115084
  C     -0.567010   -0.000143   -1.159245
  Cl    -2.312525   -0.000059   -1.691688
  Cl     0.329666   -0.000601   -2.690449
  Cl    -0.444252   -2.786757   -0.704662
  Cl    -2.121178   -1.726975    1.986551
  Cl    -2.121189    1.727717    1.985950
  Cl    -0.443966    2.786608   -0.705460
  H      2.417153    0.000583   -1.787056
  H      3.997664    0.000329   -1.028222

 Total Charge           Charge          ....    0
 Multiplicity           Mult            ....    1
 Number of Electrons    NEL             ....  190
 Basis Dimension        Dim             ....  673

ORBITAL ENERGIES
----------------

  NO   OCC          E(Eh)            E(eV)
   0   2.0000    -107.176207     -2916.4128
   1   2.0000    -107.176180     -2916.4121
   2   2.0000    -107.167223     -2916.1684
   3   2.0000    -107.160905     -2915.9965
   4   2.0000    -107.160890     -2915.9961
   5   2.0000    -107.159063     -2915.9464
   6   2.0000     -21.695839      -590.3738
   7   2.0000     -12.216331      -332.4233
   8   2.0000     -12.173697      -331.2631
   9   2.0000     -12.173136      -331.2479
  10   2.0000     -12.146117      -330.5127
  11   2.0000     -12.143546      -330.4427
  12   2.0000     -12.105093      -329.3963
  13   2.0000     -12.103887      -329.3635
  14   2.0000     -12.087986      -328.9308
  15   2.0000     -12.086932      -328.9021
  16   2.0000     -12.067018      -328.3603
  17   2.0000     -12.066749      -328.3529
  18   2.0000     -12.035880      -327.5129
  19   2.0000     -11.328846      -308.2736
  20   2.0000     -11.328830      -308.2731
  21   2.0000     -11.321021      -308.0607
  22   2.0000     -11.314055      -307.8711
  23   2.0000     -11.314018      -307.8701
  24   2.0000     -11.312426      -307.8267
  25   2.0000      -9.120902      -248.1924
  26   2.0000      -9.120352      -248.1774
  27   2.0000      -9.117969      -248.1125
  28   2.0000      -9.117956      -248.1122
  29   2.0000      -9.117456      -248.0986
  30   2.0000      -9.117366      -248.0961
  31   2.0000      -9.112615      -247.9669
  32   2.0000      -9.109771      -247.8895
  33   2.0000      -9.109654      -247.8863
  34   2.0000      -9.105939      -247.7852
  35   2.0000      -9.105486      -247.7729
  36   2.0000      -9.103816      -247.7274
  37   2.0000      -9.102959      -247.7041
  38   2.0000      -9.102850      -247.7011
  39   2.0000      -9.102770      -247.6990
  40   2.0000      -9.102750      -247.6984
  41   2.0000      -9.100972      -247.6500
  42   2.0000      -9.100963      -247.6498
  43   2.0000      -1.724906       -46.9371
  44   2.0000      -1.517857       -41.3030
  45   2.0000      -1.465784       -39.8860
  46   2.0000      -1.451332       -39.4928
  47   2.0000      -1.434372       -39.0313
  48   2.0000      -1.430936       -38.9377
  49   2.0000      -1.405417       -38.2433
  50   2.0000      -1.401702       -38.1422
  51   2.0000      -1.376266       -37.4501
  52   2.0000      -1.276811       -34.7438
  53   2.0000      -1.271933       -34.6111
  54   2.0000      -1.231874       -33.5210
  55   2.0000      -1.228344       -33.4249
  56   2.0000      -1.220448       -33.2101
  57   2.0000      -1.109547       -30.1923
  58   2.0000      -1.103509       -30.0280
  59   2.0000      -1.061443       -28.8833
  60   2.0000      -1.056241       -28.7418
  61   2.0000      -1.037329       -28.2272
  62   2.0000      -1.016579       -27.6625
  63   2.0000      -1.009955       -27.4823
  64   2.0000      -0.987522       -26.8718
  65   2.0000      -0.974265       -26.5111
  66   2.0000      -0.963416       -26.2159
  67   2.0000      -0.949618       -25.8404
  68   2.0000      -0.937735       -25.5171
  69   2.0000      -0.928954       -25.2781
  70   2.0000      -0.928701       -25.2712
  71   2.0000      -0.918145       -24.9840
  72   2.0000      -0.899868       -24.4867
  73   2.0000      -0.877162       -23.8688
  74   2.0000      -0.873077       -23.7576
  75   2.0000      -0.859924       -23.3997
  76   2.0000      -0.843660       -22.9572
  77   2.0000      -0.834188       -22.6994
  78   2.0000      -0.827481       -22.5169
  79   2.0000      -0.827020       -22.5044
  80   2.0000      -0.823294       -22.4030
  81   2.0000      -0.819587       -22.3021
  82   2.0000      -0.817758       -22.2523
  83   2.0000      -0.811066       -22.0702
  84   2.0000      -0.809616       -22.0308
  85   2.0000      -0.808742       -22.0070
  86   2.0000      -0.808398       -21.9976
  87   2.0000      -0.799124       -21.7453
  88   2.0000      -0.799006       -21.7421
  89   2.0000      -0.794044       -21.6070
  90   2.0000      -0.787146       -21.4193
  91   2.0000      -0.783324       -21.3153
  92   2.0000      -0.767448       -20.8833
  93   2.0000      -0.764360       -20.7993
  94   2.0000      -0.705795       -19.2057
  95   0.0000      -0.356582        -9.7031
  96   0.0000      -0.323937        -8.8148
  97   0.0000      -0.301536        -8.2052
  98   0.0000      -0.293216        -7.9788
  99   0.0000      -0.270151        -7.3512

MULLIKEN ATOMIC CHARGES
-----------------------
   0 C :   -0.318722
   1 C :    0.147042
   2 H :    0.151018
   3 C :   -0.346329
   4 H :    0.140593
   5 C :   -0.346157
   6 H :    0.140615
   7 C :    0.147124
   8 H :    0.150976
   9 C :   -0.041646
  10 H :    0.159077
  11 C :   -0.041633
  12 H :    0.159069
  13 O :   -0.414203
  14 C :    0.341465
  15 C :   -0.107846
  16 C :   -0.107693
  17 C :    0.341489
  18 C :   -0.065159
  19 Cl:   -0.091033
  20 Cl:   -0.057369
  21 Cl:   -0.081053
  22 Cl:   -0.013961
  23 Cl:   -0.013964
  24 Cl:   -0.081046
  25 H :    0.124077
  26 H :    0.125268
Sum of atomic charges:   -0.0000000

LOEWDIN ATOMIC CHARGES
----------------------
   0 C :   -0.204942
   1 C :   -0.170364
   2 H :    0.151155
   3 C :   -0.129375
   4 H :    0.180690
   5 C :   -0.129373
   6 H :    0.180689
   7 C :   -0.170388
   8 H :    0.151158
   9 C :   -0.206871
  10 H :    0.146674
  11 C :   -0.206900
  12 H :    0.146676
  13 O :    0.111753
  14 C :   -0.471391
  15 C :   -0.480591
  16 C :   -0.480577
  17 C :   -0.471432
  18 C :   -0.674460
  19 Cl:    0.349256
  20 Cl:    0.409857
  21 Cl:    0.392373
  22 Cl:    0.462985
  23 Cl:    0.462994
  24 Cl:    0.392380
  25 H :    0.114461
  26 H :    0.143561

  Mayer bond orders larger than 0.100000
B(  0-C ,  1-C ) :   1.0050 B(  0-C ,  7-C ) :   1.0050 B(  0-C , 25-H ) :   0.9637
B(  0-C , 26-H ) :   0.9491 B(  1-C ,  2-H ) :   0.9251 B(  1-C ,  3-C ) :   0.9086
B(  1-C , 11-C ) :   0.8590 B(  3-C ,  4-H ) :   0.9297 B(  3-C ,  5-C ) :   1.1038
B(  3-C , 11-C ) :   0.1156 B(  3-C , 17-C ) :   0.8557 B(  3-C , 18-C ) :   0.1111
B(  5-C ,  6-H ) :   0.9297 B(  5-C ,  7-C ) :   0.9085 B(  5-C ,  9-C ) :   0.1156
B(  5-C , 14-C ) :   0.8558 B(  5-C , 18-C ) :   0.1109 B(  7-C ,  8-H ) :   0.9251
B(  7-C ,  9-C ) :   0.8589 B(  9-C , 10-H ) :   0.9746 B(  9-C , 11-C ) :   1.0349
B(  9-C , 13-O ) :   0.9775 B( 11-C , 12-H ) :   0.9746 B( 11-C , 13-O ) :   0.9775
B( 14-C , 15-C ) :   0.8621 B( 14-C , 18-C ) :   1.0247 B( 14-C , 24-Cl) :   1.1036
B( 15-C , 16-C ) :   1.7002 B( 15-C , 23-Cl) :   1.2125 B( 16-C , 17-C ) :   0.8621
B( 16-C , 22-Cl) :   1.2125 B( 17-C , 18-C ) :   1.0246 B( 17-C , 21-Cl) :   1.1036
B( 18-C , 19-Cl) :   1.0755 B( 18-C , 20-Cl) :   1.1317

FINAL SINGLE POINT ENERGY     -3298.153923003440

DIPOLE MOMENT
-------------

Method             : SCF
Type of density    : Electron Density
Multiplicity       :   1
Irrep              :   0
Energy             : -3298.1716476490400964 Eh
Relativity type    :
Basis              : AO
                                X                 Y                 Z
Electronic contribution:    -28.129546407      -0.000654461      -5.502961214
Nuclear contribution   :     28.559698138       0.000796879       6.659171645
                        -----------------------------------------
Total Dipole Moment    :      0.430151730       0.000142418       1.156210431
                        -----------------------------------------
Magnitude (a.u.)       :      1.233634099
Magnitude (Debye)      :      3.135648687

Rotational constants in cm-1:             0.009958             0.007271             0.007077
Rotational constants in MHz :           298.537622           217.987710           212.165296

                             ****ORCA TERMINATED NORMALLY****
TOTAL RUN TIME: 0 days 0 hours 17 minutes 9 seconds 47 msec
