                         Program Version 6.0.0  -   RELEASE  -
|  1> ! wb97x-v def2-tzvp def2/J RIJCOSX DEFGRID2 scfconv7 GCP(DFT/TZ) printgap
|  2> %output
|  3>     printlevel normal
|  4> end
|  5> * xyz 0 1
|  6> C -3.6531918476382215 0.04192765194590001 -0.030428411647803737
|  7> C -2.155275765676079 0.008335490743714927 -0.03048574834246564
|  8> C -1.4136565154633285 1.1949509215898668 -0.06372787963848654
|  9> C -0.026614562966210304 1.170802209138313 -0.09633866805772368
| 10> C 0.6638015092892114 -0.049629611438725366 -0.09522750014169497
| 11> C -0.07671317273920768 -1.239537477018012 -0.056894641861276074
| 12> C -1.4615262927017545 -1.2087064460935895 -0.023326292165316054
| 13> C 2.145130079901959 -0.11355349780006455 -0.1343719163608699
| 14> O 2.726732341926863 -1.2014648439456408 -0.15397469622655297
| 15> C 2.9285158049188915 1.1678484404377147 -0.15161432488478016
| 16> H -4.029409127671986 0.1626021786591727 -1.0537494175153048
| 17> H -4.0720443063663065 -0.8849366067385882 0.3689590338699901
| 18> H -4.030503124893266 0.8857559955263602 0.553895453415045
| 19> H -1.9345065794838119 2.1482642889878414 -0.0636361130832467
| 20> H 0.5163710867701693 2.1090955466593004 -0.1211946930393544
| 21> H 0.44611600863931833 -2.1899663115484698 -0.05003663517343913
| 22> H -2.020853980985978 -2.139375532232642 0.009815478671649414
| 23> H 2.685042716492905 1.7817769440405615 0.7217822291112358
| 24> H 2.673781730231368 1.7574208426471392 -1.0390900944635113
| 25> H 3.9956083453117883 0.9439722997935709 -0.15731654345166873
| 26> *
| 27>
| 28>                          ****END OF INPUT****

CARTESIAN COORDINATES (ANGSTROEM)
---------------------------------
  C     -3.653192    0.041928   -0.030428
  C     -2.155276    0.008335   -0.030486
  C     -1.413657    1.194951   -0.063728
  C     -0.026615    1.170802   -0.096339
  C      0.663802   -0.049630   -0.095228
  C     -0.076713   -1.239537   -0.056895
  C     -1.461526   -1.208706   -0.023326
  C      2.145130   -0.113553   -0.134372
  O      2.726732   -1.201465   -0.153975
  C      2.928516    1.167848   -0.151614
  H     -4.029409    0.162602   -1.053749
  H     -4.072044   -0.884937    0.368959
  H     -4.030503    0.885756    0.553895
  H     -1.934507    2.148264   -0.063636
  H      0.516371    2.109096   -0.121195
  H      0.446116   -2.189966   -0.050037
  H     -2.020854   -2.139376    0.009815
  H      2.685043    1.781777    0.721782
  H      2.673782    1.757421   -1.039090
  H      3.995608    0.943972   -0.157317

 Total Charge           Charge          ....    0
 Multiplicity           Mult            ....    1
 Number of Electrons    NEL             ....   72
 Basis Dimension        Dim             ....  370

ORBITAL ENERGIES
----------------

  NO   OCC          E(Eh)            E(eV)
   0   2.0000     -21.654843      -589.2582
   1   2.0000     -12.138535      -330.3063
   2   2.0000     -12.075671      -328.5957
   3   2.0000     -12.067914      -328.3846
   4   2.0000     -12.062670      -328.2419
   5   2.0000     -12.060082      -328.1715
   6   2.0000     -12.058852      -328.1381
   7   2.0000     -12.056575      -328.0761
   8   2.0000     -12.053513      -327.9928
   9   2.0000     -12.051129      -327.9279
  10   2.0000      -1.695581       -46.1391
  11   2.0000      -1.398674       -38.0598
  12   2.0000      -1.320681       -35.9376
  13   2.0000      -1.284731       -34.9593
  14   2.0000      -1.260250       -34.2931
  15   2.0000      -1.208739       -32.8915
  16   2.0000      -1.128862       -30.7179
  17   2.0000      -1.115879       -30.3646
  18   2.0000      -1.073379       -29.2081
  19   2.0000      -1.013072       -27.5671
  20   2.0000      -0.977257       -26.5925
  21   2.0000      -0.945842       -25.7377
  22   2.0000      -0.939181       -25.5564
  23   2.0000      -0.907997       -24.7079
  24   2.0000      -0.903352       -24.5815
  25   2.0000      -0.884442       -24.0669
  26   2.0000      -0.851156       -23.1611
  27   2.0000      -0.848586       -23.0912
  28   2.0000      -0.837716       -22.7954
  29   2.0000      -0.834592       -22.7104
  30   2.0000      -0.829749       -22.5786
  31   2.0000      -0.807475       -21.9725
  32   2.0000      -0.802014       -21.8239
  33   2.0000      -0.773894       -21.0587
  34   2.0000      -0.651942       -17.7402
  35   2.0000      -0.649282       -17.6679
  36   0.0000      -0.339940        -9.2502
  37   0.0000      -0.243744        -6.6326
  38   0.0000      -0.214195        -5.8285
  39   0.0000      -0.071988        -1.9589
  40   0.0000      -0.068404        -1.8614

MULLIKEN ATOMIC CHARGES
-----------------------
   0 C :   -0.365212
   1 C :    0.167117
   2 C :   -0.211522
   3 C :   -0.162601
   4 C :    0.068443
   5 C :   -0.151003
   6 C :   -0.169890
   7 C :    0.207573
   8 O :   -0.328737
   9 C :   -0.363149
  10 H :    0.130862
  11 H :    0.123523
  12 H :    0.124445
  13 H :    0.118582
  14 H :    0.133257
  15 H :    0.149047
  16 H :    0.120328
  17 H :    0.132690
  18 H :    0.132653
  19 H :    0.143593
Sum of atomic charges:   -0.0000000

LOEWDIN ATOMIC CHARGES
----------------------
   0 C :   -0.248116
   1 C :   -0.153492
   2 C :   -0.114859
   3 C :   -0.095136
   4 C :   -0.134148
   5 C :   -0.069202
   6 C :   -0.111427
   7 C :   -0.296568
   8 O :    0.100469
   9 C :   -0.257945
  10 H :    0.132030
  11 H :    0.126711
  12 H :    0.127531
  13 H :    0.145049
  14 H :    0.148021
  15 H :    0.155881
  16 H :    0.145457
  17 H :    0.133317
  18 H :    0.134240
  19 H :    0.132187

  Mayer bond orders larger than 0.100000
B(  0-C ,  1-C ) :   0.9232 B(  0-C , 10-H ) :   0.9605 B(  0-C , 11-H ) :   0.9929
B(  0-C , 12-H ) :   0.9882 B(  1-C ,  2-C ) :   1.3787 B(  1-C ,  6-C ) :   1.3645
B(  2-C ,  3-C ) :   1.4869 B(  2-C , 13-H ) :   0.9728 B(  3-C ,  4-C ) :   1.3172
B(  3-C , 14-H ) :   0.9582 B(  4-C ,  5-C ) :   1.3877 B(  4-C ,  7-C ) :   0.9475
B(  4-C ,  8-O ) :  -0.1326 B(  5-C ,  6-C ) :   1.4448 B(  5-C , 15-H ) :   0.9555
B(  6-C , 16-H ) :   0.9752 B(  7-C ,  8-O ) :   2.1096 B(  7-C ,  9-C ) :   1.0058
B(  9-C , 17-H ) :   0.9584 B(  9-C , 18-H ) :   0.9553 B(  9-C , 19-H ) :   0.9798

FINAL SINGLE POINT ENERGY      -424.231373627358

DIPOLE MOMENT
-------------

Method             : SCF
Type of density    : Electron Density
Multiplicity       :   1
Irrep              :   0
Energy             :  -424.2427365877584862 Eh
Relativity type    :
Basis              : AO
                                X                 Y                 Z
Electronic contribution:      4.409334521      -3.490525579      -0.015367143
Nuclear contribution   :     -5.455996297       4.479287119       0.023651541
                        -----------------------------------------
Total Dipole Moment    :     -1.046661777       0.988761540       0.008284398
                        -----------------------------------------
Magnitude (a.u.)       :      1.439867664
Magnitude (Debye)      :      3.659852748

Rotational constants in cm-1:             0.120588             0.026333             0.021790
Rotational constants in MHz :          3615.126141           789.450475           653.234180

                             ****ORCA TERMINATED NORMALLY****
TOTAL RUN TIME: 0 days 0 hours 4 minutes 7 seconds 563 msec
