                         Program Version 6.0.0  -   RELEASE  -
|  1> ! wb97x-v def2-tzvp def2/J RIJCOSX DEFGRID2 scfconv7 GCP(DFT/TZ) printgap
|  2> %output
|  3>     printlevel normal
|  4> end
|  5> %cpcm
|  6>     smd true
|  7>     smdsolvent "water"
|  8> end
|  9> * xyz 0 1
| 10> C -3.6531918476382215 0.04192765194590001 -0.030428411647803737
| 11> C -2.155275765676079 0.008335490743714927 -0.03048574834246564
| 12> C -1.4136565154633285 1.1949509215898668 -0.06372787963848654
| 13> C -0.026614562966210304 1.170802209138313 -0.09633866805772368
| 14> C 0.6638015092892114 -0.049629611438725366 -0.09522750014169497
| 15> C -0.07671317273920768 -1.239537477018012 -0.056894641861276074
| 16> C -1.4615262927017545 -1.2087064460935895 -0.023326292165316054
| 17> C 2.145130079901959 -0.11355349780006455 -0.1343719163608699
| 18> O 2.726732341926863 -1.2014648439456408 -0.15397469622655297
| 19> C 2.9285158049188915 1.1678484404377147 -0.15161432488478016
| 20> H -4.029409127671986 0.1626021786591727 -1.0537494175153048
| 21> H -4.0720443063663065 -0.8849366067385882 0.3689590338699901
| 22> H -4.030503124893266 0.8857559955263602 0.553895453415045
| 23> H -1.9345065794838119 2.1482642889878414 -0.0636361130832467
| 24> H 0.5163710867701693 2.1090955466593004 -0.1211946930393544
| 25> H 0.44611600863931833 -2.1899663115484698 -0.05003663517343913
| 26> H -2.020853980985978 -2.139375532232642 0.009815478671649414
| 27> H 2.685042716492905 1.7817769440405615 0.7217822291112358
| 28> H 2.673781730231368 1.7574208426471392 -1.0390900944635113
| 29> H 3.9956083453117883 0.9439722997935709 -0.15731654345166873
| 30> *
| 31>
| 32>                          ****END OF INPUT****

CARTESIAN COORDINATES (ANGSTROEM)
---------------------------------
  C     -3.653192    0.041928   -0.030428
  C     -2.155276    0.008335   -0.030486
  C     -1.413657    1.194951   -0.063728
  C     -0.026615    1.170802   -0.096339
  C      0.663802   -0.049630   -0.095228
  C     -0.076713   -1.239537   -0.056895
  C     -1.461526   -1.208706   -0.023326
  C      2.145130   -0.113553   -0.134372
  O      2.726732   -1.201465   -0.153975
  C      2.928516    1.167848   -0.151614
  H     -4.029409    0.162602   -1.053749
  H     -4.072044   -0.884937    0.368959
  H     -4.030503    0.885756    0.553895
  H     -1.934507    2.148264   -0.063636
  H      0.516371    2.109096   -0.121195
  H      0.446116   -2.189966   -0.050037
  H     -2.020854   -2.139376    0.009815
  H      2.685043    1.781777    0.721782
  H      2.673782    1.757421   -1.039090
  H      3.995608    0.943972   -0.157317

 Total Charge           Charge          ....    0
 Multiplicity           Mult            ....    1
 Number of Electrons    NEL             ....   72
 Basis Dimension        Dim             ....  370

ORBITAL ENERGIES
----------------

  NO   OCC          E(Eh)            E(eV)
   0   2.0000     -21.666937      -589.5873
   1   2.0000     -12.148656      -330.5817
   2   2.0000     -12.069303      -328.4224
   3   2.0000     -12.061329      -328.2054
   4   2.0000     -12.059732      -328.1620
   5   2.0000     -12.057743      -328.1079
   6   2.0000     -12.049878      -327.8939
   7   2.0000     -12.049496      -327.8835
   8   2.0000     -12.040387      -327.6356
   9   2.0000     -12.036216      -327.5221
  10   2.0000      -1.711553       -46.5737
  11   2.0000      -1.394155       -37.9369
  12   2.0000      -1.315727       -35.8028
  13   2.0000      -1.279333       -34.8124
  14   2.0000      -1.254485       -34.1363
  15   2.0000      -1.198835       -32.6220
  16   2.0000      -1.126884       -30.6641
  17   2.0000      -1.109870       -30.2011
  18   2.0000      -1.078620       -29.3508
  19   2.0000      -1.016292       -27.6547
  20   2.0000      -0.974922       -26.5290
  21   2.0000      -0.946043       -25.7431
  22   2.0000      -0.932705       -25.3802
  23   2.0000      -0.918867       -25.0036
  24   2.0000      -0.899340       -24.4723
  25   2.0000      -0.877075       -23.8664
  26   2.0000      -0.843418       -22.9506
  27   2.0000      -0.834145       -22.6982
  28   2.0000      -0.825826       -22.4719
  29   2.0000      -0.823590       -22.4110
  30   2.0000      -0.822606       -22.3843
  31   2.0000      -0.806594       -21.9485
  32   2.0000      -0.794792       -21.6274
  33   2.0000      -0.769552       -20.9406
  34   2.0000      -0.647987       -17.6326
  35   2.0000      -0.644955       -17.5501
  36   0.0000      -0.339467        -9.2374
  37   0.0000      -0.238482        -6.4894
  38   0.0000      -0.211031        -5.7424
  39   0.0000      -0.066744        -1.8162
  40   0.0000      -0.062927        -1.7123

MULLIKEN ATOMIC CHARGES
-----------------------
   0 C :   -0.394692
   1 C :    0.153211
   2 C :   -0.248320
   3 C :   -0.182984
   4 C :    0.065001
   5 C :   -0.170454
   6 C :   -0.231750
   7 C :    0.282450
   8 O :   -0.461129
   9 C :   -0.385932
  10 H :    0.147702
  11 H :    0.145578
  12 H :    0.146229
  13 H :    0.161725
  14 H :    0.177263
  15 H :    0.157006
  16 H :    0.161645
  17 H :    0.165467
  18 H :    0.165650
  19 H :    0.146333
Sum of atomic charges:   -0.0000000

LOEWDIN ATOMIC CHARGES
----------------------
   0 C :   -0.247187
   1 C :   -0.152419
   2 C :   -0.114368
   3 C :   -0.087555
   4 C :   -0.144656
   5 C :   -0.084977
   6 C :   -0.115819
   7 C :   -0.281384
   8 O :    0.022038
   9 C :   -0.250624
  10 H :    0.137590
  11 H :    0.132011
  12 H :    0.133367
  13 H :    0.156241
  14 H :    0.161247
  15 H :    0.155584
  16 H :    0.155711
  17 H :    0.146133
  18 H :    0.147150
  19 H :    0.131917

  Mayer bond orders larger than 0.100000
B(  0-C ,  1-C ) :   0.9384 B(  0-C , 10-H ) :   0.9541 B(  0-C , 11-H ) :   0.9867
B(  0-C , 12-H ) :   0.9808 B(  1-C ,  2-C ) :   1.3529 B(  1-C ,  6-C ) :   1.3495
B(  2-C ,  3-C ) :   1.4621 B(  2-C , 13-H ) :   0.9823 B(  3-C ,  4-C ) :   1.3064
B(  3-C , 14-H ) :   0.9653 B(  4-C ,  5-C ) :   1.3194 B(  4-C ,  7-C ) :   0.9715
B(  4-C ,  8-O ) :  -0.1254 B(  5-C ,  6-C ) :   1.4600 B(  5-C , 15-H ) :   0.9645
B(  6-C , 16-H ) :   0.9808 B(  7-C ,  8-O ) :   1.9676 B(  7-C ,  9-C ) :   1.0376
B(  9-C , 17-H ) :   0.9460 B(  9-C , 18-H ) :   0.9429 B(  9-C , 19-H ) :   0.9702

FINAL SINGLE POINT ENERGY      -424.239906874366

DIPOLE MOMENT
-------------

Method             : SCF
Type of density    : Electron Density
Multiplicity       :   1
Irrep              :   0
Energy             :  -424.2512698347660489 Eh
Relativity type    :
Basis              : AO
                                X                 Y                 Z
Electronic contribution:      3.913045647      -2.905212987      -0.011945093
Nuclear contribution   :     -5.455996297       4.479287119       0.023651541
                        -----------------------------------------
Total Dipole Moment    :     -1.542950650       1.574074132       0.011706447
                        -----------------------------------------
Magnitude (a.u.)       :      2.204210317
Magnitude (Debye)      :      5.602657376

Rotational constants in cm-1:             0.120588             0.026333             0.021790
Rotational constants in MHz :          3615.126141           789.450475           653.234180

                             ****ORCA TERMINATED NORMALLY****
TOTAL RUN TIME: 0 days 0 hours 3 minutes 56 seconds 30 msec
