                         Program Version 6.0.0  -   RELEASE  -
|  1> ! r2scan-3c def2/J RI DEFGRID2 scfconv6 printgap
|  2> %output
|  3>     printlevel normal
|  4> end
|  5> * xyz 0 1
|  6> C 1.3352528365 1.328512605 6.9642e-06
|  7> C -0.0286234949 1.1070580105 -6.25069e-05
|  8> C -0.4957953065 -0.2113582785 -1.99947e-05
|  9> C 0.4493863373 -1.2418081333 1.54631e-05
| 10> N 1.7508341331 -1.029545362 -7.1422e-06
| 11> C 2.1805725832 0.2251356653 1.90306e-05
| 12> C -1.9272228965 -0.5044825448 1.88718e-05
| 13> O -2.8086783957 0.3276078356 1.7075e-06
| 14> H 1.7385689508 2.3276526686 0.0001062343
| 15> H -0.7433883194 1.9167712415 0.0002544017
| 16> H 0.1389513024 -2.2782194679 -9.17346e-05
| 17> H 3.2549569818 0.344136525 3.5769e-06
| 18> H -2.1720155142 -1.5813595609 6.38735e-05
| 19> *
| 20>
| 21>                          ****END OF INPUT****

CARTESIAN COORDINATES (ANGSTROEM)
---------------------------------
  C      1.335253    1.328513    0.000007
  C     -0.028623    1.107058   -0.000063
  C     -0.495795   -0.211358   -0.000020
  C      0.449386   -1.241808    0.000015
  N      1.750834   -1.029545   -0.000007
  C      2.180573    0.225136    0.000019
  C     -1.927223   -0.504483    0.000019
  O     -2.808678    0.327608    0.000002
  H      1.738569    2.327653    0.000106
  H     -0.743388    1.916771    0.000254
  H      0.138951   -2.278219   -0.000092
  H      3.254957    0.344137    0.000004
  H     -2.172016   -1.581360    0.000064

 Total Charge           Charge          ....    0
 Multiplicity           Mult            ....    1
 Number of Electrons    NEL             ....   56
 Basis Dimension        Dim             ....  187

ORBITAL ENERGIES
----------------

  NO   OCC          E(Eh)            E(eV)
   0   2.0000     -18.957496      -515.8597
   1   2.0000     -14.176170      -385.7532
   2   2.0000     -10.129756      -275.6447
   3   2.0000     -10.094334      -274.6808
   4   2.0000     -10.092754      -274.6378
   5   2.0000     -10.075973      -274.1812
   6   2.0000     -10.068558      -273.9794
   7   2.0000     -10.066219      -273.9157
   8   2.0000      -1.020599       -27.7719
   9   2.0000      -0.938610       -25.5409
  10   2.0000      -0.801262       -21.8034
  11   2.0000      -0.764721       -20.8091
  12   2.0000      -0.654782       -17.8175
  13   2.0000      -0.623844       -16.9756
  14   2.0000      -0.564208       -15.3529
  15   2.0000      -0.513116       -13.9626
  16   2.0000      -0.488271       -13.2865
  17   2.0000      -0.457974       -12.4621
  18   2.0000      -0.424989       -11.5645
  19   2.0000      -0.410276       -11.1642
  20   2.0000      -0.410127       -11.1601
  21   2.0000      -0.388921       -10.5831
  22   2.0000      -0.372669       -10.1408
  23   2.0000      -0.362160        -9.8549
  24   2.0000      -0.291633        -7.9357
  25   2.0000      -0.271250        -7.3811
  26   2.0000      -0.251003        -6.8301
  27   2.0000      -0.230787        -6.2800
  28   0.0000      -0.112454        -3.0600
  29   0.0000      -0.070498        -1.9183
  30   0.0000      -0.012642        -0.3440
  31   0.0000       0.076530         2.0825
  32   0.0000       0.091284         2.4840

MULLIKEN ATOMIC CHARGES
-----------------------
   0 C :   -0.100868
   1 C :   -0.151678
   2 C :    0.290265
   3 C :   -0.189234
   4 N :   -0.178075
   5 C :   -0.057248
   6 C :    0.000662
   7 O :   -0.339584
   8 H :    0.154498
   9 H :    0.182699
  10 H :    0.142160
  11 H :    0.139573
  12 H :    0.106829
Sum of atomic charges:    0.0000000

LOEWDIN ATOMIC CHARGES
----------------------
   0 C :   -0.136485
   1 C :   -0.064083
   2 C :   -0.081308
   3 C :    0.108960
   4 N :   -0.601906
   5 C :    0.104907
   6 C :    0.216211
   7 O :   -0.449095
   8 H :    0.174008
   9 H :    0.189527
  10 H :    0.191139
  11 H :    0.188542
  12 H :    0.159583

  Mayer bond orders larger than 0.100000
B(  0-C ,  1-C ) :   1.4162 B(  0-C ,  5-C ) :   1.3214 B(  0-C ,  8-H ) :   0.9447
B(  1-C ,  2-C ) :   1.3075 B(  1-C ,  9-H ) :   0.9583 B(  2-C ,  3-C ) :   1.2471
B(  2-C ,  6-C ) :   0.8434 B(  2-C ,  7-O ) :  -0.1183 B(  2-C , 12-H ) :  -0.1043
B(  3-C ,  4-N ) :   1.4860 B(  3-C , 10-H ) :   0.9857 B(  4-N ,  5-C ) :   1.4549
B(  5-C , 11-H ) :   0.9791 B(  6-C ,  7-O ) :   1.9546 B(  6-C , 12-H ) :   1.0292

Dispersion correction           -0.004110682
FINAL SINGLE POINT ENERGY      -361.523063796302

DIPOLE MOMENT
-------------

Method             : SCF
Type of density    : Electron Density
Multiplicity       :   1
Irrep              :   0
Energy             :  -361.5248870780051220 Eh
Relativity type    :
Basis              : AO
                                X                 Y                 Z
Electronic contribution:     -1.332450039      -0.477108339      -0.000220141
Nuclear contribution   :      2.048012597       0.683098111       0.000315543
                        -----------------------------------------
Total Dipole Moment    :      0.715562558       0.205989773       0.000095402
                        -----------------------------------------
Magnitude (a.u.)       :      0.744621763
Magnitude (Debye)      :      1.892678107

Rotational constants in cm-1:             0.182751             0.053224             0.041219
Rotational constants in MHz :          5478.724506          1595.611343          1235.722358

                             ****ORCA TERMINATED NORMALLY****
TOTAL RUN TIME: 0 days 0 hours 0 minutes 20 seconds 962 msec
