                         Program Version 6.0.0  -   RELEASE  -
|  1> ! r2scan-3c def2/J RI DEFGRID2 scfconv6 printgap
|  2> %output
|  3>     printlevel normal
|  4> end
|  5> %cpcm
|  6>     smd true
|  7>     smdsolvent "water"
|  8> end
|  9> * xyz 0 1
| 10> C 1.3352528365 1.328512605 6.9642e-06
| 11> C -0.0286234949 1.1070580105 -6.25069e-05
| 12> C -0.4957953065 -0.2113582785 -1.99947e-05
| 13> C 0.4493863373 -1.2418081333 1.54631e-05
| 14> N 1.7508341331 -1.029545362 -7.1422e-06
| 15> C 2.1805725832 0.2251356653 1.90306e-05
| 16> C -1.9272228965 -0.5044825448 1.88718e-05
| 17> O -2.8086783957 0.3276078356 1.7075e-06
| 18> H 1.7385689508 2.3276526686 0.0001062343
| 19> H -0.7433883194 1.9167712415 0.0002544017
| 20> H 0.1389513024 -2.2782194679 -9.17346e-05
| 21> H 3.2549569818 0.344136525 3.5769e-06
| 22> H -2.1720155142 -1.5813595609 6.38735e-05
| 23> *
| 24>
| 25>                          ****END OF INPUT****

CARTESIAN COORDINATES (ANGSTROEM)
---------------------------------
  C      1.335253    1.328513    0.000007
  C     -0.028623    1.107058   -0.000063
  C     -0.495795   -0.211358   -0.000020
  C      0.449386   -1.241808    0.000015
  N      1.750834   -1.029545   -0.000007
  C      2.180573    0.225136    0.000019
  C     -1.927223   -0.504483    0.000019
  O     -2.808678    0.327608    0.000002
  H      1.738569    2.327653    0.000106
  H     -0.743388    1.916771    0.000254
  H      0.138951   -2.278219   -0.000092
  H      3.254957    0.344137    0.000004
  H     -2.172016   -1.581360    0.000064

 Total Charge           Charge          ....    0
 Multiplicity           Mult            ....    1
 Number of Electrons    NEL             ....   56
 Basis Dimension        Dim             ....  187

ORBITAL ENERGIES
----------------

  NO   OCC          E(Eh)            E(eV)
   0   2.0000     -18.960782      -515.9491
   1   2.0000     -14.170088      -385.5877
   2   2.0000     -10.128609      -275.6135
   3   2.0000     -10.083537      -274.3870
   4   2.0000     -10.080842      -274.3137
   5   2.0000     -10.064066      -273.8572
   6   2.0000     -10.058839      -273.7149
   7   2.0000     -10.050969      -273.5008
   8   2.0000      -1.025796       -27.9133
   9   2.0000      -0.930795       -25.3282
  10   2.0000      -0.791417       -21.5356
  11   2.0000      -0.752749       -20.4834
  12   2.0000      -0.645512       -17.5653
  13   2.0000      -0.611309       -16.6346
  14   2.0000      -0.555420       -15.1137
  15   2.0000      -0.501506       -13.6467
  16   2.0000      -0.479060       -13.0359
  17   2.0000      -0.447242       -12.1701
  18   2.0000      -0.416358       -11.3297
  19   2.0000      -0.410661       -11.1746
  20   2.0000      -0.404608       -11.0099
  21   2.0000      -0.378929       -10.3112
  22   2.0000      -0.372830       -10.1452
  23   2.0000      -0.348223        -9.4756
  24   2.0000      -0.283637        -7.7182
  25   2.0000      -0.262067        -7.1312
  26   2.0000      -0.249700        -6.7947
  27   2.0000      -0.232667        -6.3312
  28   0.0000      -0.106874        -2.9082
  29   0.0000      -0.060324        -1.6415
  30   0.0000      -0.005403        -0.1470
  31   0.0000       0.087214         2.3732
  32   0.0000       0.108706         2.9580

MULLIKEN ATOMIC CHARGES
-----------------------
   0 C :   -0.140489
   1 C :   -0.151735
   2 C :    0.268578
   3 C :   -0.178100
   4 N :   -0.233638
   5 C :   -0.060799
   6 C :    0.040424
   7 O :   -0.432245
   8 H :    0.192587
   9 H :    0.202598
  10 H :    0.176327
  11 H :    0.170818
  12 H :    0.145674
Sum of atomic charges:    0.0000000

LOEWDIN ATOMIC CHARGES
----------------------
   0 C :   -0.128743
   1 C :   -0.059082
   2 C :   -0.084994
   3 C :    0.118487
   4 N :   -0.640854
   5 C :    0.110232
   6 C :    0.236660
   7 O :   -0.518513
   8 H :    0.188143
   9 H :    0.195207
  10 H :    0.204399
  11 H :    0.199807
  12 H :    0.179251

  Mayer bond orders larger than 0.100000
B(  0-C ,  1-C ) :   1.4224 B(  0-C ,  5-C ) :   1.3330 B(  0-C ,  8-H ) :   0.9423
B(  1-C ,  2-C ) :   1.2530 B(  1-C ,  9-H ) :   0.9540 B(  2-C ,  3-C ) :   1.2745
B(  2-C ,  6-C ) :   0.8983 B(  2-C ,  7-O ) :  -0.1101 B(  3-C ,  4-N ) :   1.4865
B(  3-C , 10-H ) :   0.9643 B(  4-N ,  5-C ) :   1.4453 B(  5-C , 11-H ) :   0.9644
B(  6-C ,  7-O ) :   1.8921 B(  6-C , 12-H ) :   1.0000

Dispersion correction           -0.004110682
FINAL SINGLE POINT ENERGY      -361.533853574954

DIPOLE MOMENT
-------------

Method             : SCF
Type of density    : Electron Density
Multiplicity       :   1
Irrep              :   0
Energy             :  -361.5356768566576875 Eh
Relativity type    :
Basis              : AO
                                X                 Y                 Z
Electronic contribution:     -1.045636548      -0.481597160      -0.000181927
Nuclear contribution   :      2.048012597       0.683098111       0.000315543
                        -----------------------------------------
Total Dipole Moment    :      1.002376049       0.201500951       0.000133616
                        -----------------------------------------
Magnitude (a.u.)       :      1.022428674
Magnitude (Debye)      :      2.598807160

Rotational constants in cm-1:             0.182751             0.053224             0.041219
Rotational constants in MHz :          5478.724506          1595.611343          1235.722358

                             ****ORCA TERMINATED NORMALLY****
TOTAL RUN TIME: 0 days 0 hours 0 minutes 21 seconds 320 msec
