                         Program Version 6.0.0  -   RELEASE  -
|  1> ! pbe def2-sv(p) def2/J RI DEFGRID1 loosescf d4 GCP(DFT/SV(P)) printgap
|  2> %output
|  3>     printlevel normal
|  4> end
|  5> * xyz 0 1
|  6> C 2.4841165233 -3.09027e-05 -0.0798522825
|  7> C 1.0143188991 -7.7977e-05 0.3320022174
|  8> C 0.3011542533 1.2493904912 -0.1875152541
|  9> C -1.1686176498 1.2520097964 0.2232297882
| 10> C -1.8705695694 -4.00276e-05 -0.2938435545
| 11> C -1.1685795743 -1.251947952 0.2234713977
| 12> C 0.3010354578 -1.2493584402 -0.1877731026
| 13> H 2.9891730111 -0.8826805971 0.3056896675
| 14> H 2.5736818873 0.0004309488 -1.1642587466
| 15> H 2.9894188588 0.8823972481 0.3061946267
| 16> H 0.9584240025 -0.0001974614 1.4269913228
| 17> H 0.7951469751 2.1432188602 0.1999642605
| 18> H 0.3723941785 1.2746050567 -1.2776495199
| 19> H -1.2396233974 1.281789404 1.313152536
| 20> H -1.6612940358 2.1442733431 -0.1686012139
| 21> H -2.9153065461 -1.1266e-05 0.0236020251
| 22> H -1.8516561067 -0.0001485855 -1.3861251857
| 23> H -1.2391462404 -1.2812231305 1.3134426445
| 24> H -1.6614428411 -2.1443611311 -0.1677818997
| 25> H 0.7951329608 -2.1433520124 0.1991626444
| 26> H 0.3718891176 -1.2740851077 -1.2779427296
| 27> *
| 28>
| 29>                          ****END OF INPUT****

CARTESIAN COORDINATES (ANGSTROEM)
---------------------------------
  C      2.484117   -0.000031   -0.079852
  C      1.014319   -0.000078    0.332002
  C      0.301154    1.249390   -0.187515
  C     -1.168618    1.252010    0.223230
  C     -1.870570   -0.000040   -0.293844
  C     -1.168580   -1.251948    0.223471
  C      0.301035   -1.249358   -0.187773
  H      2.989173   -0.882681    0.305690
  H      2.573682    0.000431   -1.164259
  H      2.989419    0.882397    0.306195
  H      0.958424   -0.000197    1.426991
  H      0.795147    2.143219    0.199964
  H      0.372394    1.274605   -1.277650
  H     -1.239623    1.281789    1.313153
  H     -1.661294    2.144273   -0.168601
  H     -2.915307   -0.000011    0.023602
  H     -1.851656   -0.000149   -1.386125
  H     -1.239146   -1.281223    1.313443
  H     -1.661443   -2.144361   -0.167782
  H      0.795133   -2.143352    0.199163
  H      0.371889   -1.274085   -1.277943

 Total Charge           Charge          ....    0
 Multiplicity           Mult            ....    1
 Number of Electrons    NEL             ....   56
 Basis Dimension        Dim             ....  126

ORBITAL ENERGIES
----------------

  NO   OCC          E(Eh)            E(eV)
   0   2.0000      -9.886304      -269.0200
   1   2.0000      -9.876367      -268.7496
   2   2.0000      -9.876357      -268.7493
   3   2.0000      -9.876256      -268.7466
   4   2.0000      -9.875391      -268.7231
   5   2.0000      -9.875376      -268.7227
   6   2.0000      -9.868498      -268.5355
   7   2.0000      -0.753711       -20.5095
   8   2.0000      -0.683411       -18.5966
   9   2.0000      -0.660535       -17.9741
  10   2.0000      -0.598369       -16.2825
  11   2.0000      -0.537049       -14.6138
  12   2.0000      -0.514406       -13.9977
  13   2.0000      -0.491764       -13.3816
  14   2.0000      -0.423008       -11.5106
  15   2.0000      -0.399005       -10.8575
  16   2.0000      -0.391776       -10.6608
  17   2.0000      -0.381187       -10.3726
  18   2.0000      -0.363658        -9.8956
  19   2.0000      -0.338123        -9.2008
  20   2.0000      -0.329238        -8.9590
  21   2.0000      -0.319176        -8.6852
  22   2.0000      -0.303356        -8.2547
  23   2.0000      -0.296283        -8.0623
  24   2.0000      -0.287625        -7.8267
  25   2.0000      -0.275360        -7.4929
  26   2.0000      -0.252800        -6.8790
  27   2.0000      -0.250045        -6.8041
  28   0.0000       0.036611         0.9962
  29   0.0000       0.049617         1.3501
  30   0.0000       0.058253         1.5852
  31   0.0000       0.070999         1.9320
  32   0.0000       0.103170         2.8074

MULLIKEN ATOMIC CHARGES
-----------------------
   0 C :   -0.203181
   1 C :   -0.201040
   2 C :   -0.131502
   3 C :   -0.132893
   4 C :   -0.161199
   5 C :   -0.132868
   6 C :   -0.131455
   7 H :    0.094027
   8 H :    0.088997
   9 H :    0.094028
  10 H :    0.062544
  11 H :    0.078268
  12 H :    0.068040
  13 H :    0.070996
  14 H :    0.081966
  15 H :    0.083042
  16 H :    0.072974
  17 H :    0.070987
  18 H :    0.081970
  19 H :    0.078263
  20 H :    0.068033
Sum of atomic charges:   -0.0000000

LOEWDIN ATOMIC CHARGES
----------------------
   0 C :   -0.327367
   1 C :   -0.153909
   2 C :   -0.217775
   3 C :   -0.226234
   4 C :   -0.227423
   5 C :   -0.226230
   6 C :   -0.217772
   7 H :    0.116071
   8 H :    0.115822
   9 H :    0.116065
  10 H :    0.112439
  11 H :    0.113643
  12 H :    0.112496
  13 H :    0.113274
  14 H :    0.114730
  15 H :    0.114895
  16 H :    0.113146
  17 H :    0.113272
  18 H :    0.114725
  19 H :    0.113636
  20 H :    0.112496

  Mayer bond orders larger than 0.100000
B(  0-C ,  1-C ) :   1.1148 B(  0-C ,  7-H ) :   0.9490 B(  0-C ,  8-H ) :   0.9469
B(  0-C ,  9-H ) :   0.9490 B(  1-C ,  2-C ) :   1.0934 B(  1-C ,  6-C ) :   1.0934
B(  1-C , 10-H ) :   0.8939 B(  2-C ,  3-C ) :   1.1360 B(  2-C , 11-H ) :   0.9168
B(  2-C , 12-H ) :   0.9095 B(  3-C ,  4-C ) :   1.1350 B(  3-C , 13-H ) :   0.9121
B(  3-C , 14-H ) :   0.9197 B(  4-C ,  5-C ) :   1.1350 B(  4-C , 15-H ) :   0.9202
B(  4-C , 16-H ) :   0.9154 B(  5-C ,  6-C ) :   1.1360 B(  5-C , 17-H ) :   0.9121
B(  5-C , 18-H ) :   0.9197 B(  6-C , 19-H ) :   0.9168 B(  6-C , 20-H ) :   0.9095

Dispersion correction           -0.018376214
FINAL SINGLE POINT ENERGY      -274.492170195426

DIPOLE MOMENT
-------------

Method             : SCF
Type of density    : Electron Density
Multiplicity       :   1
Irrep              :   0
Energy             :  -274.5635251170475613 Eh
Relativity type    :
Basis              : AO
                                X                 Y                 Z
Electronic contribution:     -1.219669678      -0.000598324       0.357324770
Nuclear contribution   :      1.197838899       0.000615031      -0.332259416
                        -----------------------------------------
Total Dipole Moment    :     -0.021830779       0.000016707       0.025065354
                        -----------------------------------------
Magnitude (a.u.)       :      0.033239362
Magnitude (Debye)      :      0.084487743

Rotational constants in cm-1:             0.141937             0.073849             0.053828
Rotational constants in MHz :          4255.169066          2213.923321          1613.722732

                             ****ORCA TERMINATED NORMALLY****
TOTAL RUN TIME: 0 days 0 hours 0 minutes 8 seconds 997 msec
