                         Program Version 6.0.0  -   RELEASE  -
|  1> ! r2scan-3c def2/J RI DEFGRID2 scfconv6 printgap
|  2> %output
|  3>     printlevel normal
|  4> end
|  5> * xyz 0 1
|  6> C -2.6156757167 1.5603689049 0.1135511233
|  7> C -1.9672868125 0.186346394 -0.0092580442
|  8> C -0.4561616375 0.1806849678 0.011562178
|  9> C 0.3020146963 1.3355585535 0.1356068777
| 10> C 1.686146768 1.2975466258 0.1515507737
| 11> C 2.3442654403 0.086407445 0.0419978712
| 12> C 1.6129517996 -1.0788460768 -0.0827363401
| 13> C 0.2239131234 -1.0394312655 -0.0984793183
| 14> O -0.4200412118 -2.237475842 -0.2248876101
| 15> H -2.3439679505 2.0358950031 1.05262997
| 16> H -3.6975918645 1.452822483 0.0875097954
| 17> H -2.3182616543 2.2053496849 -0.7094793162
| 18> H -2.304933651 -0.2664652267 -0.9479623972
| 19> H -2.3298825655 -0.4360646202 0.8161908395
| 20> H -0.1907876456 2.2901162303 0.2222938241
| 21> H 2.24682477 2.2145278868 0.2495065974
| 22> H 3.4225786106 0.044491306 0.0531870993
| 23> H 2.0957791511 -2.0398319606 -0.1702258151
| 24> H -1.3800711287 -2.1165472925 -0.2273943929
| 25> *
| 26>
| 27>                          ****END OF INPUT****

CARTESIAN COORDINATES (ANGSTROEM)
---------------------------------
  C     -2.615676    1.560369    0.113551
  C     -1.967287    0.186346   -0.009258
  C     -0.456162    0.180685    0.011562
  C      0.302015    1.335559    0.135607
  C      1.686147    1.297547    0.151551
  C      2.344265    0.086407    0.041998
  C      1.612952   -1.078846   -0.082736
  C      0.223913   -1.039431   -0.098479
  O     -0.420041   -2.237476   -0.224888
  H     -2.343968    2.035895    1.052630
  H     -3.697592    1.452822    0.087510
  H     -2.318262    2.205350   -0.709479
  H     -2.304934   -0.266465   -0.947962
  H     -2.329883   -0.436065    0.816191
  H     -0.190788    2.290116    0.222294
  H      2.246825    2.214528    0.249507
  H      3.422579    0.044491    0.053187
  H      2.095779   -2.039832   -0.170226
  H     -1.380071   -2.116547   -0.227394

 Total Charge           Charge          ....    0
 Multiplicity           Mult            ....    1
 Number of Electrons    NEL             ....   66
 Basis Dimension        Dim             ....  226

ORBITAL ENERGIES
----------------

  NO   OCC          E(Eh)            E(eV)
   0   2.0000     -18.983201      -516.5592
   1   2.0000     -10.091276      -274.5976
   2   2.0000     -10.050107      -273.4773
   3   2.0000     -10.040991      -273.2292
   4   2.0000     -10.031323      -272.9662
   5   2.0000     -10.030234      -272.9365
   6   2.0000     -10.029369      -272.9130
   7   2.0000     -10.025066      -272.7959
   8   2.0000     -10.022760      -272.7332
   9   2.0000      -1.025745       -27.9119
  10   2.0000      -0.822682       -22.3863
  11   2.0000      -0.763809       -20.7843
  12   2.0000      -0.707182       -19.2434
  13   2.0000      -0.694946       -18.9104
  14   2.0000      -0.621447       -16.9104
  15   2.0000      -0.573463       -15.6047
  16   2.0000      -0.555491       -15.1157
  17   2.0000      -0.510866       -13.9014
  18   2.0000      -0.458073       -12.4648
  19   2.0000      -0.437828       -11.9139
  20   2.0000      -0.437784       -11.9127
  21   2.0000      -0.404120       -10.9967
  22   2.0000      -0.399008       -10.8576
  23   2.0000      -0.376866       -10.2551
  24   2.0000      -0.356093        -9.6898
  25   2.0000      -0.351915        -9.5761
  26   2.0000      -0.347276        -9.4499
  27   2.0000      -0.332749        -9.0546
  28   2.0000      -0.313729        -8.5370
  29   2.0000      -0.309256        -8.4153
  30   2.0000      -0.299614        -8.1529
  31   2.0000      -0.229238        -6.2379
  32   2.0000      -0.200547        -5.4572
  33   0.0000      -0.025077        -0.6824
  34   0.0000      -0.013419        -0.3652
  35   0.0000       0.048898         1.3306
  36   0.0000       0.086400         2.3511
  37   0.0000       0.101273         2.7558

MULLIKEN ATOMIC CHARGES
-----------------------
   0 C :   -0.522447
   1 C :   -0.359232
   2 C :   -0.008940
   3 C :   -0.155480
   4 C :   -0.209838
   5 C :   -0.121293
   6 C :   -0.288458
   7 C :    0.372485
   8 O :   -0.423945
   9 H :    0.162517
  10 H :    0.150873
  11 H :    0.162743
  12 H :    0.160790
  13 H :    0.161307
  14 H :    0.142879
  15 H :    0.143807
  16 H :    0.146500
  17 H :    0.156557
  18 H :    0.329175
Sum of atomic charges:    0.0000000

LOEWDIN ATOMIC CHARGES
----------------------
   0 C :   -0.413563
   1 C :   -0.289333
   2 C :   -0.094475
   3 C :   -0.156575
   4 C :   -0.188591
   5 C :   -0.159716
   6 C :   -0.140856
   7 C :    0.190238
   8 O :   -0.504065
   9 H :    0.156112
  10 H :    0.154126
  11 H :    0.156151
  12 H :    0.162233
  13 H :    0.162327
  14 H :    0.170686
  15 H :    0.165549
  16 H :    0.167306
  17 H :    0.179640
  18 H :    0.282804

  Mayer bond orders larger than 0.100000
B(  0-C ,  1-C ) :   0.8718 B(  0-C ,  9-H ) :   0.9847 B(  0-C , 10-H ) :   0.9682
B(  0-C , 11-H ) :   0.9849 B(  1-C ,  2-C ) :   0.8245 B(  1-C ,  7-C ) :  -0.1047
B(  1-C , 12-H ) :   0.9753 B(  1-C , 13-H ) :   0.9749 B(  2-C ,  3-C ) :   1.4133
B(  2-C ,  7-C ) :   1.3959 B(  3-C ,  4-C ) :   1.4283 B(  3-C , 14-H ) :   0.9407
B(  4-C ,  5-C ) :   1.4116 B(  4-C , 15-H ) :   0.9438 B(  5-C ,  6-C ) :   1.3831
B(  5-C , 16-H ) :   0.9485 B(  6-C ,  7-C ) :   1.4058 B(  6-C , 17-H ) :   0.9414
B(  7-C ,  8-O ) :   0.9614 B(  8-O , 18-H ) :   0.8621

Dispersion correction           -0.006194534
FINAL SINGLE POINT ENERGY      -386.000587570240

DIPOLE MOMENT
-------------

Method             : SCF
Type of density    : Electron Density
Multiplicity       :   1
Irrep              :   0
Energy             :  -386.0014663724805928 Eh
Relativity type    :
Basis              : AO
                                X                 Y                 Z
Electronic contribution:      5.695639872      -4.739992419      -0.379425027
Nuclear contribution   :     -6.386066884       5.018216226       0.396567391
                        -----------------------------------------
Total Dipole Moment    :     -0.690427012       0.278223807       0.017142364
                        -----------------------------------------
Magnitude (a.u.)       :      0.744574916
Magnitude (Debye)      :      1.892559033

Rotational constants in cm-1:             0.083482             0.049363             0.031386
Rotational constants in MHz :          2502.718960          1479.863039           940.923517

                             ****ORCA TERMINATED NORMALLY****
TOTAL RUN TIME: 0 days 0 hours 0 minutes 27 seconds 463 msec
