                         Program Version 6.0.0  -   RELEASE  -
|  1> ! r2scan-3c def2/J RI DEFGRID2 scfconv6 printgap
|  2> %output
|  3>     printlevel normal
|  4> end
|  5> %cpcm
|  6>     smd true
|  7>     smdsolvent "water"
|  8> end
|  9> * xyz 0 1
| 10> C -2.6156757167 1.5603689049 0.1135511233
| 11> C -1.9672868125 0.186346394 -0.0092580442
| 12> C -0.4561616375 0.1806849678 0.011562178
| 13> C 0.3020146963 1.3355585535 0.1356068777
| 14> C 1.686146768 1.2975466258 0.1515507737
| 15> C 2.3442654403 0.086407445 0.0419978712
| 16> C 1.6129517996 -1.0788460768 -0.0827363401
| 17> C 0.2239131234 -1.0394312655 -0.0984793183
| 18> O -0.4200412118 -2.237475842 -0.2248876101
| 19> H -2.3439679505 2.0358950031 1.05262997
| 20> H -3.6975918645 1.452822483 0.0875097954
| 21> H -2.3182616543 2.2053496849 -0.7094793162
| 22> H -2.304933651 -0.2664652267 -0.9479623972
| 23> H -2.3298825655 -0.4360646202 0.8161908395
| 24> H -0.1907876456 2.2901162303 0.2222938241
| 25> H 2.24682477 2.2145278868 0.2495065974
| 26> H 3.4225786106 0.044491306 0.0531870993
| 27> H 2.0957791511 -2.0398319606 -0.1702258151
| 28> H -1.3800711287 -2.1165472925 -0.2273943929
| 29> *
| 30>
| 31>                          ****END OF INPUT****

CARTESIAN COORDINATES (ANGSTROEM)
---------------------------------
  C     -2.615676    1.560369    0.113551
  C     -1.967287    0.186346   -0.009258
  C     -0.456162    0.180685    0.011562
  C      0.302015    1.335559    0.135607
  C      1.686147    1.297547    0.151551
  C      2.344265    0.086407    0.041998
  C      1.612952   -1.078846   -0.082736
  C      0.223913   -1.039431   -0.098479
  O     -0.420041   -2.237476   -0.224888
  H     -2.343968    2.035895    1.052630
  H     -3.697592    1.452822    0.087510
  H     -2.318262    2.205350   -0.709479
  H     -2.304934   -0.266465   -0.947962
  H     -2.329883   -0.436065    0.816191
  H     -0.190788    2.290116    0.222294
  H      2.246825    2.214528    0.249507
  H      3.422579    0.044491    0.053187
  H      2.095779   -2.039832   -0.170226
  H     -1.380071   -2.116547   -0.227394

 Total Charge           Charge          ....    0
 Multiplicity           Mult            ....    1
 Number of Electrons    NEL             ....   66
 Basis Dimension        Dim             ....  226

ORBITAL ENERGIES
----------------

  NO   OCC          E(Eh)            E(eV)
   0   2.0000     -18.982751      -516.5469
   1   2.0000     -10.093136      -274.6482
   2   2.0000     -10.040117      -273.2055
   3   2.0000     -10.032990      -273.0115
   4   2.0000     -10.030690      -272.9489
   5   2.0000     -10.029344      -272.9123
   6   2.0000     -10.027570      -272.8640
   7   2.0000     -10.023852      -272.7629
   8   2.0000     -10.014281      -272.5024
   9   2.0000      -1.025250       -27.8985
  10   2.0000      -0.823963       -22.4212
  11   2.0000      -0.755321       -20.5533
  12   2.0000      -0.708615       -19.2824
  13   2.0000      -0.689258       -18.7557
  14   2.0000      -0.612654       -16.6712
  15   2.0000      -0.572325       -15.5737
  16   2.0000      -0.549920       -14.9641
  17   2.0000      -0.507215       -13.8020
  18   2.0000      -0.456468       -12.4211
  19   2.0000      -0.435509       -11.8508
  20   2.0000      -0.423331       -11.5194
  21   2.0000      -0.397713       -10.8223
  22   2.0000      -0.396217       -10.7816
  23   2.0000      -0.377562       -10.2740
  24   2.0000      -0.357178        -9.7193
  25   2.0000      -0.340992        -9.2789
  26   2.0000      -0.339829        -9.2472
  27   2.0000      -0.318330        -8.6622
  28   2.0000      -0.313120        -8.5204
  29   2.0000      -0.305174        -8.3042
  30   2.0000      -0.296430        -8.0663
  31   2.0000      -0.232546        -6.3279
  32   2.0000      -0.204356        -5.5608
  33   0.0000      -0.028096        -0.7645
  34   0.0000      -0.017195        -0.4679
  35   0.0000       0.069492         1.8910
  36   0.0000       0.097568         2.6550
  37   0.0000       0.110742         3.0134

MULLIKEN ATOMIC CHARGES
-----------------------
   0 C :   -0.539496
   1 C :   -0.353368
   2 C :   -0.036424
   3 C :   -0.181717
   4 C :   -0.257795
   5 C :   -0.166326
   6 C :   -0.325129
   7 C :    0.363313
   8 O :   -0.472017
   9 H :    0.168432
  10 H :    0.164831
  11 H :    0.168619
  12 H :    0.186450
  13 H :    0.187121
  14 H :    0.174199
  15 H :    0.174098
  16 H :    0.178846
  17 H :    0.182566
  18 H :    0.383796
Sum of atomic charges:    0.0000000

LOEWDIN ATOMIC CHARGES
----------------------
   0 C :   -0.419254
   1 C :   -0.285278
   2 C :   -0.090889
   3 C :   -0.166624
   4 C :   -0.204352
   5 C :   -0.176027
   6 C :   -0.159618
   7 C :    0.178277
   8 O :   -0.520917
   9 H :    0.157608
  10 H :    0.158222
  11 H :    0.157632
  12 H :    0.173739
  13 H :    0.173907
  14 H :    0.181798
  15 H :    0.175197
  16 H :    0.177609
  17 H :    0.187009
  18 H :    0.301960

  Mayer bond orders larger than 0.100000
B(  0-C ,  1-C ) :   0.8485 B(  0-C ,  9-H ) :   0.9804 B(  0-C , 10-H ) :   0.9669
B(  0-C , 11-H ) :   0.9806 B(  1-C ,  2-C ) :   0.8602 B(  1-C ,  7-C ) :  -0.1188
B(  1-C , 12-H ) :   0.9721 B(  1-C , 13-H ) :   0.9716 B(  2-C ,  3-C ) :   1.3839
B(  2-C ,  7-C ) :   1.3610 B(  3-C ,  4-C ) :   1.3819 B(  3-C , 14-H ) :   0.9519
B(  4-C ,  5-C ) :   1.3742 B(  4-C , 15-H ) :   0.9608 B(  5-C ,  6-C ) :   1.3575
B(  5-C , 16-H ) :   0.9576 B(  6-C ,  7-C ) :   1.3530 B(  6-C , 17-H ) :   0.9568
B(  7-C ,  8-O ) :   0.9546 B(  8-O , 18-H ) :   0.8338

Dispersion correction           -0.006194534
FINAL SINGLE POINT ENERGY      -386.008859894972

DIPOLE MOMENT
-------------

Method             : SCF
Type of density    : Electron Density
Multiplicity       :   1
Irrep              :   0
Energy             :  -386.0097386972132654 Eh
Relativity type    :
Basis              : AO
                                X                 Y                 Z
Electronic contribution:      5.354899709      -4.674326039      -0.377312891
Nuclear contribution   :     -6.386066884       5.018216226       0.396567391
                        -----------------------------------------
Total Dipole Moment    :     -1.031167175       0.343890186       0.019254500
                        -----------------------------------------
Magnitude (a.u.)       :      1.087169232
Magnitude (Debye)      :      2.763364579

Rotational constants in cm-1:             0.083482             0.049363             0.031386
Rotational constants in MHz :          2502.718960          1479.863039           940.923517

                             ****ORCA TERMINATED NORMALLY****
TOTAL RUN TIME: 0 days 0 hours 0 minutes 33 seconds 148 msec
