                         Program Version 6.0.0  -   RELEASE  -
|  1> ! r2scan-3c def2/J RI DEFGRID2 scfconv6 printgap
|  2> %output
|  3>     printlevel normal
|  4> end
|  5> * xyz 0 1
|  6> C -2.0982372321 0.1069084812 0.0001278951
|  7> C -0.7135497417 0.6705075247 -0.0001663359
|  8> C 0.4432066907 0.0194069576 -0.0002208693
|  9> C 1.7494529033 0.7622804805 0.000133948
| 10> C 0.6042350841 -1.472045257 4.6039e-06
| 11> H -2.6374661766 0.4545318617 -0.8809276007
| 12> H -2.1071666306 -0.9782171024 0.0041962554
| 13> H -2.639235654 0.4608211354 0.8775381034
| 14> H -0.6884957229 1.7544645653 -0.0009724011
| 15> H 2.3319737543 0.4994357227 -0.8821694046
| 16> H 1.5929794811 1.8376797859 0.0059844838
| 17> H 2.3364952089 0.4902484624 0.876579857
| 18> H 1.1820511749 -1.7803712975 -0.8705686514
| 19> H 1.153372676 -1.7831570739 0.8880950249
| 20> H -0.3470498327 -1.9928312563 -0.0163166972
| 21> *
| 22>
| 23>                          ****END OF INPUT****

CARTESIAN COORDINATES (ANGSTROEM)
---------------------------------
  C     -2.098237    0.106908    0.000128
  C     -0.713550    0.670508   -0.000166
  C      0.443207    0.019407   -0.000221
  C      1.749453    0.762280    0.000134
  C      0.604235   -1.472045    0.000005
  H     -2.637466    0.454532   -0.880928
  H     -2.107167   -0.978217    0.004196
  H     -2.639236    0.460821    0.877538
  H     -0.688496    1.754465   -0.000972
  H      2.331974    0.499436   -0.882169
  H      1.592979    1.837680    0.005984
  H      2.336495    0.490248    0.876580
  H      1.182051   -1.780371   -0.870569
  H      1.153373   -1.783157    0.888095
  H     -0.347050   -1.992831   -0.016317

 Total Charge           Charge          ....    0
 Multiplicity           Mult            ....    1
 Number of Electrons    NEL             ....   40
 Basis Dimension        Dim             ....  145

ORBITAL ENERGIES
----------------

  NO   OCC          E(Eh)            E(eV)
   0   2.0000     -10.030909      -272.9549
   1   2.0000     -10.020646      -272.6756
   2   2.0000     -10.018854      -272.6269
   3   2.0000     -10.018195      -272.6089
   4   2.0000     -10.015635      -272.5393
   5   2.0000      -0.778012       -21.1708
   6   2.0000      -0.700355       -19.0576
   7   2.0000      -0.656873       -17.8744
   8   2.0000      -0.601860       -16.3774
   9   2.0000      -0.478374       -13.0172
  10   2.0000      -0.429738       -11.6938
  11   2.0000      -0.403621       -10.9831
  12   2.0000      -0.400831       -10.9072
  13   2.0000      -0.373351       -10.1594
  14   2.0000      -0.352907        -9.6031
  15   2.0000      -0.350259        -9.5310
  16   2.0000      -0.334428        -9.1002
  17   2.0000      -0.323228        -8.7955
  18   2.0000      -0.293664        -7.9910
  19   2.0000      -0.207938        -5.6583
  20   0.0000       0.009396         0.2557
  21   0.0000       0.090067         2.4508
  22   0.0000       0.117687         3.2024
  23   0.0000       0.122842         3.3427
  24   0.0000       0.140999         3.8368

MULLIKEN ATOMIC CHARGES
-----------------------
   0 C :   -0.474721
   1 C :   -0.143081
   2 C :    0.101483
   3 C :   -0.468669
   4 C :   -0.473923
   5 H :    0.148658
   6 H :    0.135781
   7 H :    0.148519
   8 H :    0.146656
   9 H :    0.147299
  10 H :    0.146829
  11 H :    0.146368
  12 H :    0.150545
  13 H :    0.152202
  14 H :    0.136052
Sum of atomic charges:   -0.0000000

LOEWDIN ATOMIC CHARGES
----------------------
   0 C :   -0.407606
   1 C :   -0.224149
   2 C :   -0.147384
   3 C :   -0.395874
   4 C :   -0.397137
   5 H :    0.157580
   6 H :    0.151364
   7 H :    0.157586
   8 H :    0.159433
   9 H :    0.156947
  10 H :    0.156943
  11 H :    0.156926
  12 H :    0.160324
  13 H :    0.160584
  14 H :    0.154462

  Mayer bond orders larger than 0.100000
B(  0-C ,  1-C ) :   0.9088 B(  0-C ,  5-H ) :   0.9675 B(  0-C ,  6-H ) :   0.9966
B(  0-C ,  7-H ) :   0.9675 B(  1-C ,  2-C ) :   1.9004 B(  1-C ,  8-H ) :   0.9499
B(  2-C ,  3-C ) :   0.8564 B(  2-C ,  4-C ) :   0.8816 B(  3-C ,  9-H ) :   0.9733
B(  3-C , 10-H ) :   0.9952 B(  3-C , 11-H ) :   0.9729 B(  4-C , 12-H ) :   0.9772
B(  4-C , 13-H ) :   0.9777 B(  4-C , 14-H ) :   0.9827

Dispersion correction           -0.003338965
FINAL SINGLE POINT ENERGY      -196.465597482680

DIPOLE MOMENT
-------------

Method             : SCF
Type of density    : Electron Density
Multiplicity       :   1
Irrep              :   0
Energy             :  -196.4690257846586974 Eh
Relativity type    :
Basis              : AO
                                X                 Y                 Z
Electronic contribution:     -0.134091216       0.890131280      -0.000893909
Nuclear contribution   :      0.166486291      -0.973254561       0.001350000
                        -----------------------------------------
Total Dipole Moment    :      0.032395075      -0.083123281       0.000456091
                        -----------------------------------------
Magnitude (a.u.)       :      0.089213949
Magnitude (Debye)      :      0.226763838

Rotational constants in cm-1:             0.272256             0.118155             0.086344
Rotational constants in MHz :          8162.020619          3542.204124          2588.521921

                             ****ORCA TERMINATED NORMALLY****
TOTAL RUN TIME: 0 days 0 hours 0 minutes 8 seconds 71 msec
