                         Program Version 6.0.0  -   RELEASE  -
|  1> ! pbe def2-sv(p) def2/J RI DEFGRID1 loosescf d4 GCP(DFT/SV(P)) printgap
|  2> %output
|  3>     printlevel normal
|  4> end
|  5> * xyz 0 1
|  6> C -2.1750622641 0.3008567503 -0.4210086609
|  7> C -1.0246118075 0.1890457312 0.5803917534
|  8> C -0.0002380569 -0.795193343 0.1069448733
|  9> C 1.2757520367 -0.5718824355 -0.169239346
| 10> C 2.0245850499 0.7165025363 -0.0635101638
| 11> H -1.8058355832 0.6564646818 -1.380285771
| 12> H -2.9280530606 0.9965628513 -0.0588193526
| 13> H -2.6438453095 -0.6689611938 -0.5723652681
| 14> H -0.5821770577 1.1724118332 0.7353216533
| 15> H -1.4220531347 -0.1546963049 1.5397839841
| 16> H -0.389227395 -1.7973945097 -0.0293720815
| 17> H 1.8810347242 -1.4035985274 -0.5103756058
| 18> H 1.3872505457 1.5403755637 0.240746751
| 19> H 2.4741842272 0.9591977033 -1.0255965542
| 20> H 2.832046892 0.6142088465 0.6608375677
| 21> *
| 22>
| 23>                          ****END OF INPUT****

CARTESIAN COORDINATES (ANGSTROEM)
---------------------------------
  C     -2.175062    0.300857   -0.421009
  C     -1.024612    0.189046    0.580392
  C     -0.000238   -0.795193    0.106945
  C      1.275752   -0.571882   -0.169239
  C      2.024585    0.716503   -0.063510
  H     -1.805836    0.656465   -1.380286
  H     -2.928053    0.996563   -0.058819
  H     -2.643845   -0.668961   -0.572365
  H     -0.582177    1.172412    0.735322
  H     -1.422053   -0.154696    1.539784
  H     -0.389227   -1.797395   -0.029372
  H      1.881035   -1.403599   -0.510376
  H      1.387251    1.540376    0.240747
  H      2.474184    0.959198   -1.025597
  H      2.832047    0.614209    0.660838

 Total Charge           Charge          ....    0
 Multiplicity           Mult            ....    1
 Number of Electrons    NEL             ....   40
 Basis Dimension        Dim             ....   90

ORBITAL ENERGIES
----------------

  NO   OCC          E(Eh)            E(eV)
   0   2.0000      -9.884940      -268.9829
   1   2.0000      -9.880923      -268.8736
   2   2.0000      -9.878870      -268.8177
   3   2.0000      -9.877057      -268.7684
   4   2.0000      -9.873959      -268.6841
   5   2.0000      -0.722399       -19.6575
   6   2.0000      -0.673011       -18.3136
   7   2.0000      -0.606581       -16.5059
   8   2.0000      -0.546795       -14.8790
   9   2.0000      -0.465126       -12.6567
  10   2.0000      -0.430734       -11.7209
  11   2.0000      -0.386727       -10.5234
  12   2.0000      -0.378977       -10.3125
  13   2.0000      -0.364861        -9.9284
  14   2.0000      -0.336211        -9.1488
  15   2.0000      -0.324674        -8.8348
  16   2.0000      -0.321437        -8.7468
  17   2.0000      -0.296758        -8.0752
  18   2.0000      -0.277662        -7.5556
  19   2.0000      -0.209616        -5.7039
  20   0.0000      -0.002016        -0.0548
  21   0.0000       0.044047         1.1986
  22   0.0000       0.063349         1.7238
  23   0.0000       0.071501         1.9456
  24   0.0000       0.096814         2.6344

MULLIKEN ATOMIC CHARGES
-----------------------
   0 C :   -0.291808
   1 C :   -0.127037
   2 C :   -0.128622
   3 C :   -0.161227
   4 C :   -0.226622
   5 H :    0.106477
   6 H :    0.102522
   7 H :    0.101320
   8 H :    0.086680
   9 H :    0.092620
  10 H :    0.057847
  11 H :    0.063342
  12 H :    0.103598
  13 H :    0.109154
  14 H :    0.111757
Sum of atomic charges:   -0.0000000

LOEWDIN ATOMIC CHARGES
----------------------
   0 C :   -0.336170
   1 C :   -0.230985
   2 C :   -0.149692
   3 C :   -0.155596
   4 C :   -0.337897
   5 H :    0.119680
   6 H :    0.117813
   7 H :    0.117130
   8 H :    0.117169
   9 H :    0.124414
  10 H :    0.117098
  11 H :    0.117439
  12 H :    0.120934
  13 H :    0.128819
  14 H :    0.129845

  Mayer bond orders larger than 0.100000
B(  0-C ,  1-C ) :   1.1276 B(  0-C ,  5-H ) :   0.9575 B(  0-C ,  6-H ) :   0.9507
B(  0-C ,  7-H ) :   0.9586 B(  1-C ,  2-C ) :   1.0828 B(  1-C ,  8-H ) :   0.9129
B(  1-C ,  9-H ) :   0.9084 B(  2-C ,  3-C ) :   2.0079 B(  2-C , 10-H ) :   0.9231
B(  3-C ,  4-C ) :   1.1217 B(  3-C , 11-H ) :   0.9249 B(  4-C , 12-H ) :   0.9390
B(  4-C , 13-H ) :   0.9357 B(  4-C , 14-H ) :   0.9355

Dispersion correction           -0.009739221
FINAL SINGLE POINT ENERGY      -196.031022895114

DIPOLE MOMENT
-------------

Method             : SCF
Type of density    : Electron Density
Multiplicity       :   1
Irrep              :   0
Energy             :  -196.0791151711892439 Eh
Relativity type    :
Basis              : AO
                                X                 Y                 Z
Electronic contribution:      1.140855921      -1.708606362       0.397280924
Nuclear contribution   :     -1.122686469       1.796195809      -0.375385551
                        -----------------------------------------
Total Dipole Moment    :      0.018169452       0.087589447       0.021895374
                        -----------------------------------------
Magnitude (a.u.)       :      0.092094775
Magnitude (Debye)      :      0.234086316

Rotational constants in cm-1:             0.373289             0.087255             0.079922
Rotational constants in MHz :         11190.909572          2615.852879          2395.999975

                             ****ORCA TERMINATED NORMALLY****
TOTAL RUN TIME: 0 days 0 hours 0 minutes 6 seconds 127 msec
