                         Program Version 6.0.0  -   RELEASE  -
|  1> ! pbe def2-sv(p) def2/J RI DEFGRID1 loosescf d4 GCP(DFT/SV(P)) printgap
|  2> %output
|  3>     printlevel normal
|  4> end
|  5> * xyz 0 1
|  6> C -1.7757301214 -0.0116591522 0.1864424245
|  7> C -0.9074002721 -1.2530530817 0.3645503593
|  8> C 0.2408577159 -1.2537545098 -0.640472145
|  9> C 1.092752133 0.0107433276 -0.504910457
| 10> C 0.215539059 1.2606666468 -0.6450070227
| 11> C -0.927496772 1.2430784876 0.3663135216
| 12> O 1.7580433448 -0.0420937378 0.7453983848
| 13> H -2.5884465764 -0.019100894 0.9149196673
| 14> H -2.2169474585 -0.0148328671 -0.8131492606
| 15> H -0.4886624054 -1.2616725498 1.3724926844
| 16> H -1.5061798936 -2.1562800443 0.2353929337
| 17> H 0.8791883209 -2.1228612226 -0.4744901063
| 18> H -0.1515014867 -1.2998163343 -1.6574840642
| 19> H 1.8483074972 0.0129317297 -1.3103365156
| 20> H 0.8255391523 2.1562183094 -0.5054009329
| 21> H -0.18781408 1.2829077677 -1.6587482164
| 22> H -0.5122721815 1.2496751085 1.3761623407
| 23> H -1.5413032122 2.1372138135 0.2436217135
| 24> H 2.2992615488 0.751221598 0.8489781172
| 25> *
| 26>
| 27>                          ****END OF INPUT****

CARTESIAN COORDINATES (ANGSTROEM)
---------------------------------
  C     -1.775730   -0.011659    0.186442
  C     -0.907400   -1.253053    0.364550
  C      0.240858   -1.253755   -0.640472
  C      1.092752    0.010743   -0.504910
  C      0.215539    1.260667   -0.645007
  C     -0.927497    1.243078    0.366314
  O      1.758043   -0.042094    0.745398
  H     -2.588447   -0.019101    0.914920
  H     -2.216947   -0.014833   -0.813149
  H     -0.488662   -1.261673    1.372493
  H     -1.506180   -2.156280    0.235393
  H      0.879188   -2.122861   -0.474490
  H     -0.151501   -1.299816   -1.657484
  H      1.848307    0.012932   -1.310337
  H      0.825539    2.156218   -0.505401
  H     -0.187814    1.282908   -1.658748
  H     -0.512272    1.249675    1.376162
  H     -1.541303    2.137214    0.243622
  H      2.299262    0.751222    0.848978

 Total Charge           Charge          ....    0
 Multiplicity           Mult            ....    1
 Number of Electrons    NEL             ....   56
 Basis Dimension        Dim             ....  122

ORBITAL ENERGIES
----------------

  NO   OCC          E(Eh)            E(eV)
   0   2.0000     -18.741857      -509.9919
   1   2.0000      -9.932827      -270.2860
   2   2.0000      -9.881510      -268.8896
   3   2.0000      -9.877432      -268.7786
   4   2.0000      -9.876750      -268.7600
   5   2.0000      -9.876494      -268.7531
   6   2.0000      -9.873383      -268.6684
   7   2.0000      -0.918658       -24.9980
   8   2.0000      -0.742423       -20.2024
   9   2.0000      -0.663851       -18.0643
  10   2.0000      -0.654276       -17.8038
  11   2.0000      -0.543193       -14.7810
  12   2.0000      -0.534878       -14.5548
  13   2.0000      -0.497300       -13.5322
  14   2.0000      -0.440234       -11.9794
  15   2.0000      -0.432847       -11.7784
  16   2.0000      -0.396521       -10.7899
  17   2.0000      -0.391377       -10.6499
  18   2.0000      -0.353182        -9.6106
  19   2.0000      -0.345471        -9.4007
  20   2.0000      -0.332109        -9.0372
  21   2.0000      -0.330690        -8.9985
  22   2.0000      -0.305088        -8.3019
  23   2.0000      -0.289097        -7.8667
  24   2.0000      -0.275596        -7.4993
  25   2.0000      -0.264732        -7.2037
  26   2.0000      -0.249694        -6.7945
  27   2.0000      -0.210888        -5.7385
  28   0.0000       0.020177         0.5490
  29   0.0000       0.054126         1.4729
  30   0.0000       0.063151         1.7184
  31   0.0000       0.081059         2.2057
  32   0.0000       0.085191         2.3182

MULLIKEN ATOMIC CHARGES
-----------------------
   0 C :   -0.158748
   1 C :   -0.153726
   2 C :   -0.126475
   3 C :    0.019531
   4 C :   -0.156742
   5 C :   -0.137500
   6 O :   -0.427970
   7 H :    0.083447
   8 H :    0.068499
   9 H :    0.090951
  10 H :    0.081653
  11 H :    0.088603
  12 H :    0.074707
  13 H :    0.055536
  14 H :    0.071524
  15 H :    0.073818
  16 H :    0.075367
  17 H :    0.082364
  18 H :    0.295161
Sum of atomic charges:    0.0000000

LOEWDIN ATOMIC CHARGES
----------------------
   0 C :   -0.226233
   1 C :   -0.228224
   2 C :   -0.226913
   3 C :   -0.052477
   4 C :   -0.240253
   5 C :   -0.228908
   6 O :   -0.331547
   7 H :    0.115524
   8 H :    0.110862
   9 H :    0.121705
  10 H :    0.114540
  11 H :    0.121379
  12 H :    0.117238
  13 H :    0.093039
  14 H :    0.108950
  15 H :    0.118369
  16 H :    0.115523
  17 H :    0.114483
  18 H :    0.282941

  Mayer bond orders larger than 0.100000
B(  0-C ,  1-C ) :   1.1387 B(  0-C ,  5-C ) :   1.1409 B(  0-C ,  7-H ) :   0.9190
B(  0-C ,  8-H ) :   0.9140 B(  1-C ,  2-C ) :   1.1273 B(  1-C ,  9-H ) :   0.9110
B(  1-C , 10-H ) :   0.9214 B(  2-C ,  3-C ) :   1.0923 B(  2-C , 11-H ) :   0.9091
B(  2-C , 12-H ) :   0.9142 B(  3-C ,  4-C ) :   1.0822 B(  3-C ,  6-O ) :   1.0349
B(  3-C , 13-H ) :   0.9078 B(  4-C ,  5-C ) :   1.1147 B(  4-C , 14-H ) :   0.9146
B(  4-C , 15-H ) :   0.9042 B(  5-C , 16-H ) :   0.9087 B(  5-C , 17-H ) :   0.9213
B(  6-O , 18-H ) :   0.8517

Dispersion correction           -0.016661329
FINAL SINGLE POINT ENERGY      -310.346234308779

DIPOLE MOMENT
-------------

Method             : SCF
Type of density    : Electron Density
Multiplicity       :   1
Irrep              :   0
Energy             :  -310.4193172291276142 Eh
Relativity type    :
Basis              : AO
                                X                 Y                 Z
Electronic contribution:      3.212566484      -0.223633437       1.057803508
Nuclear contribution   :     -3.108171672       0.670730700      -1.328681439
                        -----------------------------------------
Total Dipole Moment    :      0.104394812       0.447097263      -0.270877932
                        -----------------------------------------
Magnitude (a.u.)       :      0.533075129
Magnitude (Debye)      :      1.354969296

Rotational constants in cm-1:             0.120179             0.088840             0.067008
Rotational constants in MHz :          3602.862971          2663.355708          2008.841421

                             ****ORCA TERMINATED NORMALLY****
TOTAL RUN TIME: 0 days 0 hours 0 minutes 29 seconds 686 msec
