                         Program Version 6.0.0  -   RELEASE  -
|  1> ! wb97x-v def2-tzvp def2/J RIJCOSX DEFGRID2 scfconv7 GCP(DFT/TZ) printgap
|  2> %output
|  3>     printlevel normal
|  4> end
|  5> * xyz 0 1
|  6> C -2.6913830811035693 0.8741813921878574 0.010974890934238096
|  7> C -1.6686749624163308 -0.10936206489789148 -0.5548307932277291
|  8> C -0.5875934695123576 -0.5096857343527129 0.473115231790191
|  9> C 0.8700032489767786 -0.16556068496007148 0.1008758754058693
| 10> C 1.287265802093239 -0.9016146776914222 -1.1779283923633173
| 11> C 1.031263540680996 1.3469299608790017 -0.09393009268026399
| 12> C 1.7778067599633889 -0.6175509131732028 1.251593507763457
| 13> H -2.2019202304768046 1.7975315417445739 0.34243389848263023
| 14> H -3.4477730065277434 1.1436247257019037 -0.7343656795750584
| 15> H -3.210712198957611 0.44626784711435685 0.8760529411613011
| 16> H -2.1909100340148018 -1.002933846342945 -0.9154107115412077
| 17> H -1.2023831764952582 0.33838476554058217 -1.4393825680567072
| 18> H -0.6373552344714823 -1.5887518184680727 0.667486678382348
| 19> H -0.8079372376070599 -0.018614459553834964 1.4312119748037198
| 20> H 0.6862174534303696 -0.5929363818011232 -2.039921509767494
| 21> H 2.3372435787132404 -0.6948305385044814 -1.4156397975734607
| 22> H 1.1750572316501025 -1.9857529772950069 -1.0576491135390207
| 23> H 0.747170427796591 1.8899946985457996 0.8151955580889694
| 24> H 0.41400273787528225 1.7198718378889768 -0.9186621010379219
| 25> H 2.074041647094875 1.5953577964045664 -0.3236704085305296
| 26> H 1.512922040820784 -0.10597835119561048 2.1844176532215283
| 27> H 1.6886984367582505 -1.69721329818184 1.4202322880377323
| 28> H 2.8283049728374223 -0.39563966564717146 1.0308039433381855
| 29> *
| 30>
| 31>                          ****END OF INPUT****

CARTESIAN COORDINATES (ANGSTROEM)
---------------------------------
  C     -2.691383    0.874181    0.010975
  C     -1.668675   -0.109362   -0.554831
  C     -0.587593   -0.509686    0.473115
  C      0.870003   -0.165561    0.100876
  C      1.287266   -0.901615   -1.177928
  C      1.031264    1.346930   -0.093930
  C      1.777807   -0.617551    1.251594
  H     -2.201920    1.797532    0.342434
  H     -3.447773    1.143625   -0.734366
  H     -3.210712    0.446268    0.876053
  H     -2.190910   -1.002934   -0.915411
  H     -1.202383    0.338385   -1.439383
  H     -0.637355   -1.588752    0.667487
  H     -0.807937   -0.018614    1.431212
  H      0.686217   -0.592936   -2.039922
  H      2.337244   -0.694831   -1.415640
  H      1.175057   -1.985753   -1.057649
  H      0.747170    1.889995    0.815196
  H      0.414003    1.719872   -0.918662
  H      2.074042    1.595358   -0.323670
  H      1.512922   -0.105978    2.184418
  H      1.688698   -1.697213    1.420232
  H      2.828305   -0.395640    1.030804

 Total Charge           Charge          ....    0
 Multiplicity           Mult            ....    1
 Number of Electrons    NEL             ....   58
 Basis Dimension        Dim             ....  313

ORBITAL ENERGIES
----------------

  NO   OCC          E(Eh)            E(eV)
   0   2.0000     -12.053413      -327.9900
   1   2.0000     -12.037482      -327.5565
   2   2.0000     -12.034097      -327.4644
   3   2.0000     -12.031478      -327.3932
   4   2.0000     -12.029668      -327.3439
   5   2.0000     -12.029308      -327.3341
   6   2.0000     -12.028883      -327.3225
   7   2.0000      -1.333364       -36.2827
   8   2.0000      -1.267968       -34.5032
   9   2.0000      -1.174492       -31.9596
  10   2.0000      -1.173712       -31.9383
  11   2.0000      -1.168887       -31.8070
  12   2.0000      -1.070510       -29.1301
  13   2.0000      -0.996127       -27.1060
  14   2.0000      -0.895157       -24.3585
  15   2.0000      -0.889136       -24.1946
  16   2.0000      -0.876216       -23.8431
  17   2.0000      -0.854683       -23.2571
  18   2.0000      -0.837596       -22.7921
  19   2.0000      -0.829102       -22.5610
  20   2.0000      -0.810099       -22.0439
  21   2.0000      -0.803972       -21.8772
  22   2.0000      -0.790991       -21.5240
  23   2.0000      -0.785459       -21.3734
  24   2.0000      -0.775865       -21.1123
  25   2.0000      -0.768656       -20.9162
  26   2.0000      -0.755201       -20.5501
  27   2.0000      -0.750403       -20.4195
  28   2.0000      -0.738879       -20.1059
  29   0.0000      -0.046938        -1.2773
  30   0.0000      -0.033864        -0.9215
  31   0.0000      -0.022993        -0.6257
  32   0.0000      -0.021453        -0.5838
  33   0.0000      -0.014635        -0.3982

MULLIKEN ATOMIC CHARGES
-----------------------
   0 C :   -0.357511
   1 C :   -0.154001
   2 C :   -0.196321
   3 C :    0.055458
   4 C :   -0.339564
   5 C :   -0.357586
   6 C :   -0.344500
   7 H :    0.109371
   8 H :    0.110054
   9 H :    0.110756
  10 H :    0.095400
  11 H :    0.087245
  12 H :    0.097952
  13 H :    0.097661
  14 H :    0.108230
  15 H :    0.109386
  16 H :    0.108215
  17 H :    0.109974
  18 H :    0.109957
  19 H :    0.111940
  20 H :    0.108934
  21 H :    0.108919
  22 H :    0.110031
Sum of atomic charges:    0.0000000

LOEWDIN ATOMIC CHARGES
----------------------
   0 C :   -0.312526
   1 C :   -0.283897
   2 C :   -0.219491
   3 C :   -0.365498
   4 C :   -0.257368
   5 C :   -0.257616
   6 C :   -0.259886
   7 H :    0.115144
   8 H :    0.114101
   9 H :    0.115741
  10 H :    0.128792
  11 H :    0.128706
  12 H :    0.135303
  13 H :    0.139246
  14 H :    0.118254
  15 H :    0.120361
  16 H :    0.120952
  17 H :    0.120602
  18 H :    0.119052
  19 H :    0.120922
  20 H :    0.119696
  21 H :    0.119824
  22 H :    0.119584

  Mayer bond orders larger than 0.100000
B(  0-C ,  1-C ) :   0.9800 B(  0-C ,  7-H ) :   0.9798 B(  0-C ,  8-H ) :   0.9851
B(  0-C ,  9-H ) :   0.9839 B(  1-C ,  2-C ) :   0.9232 B(  1-C , 10-H ) :   0.9769
B(  1-C , 11-H ) :   0.9866 B(  2-C ,  3-C ) :   0.9692 B(  2-C , 12-H ) :   0.9715
B(  2-C , 13-H ) :   0.9800 B(  3-C ,  4-C ) :   0.9918 B(  3-C ,  5-C ) :   0.9800
B(  3-C ,  6-C ) :   0.9825 B(  4-C , 14-H ) :   0.9712 B(  4-C , 15-H ) :   0.9800
B(  4-C , 16-H ) :   0.9787 B(  5-C , 17-H ) :   0.9804 B(  5-C , 18-H ) :   0.9730
B(  5-C , 19-H ) :   0.9792 B(  6-C , 20-H ) :   0.9760 B(  6-C , 21-H ) :   0.9770
B(  6-C , 22-H ) :   0.9811

FINAL SINGLE POINT ENERGY      -276.397131764724

DIPOLE MOMENT
-------------

Method             : SCF
Type of density    : Electron Density
Multiplicity       :   1
Irrep              :   0
Energy             :  -276.4140455685243296 Eh
Relativity type    :
Basis              : AO
                                X                 Y                 Z
Electronic contribution:      0.209273343      -0.839326966       0.059784507
Nuclear contribution   :     -0.218872681       0.816558439      -0.078267008
                        -----------------------------------------
Total Dipole Moment    :     -0.009599337      -0.022768527      -0.018482502
                        -----------------------------------------
Magnitude (a.u.)       :      0.030857025
Magnitude (Debye)      :      0.078432324

Rotational constants in cm-1:             0.130920             0.050102             0.048926
Rotational constants in MHz :          3924.879339          1502.025370          1466.769413

                             ****ORCA TERMINATED NORMALLY****
TOTAL RUN TIME: 0 days 0 hours 2 minutes 31 seconds 290 msec
