                         Program Version 6.0.0  -   RELEASE  -
|  1> ! wb97x-v def2-tzvp def2/J RIJCOSX DEFGRID2 scfconv7 GCP(DFT/TZ) printgap
|  2> %output
|  3>     printlevel normal
|  4> end
|  5> %cpcm
|  6>     smd true
|  7>     smdsolvent "water"
|  8> end
|  9> * xyz 0 1
| 10> C -2.6913830811035693 0.8741813921878574 0.010974890934238096
| 11> C -1.6686749624163308 -0.10936206489789148 -0.5548307932277291
| 12> C -0.5875934695123576 -0.5096857343527129 0.473115231790191
| 13> C 0.8700032489767786 -0.16556068496007148 0.1008758754058693
| 14> C 1.287265802093239 -0.9016146776914222 -1.1779283923633173
| 15> C 1.031263540680996 1.3469299608790017 -0.09393009268026399
| 16> C 1.7778067599633889 -0.6175509131732028 1.251593507763457
| 17> H -2.2019202304768046 1.7975315417445739 0.34243389848263023
| 18> H -3.4477730065277434 1.1436247257019037 -0.7343656795750584
| 19> H -3.210712198957611 0.44626784711435685 0.8760529411613011
| 20> H -2.1909100340148018 -1.002933846342945 -0.9154107115412077
| 21> H -1.2023831764952582 0.33838476554058217 -1.4393825680567072
| 22> H -0.6373552344714823 -1.5887518184680727 0.667486678382348
| 23> H -0.8079372376070599 -0.018614459553834964 1.4312119748037198
| 24> H 0.6862174534303696 -0.5929363818011232 -2.039921509767494
| 25> H 2.3372435787132404 -0.6948305385044814 -1.4156397975734607
| 26> H 1.1750572316501025 -1.9857529772950069 -1.0576491135390207
| 27> H 0.747170427796591 1.8899946985457996 0.8151955580889694
| 28> H 0.41400273787528225 1.7198718378889768 -0.9186621010379219
| 29> H 2.074041647094875 1.5953577964045664 -0.3236704085305296
| 30> H 1.512922040820784 -0.10597835119561048 2.1844176532215283
| 31> H 1.6886984367582505 -1.69721329818184 1.4202322880377323
| 32> H 2.8283049728374223 -0.39563966564717146 1.0308039433381855
| 33> *
| 34>
| 35>                          ****END OF INPUT****

CARTESIAN COORDINATES (ANGSTROEM)
---------------------------------
  C     -2.691383    0.874181    0.010975
  C     -1.668675   -0.109362   -0.554831
  C     -0.587593   -0.509686    0.473115
  C      0.870003   -0.165561    0.100876
  C      1.287266   -0.901615   -1.177928
  C      1.031264    1.346930   -0.093930
  C      1.777807   -0.617551    1.251594
  H     -2.201920    1.797532    0.342434
  H     -3.447773    1.143625   -0.734366
  H     -3.210712    0.446268    0.876053
  H     -2.190910   -1.002934   -0.915411
  H     -1.202383    0.338385   -1.439383
  H     -0.637355   -1.588752    0.667487
  H     -0.807937   -0.018614    1.431212
  H      0.686217   -0.592936   -2.039922
  H      2.337244   -0.694831   -1.415640
  H      1.175057   -1.985753   -1.057649
  H      0.747170    1.889995    0.815196
  H      0.414003    1.719872   -0.918662
  H      2.074042    1.595358   -0.323670
  H      1.512922   -0.105978    2.184418
  H      1.688698   -1.697213    1.420232
  H      2.828305   -0.395640    1.030804

 Total Charge           Charge          ....    0
 Multiplicity           Mult            ....    1
 Number of Electrons    NEL             ....   58
 Basis Dimension        Dim             ....  313

ORBITAL ENERGIES
----------------

  NO   OCC          E(Eh)            E(eV)
   0   2.0000     -12.045211      -327.7669
   1   2.0000     -12.028334      -327.3076
   2   2.0000     -12.024899      -327.2141
   3   2.0000     -12.023453      -327.1748
   4   2.0000     -12.020548      -327.0958
   5   2.0000     -12.020303      -327.0891
   6   2.0000     -12.019865      -327.0772
   7   2.0000      -1.324608       -36.0444
   8   2.0000      -1.259628       -34.2762
   9   2.0000      -1.165926       -31.7264
  10   2.0000      -1.165518       -31.7154
  11   2.0000      -1.160799       -31.5869
  12   2.0000      -1.062309       -28.9069
  13   2.0000      -0.987799       -26.8794
  14   2.0000      -0.886363       -24.1192
  15   2.0000      -0.880481       -23.9591
  16   2.0000      -0.867687       -23.6110
  17   2.0000      -0.846358       -23.0306
  18   2.0000      -0.829368       -22.5683
  19   2.0000      -0.820629       -22.3305
  20   2.0000      -0.801606       -21.8128
  21   2.0000      -0.795672       -21.6513
  22   2.0000      -0.782344       -21.2887
  23   2.0000      -0.776911       -21.1408
  24   2.0000      -0.767400       -20.8820
  25   2.0000      -0.760262       -20.6878
  26   2.0000      -0.746738       -20.3198
  27   2.0000      -0.741759       -20.1843
  28   2.0000      -0.730076       -19.8664
  29   0.0000      -0.038323        -1.0428
  30   0.0000      -0.023410        -0.6370
  31   0.0000      -0.014216        -0.3868
  32   0.0000      -0.012370        -0.3366
  33   0.0000      -0.004721        -0.1285

MULLIKEN ATOMIC CHARGES
-----------------------
   0 C :   -0.406227
   1 C :   -0.177850
   2 C :   -0.230937
   3 C :    0.118839
   4 C :   -0.408683
   5 C :   -0.422229
   6 C :   -0.412327
   7 H :    0.122563
   8 H :    0.124198
   9 H :    0.123482
  10 H :    0.106060
  11 H :    0.108054
  12 H :    0.111941
  13 H :    0.109026
  14 H :    0.126195
  15 H :    0.125707
  16 H :    0.124291
  17 H :    0.125439
  18 H :    0.127675
  19 H :    0.128049
  20 H :    0.125038
  21 H :    0.124965
  22 H :    0.126731
Sum of atomic charges:    0.0000000

LOEWDIN ATOMIC CHARGES
----------------------
   0 C :   -0.319812
   1 C :   -0.286869
   2 C :   -0.222011
   3 C :   -0.363099
   4 C :   -0.264771
   5 C :   -0.264293
   6 C :   -0.267505
   7 H :    0.116843
   8 H :    0.115609
   9 H :    0.117226
  10 H :    0.129830
  11 H :    0.132805
  12 H :    0.137093
  13 H :    0.140811
  14 H :    0.120792
  15 H :    0.122305
  16 H :    0.122829
  17 H :    0.122640
  18 H :    0.121833
  19 H :    0.122600
  20 H :    0.121694
  21 H :    0.121792
  22 H :    0.121653

  Mayer bond orders larger than 0.100000
B(  0-C ,  1-C ) :   0.9750 B(  0-C ,  7-H ) :   0.9780 B(  0-C ,  8-H ) :   0.9829
B(  0-C ,  9-H ) :   0.9813 B(  1-C ,  2-C ) :   0.9199 B(  1-C , 10-H ) :   0.9764
B(  1-C , 11-H ) :   0.9847 B(  2-C ,  3-C ) :   0.9647 B(  2-C , 12-H ) :   0.9722
B(  2-C , 13-H ) :   0.9800 B(  3-C ,  4-C ) :   0.9742 B(  3-C ,  5-C ) :   0.9655
B(  3-C ,  6-C ) :   0.9636 B(  4-C , 14-H ) :   0.9713 B(  4-C , 15-H ) :   0.9792
B(  4-C , 16-H ) :   0.9780 B(  5-C , 17-H ) :   0.9791 B(  5-C , 18-H ) :   0.9722
B(  5-C , 19-H ) :   0.9784 B(  6-C , 20-H ) :   0.9762 B(  6-C , 21-H ) :   0.9769
B(  6-C , 22-H ) :   0.9799

FINAL SINGLE POINT ENERGY      -276.393451123159

DIPOLE MOMENT
-------------

Method             : SCF
Type of density    : Electron Density
Multiplicity       :   1
Irrep              :   0
Energy             :  -276.4103649269592893 Eh
Relativity type    :
Basis              : AO
                                X                 Y                 Z
Electronic contribution:      0.212052547      -0.836555916       0.047001173
Nuclear contribution   :     -0.218872681       0.816558439      -0.078267008
                        -----------------------------------------
Total Dipole Moment    :     -0.006820134      -0.019997477      -0.031265836
                        -----------------------------------------
Magnitude (a.u.)       :      0.037735471
Magnitude (Debye)      :      0.095915945

Rotational constants in cm-1:             0.130920             0.050102             0.048926
Rotational constants in MHz :          3924.879339          1502.025370          1466.769413

                             ****ORCA TERMINATED NORMALLY****
TOTAL RUN TIME: 0 days 0 hours 2 minutes 40 seconds 589 msec
