                         Program Version 6.0.0  -   RELEASE  -
|  1> ! r2scan-3c def2/J RI DEFGRID2 scfconv6 printgap
|  2> %output
|  3>     printlevel normal
|  4> end
|  5> * xyz 0 1
|  6> C -1.0006583306 -1.6005615165 -4.2272e-06
|  7> S -0.4689177888 0.0897081979 2.9463e-06
|  8> O -0.8000756381 0.7699174041 1.2244684828
|  9> O -0.8001957463 0.769956262 -1.2244124005
| 10> Cl 1.5791627937 -0.0718702111 -2.79351e-05
| 11> H -0.607851153 -2.0575751624 0.8975909865
| 12> H -2.083466673 -1.5821242917 0.0017315966
| 13> H -0.6106400995 -2.056671918 -0.8992735742
| 14> *
| 15>
| 16>                          ****END OF INPUT****

CARTESIAN COORDINATES (ANGSTROEM)
---------------------------------
  C     -1.000658   -1.600562   -0.000004
  S     -0.468918    0.089708    0.000003
  O     -0.800076    0.769917    1.224468
  O     -0.800196    0.769956   -1.224412
  Cl     1.579163   -0.071870   -0.000028
  H     -0.607851   -2.057575    0.897591
  H     -2.083467   -1.582124    0.001732
  H     -0.610640   -2.056672   -0.899274

 Total Charge           Charge          ....    0
 Multiplicity           Mult            ....    1
 Number of Electrons    NEL             ....   58
 Basis Dimension        Dim             ....  136

ORBITAL ENERGIES
----------------

  NO   OCC          E(Eh)            E(eV)
   0   2.0000    -101.239437     -2754.8651
   1   2.0000     -88.804814     -2416.5018
   2   2.0000     -18.975418      -516.3474
   3   2.0000     -18.975414      -516.3473
   4   2.0000     -10.107939      -275.0510
   5   2.0000      -9.395599      -255.6672
   6   2.0000      -8.074125      -219.7081
   7   2.0000      -7.141632      -194.3337
   8   2.0000      -7.131988      -194.0713
   9   2.0000      -7.131544      -194.0592
  10   2.0000      -6.021495      -163.8532
  11   2.0000      -6.017997      -163.7580
  12   2.0000      -6.017288      -163.7387
  13   2.0000      -1.111480       -30.2449
  14   2.0000      -1.001609       -27.2552
  15   2.0000      -0.834690       -22.7131
  16   2.0000      -0.775231       -21.0951
  17   2.0000      -0.601393       -16.3647
  18   2.0000      -0.510014       -13.8782
  19   2.0000      -0.481520       -13.1028
  20   2.0000      -0.475367       -12.9354
  21   2.0000      -0.438855       -11.9418
  22   2.0000      -0.429565       -11.6891
  23   2.0000      -0.347764        -9.4631
  24   2.0000      -0.343402        -9.3444
  25   2.0000      -0.324581        -8.8323
  26   2.0000      -0.309261        -8.4154
  27   2.0000      -0.306497        -8.3402
  28   2.0000      -0.284955        -7.7540
  29   0.0000      -0.088409        -2.4057
  30   0.0000       0.020374         0.5544
  31   0.0000       0.040493         1.1019
  32   0.0000       0.046347         1.2612
  33   0.0000       0.075541         2.0556

MULLIKEN ATOMIC CHARGES
-----------------------
   0 C :   -0.415891
   1 S :    0.912553
   2 O :   -0.460624
   3 O :   -0.460632
   4 Cl:   -0.162809
   5 H :    0.194332
   6 H :    0.198737
   7 H :    0.194334
Sum of atomic charges:   -0.0000000

LOEWDIN ATOMIC CHARGES
----------------------
   0 C :   -0.357089
   1 S :    0.580571
   2 O :   -0.469192
   3 O :   -0.469187
   4 Cl:    0.141380
   5 H :    0.189897
   6 H :    0.193719
   7 H :    0.189902

  Mayer bond orders larger than 0.100000
B(  0-C ,  1-S ) :   0.8848 B(  0-C ,  5-H ) :   0.9262 B(  0-C ,  6-H ) :   0.9172
B(  0-C ,  7-H ) :   0.9262 B(  1-S ,  2-O ) :   1.7379 B(  1-S ,  3-O ) :   1.7379
B(  1-S ,  4-Cl) :   0.9721

Dispersion correction           -0.002222993
FINAL SINGLE POINT ENERGY     -1048.633463199836

DIPOLE MOMENT
-------------

Method             : SCF
Type of density    : Electron Density
Multiplicity       :   1
Irrep              :   0
Energy             : -1048.6455565221508550 Eh
Relativity type    :
Basis              : AO
                                X                 Y                 Z
Electronic contribution:      4.979750999       3.595593112      -0.000085578
Nuclear contribution   :     -5.227507734      -5.227536509       0.000084218
                        -----------------------------------------
Total Dipole Moment    :     -0.247756735      -1.631943397      -0.000001359
                        -----------------------------------------
Magnitude (a.u.)       :      1.650643102
Magnitude (Debye)      :      4.195601336

Rotational constants in cm-1:             0.152098             0.092271             0.086747
Rotational constants in MHz :          4559.780579          2766.211309          2600.616119

                             ****ORCA TERMINATED NORMALLY****
TOTAL RUN TIME: 0 days 0 hours 0 minutes 12 seconds 943 msec
