                         Program Version 6.0.0  -   RELEASE  -
|  1> ! r2scan-3c def2/J RI DEFGRID2 scfconv6 printgap
|  2> %output
|  3>     printlevel normal
|  4> end
|  5> %cpcm
|  6>     smd true
|  7>     smdsolvent "water"
|  8> end
|  9> * xyz 0 1
| 10> C -1.0006583306 -1.6005615165 -4.2272e-06
| 11> S -0.4689177888 0.0897081979 2.9463e-06
| 12> O -0.8000756381 0.7699174041 1.2244684828
| 13> O -0.8001957463 0.769956262 -1.2244124005
| 14> Cl 1.5791627937 -0.0718702111 -2.79351e-05
| 15> H -0.607851153 -2.0575751624 0.8975909865
| 16> H -2.083466673 -1.5821242917 0.0017315966
| 17> H -0.6106400995 -2.056671918 -0.8992735742
| 18> *
| 19>
| 20>                          ****END OF INPUT****

CARTESIAN COORDINATES (ANGSTROEM)
---------------------------------
  C     -1.000658   -1.600562   -0.000004
  S     -0.468918    0.089708    0.000003
  O     -0.800076    0.769917    1.224468
  O     -0.800196    0.769956   -1.224412
  Cl     1.579163   -0.071870   -0.000028
  H     -0.607851   -2.057575    0.897591
  H     -2.083467   -1.582124    0.001732
  H     -0.610640   -2.056672   -0.899274

 Total Charge           Charge          ....    0
 Multiplicity           Mult            ....    1
 Number of Electrons    NEL             ....   58
 Basis Dimension        Dim             ....  136

ORBITAL ENERGIES
----------------

  NO   OCC          E(Eh)            E(eV)
   0   2.0000    -101.241404     -2754.9187
   1   2.0000     -88.807911     -2416.5861
   2   2.0000     -18.981876      -516.5231
   3   2.0000     -18.981873      -516.5230
   4   2.0000     -10.082005      -274.3453
   5   2.0000      -9.397544      -255.7202
   6   2.0000      -8.077277      -219.7939
   7   2.0000      -7.143599      -194.3872
   8   2.0000      -7.133853      -194.1220
   9   2.0000      -7.133550      -194.1138
  10   2.0000      -6.024762      -163.9421
  11   2.0000      -6.021651      -163.8575
  12   2.0000      -6.019795      -163.8069
  13   2.0000      -1.118490       -30.4357
  14   2.0000      -1.010206       -27.4891
  15   2.0000      -0.835302       -22.7297
  16   2.0000      -0.758074       -20.6282
  17   2.0000      -0.596138       -16.2217
  18   2.0000      -0.506487       -13.7822
  19   2.0000      -0.482045       -13.1171
  20   2.0000      -0.472006       -12.8439
  21   2.0000      -0.416611       -11.3366
  22   2.0000      -0.415571       -11.3083
  23   2.0000      -0.354880        -9.6568
  24   2.0000      -0.351694        -9.5701
  25   2.0000      -0.324354        -8.8261
  26   2.0000      -0.313617        -8.5339
  27   2.0000      -0.312426        -8.5015
  28   2.0000      -0.292979        -7.9724
  29   0.0000      -0.088160        -2.3990
  30   0.0000       0.025073         0.6823
  31   0.0000       0.043670         1.1883
  32   0.0000       0.051593         1.4039
  33   0.0000       0.103233         2.8091

MULLIKEN ATOMIC CHARGES
-----------------------
   0 C :   -0.408183
   1 S :    0.908073
   2 O :   -0.511862
   3 O :   -0.511862
   4 Cl:   -0.166056
   5 H :    0.226422
   6 H :    0.237054
   7 H :    0.226415
Sum of atomic charges:   -0.0000000

LOEWDIN ATOMIC CHARGES
----------------------
   0 C :   -0.330847
   1 S :    0.588415
   2 O :   -0.510840
   3 O :   -0.510833
   4 Cl:    0.141283
   5 H :    0.205612
   6 H :    0.211594
   7 H :    0.205616

  Mayer bond orders larger than 0.100000
B(  0-C ,  1-S ) :   0.9269 B(  0-C ,  5-H ) :   0.9045 B(  0-C ,  6-H ) :   0.8921
B(  0-C ,  7-H ) :   0.9045 B(  1-S ,  2-O ) :   1.6957 B(  1-S ,  3-O ) :   1.6957
B(  1-S ,  4-Cl) :   0.9783

Dispersion correction           -0.002222993
FINAL SINGLE POINT ENERGY     -1048.646903019322

DIPOLE MOMENT
-------------

Method             : SCF
Type of density    : Electron Density
Multiplicity       :   1
Irrep              :   0
Energy             : -1048.6589963416361115 Eh
Relativity type    :
Basis              : AO
                                X                 Y                 Z
Electronic contribution:      4.916484227       2.988883854      -0.000083976
Nuclear contribution   :     -5.227507734      -5.227536509       0.000084218
                        -----------------------------------------
Total Dipole Moment    :     -0.311023507      -2.238652655       0.000000243
                        -----------------------------------------
Magnitude (a.u.)       :      2.260155157
Magnitude (Debye)      :      5.744857857

Rotational constants in cm-1:             0.152098             0.092271             0.086747
Rotational constants in MHz :          4559.780579          2766.211309          2600.616119

                             ****ORCA TERMINATED NORMALLY****
TOTAL RUN TIME: 0 days 0 hours 0 minutes 14 seconds 913 msec
