                         Program Version 6.0.0  -   RELEASE  -
|  1> ! r2scan-3c def2/J RI DEFGRID2 scfconv6 printgap
|  2> %output
|  3>     printlevel normal
|  4> end
|  5> * xyz 0 1
|  6> C -2.819281045 -0.406014969 0.0002293318
|  7> O -1.3920404752 -0.6127698824 -0.0009208951
|  8> C -0.6041506771 0.4152091287 -0.0010140734
|  9> O -0.8795073795 1.5844750965 -0.0004189948
| 10> C 0.8760393831 -0.0776955481 -0.0004137329
| 11> F 1.7355502951 0.9415305454 -0.0259693135
| 12> F 1.1507440525 -0.8063651022 1.090327523
| 13> F 1.1391789153 -0.8508279314 -1.06257614
| 14> H -3.0438501363 0.6592675057 -0.0158228364
| 15> H -3.207640166 -0.8745489681 0.9018692978
| 16> H -3.2114601893 -0.9033444301 -0.8840864971
| 17> *
| 18>
| 19>                          ****END OF INPUT****

CARTESIAN COORDINATES (ANGSTROEM)
---------------------------------
  C     -2.819281   -0.406015    0.000229
  O     -1.392040   -0.612770   -0.000921
  C     -0.604151    0.415209   -0.001014
  O     -0.879507    1.584475   -0.000419
  C      0.876039   -0.077696   -0.000414
  F      1.735550    0.941531   -0.025969
  F      1.150744   -0.806365    1.090328
  F      1.139179   -0.850828   -1.062576
  H     -3.043850    0.659268   -0.015823
  H     -3.207640   -0.874549    0.901869
  H     -3.211460   -0.903344   -0.884086

 Total Charge           Charge          ....    0
 Multiplicity           Mult            ....    1
 Number of Electrons    NEL             ....   64
 Basis Dimension        Dim             ....  192

ORBITAL ENERGIES
----------------

  NO   OCC          E(Eh)            E(eV)
   0   2.0000     -24.529922      -667.4931
   1   2.0000     -24.529868      -667.4916
   2   2.0000     -24.527546      -667.4284
   3   2.0000     -19.041874      -518.1557
   4   2.0000     -18.971505      -516.2409
   5   2.0000     -10.298442      -280.2348
   6   2.0000     -10.197891      -277.4987
   7   2.0000     -10.115957      -275.2692
   8   2.0000      -1.289447       -35.0876
   9   2.0000      -1.198951       -32.6251
  10   2.0000      -1.198432       -32.6110
  11   2.0000      -1.119225       -30.4557
  12   2.0000      -1.024837       -27.8872
  13   2.0000      -0.761643       -20.7253
  14   2.0000      -0.690215       -18.7817
  15   2.0000      -0.604285       -16.4434
  16   2.0000      -0.569273       -15.4907
  17   2.0000      -0.568432       -15.4678
  18   2.0000      -0.551621       -15.0104
  19   2.0000      -0.486753       -13.2452
  20   2.0000      -0.472657       -12.8617
  21   2.0000      -0.451156       -12.2766
  22   2.0000      -0.437699       -11.9104
  23   2.0000      -0.437063       -11.8931
  24   2.0000      -0.412430       -11.2228
  25   2.0000      -0.400122       -10.8879
  26   2.0000      -0.390217       -10.6183
  27   2.0000      -0.387249       -10.5376
  28   2.0000      -0.377062       -10.2604
  29   2.0000      -0.351545        -9.5660
  30   2.0000      -0.310625        -8.4525
  31   2.0000      -0.278578        -7.5805
  32   0.0000      -0.062959        -1.7132
  33   0.0000       0.036981         1.0063
  34   0.0000       0.069367         1.8876
  35   0.0000       0.111078         3.0226
  36   0.0000       0.128120         3.4863

MULLIKEN ATOMIC CHARGES
-----------------------
   0 C :   -0.286721
   1 O :   -0.170231
   2 C :    0.385175
   3 O :   -0.391368
   4 C :    0.522019
   5 F :   -0.180170
   6 F :   -0.197535
   7 F :   -0.197409
   8 H :    0.191743
   9 H :    0.162298
  10 H :    0.162200
Sum of atomic charges:    0.0000000

LOEWDIN ATOMIC CHARGES
----------------------
   0 C :   -0.026122
   1 O :   -0.547571
   2 C :    0.367257
   3 O :   -0.364069
   4 C :    0.562594
   5 F :   -0.173724
   6 F :   -0.188127
   7 F :   -0.187471
   8 H :    0.193370
   9 H :    0.181875
  10 H :    0.181988

  Mayer bond orders larger than 0.100000
B(  0-C ,  1-O ) :   0.8189 B(  0-C ,  8-H ) :   0.9669 B(  0-C ,  9-H ) :   0.9600
B(  0-C , 10-H ) :   0.9604 B(  1-O ,  2-C ) :   1.1333 B(  2-C ,  3-O ) :   1.8568
B(  2-C ,  4-C ) :   0.9761 B(  4-C ,  5-F ) :   1.0534 B(  4-C ,  6-F ) :   1.0219
B(  4-C ,  7-F ) :   1.0237

Dispersion correction           -0.002397347
FINAL SINGLE POINT ENERGY      -566.063859804670

DIPOLE MOMENT
-------------

Method             : SCF
Type of density    : Electron Density
Multiplicity       :   1
Irrep              :   0
Energy             :  -566.0744965048523909 Eh
Relativity type    :
Basis              : AO
                                X                 Y                 Z
Electronic contribution:     11.407771951      -0.208735617      -0.001484553
Nuclear contribution   :    -12.641247551      -0.372012029       0.000167829
                        -----------------------------------------
Total Dipole Moment    :     -1.233475601      -0.580747646      -0.001316725
                        -----------------------------------------
Magnitude (a.u.)       :      1.363353080
Magnitude (Debye)      :      3.465368131

Rotational constants in cm-1:             0.119616             0.050284             0.043801
Rotational constants in MHz :          3585.987036          1507.487948          1313.131135

                             ****ORCA TERMINATED NORMALLY****
TOTAL RUN TIME: 0 days 0 hours 0 minutes 17 seconds 636 msec
