                         Program Version 6.0.0  -   RELEASE  -
|  1> ! r2scan-3c def2/J RI DEFGRID2 scfconv6 printgap
|  2> %output
|  3>     printlevel normal
|  4> end
|  5> %cpcm
|  6>     smd true
|  7>     smdsolvent "water"
|  8> end
|  9> * xyz 0 1
| 10> C -2.819281045 -0.406014969 0.0002293318
| 11> O -1.3920404752 -0.6127698824 -0.0009208951
| 12> C -0.6041506771 0.4152091287 -0.0010140734
| 13> O -0.8795073795 1.5844750965 -0.0004189948
| 14> C 0.8760393831 -0.0776955481 -0.0004137329
| 15> F 1.7355502951 0.9415305454 -0.0259693135
| 16> F 1.1507440525 -0.8063651022 1.090327523
| 17> F 1.1391789153 -0.8508279314 -1.06257614
| 18> H -3.0438501363 0.6592675057 -0.0158228364
| 19> H -3.207640166 -0.8745489681 0.9018692978
| 20> H -3.2114601893 -0.9033444301 -0.8840864971
| 21> *
| 22>
| 23>                          ****END OF INPUT****

CARTESIAN COORDINATES (ANGSTROEM)
---------------------------------
  C     -2.819281   -0.406015    0.000229
  O     -1.392040   -0.612770   -0.000921
  C     -0.604151    0.415209   -0.001014
  O     -0.879507    1.584475   -0.000419
  C      0.876039   -0.077696   -0.000414
  F      1.735550    0.941531   -0.025969
  F      1.150744   -0.806365    1.090328
  F      1.139179   -0.850828   -1.062576
  H     -3.043850    0.659268   -0.015823
  H     -3.207640   -0.874549    0.901869
  H     -3.211460   -0.903344   -0.884086

 Total Charge           Charge          ....    0
 Multiplicity           Mult            ....    1
 Number of Electrons    NEL             ....   64
 Basis Dimension        Dim             ....  192

ORBITAL ENERGIES
----------------

  NO   OCC          E(Eh)            E(eV)
   0   2.0000     -24.535730      -667.6511
   1   2.0000     -24.534795      -667.6257
   2   2.0000     -24.534761      -667.6248
   3   2.0000     -19.034154      -517.9457
   4   2.0000     -18.973781      -516.3028
   5   2.0000     -10.301762      -280.3252
   6   2.0000     -10.198494      -277.5151
   7   2.0000     -10.088592      -274.5245
   8   2.0000      -1.294866       -35.2351
   9   2.0000      -1.205379       -32.8000
  10   2.0000      -1.203493       -32.7487
  11   2.0000      -1.112385       -30.2695
  12   2.0000      -1.024958       -27.8905
  13   2.0000      -0.751313       -20.4443
  14   2.0000      -0.685420       -18.6512
  15   2.0000      -0.601935       -16.3795
  16   2.0000      -0.574076       -15.6214
  17   2.0000      -0.572898       -15.5894
  18   2.0000      -0.541573       -14.7369
  19   2.0000      -0.474168       -12.9028
  20   2.0000      -0.473207       -12.8766
  21   2.0000      -0.447044       -12.1647
  22   2.0000      -0.442195       -12.0327
  23   2.0000      -0.441856       -12.0235
  24   2.0000      -0.407468       -11.0878
  25   2.0000      -0.406447       -11.0600
  26   2.0000      -0.385587       -10.4924
  27   2.0000      -0.383325       -10.4308
  28   2.0000      -0.380891       -10.3646
  29   2.0000      -0.340872        -9.2756
  30   2.0000      -0.301743        -8.2109
  31   2.0000      -0.283402        -7.7118
  32   0.0000      -0.061882        -1.6839
  33   0.0000       0.055792         1.5182
  34   0.0000       0.078284         2.1302
  35   0.0000       0.121387         3.3031
  36   0.0000       0.131110         3.5677

MULLIKEN ATOMIC CHARGES
-----------------------
   0 C :   -0.300401
   1 O :   -0.171778
   2 C :    0.427389
   3 O :   -0.450699
   4 C :    0.513085
   5 F :   -0.191201
   6 F :   -0.198468
   7 F :   -0.198529
   8 H :    0.193159
   9 H :    0.188818
  10 H :    0.188624
Sum of atomic charges:   -0.0000000

LOEWDIN ATOMIC CHARGES
----------------------
   0 C :   -0.015560
   1 O :   -0.540244
   2 C :    0.377161
   3 O :   -0.407269
   4 C :    0.563185
   5 F :   -0.181528
   6 F :   -0.189452
   7 F :   -0.188807
   8 H :    0.195392
   9 H :    0.193499
  10 H :    0.193622

  Mayer bond orders larger than 0.100000
B(  0-C ,  1-O ) :   0.8073 B(  0-C ,  8-H ) :   0.9616 B(  0-C ,  9-H ) :   0.9491
B(  0-C , 10-H ) :   0.9495 B(  1-O ,  2-C ) :   1.1738 B(  2-C ,  3-O ) :   1.8082
B(  2-C ,  4-C ) :   0.9789 B(  4-C ,  5-F ) :   1.0433 B(  4-C ,  6-F ) :   1.0243
B(  4-C ,  7-F ) :   1.0259

Dispersion correction           -0.002397347
FINAL SINGLE POINT ENERGY      -566.064808984252

DIPOLE MOMENT
-------------

Method             : SCF
Type of density    : Electron Density
Multiplicity       :   1
Irrep              :   0
Energy             :  -566.0754456844340439 Eh
Relativity type    :
Basis              : AO
                                X                 Y                 Z
Electronic contribution:     11.129862710      -0.449419696      -0.001732097
Nuclear contribution   :    -12.641247551      -0.372012029       0.000167829
                        -----------------------------------------
Total Dipole Moment    :     -1.511384841      -0.821431725      -0.001564268
                        -----------------------------------------
Magnitude (a.u.)       :      1.720185067
Magnitude (Debye)      :      4.372362962

Rotational constants in cm-1:             0.119616             0.050284             0.043801
Rotational constants in MHz :          3585.987036          1507.487948          1313.131135

                             ****ORCA TERMINATED NORMALLY****
TOTAL RUN TIME: 0 days 0 hours 0 minutes 21 seconds 672 msec
