                         Program Version 6.0.0  -   RELEASE  -
|  1> ! r2scan-3c def2/J RI DEFGRID2 scfconv6 printgap
|  2> %output
|  3>     printlevel normal
|  4> end
|  5> * xyz 0 1
|  6> C -2.0885913444 0.3098817362 1.4018334591
|  7> C -1.5159273417 -0.0259346448 0.0188753935
|  8> C -2.0733205917 -1.3929964504 -0.3994779573
|  9> C -1.976568769 1.0380857292 -0.9887158355
| 10> C 0.0061211746 -0.0242429811 0.0253868098
| 11> C 0.7265753847 0.783710233 0.8997793513
| 12> C 2.1100537318 0.8153219629 0.8767874362
| 13> C 2.812924681 0.0405145997 -0.0280472742
| 14> C 2.1125269459 -0.7590579406 -0.9132727599
| 15> C 0.7293066773 -0.7864731663 -0.8874283374
| 16> H -3.166775545 0.1673594247 1.3961308787
| 17> H -1.660037653 -0.3404042535 2.1610622261
| 18> H -1.8967994548 1.3438884176 1.6744932904
| 19> H -3.1526637116 -1.405540199 -0.2660975282
| 20> H -1.870646479 -1.6065350503 -1.4450522299
| 21> H -1.6417565179 -2.1834931488 0.210409443
| 22> H -1.597812446 0.8103897031 -1.9827433984
| 23> H -3.0628952485 1.0727578993 -1.0290754864
| 24> H -1.6067763985 2.0196807291 -0.7001308114
| 25> H 0.214079227 1.4052793617 1.6159951684
| 26> H 2.6401826206 1.4512363898 1.5709411072
| 27> H 3.89240542 0.0622675874 -0.0456178978
| 28> H 2.6446210872 -1.3662051842 -1.631275683
| 29> H 0.2177665691 -1.4164896275 -1.5972069024
| 30> *
| 31>
| 32>                          ****END OF INPUT****

CARTESIAN COORDINATES (ANGSTROEM)
---------------------------------
  C     -2.088591    0.309882    1.401833
  C     -1.515927   -0.025935    0.018875
  C     -2.073321   -1.392996   -0.399478
  C     -1.976569    1.038086   -0.988716
  C      0.006121   -0.024243    0.025387
  C      0.726575    0.783710    0.899779
  C      2.110054    0.815322    0.876787
  C      2.812925    0.040515   -0.028047
  C      2.112527   -0.759058   -0.913273
  C      0.729307   -0.786473   -0.887428
  H     -3.166776    0.167359    1.396131
  H     -1.660038   -0.340404    2.161062
  H     -1.896799    1.343888    1.674493
  H     -3.152664   -1.405540   -0.266098
  H     -1.870646   -1.606535   -1.445052
  H     -1.641757   -2.183493    0.210409
  H     -1.597812    0.810390   -1.982743
  H     -3.062895    1.072758   -1.029075
  H     -1.606776    2.019681   -0.700131
  H      0.214079    1.405279    1.615995
  H      2.640183    1.451236    1.570941
  H      3.892405    0.062268   -0.045618
  H      2.644621   -1.366205   -1.631276
  H      0.217767   -1.416490   -1.597207

 Total Charge           Charge          ....    0
 Multiplicity           Mult            ....    1
 Number of Electrons    NEL             ....   74
 Basis Dimension        Dim             ....  260

ORBITAL ENERGIES
----------------

  NO   OCC          E(Eh)            E(eV)
   0   2.0000     -10.051336      -273.5108
   1   2.0000     -10.039382      -273.1855
   2   2.0000     -10.030352      -272.9398
   3   2.0000     -10.030273      -272.9376
   4   2.0000     -10.028228      -272.8820
   5   2.0000     -10.028182      -272.8807
   6   2.0000     -10.028120      -272.8790
   7   2.0000     -10.018279      -272.6112
   8   2.0000     -10.018264      -272.6108
   9   2.0000     -10.018218      -272.6096
  10   2.0000      -0.830362       -22.5953
  11   2.0000      -0.784579       -21.3495
  12   2.0000      -0.712956       -19.4005
  13   2.0000      -0.702007       -19.1026
  14   2.0000      -0.655103       -17.8263
  15   2.0000      -0.654571       -17.8118
  16   2.0000      -0.581008       -15.8100
  17   2.0000      -0.567552       -15.4439
  18   2.0000      -0.517615       -14.0850
  19   2.0000      -0.479284       -13.0420
  20   2.0000      -0.427654       -11.6371
  21   2.0000      -0.426804       -11.6139
  22   2.0000      -0.415231       -11.2990
  23   2.0000      -0.406996       -11.0749
  24   2.0000      -0.394580       -10.7371
  25   2.0000      -0.385465       -10.4890
  26   2.0000      -0.368288       -10.0216
  27   2.0000      -0.348233        -9.4759
  28   2.0000      -0.340763        -9.2726
  29   2.0000      -0.335200        -9.1213
  30   2.0000      -0.334377        -9.0989
  31   2.0000      -0.317389        -8.6366
  32   2.0000      -0.303406        -8.2561
  33   2.0000      -0.288825        -7.8593
  34   2.0000      -0.286789        -7.8039
  35   2.0000      -0.233066        -6.3420
  36   2.0000      -0.224606        -6.1118
  37   0.0000      -0.028128        -0.7654
  38   0.0000      -0.026427        -0.7191
  39   0.0000       0.073858         2.0098
  40   0.0000       0.092054         2.5049
  41   0.0000       0.113315         3.0835

MULLIKEN ATOMIC CHARGES
-----------------------
   0 C :   -0.534473
   1 C :    0.149598
   2 C :   -0.525237
   3 C :   -0.490210
   4 C :    0.184445
   5 C :   -0.217529
   6 C :   -0.165725
   7 C :   -0.157126
   8 C :   -0.164922
   9 C :   -0.226182
  10 H :    0.157801
  11 H :    0.174921
  12 H :    0.149776
  13 H :    0.157186
  14 H :    0.148528
  15 H :    0.173543
  16 H :    0.161369
  17 H :    0.149864
  18 H :    0.161348
  19 H :    0.140430
  20 H :    0.143800
  21 H :    0.145151
  22 H :    0.143796
  23 H :    0.139849
Sum of atomic charges:    0.0000000

LOEWDIN ATOMIC CHARGES
----------------------
   0 C :   -0.401813
   1 C :   -0.187426
   2 C :   -0.400449
   3 C :   -0.386410
   4 C :   -0.073402
   5 C :   -0.158423
   6 C :   -0.162772
   7 C :   -0.172837
   8 C :   -0.162699
   9 C :   -0.158038
  10 H :    0.157350
  11 H :    0.163553
  12 H :    0.154432
  13 H :    0.157041
  14 H :    0.154044
  15 H :    0.163719
  16 H :    0.159856
  17 H :    0.155385
  18 H :    0.160065
  19 H :    0.170743
  20 H :    0.165911
  21 H :    0.165930
  22 H :    0.165939
  23 H :    0.170303

  Mayer bond orders larger than 0.100000
B(  0-C ,  1-C ) :   0.9032 B(  0-C , 10-H ) :   0.9794 B(  0-C , 11-H ) :   0.9831
B(  0-C , 12-H ) :   0.9635 B(  1-C ,  2-C ) :   0.9108 B(  1-C ,  3-C ) :   0.9911
B(  1-C ,  4-C ) :   0.7871 B(  2-C , 13-H ) :   0.9795 B(  2-C , 14-H ) :   0.9633
B(  2-C , 15-H ) :   0.9814 B(  3-C , 16-H ) :   0.9704 B(  3-C , 17-H ) :   0.9718
B(  3-C , 18-H ) :   0.9712 B(  4-C ,  5-C ) :   1.4199 B(  4-C ,  9-C ) :   1.4122
B(  5-C ,  6-C ) :   1.4404 B(  5-C , 19-H ) :   0.9450 B(  6-C ,  7-C ) :   1.4208
B(  6-C , 20-H ) :   0.9478 B(  7-C ,  8-C ) :   1.4195 B(  7-C , 21-H ) :   0.9492
B(  8-C ,  9-C ) :   1.4444 B(  8-C , 22-H ) :   0.9478 B(  9-C , 23-H ) :   0.9466

Dispersion correction           -0.008704844
FINAL SINGLE POINT ENERGY      -389.378682960630

DIPOLE MOMENT
-------------

Method             : SCF
Type of density    : Electron Density
Multiplicity       :   1
Irrep              :   0
Energy             :  -389.3788774937263497 Eh
Relativity type    :
Basis              : AO
                                X                 Y                 Z
Electronic contribution:      9.248369349      -0.002305816       0.053495521
Nuclear contribution   :     -9.425861958       0.013314507      -0.063952778
                        -----------------------------------------
Total Dipole Moment    :     -0.177492609       0.011008692      -0.010457257
                        -----------------------------------------
Magnitude (a.u.)       :      0.178140876
Magnitude (Debye)      :      0.452798122

Rotational constants in cm-1:             0.086165             0.032078             0.027593
Rotational constants in MHz :          2583.146891           961.666662           827.214186

                             ****ORCA TERMINATED NORMALLY****
TOTAL RUN TIME: 0 days 0 hours 0 minutes 30 seconds 237 msec
