                         Program Version 6.0.0  -   RELEASE  -
|  1> ! r2scan-3c def2/J RI DEFGRID2 scfconv6 printgap
|  2> %output
|  3>     printlevel normal
|  4> end
|  5> %cpcm
|  6>     smd true
|  7>     smdsolvent "water"
|  8> end
|  9> * xyz 0 1
| 10> C -2.0885913444 0.3098817362 1.4018334591
| 11> C -1.5159273417 -0.0259346448 0.0188753935
| 12> C -2.0733205917 -1.3929964504 -0.3994779573
| 13> C -1.976568769 1.0380857292 -0.9887158355
| 14> C 0.0061211746 -0.0242429811 0.0253868098
| 15> C 0.7265753847 0.783710233 0.8997793513
| 16> C 2.1100537318 0.8153219629 0.8767874362
| 17> C 2.812924681 0.0405145997 -0.0280472742
| 18> C 2.1125269459 -0.7590579406 -0.9132727599
| 19> C 0.7293066773 -0.7864731663 -0.8874283374
| 20> H -3.166775545 0.1673594247 1.3961308787
| 21> H -1.660037653 -0.3404042535 2.1610622261
| 22> H -1.8967994548 1.3438884176 1.6744932904
| 23> H -3.1526637116 -1.405540199 -0.2660975282
| 24> H -1.870646479 -1.6065350503 -1.4450522299
| 25> H -1.6417565179 -2.1834931488 0.210409443
| 26> H -1.597812446 0.8103897031 -1.9827433984
| 27> H -3.0628952485 1.0727578993 -1.0290754864
| 28> H -1.6067763985 2.0196807291 -0.7001308114
| 29> H 0.214079227 1.4052793617 1.6159951684
| 30> H 2.6401826206 1.4512363898 1.5709411072
| 31> H 3.89240542 0.0622675874 -0.0456178978
| 32> H 2.6446210872 -1.3662051842 -1.631275683
| 33> H 0.2177665691 -1.4164896275 -1.5972069024
| 34> *
| 35>
| 36>                          ****END OF INPUT****

CARTESIAN COORDINATES (ANGSTROEM)
---------------------------------
  C     -2.088591    0.309882    1.401833
  C     -1.515927   -0.025935    0.018875
  C     -2.073321   -1.392996   -0.399478
  C     -1.976569    1.038086   -0.988716
  C      0.006121   -0.024243    0.025387
  C      0.726575    0.783710    0.899779
  C      2.110054    0.815322    0.876787
  C      2.812925    0.040515   -0.028047
  C      2.112527   -0.759058   -0.913273
  C      0.729307   -0.786473   -0.887428
  H     -3.166776    0.167359    1.396131
  H     -1.660038   -0.340404    2.161062
  H     -1.896799    1.343888    1.674493
  H     -3.152664   -1.405540   -0.266098
  H     -1.870646   -1.606535   -1.445052
  H     -1.641757   -2.183493    0.210409
  H     -1.597812    0.810390   -1.982743
  H     -3.062895    1.072758   -1.029075
  H     -1.606776    2.019681   -0.700131
  H      0.214079    1.405279    1.615995
  H      2.640183    1.451236    1.570941
  H      3.892405    0.062268   -0.045618
  H      2.644621   -1.366205   -1.631276
  H      0.217767   -1.416490   -1.597207

 Total Charge           Charge          ....    0
 Multiplicity           Mult            ....    1
 Number of Electrons    NEL             ....   74
 Basis Dimension        Dim             ....  260

ORBITAL ENERGIES
----------------

  NO   OCC          E(Eh)            E(eV)
   0   2.0000     -10.045123      -273.3417
   1   2.0000     -10.038910      -273.1726
   2   2.0000     -10.029539      -272.9176
   3   2.0000     -10.029475      -272.9159
   4   2.0000     -10.027431      -272.8603
   5   2.0000     -10.026836      -272.8441
   6   2.0000     -10.026802      -272.8432
   7   2.0000     -10.010713      -272.4054
   8   2.0000     -10.008455      -272.3439
   9   2.0000     -10.008360      -272.3413
  10   2.0000      -0.830133       -22.5891
  11   2.0000      -0.779797       -21.2193
  12   2.0000      -0.712653       -19.3923
  13   2.0000      -0.700445       -19.0601
  14   2.0000      -0.646985       -17.6054
  15   2.0000      -0.646348       -17.5880
  16   2.0000      -0.578088       -15.7306
  17   2.0000      -0.565562       -15.3897
  18   2.0000      -0.513416       -13.9708
  19   2.0000      -0.474495       -12.9117
  20   2.0000      -0.424877       -11.5615
  21   2.0000      -0.420498       -11.4423
  22   2.0000      -0.409120       -11.1327
  23   2.0000      -0.400836       -10.9073
  24   2.0000      -0.388783       -10.5793
  25   2.0000      -0.381528       -10.3819
  26   2.0000      -0.362403        -9.8615
  27   2.0000      -0.339565        -9.2400
  28   2.0000      -0.336940        -9.1686
  29   2.0000      -0.334251        -9.0954
  30   2.0000      -0.325922        -8.8688
  31   2.0000      -0.312023        -8.4906
  32   2.0000      -0.296585        -8.0705
  33   2.0000      -0.283961        -7.7270
  34   2.0000      -0.280134        -7.6228
  35   2.0000      -0.236444        -6.4340
  36   2.0000      -0.226791        -6.1713
  37   0.0000      -0.030226        -0.8225
  38   0.0000      -0.028376        -0.7721
  39   0.0000       0.081715         2.2236
  40   0.0000       0.099641         2.7114
  41   0.0000       0.114570         3.1176

MULLIKEN ATOMIC CHARGES
-----------------------
   0 C :   -0.576800
   1 C :    0.230175
   2 C :   -0.570107
   3 C :   -0.543552
   4 C :    0.118962
   5 C :   -0.232352
   6 C :   -0.208773
   7 C :   -0.190892
   8 C :   -0.207312
   9 C :   -0.240863
  10 H :    0.173674
  11 H :    0.179575
  12 H :    0.168718
  13 H :    0.173178
  14 H :    0.168254
  15 H :    0.178096
  16 H :    0.172662
  17 H :    0.165938
  18 H :    0.172130
  19 H :    0.171131
  20 H :    0.175027
  21 H :    0.176901
  22 H :    0.175040
  23 H :    0.171190
Sum of atomic charges:    0.0000000

LOEWDIN ATOMIC CHARGES
----------------------
   0 C :   -0.407808
   1 C :   -0.183324
   2 C :   -0.406787
   3 C :   -0.393836
   4 C :   -0.080921
   5 C :   -0.167506
   6 C :   -0.175606
   7 C :   -0.187175
   8 C :   -0.175513
   9 C :   -0.167136
  10 H :    0.161945
  11 H :    0.163935
  12 H :    0.159760
  13 H :    0.161765
  14 H :    0.159559
  15 H :    0.163897
  16 H :    0.161727
  17 H :    0.160825
  18 H :    0.161705
  19 H :    0.181188
  20 H :    0.176177
  21 H :    0.175890
  22 H :    0.176210
  23 H :    0.181028

  Mayer bond orders larger than 0.100000
B(  0-C ,  1-C ) :   0.8877 B(  0-C , 10-H ) :   0.9755 B(  0-C , 11-H ) :   0.9814
B(  0-C , 12-H ) :   0.9613 B(  1-C ,  2-C ) :   0.8930 B(  1-C ,  3-C ) :   0.9623
B(  1-C ,  4-C ) :   0.7947 B(  2-C , 13-H ) :   0.9756 B(  2-C , 14-H ) :   0.9612
B(  2-C , 15-H ) :   0.9802 B(  3-C , 16-H ) :   0.9704 B(  3-C , 17-H ) :   0.9689
B(  3-C , 18-H ) :   0.9710 B(  4-C ,  5-C ) :   1.3918 B(  4-C ,  9-C ) :   1.3858
B(  5-C ,  6-C ) :   1.4060 B(  5-C , 19-H ) :   0.9534 B(  6-C ,  7-C ) :   1.3796
B(  6-C , 20-H ) :   0.9600 B(  7-C ,  8-C ) :   1.3780 B(  7-C , 21-H ) :   0.9574
B(  8-C ,  9-C ) :   1.4094 B(  8-C , 22-H ) :   0.9600 B(  9-C , 23-H ) :   0.9548

Dispersion correction           -0.008704844
FINAL SINGLE POINT ENERGY      -389.379297443296

DIPOLE MOMENT
-------------

Method             : SCF
Type of density    : Electron Density
Multiplicity       :   1
Irrep              :   0
Energy             :  -389.3794919763928419 Eh
Relativity type    :
Basis              : AO
                                X                 Y                 Z
Electronic contribution:      9.125221713       0.014446244       0.035437218
Nuclear contribution   :     -9.425861958       0.013314507      -0.063952778
                        -----------------------------------------
Total Dipole Moment    :     -0.300640246       0.027760751      -0.028515560
                        -----------------------------------------
Magnitude (a.u.)       :      0.303262846
Magnitude (Debye)      :      0.770832895

Rotational constants in cm-1:             0.086165             0.032078             0.027593
Rotational constants in MHz :          2583.146891           961.666662           827.214186

                             ****ORCA TERMINATED NORMALLY****
TOTAL RUN TIME: 0 days 0 hours 0 minutes 37 seconds 89 msec
