                         Program Version 6.0.0  -   RELEASE  -
|  1> ! pbe def2-sv(p) def2/J RI DEFGRID1 loosescf d4 GCP(DFT/SV(P)) printgap
|  2> %output
|  3>     printlevel normal
|  4> end
|  5> * xyz 0 1
|  6> C -2.4882618084 -0.4667419952 -0.2028758183
|  7> C -1.0479823922 -0.1948139233 0.2371659854
|  8> H -0.9653258842 -0.3831909699 1.3186162586
|  9> C -0.6268191651 1.2638691607 -0.0481808856
| 10> H -1.2126069583 1.6633627729 -0.8835026615
| 11> C 0.8644519055 1.3025998739 -0.4594483668
| 12> H 1.2460033881 2.3070276222 -0.2471034209
| 13> C 1.6547574686 0.2813820905 0.3789797716
| 14> H 2.6986252427 0.2900720094 0.0460974575
| 15> C 1.1030854032 -1.1402555881 0.1061444296
| 16> H 1.0506498739 -1.6834720337 1.0733001784
| 17> O -0.1978528741 -1.1039345474 -0.4499302787
| 18> O 1.9422969662 -1.7716137606 -0.7882011341
| 19> O 1.5237354759 0.6396085652 1.7324749926
| 20> O 1.0498486084 1.1040342313 -1.833360912
| 21> O -0.8965090441 2.1015522436 1.04266262
| 22> O -2.9577344744 -1.7192549977 0.2242660068
| 23> H -2.5491889925 -0.3782576665 -1.2941344198
| 24> H -3.135867626 0.2812842109 0.2573592704
| 25> H 1.5838436498 -2.6394783237 -1.0321554548
| 26> H 2.2752620027 0.3125120587 2.2459299062
| 27> H 0.7930076586 0.1972965313 -2.0622696909
| 28> H -0.288269896 1.875127028 1.7652973388
| 29> H -2.4139861537 -2.4085094281 -0.1835405234
| 30> *
| 31>
| 32>                          ****END OF INPUT****

CARTESIAN COORDINATES (ANGSTROEM)
---------------------------------
  C     -2.488262   -0.466742   -0.202876
  C     -1.047982   -0.194814    0.237166
  H     -0.965326   -0.383191    1.318616
  C     -0.626819    1.263869   -0.048181
  H     -1.212607    1.663363   -0.883503
  C      0.864452    1.302600   -0.459448
  H      1.246003    2.307028   -0.247103
  C      1.654757    0.281382    0.378980
  H      2.698625    0.290072    0.046097
  C      1.103085   -1.140256    0.106144
  H      1.050650   -1.683472    1.073300
  O     -0.197853   -1.103935   -0.449930
  O      1.942297   -1.771614   -0.788201
  O      1.523735    0.639609    1.732475
  O      1.049849    1.104034   -1.833361
  O     -0.896509    2.101552    1.042663
  O     -2.957734   -1.719255    0.224266
  H     -2.549189   -0.378258   -1.294134
  H     -3.135868    0.281284    0.257359
  H      1.583844   -2.639478   -1.032155
  H      2.275262    0.312512    2.245930
  H      0.793008    0.197297   -2.062270
  H     -0.288270    1.875127    1.765297
  H     -2.413986   -2.408509   -0.183541

 Total Charge           Charge          ....    0
 Multiplicity           Mult            ....    1
 Number of Electrons    NEL             ....   96
 Basis Dimension        Dim             ....  192

ORBITAL ENERGIES
----------------

  NO   OCC          E(Eh)            E(eV)
   0   2.0000     -18.785001      -511.1659
   1   2.0000     -18.783157      -511.1157
   2   2.0000     -18.780654      -511.0476
   3   2.0000     -18.745012      -510.0777
   4   2.0000     -18.744586      -510.0661
   5   2.0000     -18.740635      -509.9586
   6   2.0000      -9.999809      -272.1086
   7   2.0000      -9.952692      -270.8265
   8   2.0000      -9.941094      -270.5109
   9   2.0000      -9.939842      -270.4768
  10   2.0000      -9.934503      -270.3316
  11   2.0000      -9.932091      -270.2659
  12   2.0000      -0.999085       -27.1865
  13   2.0000      -0.956575       -26.0297
  14   2.0000      -0.938939       -25.5498
  15   2.0000      -0.925619       -25.1874
  16   2.0000      -0.916891       -24.9499
  17   2.0000      -0.916427       -24.9373
  18   2.0000      -0.696746       -18.9594
  19   2.0000      -0.695717       -18.9314
  20   2.0000      -0.623266       -16.9599
  21   2.0000      -0.587721       -15.9927
  22   2.0000      -0.568041       -15.4572
  23   2.0000      -0.530860       -14.4454
  24   2.0000      -0.518864       -14.1190
  25   2.0000      -0.492155       -13.3922
  26   2.0000      -0.480395       -13.0722
  27   2.0000      -0.469586       -12.7781
  28   2.0000      -0.460399       -12.5281
  29   2.0000      -0.432151       -11.7594
  30   2.0000      -0.415671       -11.3110
  31   2.0000      -0.391924       -10.6648
  32   2.0000      -0.384958       -10.4752
  33   2.0000      -0.375949       -10.2301
  34   2.0000      -0.361197        -9.8287
  35   2.0000      -0.354041        -9.6339
  36   2.0000      -0.340309        -9.2603
  37   2.0000      -0.321220        -8.7409
  38   2.0000      -0.313294        -8.5252
  39   2.0000      -0.289288        -7.8719
  40   2.0000      -0.283877        -7.7247
  41   2.0000      -0.275226        -7.4893
  42   2.0000      -0.262227        -7.1356
  43   2.0000      -0.255704        -6.9581
  44   2.0000      -0.248983        -6.7752
  45   2.0000      -0.224286        -6.1031
  46   2.0000      -0.215074        -5.8525
  47   2.0000      -0.193792        -5.2734
  48   0.0000      -0.000673        -0.0183
  49   0.0000       0.013808         0.3757
  50   0.0000       0.037620         1.0237
  51   0.0000       0.054326         1.4783
  52   0.0000       0.057954         1.5770

MULLIKEN ATOMIC CHARGES
-----------------------
   0 C :    0.067482
   1 C :   -0.002578
   2 H :    0.056484
   3 C :    0.074128
   4 H :    0.067614
   5 C :    0.046902
   6 H :    0.078263
   7 C :   -0.001875
   8 H :    0.091928
   9 C :    0.184586
  10 H :    0.046329
  11 O :   -0.333348
  12 O :   -0.377095
  13 O :   -0.421398
  14 O :   -0.413749
  15 O :   -0.427841
  16 O :   -0.432749
  17 H :    0.073368
  18 H :    0.103283
  19 H :    0.308645
  20 H :    0.317278
  21 H :    0.296352
  22 H :    0.304727
  23 H :    0.293264
Sum of atomic charges:    0.0000000

LOEWDIN ATOMIC CHARGES
----------------------
   0 C :   -0.125988
   1 C :   -0.082219
   2 H :    0.106003
   3 C :   -0.073529
   4 H :    0.116985
   5 C :   -0.070224
   6 H :    0.120624
   7 C :   -0.090809
   8 H :    0.119184
   9 C :   -0.007583
  10 H :    0.081284
  11 O :   -0.171482
  12 O :   -0.290820
  13 O :   -0.312510
  14 O :   -0.310238
  15 O :   -0.315099
  16 O :   -0.336049
  17 H :    0.100676
  18 H :    0.125810
  19 H :    0.291429
  20 H :    0.297451
  21 H :    0.271600
  22 H :    0.276034
  23 H :    0.279470

  Mayer bond orders larger than 0.100000
B(  0-C ,  1-C ) :   1.0534 B(  0-C , 16-O ) :   1.0748 B(  0-C , 17-H ) :   0.9076
B(  0-C , 18-H ) :   0.9174 B(  1-C ,  2-H ) :   0.8620 B(  1-C ,  3-C ) :   0.9636
B(  1-C , 11-O ) :   0.9870 B(  3-C ,  4-H ) :   0.8874 B(  3-C ,  5-C ) :   0.9715
B(  3-C , 15-O ) :   1.0442 B(  5-C ,  6-H ) :   0.8880 B(  5-C ,  7-C ) :   1.0071
B(  5-C , 14-O ) :   1.0662 B(  7-C ,  8-H ) :   0.8950 B(  7-C ,  9-C ) :   0.9299
B(  7-C , 13-O ) :   1.0463 B(  9-C , 10-H ) :   0.9003 B(  9-C , 11-O ) :   1.0103
B(  9-C , 12-O ) :   1.1622 B( 12-O , 19-H ) :   0.8374 B( 13-O , 20-H ) :   0.8405
B( 14-O , 21-H ) :   0.8329 B( 15-O , 22-H ) :   0.8276 B( 16-O , 23-H ) :   0.8500

Dispersion correction           -0.024780807
FINAL SINGLE POINT ENERGY      -685.694759671099

DIPOLE MOMENT
-------------

Method             : SCF
Type of density    : Electron Density
Multiplicity       :   1
Irrep              :   0
Energy             :  -685.8261508608060240 Eh
Relativity type    :
Basis              : AO
                                X                 Y                 Z
Electronic contribution:      1.874891104      -0.689678576      -0.502786313
Nuclear contribution   :     -0.854232176      -0.542321555       0.940755619
                        -----------------------------------------
Total Dipole Moment    :      1.020658928      -1.232000131       0.437969306
                        -----------------------------------------
Magnitude (a.u.)       :      1.658730263
Magnitude (Debye)      :      4.216157264

Rotational constants in cm-1:             0.037842             0.027309             0.021722
Rotational constants in MHz :          1134.488431           818.691565           651.203460

                             ****ORCA TERMINATED NORMALLY****
TOTAL RUN TIME: 0 days 0 hours 0 minutes 12 seconds 279 msec
