                         Program Version 6.0.0  -   RELEASE  -
|  1> ! pbe def2-sv(p) def2/J RI DEFGRID1 loosescf d4 GCP(DFT/SV(P)) printgap
|  2> %output
|  3>     printlevel normal
|  4> end
|  5> * xyz 0 1
|  6> C -1.9815709037 -1.2019417246 -0.3891944921
|  7> C -1.2832176901 -0.4030840229 0.7235349715
|  8> H -1.9732393611 -0.3680276214 1.5734331409
|  9> C -0.9744951797 1.0536859576 0.2939561497
| 10> H -1.3747241639 1.2337270273 -0.708147749
| 11> C 0.5418639492 1.2766579293 0.2310183802
| 12> H 0.9419326565 1.366118271 1.2566700299
| 13> C 1.2037798077 0.063073595 -0.4316085329
| 14> H 0.7149992972 -0.133368189 -1.3930970282
| 15> C 1.0085080025 -1.1580454681 0.4792299286
| 16> H 1.8348612006 -1.1839028185 1.2100204076
| 17> O -0.1474672276 -1.0619536179 1.2750482274
| 18> O 1.0163114242 -2.3032540572 -0.3118894497
| 19> O 2.5677177377 0.36268975 -0.6063794734
| 20> O 0.800526138 2.4545286817 -0.4846245989
| 21> O -1.6226941903 1.9840029386 1.1205701153
| 22> O -1.364420772 -0.9905373266 -1.6388952399
| 23> H -3.0251409652 -0.8645529751 -0.4239852651
| 24> H -1.9528094846 -2.2629174974 -0.1149682057
| 25> H 0.9683694318 -3.0940075935 0.2467808619
| 26> H 2.978590917 -0.3151578535 -1.1606470549
| 27> H 1.7439830036 2.4610281654 -0.7132714252
| 28> H -1.1851405094 2.0202242442 1.983802741
| 29> H -1.8156438787 -1.5255423795 -2.3071154589
| 30> *
| 31>
| 32>                          ****END OF INPUT****

CARTESIAN COORDINATES (ANGSTROEM)
---------------------------------
  C     -1.981571   -1.201942   -0.389194
  C     -1.283218   -0.403084    0.723535
  H     -1.973239   -0.368028    1.573433
  C     -0.974495    1.053686    0.293956
  H     -1.374724    1.233727   -0.708148
  C      0.541864    1.276658    0.231018
  H      0.941933    1.366118    1.256670
  C      1.203780    0.063074   -0.431609
  H      0.714999   -0.133368   -1.393097
  C      1.008508   -1.158045    0.479230
  H      1.834861   -1.183903    1.210020
  O     -0.147467   -1.061954    1.275048
  O      1.016311   -2.303254   -0.311889
  O      2.567718    0.362690   -0.606379
  O      0.800526    2.454529   -0.484625
  O     -1.622694    1.984003    1.120570
  O     -1.364421   -0.990537   -1.638895
  H     -3.025141   -0.864553   -0.423985
  H     -1.952809   -2.262917   -0.114968
  H      0.968369   -3.094008    0.246781
  H      2.978591   -0.315158   -1.160647
  H      1.743983    2.461028   -0.713271
  H     -1.185141    2.020224    1.983803
  H     -1.815644   -1.525542   -2.307115

 Total Charge           Charge          ....    0
 Multiplicity           Mult            ....    1
 Number of Electrons    NEL             ....   96
 Basis Dimension        Dim             ....  192

ORBITAL ENERGIES
----------------

  NO   OCC          E(Eh)            E(eV)
   0   2.0000     -18.762221      -510.5460
   1   2.0000     -18.758619      -510.4480
   2   2.0000     -18.758108      -510.4341
   3   2.0000     -18.757103      -510.4067
   4   2.0000     -18.737856      -509.8830
   5   2.0000     -18.733262      -509.7580
   6   2.0000      -9.978525      -271.5295
   7   2.0000      -9.940516      -270.4952
   8   2.0000      -9.935621      -270.3620
   9   2.0000      -9.933567      -270.3061
  10   2.0000      -9.931076      -270.2383
  11   2.0000      -9.930818      -270.2313
  12   2.0000      -0.974618       -26.5207
  13   2.0000      -0.937457       -25.5095
  14   2.0000      -0.931466       -25.3465
  15   2.0000      -0.923202       -25.1216
  16   2.0000      -0.906763       -24.6743
  17   2.0000      -0.902610       -24.5613
  18   2.0000      -0.696564       -18.9545
  19   2.0000      -0.688372       -18.7316
  20   2.0000      -0.617665       -16.8075
  21   2.0000      -0.576792       -15.6953
  22   2.0000      -0.559909       -15.2359
  23   2.0000      -0.516783       -14.0624
  24   2.0000      -0.502102       -13.6629
  25   2.0000      -0.487009       -13.2522
  26   2.0000      -0.462429       -12.5833
  27   2.0000      -0.451260       -12.2794
  28   2.0000      -0.440676       -11.9914
  29   2.0000      -0.416181       -11.3249
  30   2.0000      -0.410769       -11.1776
  31   2.0000      -0.398133       -10.8338
  32   2.0000      -0.390585       -10.6284
  33   2.0000      -0.374340       -10.1863
  34   2.0000      -0.346768        -9.4360
  35   2.0000      -0.344564        -9.3761
  36   2.0000      -0.325849        -8.8668
  37   2.0000      -0.303754        -8.2656
  38   2.0000      -0.296172        -8.0592
  39   2.0000      -0.290648        -7.9089
  40   2.0000      -0.281292        -7.6543
  41   2.0000      -0.255423        -6.9504
  42   2.0000      -0.243752        -6.6328
  43   2.0000      -0.237335        -6.4582
  44   2.0000      -0.224906        -6.1200
  45   2.0000      -0.219188        -5.9644
  46   2.0000      -0.210769        -5.7353
  47   2.0000      -0.195359        -5.3160
  48   0.0000       0.017344         0.4719
  49   0.0000       0.024935         0.6785
  50   0.0000       0.037124         1.0102
  51   0.0000       0.042017         1.1433
  52   0.0000       0.066068         1.7978

MULLIKEN ATOMIC CHARGES
-----------------------
   0 C :    0.029665
   1 C :    0.024961
   2 H :    0.068697
   3 C :    0.089720
   4 H :    0.086296
   5 C :    0.057292
   6 H :    0.035472
   7 C :   -0.030112
   8 H :    0.095840
   9 C :    0.208768
  10 H :    0.051131
  11 O :   -0.316304
  12 O :   -0.392977
  13 O :   -0.424384
  14 O :   -0.411349
  15 O :   -0.414232
  16 O :   -0.420514
  17 H :    0.081984
  18 H :    0.067798
  19 H :    0.297478
  20 H :    0.310391
  21 H :    0.301928
  22 H :    0.295552
  23 H :    0.306900
Sum of atomic charges:   -0.0000000

LOEWDIN ATOMIC CHARGES
----------------------
   0 C :   -0.135158
   1 C :   -0.067597
   2 H :    0.121907
   3 C :   -0.063968
   4 H :    0.126162
   5 C :   -0.065982
   6 H :    0.094712
   7 C :   -0.100078
   8 H :    0.120083
   9 C :   -0.012521
  10 H :    0.093457
  11 O :   -0.154327
  12 O :   -0.312276
  13 O :   -0.319654
  14 O :   -0.317007
  15 O :   -0.310744
  16 O :   -0.328957
  17 H :    0.104322
  18 H :    0.098680
  19 H :    0.282616
  20 H :    0.293232
  21 H :    0.281427
  22 H :    0.281555
  23 H :    0.290117

  Mayer bond orders larger than 0.100000
B(  0-C ,  1-C ) :   1.0597 B(  0-C , 16-O ) :   1.0709 B(  0-C , 17-H ) :   0.9102
B(  0-C , 18-H ) :   0.9054 B(  1-C ,  2-H ) :   0.8906 B(  1-C ,  3-C ) :   0.9525
B(  1-C , 11-O ) :   1.0349 B(  3-C ,  4-H ) :   0.8702 B(  3-C ,  5-C ) :   1.0306
B(  3-C , 15-O ) :   1.0462 B(  5-C ,  6-H ) :   0.8593 B(  5-C ,  7-C ) :   1.0222
B(  5-C , 14-O ) :   1.1122 B(  7-C ,  8-H ) :   0.8653 B(  7-C ,  9-C ) :   0.9894
B(  7-C , 13-O ) :   1.0482 B(  9-C , 10-H ) :   0.8850 B(  9-C , 11-O ) :   1.0490
B(  9-C , 12-O ) :   1.1367 B( 12-O , 19-H ) :   0.8422 B( 13-O , 20-H ) :   0.8449
B( 14-O , 21-H ) :   0.8313 B( 15-O , 22-H ) :   0.8508 B( 16-O , 23-H ) :   0.8453

Dispersion correction           -0.025149242
FINAL SINGLE POINT ENERGY      -685.689103716936

DIPOLE MOMENT
-------------

Method             : SCF
Type of density    : Electron Density
Multiplicity       :   1
Irrep              :   0
Energy             :  -685.8189133648819507 Eh
Relativity type    :
Basis              : AO
                                X                 Y                 Z
Electronic contribution:      2.160032876       0.974226187       0.452405469
Nuclear contribution   :     -1.992883232      -2.494917802      -0.526058796
                        -----------------------------------------
Total Dipole Moment    :      0.167149644      -1.520691614      -0.073653327
                        -----------------------------------------
Magnitude (a.u.)       :      1.531622278
Magnitude (Debye)      :      3.893074443

Rotational constants in cm-1:             0.034635             0.033050             0.022464
Rotational constants in MHz :          1038.317184           990.827977           673.442856

                             ****ORCA TERMINATED NORMALLY****
TOTAL RUN TIME: 0 days 0 hours 0 minutes 11 seconds 905 msec
