                         Program Version 6.0.0  -   RELEASE  -
|  1> ! pbe def2-sv(p) def2/J RI DEFGRID1 loosescf d4 GCP(DFT/SV(P)) printgap
|  2> %output
|  3>     printlevel normal
|  4> end
|  5> * xyz 0 1
|  6> C -2.1419562068 -0.9292906898 -0.2861503962
|  7> C -1.1738110402 -0.3639999417 0.7672171302
|  8> H -1.7257768616 -0.414302633 1.7151600795
|  9> C -0.7659453759 1.1092733033 0.5529723378
| 10> H -1.6236287666 1.6583247679 0.138017678
| 11> C 0.423688614 1.2954141259 -0.4108548574
| 12> H 0.8332273435 2.2960704432 -0.2167035308
| 13> C 1.5500586803 0.2952164986 -0.0735662871
| 14> H 2.251438949 0.2577816764 -0.9145409936
| 15> C 1.0499802429 -1.1495784524 0.1686354557
| 16> H 1.8405839836 -1.6798699654 0.7164291047
| 17> O -0.0580920576 -1.209188482 1.0328616794
| 18> O 0.862899516 -1.8657450713 -1.0082255033
| 19> O 2.2869862469 0.7418456573 1.0399619001
| 20> O 0.0552527702 1.3009963276 -1.7592731966
| 21> O -0.3538313336 1.6826059999 1.7756405867
| 22> O -1.6203287515 -0.8592039631 -1.6027240638
| 23> H -3.0718396219 -0.3549432472 -0.2227721637
| 24> H -2.3364626521 -1.9729111005 -0.0169808897
| 25> H 0.045356369 -1.5582172051 -1.4535140109
| 26> H 1.6636517599 0.9770139548 1.7480774378
| 27> H -0.5198730075 0.5336757195 -1.9444912869
| 28> H -1.0938988249 1.7210313439 2.398466231
| 29> H -2.2733150849 -1.2139645182 -2.2240767938
| 30> *
| 31>
| 32>                          ****END OF INPUT****

CARTESIAN COORDINATES (ANGSTROEM)
---------------------------------
  C     -2.141956   -0.929291   -0.286150
  C     -1.173811   -0.364000    0.767217
  H     -1.725777   -0.414303    1.715160
  C     -0.765945    1.109273    0.552972
  H     -1.623629    1.658325    0.138018
  C      0.423689    1.295414   -0.410855
  H      0.833227    2.296070   -0.216704
  C      1.550059    0.295216   -0.073566
  H      2.251439    0.257782   -0.914541
  C      1.049980   -1.149578    0.168635
  H      1.840584   -1.679870    0.716429
  O     -0.058092   -1.209188    1.032862
  O      0.862900   -1.865745   -1.008226
  O      2.286986    0.741846    1.039962
  O      0.055253    1.300996   -1.759273
  O     -0.353831    1.682606    1.775641
  O     -1.620329   -0.859204   -1.602724
  H     -3.071840   -0.354943   -0.222772
  H     -2.336463   -1.972911   -0.016981
  H      0.045356   -1.558217   -1.453514
  H      1.663652    0.977014    1.748077
  H     -0.519873    0.533676   -1.944491
  H     -1.093899    1.721031    2.398466
  H     -2.273315   -1.213965   -2.224077

 Total Charge           Charge          ....    0
 Multiplicity           Mult            ....    1
 Number of Electrons    NEL             ....   96
 Basis Dimension        Dim             ....  192

ORBITAL ENERGIES
----------------

  NO   OCC          E(Eh)            E(eV)
   0   2.0000     -18.823945      -512.2256
   1   2.0000     -18.775914      -510.9186
   2   2.0000     -18.764628      -510.6115
   3   2.0000     -18.735153      -509.8094
   4   2.0000     -18.732060      -509.7253
   5   2.0000     -18.725798      -509.5549
   6   2.0000      -9.973380      -271.3895
   7   2.0000      -9.967178      -271.2207
   8   2.0000      -9.964800      -271.1560
   9   2.0000      -9.957755      -270.9643
  10   2.0000      -9.934284      -270.3256
  11   2.0000      -9.918069      -269.8844
  12   2.0000      -0.993371       -27.0310
  13   2.0000      -0.968173       -26.3453
  14   2.0000      -0.948475       -25.8093
  15   2.0000      -0.917260       -24.9599
  16   2.0000      -0.901520       -24.5316
  17   2.0000      -0.894419       -24.3384
  18   2.0000      -0.721895       -19.6437
  19   2.0000      -0.677182       -18.4271
  20   2.0000      -0.636378       -17.3167
  21   2.0000      -0.585696       -15.9376
  22   2.0000      -0.579711       -15.7747
  23   2.0000      -0.539537       -14.6815
  24   2.0000      -0.507362       -13.8060
  25   2.0000      -0.491603       -13.3772
  26   2.0000      -0.480473       -13.0743
  27   2.0000      -0.453728       -12.3466
  28   2.0000      -0.450697       -12.2641
  29   2.0000      -0.444596       -12.0981
  30   2.0000      -0.419403       -11.4125
  31   2.0000      -0.414630       -11.2827
  32   2.0000      -0.407547       -11.0899
  33   2.0000      -0.373587       -10.1658
  34   2.0000      -0.361729        -9.8432
  35   2.0000      -0.353069        -9.6075
  36   2.0000      -0.343885        -9.3576
  37   2.0000      -0.319597        -8.6967
  38   2.0000      -0.298031        -8.1098
  39   2.0000      -0.293106        -7.9758
  40   2.0000      -0.282306        -7.6819
  41   2.0000      -0.269688        -7.3386
  42   2.0000      -0.266335        -7.2473
  43   2.0000      -0.244821        -6.6619
  44   2.0000      -0.237382        -6.4595
  45   2.0000      -0.220146        -5.9905
  46   2.0000      -0.215997        -5.8776
  47   2.0000      -0.180167        -4.9026
  48   0.0000      -0.021012        -0.5718
  49   0.0000       0.002229         0.0607
  50   0.0000       0.040968         1.1148
  51   0.0000       0.053961         1.4684
  52   0.0000       0.060272         1.6401

MULLIKEN ATOMIC CHARGES
-----------------------
   0 C :    0.021698
   1 C :    0.036440
   2 H :    0.066051
   3 C :    0.014591
   4 H :    0.067550
   5 C :    0.047373
   6 H :    0.084415
   7 C :    0.055610
   8 H :    0.080625
   9 C :    0.180482
  10 H :    0.069450
  11 O :   -0.306262
  12 O :   -0.415376
  13 O :   -0.432973
  14 O :   -0.420794
  15 O :   -0.416111
  16 O :   -0.448667
  17 H :    0.091355
  18 H :    0.109264
  19 H :    0.284541
  20 H :    0.298904
  21 H :    0.287656
  22 H :    0.305735
  23 H :    0.338446
Sum of atomic charges:    0.0000000

LOEWDIN ATOMIC CHARGES
----------------------
   0 C :   -0.135831
   1 C :   -0.072687
   2 H :    0.122323
   3 C :   -0.076226
   4 H :    0.104238
   5 C :   -0.073418
   6 H :    0.122092
   7 C :   -0.089829
   8 H :    0.122365
   9 C :   -0.012403
  10 H :    0.111109
  11 O :   -0.145350
  12 O :   -0.328601
  13 O :   -0.322468
  14 O :   -0.325248
  15 O :   -0.307201
  16 O :   -0.309771
  17 H :    0.113514
  18 H :    0.119500
  19 H :    0.256842
  20 H :    0.271437
  21 H :    0.258259
  22 H :    0.288242
  23 H :    0.309110

  Mayer bond orders larger than 0.100000
B(  0-C ,  1-C ) :   1.0613 B(  0-C , 16-O ) :   0.9830 B(  0-C , 17-H ) :   0.9109
B(  0-C , 18-H ) :   0.9109 B(  1-C ,  2-H ) :   0.8852 B(  1-C ,  3-C ) :   0.9646
B(  1-C , 11-O ) :   1.0501 B(  3-C ,  4-H ) :   0.8990 B(  3-C ,  5-C ) :   0.9902
B(  3-C , 15-O ) :   1.0183 B(  5-C ,  6-H ) :   0.8917 B(  5-C ,  7-C ) :   0.9702
B(  5-C , 14-O ) :   1.0904 B(  7-C ,  8-H ) :   0.8899 B(  7-C ,  9-C ) :   0.9686
B(  7-C , 13-O ) :   1.0366 B(  9-C , 10-H ) :   0.8983 B(  9-C , 11-O ) :   1.0127
B(  9-C , 12-O ) :   1.1289 B( 12-O , 19-H ) :   0.7939 B( 13-O , 20-H ) :   0.8235
B( 14-O , 21-H ) :   0.7992 B( 15-O , 22-H ) :   0.8416 B( 16-O , 19-H ) :   0.1132
B( 16-O , 21-H ) :   0.1125 B( 16-O , 23-H ) :   0.8267

Dispersion correction           -0.026440060
FINAL SINGLE POINT ENERGY      -685.695701292481

DIPOLE MOMENT
-------------

Method             : SCF
Type of density    : Electron Density
Multiplicity       :   1
Irrep              :   0
Energy             :  -685.8307890415118209 Eh
Relativity type    :
Basis              : AO
                                X                 Y                 Z
Electronic contribution:      2.763153432      -0.409999360       0.418908237
Nuclear contribution   :     -5.621529942       0.231159351      -0.267536231
                        -----------------------------------------
Total Dipole Moment    :     -2.858376510      -0.178840009       0.151372007
                        -----------------------------------------
Magnitude (a.u.)       :      2.867963303
Magnitude (Debye)      :      7.289783388

Rotational constants in cm-1:             0.039437             0.030995             0.027567
Rotational constants in MHz :          1182.301913           929.203268           826.444903

                             ****ORCA TERMINATED NORMALLY****
TOTAL RUN TIME: 0 days 0 hours 0 minutes 12 seconds 275 msec
