                         Program Version 6.0.0  -   RELEASE  -
|  1> ! pbe def2-sv(p) def2/J RI DEFGRID1 loosescf d4 GCP(DFT/SV(P)) printgap
|  2> %output
|  3>     printlevel normal
|  4> end
|  5> * xyz 0 1
|  6> C 2.5003789729 5.37452e-05 -0.0711151439
|  7> C 1.0148521705 -3.9977e-05 0.327464657
|  8> C 0.2972383921 1.2473667955 -0.1938470907
|  9> C -1.1706226223 1.2516757261 0.2240337716
| 10> C -1.8764535765 2.98827e-05 -0.2881862869
| 11> C -1.1707237573 -1.2516602986 0.2240444529
| 12> C 0.2971460489 -1.2474410499 -0.1938692082
| 13> H 3.1436734021 0.009606617 0.8045225718
| 14> H 2.7445553379 -0.8832578979 -0.6559618468
| 15> H 2.7403008095 0.8738280605 -0.6718097959
| 16> H 0.9365094765 5.73075e-05 1.4203052669
| 17> H 0.7917313774 2.1426041808 0.1899015184
| 18> H 0.3625260137 1.2678210366 -1.2844809175
| 19> H -1.2357972435 1.282953993 1.3143083799
| 20> H -1.6641886826 2.1441681533 -0.1662106038
| 21> H -2.9189579558 2.7352e-06 0.0364861493
| 22> H -1.865047829 3.07599e-05 -1.3805484434
| 23> H -1.235832496 -1.2828455739 1.3143489797
| 24> H -1.6643280131 -2.1441521227 -0.1661681181
| 25> H 0.7914402311 -2.1428092995 0.1898681815
| 26> H 0.3626332386 -1.2678270981 -1.2844914725
| 27> *
| 28>
| 29>                          ****END OF INPUT****

CARTESIAN COORDINATES (ANGSTROEM)
---------------------------------
  C      2.500379    0.000054   -0.071115
  C      1.014852   -0.000040    0.327465
  C      0.297238    1.247367   -0.193847
  C     -1.170623    1.251676    0.224034
  C     -1.876454    0.000030   -0.288186
  C     -1.170724   -1.251660    0.224044
  C      0.297146   -1.247441   -0.193869
  H      3.143673    0.009607    0.804523
  H      2.744555   -0.883258   -0.655962
  H      2.740301    0.873828   -0.671810
  H      0.936509    0.000057    1.420305
  H      0.791731    2.142604    0.189902
  H      0.362526    1.267821   -1.284481
  H     -1.235797    1.282954    1.314308
  H     -1.664189    2.144168   -0.166211
  H     -2.918958    0.000003    0.036486
  H     -1.865048    0.000031   -1.380548
  H     -1.235832   -1.282846    1.314349
  H     -1.664328   -2.144152   -0.166168
  H      0.791440   -2.142809    0.189868
  H      0.362633   -1.267827   -1.284491

 Total Charge           Charge          ....    0
 Multiplicity           Mult            ....    1
 Number of Electrons    NEL             ....   56
 Basis Dimension        Dim             ....  126

ORBITAL ENERGIES
----------------

  NO   OCC          E(Eh)            E(eV)
   0   2.0000      -9.886277      -269.0193
   1   2.0000      -9.876049      -268.7410
   2   2.0000      -9.875936      -268.7379
   3   2.0000      -9.875912      -268.7372
   4   2.0000      -9.875383      -268.7228
   5   2.0000      -9.875366      -268.7224
   6   2.0000      -9.867587      -268.5107
   7   2.0000      -0.753005       -20.4903
   8   2.0000      -0.681944       -18.5566
   9   2.0000      -0.660175       -17.9643
  10   2.0000      -0.598401       -16.2833
  11   2.0000      -0.536863       -14.6088
  12   2.0000      -0.514764       -14.0075
  13   2.0000      -0.491745       -13.3811
  14   2.0000      -0.421773       -11.4770
  15   2.0000      -0.398710       -10.8494
  16   2.0000      -0.390279       -10.6200
  17   2.0000      -0.380115       -10.3435
  18   2.0000      -0.364251        -9.9118
  19   2.0000      -0.339624        -9.2416
  20   2.0000      -0.328683        -8.9439
  21   2.0000      -0.320713        -8.7270
  22   2.0000      -0.300277        -8.1710
  23   2.0000      -0.297036        -8.0828
  24   2.0000      -0.286479        -7.7955
  25   2.0000      -0.273211        -7.4345
  26   2.0000      -0.251983        -6.8568
  27   2.0000      -0.249168        -6.7802
  28   0.0000       0.038315         1.0426
  29   0.0000       0.050849         1.3837
  30   0.0000       0.059541         1.6202
  31   0.0000       0.073521         2.0006
  32   0.0000       0.092552         2.5185

MULLIKEN ATOMIC CHARGES
-----------------------
   0 C :   -0.206101
   1 C :   -0.197986
   2 C :   -0.137361
   3 C :   -0.138045
   4 C :   -0.159738
   5 C :   -0.138085
   6 C :   -0.137496
   7 H :    0.095437
   8 H :    0.093793
   9 H :    0.093789
  10 H :    0.062734
  11 H :    0.081593
  12 H :    0.071445
  13 H :    0.071622
  14 H :    0.082033
  15 H :    0.082972
  16 H :    0.072706
  17 H :    0.071627
  18 H :    0.082030
  19 H :    0.081582
  20 H :    0.071451
Sum of atomic charges:   -0.0000000

LOEWDIN ATOMIC CHARGES
----------------------
   0 C :   -0.332707
   1 C :   -0.153450
   2 C :   -0.219886
   3 C :   -0.226842
   4 C :   -0.227313
   5 C :   -0.226837
   6 C :   -0.219921
   7 H :    0.121012
   8 H :    0.118841
   9 H :    0.118863
  10 H :    0.111899
  11 H :    0.113663
  12 H :    0.112389
  13 H :    0.113291
  14 H :    0.114812
  15 H :    0.114827
  16 H :    0.113206
  17 H :    0.113292
  18 H :    0.114812
  19 H :    0.113646
  20 H :    0.112405

  Mayer bond orders larger than 0.100000
B(  0-C ,  1-C ) :   1.0890 B(  0-C ,  7-H ) :   0.9523 B(  0-C ,  8-H ) :   0.9517
B(  0-C ,  9-H ) :   0.9516 B(  1-C ,  2-C ) :   1.1100 B(  1-C ,  6-C ) :   1.1101
B(  1-C , 10-H ) :   0.9036 B(  2-C ,  3-C ) :   1.1368 B(  2-C , 11-H ) :   0.9147
B(  2-C , 12-H ) :   0.9065 B(  3-C ,  4-C ) :   1.1358 B(  3-C , 13-H ) :   0.9125
B(  3-C , 14-H ) :   0.9195 B(  4-C ,  5-C ) :   1.1358 B(  4-C , 15-H ) :   0.9203
B(  4-C , 16-H ) :   0.9152 B(  5-C ,  6-C ) :   1.1368 B(  5-C , 17-H ) :   0.9125
B(  5-C , 18-H ) :   0.9195 B(  6-C , 19-H ) :   0.9144 B(  6-C , 20-H ) :   0.9068

Dispersion correction           -0.018334158
FINAL SINGLE POINT ENERGY      -274.486810107848

DIPOLE MOMENT
-------------

Method             : SCF
Type of density    : Electron Density
Multiplicity       :   1
Irrep              :   0
Energy             :  -274.5581971464332582 Eh
Relativity type    :
Basis              : AO
                                X                 Y                 Z
Electronic contribution:     -1.212396620      -0.000067075       0.347380349
Nuclear contribution   :      1.209496365       0.000169668      -0.318909903
                        -----------------------------------------
Total Dipole Moment    :     -0.002900255       0.000102593       0.028470445
                        -----------------------------------------
Magnitude (a.u.)       :      0.028617971
Magnitude (Debye)      :      0.072741102

Rotational constants in cm-1:             0.142209             0.073301             0.053560
Rotational constants in MHz :          4263.329268          2197.498029          1605.690855

                             ****ORCA TERMINATED NORMALLY****
TOTAL RUN TIME: 0 days 0 hours 0 minutes 8 seconds 945 msec
