                         Program Version 6.0.0  -   RELEASE  -
|  1> ! pbe def2-sv(p) def2/J RI DEFGRID1 loosescf d4 GCP(DFT/SV(P)) printgap
|  2> %output
|  3>     printlevel normal
|  4> end
|  5> * xyz 0 1
|  6> C -2.2700074637 -0.9452041383 0.7778985937
|  7> C -0.8159992449 -0.4396334015 0.7455550221
|  8> H -0.5358839976 -0.1256192807 1.7608660653
|  9> C -0.625214624 0.7368769268 -0.2169689403
| 10> H -0.7435583382 0.3531716984 -1.2427804374
| 11> C 0.8045882776 1.2909733832 -0.0673673339
| 12> H 0.7936801038 2.0545242829 0.7190907787
| 13> C 1.7904094735 0.1719390977 0.3462349798
| 14> H 2.7492158283 0.362444244 -0.1553672434
| 15> C 1.2738321029 -1.1778582755 -0.169742062
| 16> H 1.9549543658 -1.9786061252 0.1570704629
| 17> O 0.0228545044 -1.5253993848 0.3576969522
| 18> O 1.2428394089 -1.0885152577 -1.5651842774
| 19> O 1.957301445 0.0666833125 1.7354685804
| 20> O 1.2275304555 1.9489788753 -1.2352922256
| 21> O -1.6054776671 1.7102096137 0.0531901716
| 22> O -2.9235618707 -0.903584632 -0.4637846317
| 23> H -2.8199227064 -0.3612455184 1.5224062678
| 24> H -2.2467460547 -1.99376136 1.0802496761
| 25> H 0.9364440529 -1.929415469 -1.9380522613
| 26> H 2.4872957262 0.810272833 2.0590993989
| 27> H 1.3119745126 1.2973976315 -1.9484970059
| 28> H -1.4058580182 2.5049786084 -0.4635321416
| 29> H -3.113467163 0.022857615 -0.6745526476
| 30> *
| 31>
| 32>                          ****END OF INPUT****

CARTESIAN COORDINATES (ANGSTROEM)
---------------------------------
  C     -2.270007   -0.945204    0.777899
  C     -0.815999   -0.439633    0.745555
  H     -0.535884   -0.125619    1.760866
  C     -0.625215    0.736877   -0.216969
  H     -0.743558    0.353172   -1.242780
  C      0.804588    1.290973   -0.067367
  H      0.793680    2.054524    0.719091
  C      1.790409    0.171939    0.346235
  H      2.749216    0.362444   -0.155367
  C      1.273832   -1.177858   -0.169742
  H      1.954954   -1.978606    0.157070
  O      0.022855   -1.525399    0.357697
  O      1.242839   -1.088515   -1.565184
  O      1.957301    0.066683    1.735469
  O      1.227530    1.948979   -1.235292
  O     -1.605478    1.710210    0.053190
  O     -2.923562   -0.903585   -0.463785
  H     -2.819923   -0.361246    1.522406
  H     -2.246746   -1.993761    1.080250
  H      0.936444   -1.929415   -1.938052
  H      2.487296    0.810273    2.059099
  H      1.311975    1.297398   -1.948497
  H     -1.405858    2.504979   -0.463532
  H     -3.113467    0.022858   -0.674553

 Total Charge           Charge          ....    0
 Multiplicity           Mult            ....    1
 Number of Electrons    NEL             ....   96
 Basis Dimension        Dim             ....  192

ORBITAL ENERGIES
----------------

  NO   OCC          E(Eh)            E(eV)
   0   2.0000     -18.772932      -510.8375
   1   2.0000     -18.764365      -510.6043
   2   2.0000     -18.762447      -510.5521
   3   2.0000     -18.762213      -510.5458
   4   2.0000     -18.751173      -510.2454
   5   2.0000     -18.735141      -509.8091
   6   2.0000      -9.988333      -271.7964
   7   2.0000      -9.948135      -270.7025
   8   2.0000      -9.942262      -270.5427
   9   2.0000      -9.938850      -270.4499
  10   2.0000      -9.933807      -270.3126
  11   2.0000      -9.920682      -269.9555
  12   2.0000      -0.983105       -26.7517
  13   2.0000      -0.944945       -25.7133
  14   2.0000      -0.938981       -25.5510
  15   2.0000      -0.926126       -25.2012
  16   2.0000      -0.915457       -24.9108
  17   2.0000      -0.907043       -24.6819
  18   2.0000      -0.700706       -19.0672
  19   2.0000      -0.689895       -18.7730
  20   2.0000      -0.619034       -16.8448
  21   2.0000      -0.586726       -15.9656
  22   2.0000      -0.562087       -15.2952
  23   2.0000      -0.525331       -14.2950
  24   2.0000      -0.504480       -13.7276
  25   2.0000      -0.488037       -13.2801
  26   2.0000      -0.473025       -12.8717
  27   2.0000      -0.452941       -12.3252
  28   2.0000      -0.443543       -12.0694
  29   2.0000      -0.433939       -11.8081
  30   2.0000      -0.421974       -11.4825
  31   2.0000      -0.388956       -10.5840
  32   2.0000      -0.377425       -10.2703
  33   2.0000      -0.363894        -9.9021
  34   2.0000      -0.361259        -9.8304
  35   2.0000      -0.359816        -9.7911
  36   2.0000      -0.339206        -9.2303
  37   2.0000      -0.317005        -8.6261
  38   2.0000      -0.305665        -8.3176
  39   2.0000      -0.299340        -8.1455
  40   2.0000      -0.274120        -7.4592
  41   2.0000      -0.261165        -7.1067
  42   2.0000      -0.251069        -6.8319
  43   2.0000      -0.249647        -6.7933
  44   2.0000      -0.237148        -6.4531
  45   2.0000      -0.219539        -5.9740
  46   2.0000      -0.209625        -5.7042
  47   2.0000      -0.201982        -5.4962
  48   0.0000       0.010586         0.2881
  49   0.0000       0.024392         0.6637
  50   0.0000       0.026300         0.7157
  51   0.0000       0.058168         1.5828
  52   0.0000       0.062408         1.6982

MULLIKEN ATOMIC CHARGES
-----------------------
   0 C :    0.072853
   1 C :    0.044144
   2 H :    0.064637
   3 C :    0.039466
   4 H :    0.044172
   5 C :    0.079055
   6 H :    0.047908
   7 C :   -0.002970
   8 H :    0.073886
   9 C :    0.178896
  10 H :    0.068417
  11 O :   -0.309596
  12 O :   -0.405614
  13 O :   -0.405806
  14 O :   -0.434117
  15 O :   -0.422187
  16 O :   -0.441294
  17 H :    0.076886
  18 H :    0.090454
  19 H :    0.312531
  20 H :    0.309741
  21 H :    0.306226
  22 H :    0.310150
  23 H :    0.302162
Sum of atomic charges:    0.0000000

LOEWDIN ATOMIC CHARGES
----------------------
   0 C :   -0.124142
   1 C :   -0.064062
   2 H :    0.110557
   3 C :   -0.090114
   4 H :    0.100663
   5 C :   -0.079805
   6 H :    0.112457
   7 C :   -0.089670
   8 H :    0.110199
   9 C :    0.001975
  10 H :    0.100728
  11 O :   -0.140572
  12 O :   -0.318417
  13 O :   -0.307663
  14 O :   -0.321972
  15 O :   -0.321313
  16 O :   -0.337323
  17 H :    0.103246
  18 H :    0.119846
  19 H :    0.292213
  20 H :    0.292540
  21 H :    0.281470
  22 H :    0.290985
  23 H :    0.278175

  Mayer bond orders larger than 0.100000
B(  0-C ,  1-C ) :   1.0004 B(  0-C , 16-O ) :   1.1042 B(  0-C , 17-H ) :   0.9194
B(  0-C , 18-H ) :   0.9213 B(  1-C ,  2-H ) :   0.8672 B(  1-C ,  3-C ) :   1.0785
B(  1-C , 11-O ) :   0.9759 B(  3-C ,  4-H ) :   0.8237 B(  3-C ,  5-C ) :   1.0597
B(  3-C , 15-O ) :   1.0491 B(  5-C ,  6-H ) :   0.8537 B(  5-C ,  7-C ) :   0.9771
B(  5-C , 14-O ) :   1.0336 B(  7-C ,  8-H ) :   0.8837 B(  7-C ,  9-C ) :   1.0427
B(  7-C , 13-O ) :   1.0537 B(  9-C , 10-H ) :   0.8929 B(  9-C , 11-O ) :   1.0886
B(  9-C , 12-O ) :   1.1032 B( 12-O , 19-H ) :   0.8365 B( 13-O , 20-H ) :   0.8463
B( 14-O , 21-H ) :   0.8364 B( 15-O , 22-H ) :   0.8410 B( 16-O , 23-H ) :   0.8342

Dispersion correction           -0.025036763
FINAL SINGLE POINT ENERGY      -685.693899906621

DIPOLE MOMENT
-------------

Method             : SCF
Type of density    : Electron Density
Multiplicity       :   1
Irrep              :   0
Energy             :  -685.8249451182042549 Eh
Relativity type    :
Basis              : AO
                                X                 Y                 Z
Electronic contribution:      1.322636581      -0.452342453      -1.015195959
Nuclear contribution   :     -0.593966277       0.957205155       0.805276679
                        -----------------------------------------
Total Dipole Moment    :      0.728670304       0.504862702      -0.209919279
                        -----------------------------------------
Magnitude (a.u.)       :      0.910995534
Magnitude (Debye)      :      2.315566627

Rotational constants in cm-1:             0.041571             0.026623             0.022822
Rotational constants in MHz :          1246.256286           798.125827           684.200015

                             ****ORCA TERMINATED NORMALLY****
TOTAL RUN TIME: 0 days 0 hours 0 minutes 12 seconds 359 msec
