                         Program Version 6.0.0  -   RELEASE  -
|  1> ! pbe def2-sv(p) def2/J RI DEFGRID1 loosescf d4 GCP(DFT/SV(P)) printgap
|  2> %output
|  3>     printlevel normal
|  4> end
|  5> * xyz 0 1
|  6> C 2.8377368493 -0.7648710665 0.1367100202
|  7> C 1.9834309555 0.4704991381 -0.1171013055
|  8> C 0.4972794174 0.2501068325 -0.056920439
|  9> C -0.3623129 1.3316081776 -0.2436311344
| 10> C -1.7304928418 1.1389450867 -0.1914281467
| 11> C -2.2033313202 -0.142715277 0.048684421
| 12> N -1.4057567167 -1.1821779642 0.2283862013
| 13> C -0.0962268799 -0.9855226266 0.1759479117
| 14> H 2.6415683775 -1.1753005883 1.1243025975
| 15> H 3.890005932 -0.4971834076 0.0813736696
| 16> H 2.6418913837 -1.5322631587 -0.6082016792
| 17> H 2.2239633408 0.8769406489 -1.1038501949
| 18> H 2.2397846979 1.2413637487 0.6153078319
| 19> H 0.0455530622 2.3154815917 -0.4282830307
| 20> H -2.4156655854 1.9596161974 -0.333141245
| 21> H -3.2631171997 -0.35285994 0.0992854508
| 22> H 0.4956948501 -1.8758483119 0.3316094105
| 23> *
| 24>
| 25>                          ****END OF INPUT****

CARTESIAN COORDINATES (ANGSTROEM)
---------------------------------
  C      2.837737   -0.764871    0.136710
  C      1.983431    0.470499   -0.117101
  C      0.497279    0.250107   -0.056920
  C     -0.362313    1.331608   -0.243631
  C     -1.730493    1.138945   -0.191428
  C     -2.203331   -0.142715    0.048684
  N     -1.405757   -1.182178    0.228386
  C     -0.096227   -0.985523    0.175948
  H      2.641568   -1.175301    1.124303
  H      3.890006   -0.497183    0.081374
  H      2.641891   -1.532263   -0.608202
  H      2.223963    0.876941   -1.103850
  H      2.239785    1.241364    0.615308
  H      0.045553    2.315482   -0.428283
  H     -2.415666    1.959616   -0.333141
  H     -3.263117   -0.352860    0.099285
  H      0.495695   -1.875848    0.331609

 Total Charge           Charge          ....    0
 Multiplicity           Mult            ....    1
 Number of Electrons    NEL             ....   58
 Basis Dimension        Dim             ....  130

ORBITAL ENERGIES
----------------

  NO   OCC          E(Eh)            E(eV)
   0   2.0000     -13.975414      -380.2903
   1   2.0000      -9.916316      -269.8367
   2   2.0000      -9.915768      -269.8218
   3   2.0000      -9.910293      -269.6728
   4   2.0000      -9.905768      -269.5497
   5   2.0000      -9.901837      -269.4427
   6   2.0000      -9.899020      -269.3660
   7   2.0000      -9.884758      -268.9779
   8   2.0000      -0.853692       -23.2302
   9   2.0000      -0.742156       -20.1951
  10   2.0000      -0.704407       -19.1679
  11   2.0000      -0.661701       -18.0058
  12   2.0000      -0.587472       -15.9859
  13   2.0000      -0.559026       -15.2119
  14   2.0000      -0.531571       -14.4648
  15   2.0000      -0.468997       -12.7621
  16   2.0000      -0.436010       -11.8644
  17   2.0000      -0.416716       -11.3394
  18   2.0000      -0.403595       -10.9824
  19   2.0000      -0.391014       -10.6400
  20   2.0000      -0.356756        -9.7078
  21   2.0000      -0.354020        -9.6334
  22   2.0000      -0.346755        -9.4357
  23   2.0000      -0.320927        -8.7329
  24   2.0000      -0.320368        -8.7177
  25   2.0000      -0.306631        -8.3439
  26   2.0000      -0.255426        -6.9505
  27   2.0000      -0.231135        -6.2895
  28   2.0000      -0.198000        -5.3879
  29   0.0000      -0.053995        -1.4693
  30   0.0000      -0.038715        -1.0535
  31   0.0000       0.039439         1.0732
  32   0.0000       0.054792         1.4910
  33   0.0000       0.073818         2.0087

MULLIKEN ATOMIC CHARGES
-----------------------
   0 C :   -0.266308
   1 C :   -0.154858
   2 C :    0.002138
   3 C :   -0.061278
   4 C :   -0.062397
   5 C :   -0.063354
   6 N :   -0.047702
   7 C :   -0.122971
   8 H :    0.112204
   9 H :    0.107071
  10 H :    0.112835
  11 H :    0.103539
  12 H :    0.102153
  13 H :    0.052327
  14 H :    0.059701
  15 H :    0.067375
  16 H :    0.059526
Sum of atomic charges:    0.0000000

LOEWDIN ATOMIC CHARGES
----------------------
   0 C :   -0.340504
   1 C :   -0.221724
   2 C :   -0.059836
   3 C :   -0.097734
   4 C :   -0.141116
   5 C :   -0.086296
   6 N :   -0.074029
   7 C :   -0.089445
   8 H :    0.122901
   9 H :    0.123922
  10 H :    0.122830
  11 H :    0.131369
  12 H :    0.130672
  13 H :    0.124363
  14 H :    0.127410
  15 H :    0.113212
  16 H :    0.114005

  Mayer bond orders larger than 0.100000
B(  0-C ,  1-C ) :   1.2044 B(  0-C ,  8-H ) :   0.9441 B(  0-C ,  9-H ) :   0.9461
B(  0-C , 10-H ) :   0.9426 B(  1-C ,  2-C ) :   1.0513 B(  1-C , 11-H ) :   0.9031
B(  1-C , 12-H ) :   0.9046 B(  2-C ,  3-C ) :   1.4089 B(  2-C ,  7-C ) :   1.3905
B(  3-C ,  4-C ) :   1.4251 B(  3-C , 13-H ) :   0.9597 B(  4-C ,  5-C ) :   1.3652
B(  4-C , 14-H ) :   0.9470 B(  5-C ,  6-N ) :   1.5605 B(  5-C , 15-H ) :   0.9531
B(  6-N ,  7-C ) :   1.5386 B(  7-C , 16-H ) :   0.9412

Dispersion correction           -0.016199466
FINAL SINGLE POINT ENERGY      -326.175949550510

DIPOLE MOMENT
-------------

Method             : SCF
Type of density    : Electron Density
Multiplicity       :   1
Irrep              :   0
Energy             :  -326.2255974804023708 Eh
Relativity type    :
Basis              : AO
                                X                 Y                 Z
Electronic contribution:     -7.437807370      -0.137165340       0.059658370
Nuclear contribution   :      7.966423471       0.894109981      -0.206643269
                        -----------------------------------------
Total Dipole Moment    :      0.528616101       0.756944640      -0.146984899
                        -----------------------------------------
Magnitude (a.u.)       :      0.934882202
Magnitude (Debye)      :      2.376281711

Rotational constants in cm-1:             0.165183             0.050717             0.039373
Rotational constants in MHz :          4952.060114          1520.459997          1180.370819

                             ****ORCA TERMINATED NORMALLY****
TOTAL RUN TIME: 0 days 0 hours 0 minutes 6 seconds 868 msec
