                         Program Version 6.0.0  -   RELEASE  -
|  1> ! r2scan-3c def2/J RI DEFGRID2 scfconv6 printgap
|  2> %output
|  3>     printlevel normal
|  4> end
|  5> * xyz 0 1
|  6> C -2.8306970821 1.0205570183 0.0002449357
|  7> O -2.2152944314 -0.2536416187 -5.55543e-05
|  8> C -0.8525315806 -0.3260620827 -0.0001448603
|  9> C -0.3135421911 -1.6125473569 -0.0001390769
| 10> C 1.0556141569 -1.7845790223 7.97232e-05
| 11> C 1.9063270188 -0.6942003942 0.0001811357
| 12> C 1.3718072532 0.5885278641 -2.90478e-05
| 13> C -0.0069246526 0.7757649827 -0.0001791643
| 14> O 2.2335006604 1.6401959856 -4.41989e-05
| 15> H -3.8997681686 0.8211936205 -5.03771e-05
| 16> H -2.563842271 1.5883688146 -0.8949772389
| 17> H -2.5640891752 1.5877661577 0.8959382629
| 18> H -0.9884976456 -2.4526344759 -0.0001745184
| 19> H 1.4677920452 -2.7813685198 0.0002851421
| 20> H 2.9774127141 -0.8126586889 0.000450513
| 21> H -0.4025168891 1.7796295884 -0.0002147314
| 22> H 1.7513103721 2.4810219697 0.0001638187
| 23> *
| 24>
| 25>                          ****END OF INPUT****

CARTESIAN COORDINATES (ANGSTROEM)
---------------------------------
  C     -2.830697    1.020557    0.000245
  O     -2.215294   -0.253642   -0.000056
  C     -0.852532   -0.326062   -0.000145
  C     -0.313542   -1.612547   -0.000139
  C      1.055614   -1.784579    0.000080
  C      1.906327   -0.694200    0.000181
  C      1.371807    0.588528   -0.000029
  C     -0.006925    0.775765   -0.000179
  O      2.233501    1.640196   -0.000044
  H     -3.899768    0.821194   -0.000050
  H     -2.563842    1.588369   -0.894977
  H     -2.564089    1.587766    0.895938
  H     -0.988498   -2.452634   -0.000175
  H      1.467792   -2.781369    0.000285
  H      2.977413   -0.812659    0.000451
  H     -0.402517    1.779630   -0.000215
  H      1.751310    2.481022    0.000164

 Total Charge           Charge          ....    0
 Multiplicity           Mult            ....    1
 Number of Electrons    NEL             ....   66
 Basis Dimension        Dim             ....  221

ORBITAL ENERGIES
----------------

  NO   OCC          E(Eh)            E(eV)
   0   2.0000     -18.987339      -516.6718
   1   2.0000     -18.986307      -516.6437
   2   2.0000     -10.098266      -274.7878
   3   2.0000     -10.097007      -274.7535
   4   2.0000     -10.090035      -274.5638
   5   2.0000     -10.034743      -273.0592
   6   2.0000     -10.033801      -273.0336
   7   2.0000     -10.021086      -272.6876
   8   2.0000     -10.021018      -272.6858
   9   2.0000      -1.034829       -28.1591
  10   2.0000      -1.030033       -28.0286
  11   2.0000      -0.818882       -22.2829
  12   2.0000      -0.725611       -19.7449
  13   2.0000      -0.714347       -19.4384
  14   2.0000      -0.668324       -18.1860
  15   2.0000      -0.592701       -16.1282
  16   2.0000      -0.564159       -15.3515
  17   2.0000      -0.524079       -14.2609
  18   2.0000      -0.490772       -13.3546
  19   2.0000      -0.456922       -12.4335
  20   2.0000      -0.442176       -12.0322
  21   2.0000      -0.441030       -12.0010
  22   2.0000      -0.406150       -11.0519
  23   2.0000      -0.395707       -10.7677
  24   2.0000      -0.382631       -10.4119
  25   2.0000      -0.358497        -9.7552
  26   2.0000      -0.342767        -9.3272
  27   2.0000      -0.334381        -9.0990
  28   2.0000      -0.320732        -8.7276
  29   2.0000      -0.303333        -8.2541
  30   2.0000      -0.280569        -7.6347
  31   2.0000      -0.221665        -6.0318
  32   2.0000      -0.193178        -5.2566
  33   0.0000      -0.022963        -0.6249
  34   0.0000      -0.009524        -0.2592
  35   0.0000       0.050194         1.3658
  36   0.0000       0.064783         1.7628
  37   0.0000       0.084530         2.3002

MULLIKEN ATOMIC CHARGES
-----------------------
   0 C :   -0.334802
   1 O :   -0.188227
   2 C :    0.357538
   3 C :   -0.336825
   4 C :   -0.085354
   5 C :   -0.326577
   6 C :    0.427960
   7 C :   -0.474805
   8 O :   -0.409716
   9 H :    0.156345
  10 H :    0.152312
  11 H :    0.152356
  12 H :    0.157410
  13 H :    0.149351
  14 H :    0.157230
  15 H :    0.135630
  16 H :    0.310174
Sum of atomic charges:   -0.0000000

LOEWDIN ATOMIC CHARGES
----------------------
   0 C :   -0.056530
   1 O :   -0.680975
   2 C :    0.199097
   3 C :   -0.161070
   4 C :   -0.141827
   5 C :   -0.170471
   6 C :    0.191946
   7 C :   -0.180517
   8 O :   -0.496249
   9 H :    0.181046
  10 H :    0.164125
  11 H :    0.164138
  12 H :    0.180064
  13 H :    0.169435
  14 H :    0.178893
  15 H :    0.175264
  16 H :    0.283631

  Mayer bond orders larger than 0.100000
B(  0-C ,  1-O ) :   0.8607 B(  0-C ,  9-H ) :   0.9672 B(  0-C , 10-H ) :   0.9637
B(  0-C , 11-H ) :   0.9637 B(  1-O ,  2-C ) :   1.0286 B(  2-C ,  3-C ) :   1.4073
B(  2-C ,  7-C ) :   1.3922 B(  3-C ,  4-C ) :   1.3861 B(  3-C , 12-H ) :   0.9439
B(  4-C ,  5-C ) :   1.3772 B(  4-C , 13-H ) :   0.9513 B(  5-C ,  6-C ) :   1.4461
B(  5-C , 14-H ) :   0.9413 B(  6-C ,  7-C ) :   1.3482 B(  6-C ,  8-O ) :   0.9222
B(  7-C , 15-H ) :   0.8788 B(  8-O , 16-H ) :   0.8840

Dispersion correction           -0.005318943
FINAL SINGLE POINT ENERGY      -421.902162148621

DIPOLE MOMENT
-------------

Method             : SCF
Type of density    : Electron Density
Multiplicity       :   1
Irrep              :   0
Energy             :  -421.9049896284358852 Eh
Relativity type    :
Basis              : AO
                                X                 Y                 Z
Electronic contribution:      3.394679285      -1.267894688      -0.000994687
Nuclear contribution   :     -3.960872217       2.095133242       0.001331541
                        -----------------------------------------
Total Dipole Moment    :     -0.566192931       0.827238554       0.000336854
                        -----------------------------------------
Magnitude (a.u.)       :      1.002446095
Magnitude (Debye)      :      2.548015479

Rotational constants in cm-1:             0.095885             0.043261             0.029982
Rotational constants in MHz :          2874.545436          1296.928093           898.846831

                             ****ORCA TERMINATED NORMALLY****
TOTAL RUN TIME: 0 days 0 hours 0 minutes 23 seconds 291 msec
