                         Program Version 6.0.0  -   RELEASE  -
|  1> ! r2scan-3c def2/J RI DEFGRID2 scfconv6 printgap
|  2> %output
|  3>     printlevel normal
|  4> end
|  5> %cpcm
|  6>     smd true
|  7>     smdsolvent "water"
|  8> end
|  9> * xyz 0 1
| 10> C -2.8306970821 1.0205570183 0.0002449357
| 11> O -2.2152944314 -0.2536416187 -5.55543e-05
| 12> C -0.8525315806 -0.3260620827 -0.0001448603
| 13> C -0.3135421911 -1.6125473569 -0.0001390769
| 14> C 1.0556141569 -1.7845790223 7.97232e-05
| 15> C 1.9063270188 -0.6942003942 0.0001811357
| 16> C 1.3718072532 0.5885278641 -2.90478e-05
| 17> C -0.0069246526 0.7757649827 -0.0001791643
| 18> O 2.2335006604 1.6401959856 -4.41989e-05
| 19> H -3.8997681686 0.8211936205 -5.03771e-05
| 20> H -2.563842271 1.5883688146 -0.8949772389
| 21> H -2.5640891752 1.5877661577 0.8959382629
| 22> H -0.9884976456 -2.4526344759 -0.0001745184
| 23> H 1.4677920452 -2.7813685198 0.0002851421
| 24> H 2.9774127141 -0.8126586889 0.000450513
| 25> H -0.4025168891 1.7796295884 -0.0002147314
| 26> H 1.7513103721 2.4810219697 0.0001638187
| 27> *
| 28>
| 29>                          ****END OF INPUT****

CARTESIAN COORDINATES (ANGSTROEM)
---------------------------------
  C     -2.830697    1.020557    0.000245
  O     -2.215294   -0.253642   -0.000056
  C     -0.852532   -0.326062   -0.000145
  C     -0.313542   -1.612547   -0.000139
  C      1.055614   -1.784579    0.000080
  C      1.906327   -0.694200    0.000181
  C      1.371807    0.588528   -0.000029
  C     -0.006925    0.775765   -0.000179
  O      2.233501    1.640196   -0.000044
  H     -3.899768    0.821194   -0.000050
  H     -2.563842    1.588369   -0.894977
  H     -2.564089    1.587766    0.895938
  H     -0.988498   -2.452634   -0.000175
  H      1.467792   -2.781369    0.000285
  H      2.977413   -0.812659    0.000451
  H     -0.402517    1.779630   -0.000215
  H      1.751310    2.481022    0.000164

 Total Charge           Charge          ....    0
 Multiplicity           Mult            ....    1
 Number of Electrons    NEL             ....   66
 Basis Dimension        Dim             ....  221

ORBITAL ENERGIES
----------------

  NO   OCC          E(Eh)            E(eV)
   0   2.0000     -18.988743      -516.7100
   1   2.0000     -18.983965      -516.5800
   2   2.0000     -10.100057      -274.8365
   3   2.0000     -10.099049      -274.8091
   4   2.0000     -10.073088      -274.1026
   5   2.0000     -10.037053      -273.1221
   6   2.0000     -10.030598      -272.9464
   7   2.0000     -10.024195      -272.7722
   8   2.0000     -10.023920      -272.7647
   9   2.0000      -1.035279       -28.1714
  10   2.0000      -1.027773       -27.9671
  11   2.0000      -0.821782       -22.3618
  12   2.0000      -0.724971       -19.7275
  13   2.0000      -0.714722       -19.4486
  14   2.0000      -0.662079       -18.0161
  15   2.0000      -0.590672       -16.0730
  16   2.0000      -0.562081       -15.2950
  17   2.0000      -0.520655       -14.1677
  18   2.0000      -0.487151       -13.2561
  19   2.0000      -0.455017       -12.3817
  20   2.0000      -0.440207       -11.9786
  21   2.0000      -0.433324       -11.7914
  22   2.0000      -0.402262       -10.9461
  23   2.0000      -0.390972       -10.6389
  24   2.0000      -0.384789       -10.4706
  25   2.0000      -0.358323        -9.7505
  26   2.0000      -0.341767        -9.3000
  27   2.0000      -0.333411        -9.0726
  28   2.0000      -0.319535        -8.6950
  29   2.0000      -0.302528        -8.2322
  30   2.0000      -0.283402        -7.7118
  31   2.0000      -0.223903        -6.0927
  32   2.0000      -0.198552        -5.4029
  33   0.0000      -0.026638        -0.7249
  34   0.0000      -0.014551        -0.3959
  35   0.0000       0.069642         1.8951
  36   0.0000       0.079534         2.1642
  37   0.0000       0.097357         2.6492

MULLIKEN ATOMIC CHARGES
-----------------------
   0 C :   -0.339409
   1 O :   -0.229972
   2 C :    0.353681
   3 C :   -0.386343
   4 C :   -0.136238
   5 C :   -0.369456
   6 C :    0.355942
   7 C :   -0.427042
   8 O :   -0.453646
   9 H :    0.173965
  10 H :    0.172125
  11 H :    0.172149
  12 H :    0.183650
  13 H :    0.183729
  14 H :    0.184298
  15 H :    0.190285
  16 H :    0.372282
Sum of atomic charges:   -0.0000000

LOEWDIN ATOMIC CHARGES
----------------------
   0 C :   -0.051302
   1 O :   -0.707771
   2 C :    0.185465
   3 C :   -0.180202
   4 C :   -0.154457
   5 C :   -0.189882
   6 C :    0.180183
   7 C :   -0.166797
   8 O :   -0.510715
   9 H :    0.187593
  10 H :    0.174706
  11 H :    0.174713
  12 H :    0.187149
  13 H :    0.180675
  14 H :    0.186246
  15 H :    0.197628
  16 H :    0.306768

  Mayer bond orders larger than 0.100000
B(  0-C ,  1-O ) :   0.8533 B(  0-C ,  9-H ) :   0.9596 B(  0-C , 10-H ) :   0.9555
B(  0-C , 11-H ) :   0.9555 B(  1-O ,  2-C ) :   1.0126 B(  2-C ,  3-C ) :   1.3364
B(  2-C ,  7-C ) :   1.3598 B(  3-C ,  4-C ) :   1.3741 B(  3-C , 12-H ) :   0.9561
B(  4-C ,  5-C ) :   1.3595 B(  4-C , 13-H ) :   0.9556 B(  5-C ,  6-C ) :   1.3779
B(  5-C , 14-H ) :   0.9523 B(  6-C ,  7-C ) :   1.3775 B(  6-C ,  8-O ) :   0.9326
B(  7-C , 15-H ) :   0.8933 B(  8-O , 16-H ) :   0.8511

Dispersion correction           -0.005318943
FINAL SINGLE POINT ENERGY      -421.913445083560

DIPOLE MOMENT
-------------

Method             : SCF
Type of density    : Electron Density
Multiplicity       :   1
Irrep              :   0
Energy             :  -421.9162725633748323 Eh
Relativity type    :
Basis              : AO
                                X                 Y                 Z
Electronic contribution:      3.219966857      -0.803264719      -0.000880700
Nuclear contribution   :     -3.960872217       2.095133242       0.001331541
                        -----------------------------------------
Total Dipole Moment    :     -0.740905360       1.291868522       0.000450841
                        -----------------------------------------
Magnitude (a.u.)       :      1.489249890
Magnitude (Debye)      :      3.785372392

Rotational constants in cm-1:             0.095885             0.043261             0.029982
Rotational constants in MHz :          2874.545436          1296.928093           898.846831

                             ****ORCA TERMINATED NORMALLY****
TOTAL RUN TIME: 0 days 0 hours 0 minutes 27 seconds 630 msec
