                         Program Version 6.0.0  -   RELEASE  -
|  1> ! r2scan-3c def2/J RI DEFGRID2 scfconv6 printgap
|  2> %output
|  3>     printlevel normal
|  4> end
|  5> * xyz 0 1
|  6> C -1.3377945222 0.7772433929 -0.4103311206
|  7> C -1.5392809664 -0.6680707024 0.0377071624
|  8> C -0.12304213 -1.2403226329 0.0236758209
|  9> C 0.7967800004 -0.0739215846 0.4451919748
| 10> C -0.0739991331 1.1998423708 0.3395277702
| 11> O 1.9828872078 -0.0033531052 -0.318507689
| 12> H -2.1886943365 1.41286801 -0.1730254114
| 13> H -1.1739106115 0.8115905448 -1.488288075
| 14> H -1.9398551077 -0.687893689 1.0518714215
| 15> H -2.2141388056 -1.2215702591 -0.6125924155
| 16> H -0.011442804 -2.1022960823 0.6780811172
| 17> H 0.1455952792 -1.5504317292 -0.9878719765
| 18> H 1.1570378196 -0.2092310438 1.4689677349
| 19> H -0.3326449596 1.5483022632 1.3388448147
| 20> H 0.4721362634 1.9968508287 -0.1633296081
| 21> H 1.7482707972 0.1173534397 -1.2496958605
| 22> *
| 23>
| 24>                          ****END OF INPUT****

CARTESIAN COORDINATES (ANGSTROEM)
---------------------------------
  C     -1.337795    0.777243   -0.410331
  C     -1.539281   -0.668071    0.037707
  C     -0.123042   -1.240323    0.023676
  C      0.796780   -0.073922    0.445192
  C     -0.073999    1.199842    0.339528
  O      1.982887   -0.003353   -0.318508
  H     -2.188694    1.412868   -0.173025
  H     -1.173911    0.811591   -1.488288
  H     -1.939855   -0.687894    1.051871
  H     -2.214139   -1.221570   -0.612592
  H     -0.011443   -2.102296    0.678081
  H      0.145595   -1.550432   -0.987872
  H      1.157038   -0.209231    1.468968
  H     -0.332645    1.548302    1.338845
  H      0.472136    1.996851   -0.163330
  H      1.748271    0.117353   -1.249696

 Total Charge           Charge          ....    0
 Multiplicity           Mult            ....    1
 Number of Electrons    NEL             ....   48
 Basis Dimension        Dim             ....  169

ORBITAL ENERGIES
----------------

  NO   OCC          E(Eh)            E(eV)
   0   2.0000     -18.942250      -515.4448
   1   2.0000     -10.076190      -274.1871
   2   2.0000     -10.026872      -272.8451
   3   2.0000     -10.026709      -272.8406
   4   2.0000     -10.023533      -272.7542
   5   2.0000     -10.021983      -272.7120
   6   2.0000      -0.981820       -26.7167
   7   2.0000      -0.797569       -21.7030
   8   2.0000      -0.680521       -18.5179
   9   2.0000      -0.665071       -18.0975
  10   2.0000      -0.550220       -14.9722
  11   2.0000      -0.541885       -14.7454
  12   2.0000      -0.468678       -12.7534
  13   2.0000      -0.456821       -12.4307
  14   2.0000      -0.406103       -11.0506
  15   2.0000      -0.390635       -10.6297
  16   2.0000      -0.387424       -10.5423
  17   2.0000      -0.344601        -9.3771
  18   2.0000      -0.312721        -8.5096
  19   2.0000      -0.310064        -8.4373
  20   2.0000      -0.306403        -8.3377
  21   2.0000      -0.299462        -8.1488
  22   2.0000      -0.278970        -7.5912
  23   2.0000      -0.226884        -6.1738
  24   0.0000       0.064175         1.7463
  25   0.0000       0.083660         2.2765
  26   0.0000       0.097137         2.6432
  27   0.0000       0.127098         3.4585
  28   0.0000       0.130243         3.5441

MULLIKEN ATOMIC CHARGES
-----------------------
   0 C :   -0.294832
   1 C :   -0.249798
   2 C :   -0.360212
   3 C :    0.015447
   4 C :   -0.368033
   5 O :   -0.410832
   6 H :    0.152377
   7 H :    0.149989
   8 H :    0.151808
   9 H :    0.152039
  10 H :    0.156722
  11 H :    0.152757
  12 H :    0.149253
  13 H :    0.151577
  14 H :    0.168443
  15 H :    0.283294
Sum of atomic charges:    0.0000000

LOEWDIN ATOMIC CHARGES
----------------------
   0 C :   -0.304585
   1 C :   -0.301790
   2 C :   -0.284253
   3 C :    0.062205
   4 C :   -0.290175
   5 O :   -0.607893
   6 H :    0.157142
   7 H :    0.152957
   8 H :    0.156057
   9 H :    0.156530
  10 H :    0.161566
  11 H :    0.165266
  12 H :    0.181928
  13 H :    0.161495
  14 H :    0.168916
  15 H :    0.264634

  Mayer bond orders larger than 0.100000
B(  0-C ,  1-C ) :   0.8779 B(  0-C ,  4-C ) :   0.9088 B(  0-C ,  6-H ) :   0.9510
B(  0-C ,  7-H ) :   0.9954 B(  1-C ,  2-C ) :   0.9043 B(  1-C ,  8-H ) :   0.9789
B(  1-C ,  9-H ) :   0.9582 B(  2-C ,  3-C ) :   0.9584 B(  2-C , 10-H ) :   0.9541
B(  2-C , 11-H ) :   1.0004 B(  3-C ,  4-C ) :   0.9489 B(  3-C ,  5-O ) :   0.9522
B(  3-C , 12-H ) :   0.9499 B(  4-C , 13-H ) :   0.9749 B(  4-C , 14-H ) :   0.9736
B(  5-O , 15-H ) :   0.8948

Dispersion correction           -0.003980473
FINAL SINGLE POINT ENERGY      -271.696705479050

DIPOLE MOMENT
-------------

Method             : SCF
Type of density    : Electron Density
Multiplicity       :   1
Irrep              :   0
Energy             :  -271.7004045523090667 Eh
Relativity type    :
Basis              : AO
                                X                 Y                 Z
Electronic contribution:      3.406327164      -0.070462899      -0.069537929
Nuclear contribution   :     -4.040018259       0.108348048      -0.133288971
                        -----------------------------------------
Total Dipole Moment    :     -0.633691095       0.037885149      -0.202826900
                        -----------------------------------------
Magnitude (a.u.)       :      0.666437124
Magnitude (Debye)      :      1.693948548

Rotational constants in cm-1:             0.199024             0.106227             0.081456
Rotational constants in MHz :          5966.585048          3184.599375          2441.985023

                             ****ORCA TERMINATED NORMALLY****
TOTAL RUN TIME: 0 days 0 hours 0 minutes 20 seconds 230 msec
