                         Program Version 6.0.0  -   RELEASE  -
|  1> ! r2scan-3c def2/J RI DEFGRID2 scfconv6 printgap
|  2> %output
|  3>     printlevel normal
|  4> end
|  5> %cpcm
|  6>     smd true
|  7>     smdsolvent "water"
|  8> end
|  9> * xyz 0 1
| 10> C -1.3377945222 0.7772433929 -0.4103311206
| 11> C -1.5392809664 -0.6680707024 0.0377071624
| 12> C -0.12304213 -1.2403226329 0.0236758209
| 13> C 0.7967800004 -0.0739215846 0.4451919748
| 14> C -0.0739991331 1.1998423708 0.3395277702
| 15> O 1.9828872078 -0.0033531052 -0.318507689
| 16> H -2.1886943365 1.41286801 -0.1730254114
| 17> H -1.1739106115 0.8115905448 -1.488288075
| 18> H -1.9398551077 -0.687893689 1.0518714215
| 19> H -2.2141388056 -1.2215702591 -0.6125924155
| 20> H -0.011442804 -2.1022960823 0.6780811172
| 21> H 0.1455952792 -1.5504317292 -0.9878719765
| 22> H 1.1570378196 -0.2092310438 1.4689677349
| 23> H -0.3326449596 1.5483022632 1.3388448147
| 24> H 0.4721362634 1.9968508287 -0.1633296081
| 25> H 1.7482707972 0.1173534397 -1.2496958605
| 26> *
| 27>
| 28>                          ****END OF INPUT****

CARTESIAN COORDINATES (ANGSTROEM)
---------------------------------
  C     -1.337795    0.777243   -0.410331
  C     -1.539281   -0.668071    0.037707
  C     -0.123042   -1.240323    0.023676
  C      0.796780   -0.073922    0.445192
  C     -0.073999    1.199842    0.339528
  O      1.982887   -0.003353   -0.318508
  H     -2.188694    1.412868   -0.173025
  H     -1.173911    0.811591   -1.488288
  H     -1.939855   -0.687894    1.051871
  H     -2.214139   -1.221570   -0.612592
  H     -0.011443   -2.102296    0.678081
  H      0.145595   -1.550432   -0.987872
  H      1.157038   -0.209231    1.468968
  H     -0.332645    1.548302    1.338845
  H      0.472136    1.996851   -0.163330
  H      1.748271    0.117353   -1.249696

 Total Charge           Charge          ....    0
 Multiplicity           Mult            ....    1
 Number of Electrons    NEL             ....   48
 Basis Dimension        Dim             ....  169

ORBITAL ENERGIES
----------------

  NO   OCC          E(Eh)            E(eV)
   0   2.0000     -18.946921      -515.5719
   1   2.0000     -10.071240      -274.0524
   2   2.0000     -10.015346      -272.5314
   3   2.0000     -10.014659      -272.5127
   4   2.0000     -10.013806      -272.4895
   5   2.0000     -10.012848      -272.4634
   6   2.0000      -0.985114       -26.8063
   7   2.0000      -0.787782       -21.4366
   8   2.0000      -0.670712       -18.2510
   9   2.0000      -0.657642       -17.8953
  10   2.0000      -0.544786       -14.8244
  11   2.0000      -0.531889       -14.4734
  12   2.0000      -0.461475       -12.5574
  13   2.0000      -0.448194       -12.1960
  14   2.0000      -0.398557       -10.8453
  15   2.0000      -0.385893       -10.5007
  16   2.0000      -0.379689       -10.3319
  17   2.0000      -0.341713        -9.2985
  18   2.0000      -0.306127        -8.3302
  19   2.0000      -0.300117        -8.1666
  20   2.0000      -0.296883        -8.0786
  21   2.0000      -0.287134        -7.8133
  22   2.0000      -0.276382        -7.5207
  23   2.0000      -0.230773        -6.2796
  24   0.0000       0.077432         2.1070
  25   0.0000       0.096040         2.6134
  26   0.0000       0.112223         3.0537
  27   0.0000       0.135918         3.6985
  28   0.0000       0.137828         3.7505

MULLIKEN ATOMIC CHARGES
-----------------------
   0 C :   -0.306465
   1 C :   -0.280613
   2 C :   -0.374798
   3 C :    0.029556
   4 C :   -0.374218
   5 O :   -0.505557
   6 H :    0.159587
   7 H :    0.162950
   8 H :    0.162351
   9 H :    0.160428
  10 H :    0.164848
  11 H :    0.166903
  12 H :    0.159729
  13 H :    0.164550
  14 H :    0.167325
  15 H :    0.343423
Sum of atomic charges:   -0.0000000

LOEWDIN ATOMIC CHARGES
----------------------
   0 C :   -0.305472
   1 C :   -0.303140
   2 C :   -0.286747
   3 C :    0.060721
   4 C :   -0.290252
   5 O :   -0.647900
   6 H :    0.158614
   7 H :    0.158118
   8 H :    0.158762
   9 H :    0.159128
  10 H :    0.163138
  11 H :    0.170937
  12 H :    0.184736
  13 H :    0.165306
  14 H :    0.169848
  15 H :    0.284201

  Mayer bond orders larger than 0.100000
B(  0-C ,  1-C ) :   0.8861 B(  0-C ,  4-C ) :   0.9131 B(  0-C ,  6-H ) :   0.9518
B(  0-C ,  7-H ) :   0.9900 B(  1-C ,  2-C ) :   0.9134 B(  1-C ,  8-H ) :   0.9804
B(  1-C ,  9-H ) :   0.9551 B(  2-C ,  3-C ) :   0.9584 B(  2-C , 10-H ) :   0.9530
B(  2-C , 11-H ) :   0.9916 B(  3-C ,  4-C ) :   0.9523 B(  3-C ,  5-O ) :   0.9320
B(  3-C , 12-H ) :   0.9514 B(  4-C , 13-H ) :   0.9731 B(  4-C , 14-H ) :   0.9685
B(  5-O , 15-H ) :   0.8666

Dispersion correction           -0.003980473
FINAL SINGLE POINT ENERGY      -271.704781820992

DIPOLE MOMENT
-------------

Method             : SCF
Type of density    : Electron Density
Multiplicity       :   1
Irrep              :   0
Energy             :  -271.7084808942504424 Eh
Relativity type    :
Basis              : AO
                                X                 Y                 Z
Electronic contribution:      3.170179175      -0.051193473      -0.194116900
Nuclear contribution   :     -4.040018259       0.108348048      -0.133288971
                        -----------------------------------------
Total Dipole Moment    :     -0.869839085       0.057154576      -0.327405871
                        -----------------------------------------
Magnitude (a.u.)       :      0.931171995
Magnitude (Debye)      :      2.366851113

Rotational constants in cm-1:             0.199024             0.106227             0.081456
Rotational constants in MHz :          5966.585048          3184.599375          2441.985023

                             ****ORCA TERMINATED NORMALLY****
TOTAL RUN TIME: 0 days 0 hours 0 minutes 23 seconds 740 msec
