                         Program Version 6.0.0  -   RELEASE  -
|  1> ! r2scan-3c def2/J RI DEFGRID2 scfconv6 printgap
|  2> %output
|  3>     printlevel normal
|  4> end
|  5> * xyz 0 1
|  6> C 2.4592365704 -1.1080124613 0.4590616541
|  7> C 1.6972622837 0.0837168178 -0.036707343
|  8> O 2.2611567646 1.0935233314 -0.4272645144
|  9> C 0.214978018 0.0223831453 -0.0063222878
| 10> C -0.5065682055 1.1986525373 0.2080576854
| 11> C -1.8878806661 1.1502777538 0.2292147116
| 12> C -2.5029612222 -0.0775601058 0.0259353894
| 13> N -1.8328882738 -1.1936792054 -0.2168785729
| 14> C -0.513937665 -1.14603815 -0.235247493
| 15> H 2.941063451 -0.8241188429 1.3939590974
| 16> H 3.2513618472 -1.3496667797 -0.2461097525
| 17> H 1.8244676946 -1.9675661726 0.6347934015
| 18> H 0.0325517801 2.1219235555 0.363235783
| 19> H -2.4739169694 2.038041982 0.4010820298
| 20> H -3.5789117258 -0.1782590851 0.0490597041
| 21> H -0.027081664 -2.0811328726 -0.4739608657
| 22> *
| 23>
| 24>                          ****END OF INPUT****

CARTESIAN COORDINATES (ANGSTROEM)
---------------------------------
  C      2.459237   -1.108012    0.459062
  C      1.697262    0.083717   -0.036707
  O      2.261157    1.093523   -0.427265
  C      0.214978    0.022383   -0.006322
  C     -0.506568    1.198653    0.208058
  C     -1.887881    1.150278    0.229215
  C     -2.502961   -0.077560    0.025935
  N     -1.832888   -1.193679   -0.216879
  C     -0.513938   -1.146038   -0.235247
  H      2.941063   -0.824119    1.393959
  H      3.251362   -1.349667   -0.246110
  H      1.824468   -1.967566    0.634793
  H      0.032552    2.121924    0.363236
  H     -2.473917    2.038042    0.401082
  H     -3.578912   -0.178259    0.049060
  H     -0.027082   -2.081133   -0.473961

 Total Charge           Charge          ....    0
 Multiplicity           Mult            ....    1
 Number of Electrons    NEL             ....   64
 Basis Dimension        Dim             ....  216

ORBITAL ENERGIES
----------------

  NO   OCC          E(Eh)            E(eV)
   0   2.0000     -18.945050      -515.5210
   1   2.0000     -14.169343      -385.5674
   2   2.0000     -10.132275      -275.7132
   3   2.0000     -10.086585      -274.4699
   4   2.0000     -10.083719      -274.3919
   5   2.0000     -10.068195      -273.9695
   6   2.0000     -10.063826      -273.8506
   7   2.0000     -10.058731      -273.7120
   8   2.0000     -10.042716      -273.2762
   9   2.0000      -1.011871       -27.5344
  10   2.0000      -0.931529       -25.3482
  11   2.0000      -0.794792       -21.6274
  12   2.0000      -0.761904       -20.7325
  13   2.0000      -0.718361       -19.5476
  14   2.0000      -0.632558       -17.2128
  15   2.0000      -0.613140       -16.6844
  16   2.0000      -0.540305       -14.7024
  17   2.0000      -0.500817       -13.6279
  18   2.0000      -0.475571       -12.9410
  19   2.0000      -0.447978       -12.1901
  20   2.0000      -0.430038       -11.7019
  21   2.0000      -0.426086       -11.5944
  22   2.0000      -0.403459       -10.9787
  23   2.0000      -0.390240       -10.6190
  24   2.0000      -0.382926       -10.4199
  25   2.0000      -0.372246       -10.1293
  26   2.0000      -0.355680        -9.6786
  27   2.0000      -0.335290        -9.1237
  28   2.0000      -0.284936        -7.7535
  29   2.0000      -0.263602        -7.1730
  30   2.0000      -0.243420        -6.6238
  31   2.0000      -0.223152        -6.0723
  32   0.0000      -0.096474        -2.6252
  33   0.0000      -0.064949        -1.7674
  34   0.0000      -0.016199        -0.4408
  35   0.0000       0.070678         1.9232
  36   0.0000       0.091923         2.5013

MULLIKEN ATOMIC CHARGES
-----------------------
   0 C :   -0.520818
   1 C :    0.231561
   2 O :   -0.342282
   3 C :    0.203456
   4 C :   -0.168495
   5 C :   -0.102086
   6 C :   -0.072660
   7 N :   -0.174465
   8 C :   -0.172447
   9 H :    0.182627
  10 H :    0.182099
  11 H :    0.153111
  12 H :    0.177996
  13 H :    0.152433
  14 H :    0.137549
  15 H :    0.132421
Sum of atomic charges:   -0.0000000

LOEWDIN ATOMIC CHARGES
----------------------
   0 C :   -0.377797
   1 C :    0.238609
   2 O :   -0.459719
   3 C :   -0.055410
   4 C :   -0.068464
   5 C :   -0.138774
   6 C :    0.096512
   7 N :   -0.606623
   8 C :    0.101729
   9 H :    0.186821
  10 H :    0.182335
  11 H :    0.162295
  12 H :    0.188634
  13 H :    0.173150
  14 H :    0.187229
  15 H :    0.189472

  Mayer bond orders larger than 0.100000
B(  0-C ,  1-C ) :   0.9084 B(  0-C ,  9-H ) :   0.9436 B(  0-C , 10-H ) :   0.9641
B(  0-C , 11-H ) :   0.9702 B(  1-C ,  2-O ) :   1.9277 B(  1-C ,  3-C ) :   0.8928
B(  2-O ,  3-C ) :  -0.1302 B(  3-C ,  4-C ) :   1.3509 B(  3-C ,  8-C ) :   1.2723
B(  4-C ,  5-C ) :   1.4074 B(  4-C , 12-H ) :   0.9487 B(  5-C ,  6-C ) :   1.3287
B(  5-C , 13-H ) :   0.9433 B(  6-C ,  7-N ) :   1.4562 B(  6-C , 14-H ) :   0.9800
B(  7-N ,  8-C ) :   1.4948 B(  8-C , 15-H ) :   0.9867

Dispersion correction           -0.005262015
FINAL SINGLE POINT ENERGY      -400.829419878129

DIPOLE MOMENT
-------------

Method             : SCF
Type of density    : Electron Density
Multiplicity       :   1
Irrep              :   0
Energy             :  -400.8315695298534820 Eh
Relativity type    :
Basis              : AO
                                X                 Y                 Z
Electronic contribution:     -2.159333755       1.936656758      -1.455477004
Nuclear contribution   :      1.871206538      -2.092597220       1.983330869
                        -----------------------------------------
Total Dipole Moment    :     -0.288127216      -0.155940462       0.527853866
                        -----------------------------------------
Magnitude (a.u.)       :      0.621260351
Magnitude (Debye)      :      1.579118318

Rotational constants in cm-1:             0.126399             0.040751             0.032095
Rotational constants in MHz :          3789.348323          1221.679398           962.181005

                             ****ORCA TERMINATED NORMALLY****
TOTAL RUN TIME: 0 days 0 hours 0 minutes 27 seconds 692 msec
