                         Program Version 6.0.0  -   RELEASE  -
|  1> ! r2scan-3c def2/J RI DEFGRID2 scfconv6 printgap
|  2> %output
|  3>     printlevel normal
|  4> end
|  5> %cpcm
|  6>     smd true
|  7>     smdsolvent "water"
|  8> end
|  9> * xyz 0 1
| 10> C 2.4592365704 -1.1080124613 0.4590616541
| 11> C 1.6972622837 0.0837168178 -0.036707343
| 12> O 2.2611567646 1.0935233314 -0.4272645144
| 13> C 0.214978018 0.0223831453 -0.0063222878
| 14> C -0.5065682055 1.1986525373 0.2080576854
| 15> C -1.8878806661 1.1502777538 0.2292147116
| 16> C -2.5029612222 -0.0775601058 0.0259353894
| 17> N -1.8328882738 -1.1936792054 -0.2168785729
| 18> C -0.513937665 -1.14603815 -0.235247493
| 19> H 2.941063451 -0.8241188429 1.3939590974
| 20> H 3.2513618472 -1.3496667797 -0.2461097525
| 21> H 1.8244676946 -1.9675661726 0.6347934015
| 22> H 0.0325517801 2.1219235555 0.363235783
| 23> H -2.4739169694 2.038041982 0.4010820298
| 24> H -3.5789117258 -0.1782590851 0.0490597041
| 25> H -0.027081664 -2.0811328726 -0.4739608657
| 26> *
| 27>
| 28>                          ****END OF INPUT****

CARTESIAN COORDINATES (ANGSTROEM)
---------------------------------
  C      2.459237   -1.108012    0.459062
  C      1.697262    0.083717   -0.036707
  O      2.261157    1.093523   -0.427265
  C      0.214978    0.022383   -0.006322
  C     -0.506568    1.198653    0.208058
  C     -1.887881    1.150278    0.229215
  C     -2.502961   -0.077560    0.025935
  N     -1.832888   -1.193679   -0.216879
  C     -0.513938   -1.146038   -0.235247
  H      2.941063   -0.824119    1.393959
  H      3.251362   -1.349667   -0.246110
  H      1.824468   -1.967566    0.634793
  H      0.032552    2.121924    0.363236
  H     -2.473917    2.038042    0.401082
  H     -3.578912   -0.178259    0.049060
  H     -0.027082   -2.081133   -0.473961

 Total Charge           Charge          ....    0
 Multiplicity           Mult            ....    1
 Number of Electrons    NEL             ....   64
 Basis Dimension        Dim             ....  216

ORBITAL ENERGIES
----------------

  NO   OCC          E(Eh)            E(eV)
   0   2.0000     -18.951627      -515.7000
   1   2.0000     -14.167279      -385.5113
   2   2.0000     -10.135380      -275.7977
   3   2.0000     -10.079269      -274.2709
   4   2.0000     -10.075734      -274.1747
   5   2.0000     -10.060295      -273.7545
   6   2.0000     -10.058095      -273.6947
   7   2.0000     -10.047828      -273.4153
   8   2.0000     -10.027193      -272.8538
   9   2.0000      -1.019972       -27.7549
  10   2.0000      -0.927727       -25.2447
  11   2.0000      -0.789128       -21.4733
  12   2.0000      -0.753460       -20.5027
  13   2.0000      -0.707322       -19.2472
  14   2.0000      -0.626096       -17.0369
  15   2.0000      -0.603962       -16.4346
  16   2.0000      -0.534738       -14.5510
  17   2.0000      -0.492675       -13.4064
  18   2.0000      -0.468542       -12.7497
  19   2.0000      -0.443933       -12.0800
  20   2.0000      -0.421791       -11.4775
  21   2.0000      -0.415982       -11.3194
  22   2.0000      -0.402537       -10.9536
  23   2.0000      -0.385973       -10.5029
  24   2.0000      -0.375835       -10.2270
  25   2.0000      -0.361328        -9.8322
  26   2.0000      -0.346871        -9.4388
  27   2.0000      -0.332858        -9.0575
  28   2.0000      -0.281080        -7.6486
  29   2.0000      -0.257848        -7.0164
  30   2.0000      -0.245847        -6.6898
  31   2.0000      -0.229258        -6.2384
  32   0.0000      -0.093865        -2.5542
  33   0.0000      -0.058876        -1.6021
  34   0.0000      -0.012203        -0.3321
  35   0.0000       0.080930         2.2022
  36   0.0000       0.101429         2.7600

MULLIKEN ATOMIC CHARGES
-----------------------
   0 C :   -0.556805
   1 C :    0.287774
   2 O :   -0.439798
   3 C :    0.178378
   4 C :   -0.178585
   5 C :   -0.138382
   6 C :   -0.079821
   7 N :   -0.233631
   8 C :   -0.150907
   9 H :    0.207992
  10 H :    0.197230
  11 H :    0.180422
  12 H :    0.199840
  13 H :    0.190190
  14 H :    0.168169
  15 H :    0.167933
Sum of atomic charges:   -0.0000000

LOEWDIN ATOMIC CHARGES
----------------------
   0 C :   -0.374214
   1 C :    0.256479
   2 O :   -0.529907
   3 C :   -0.059727
   4 C :   -0.066953
   5 C :   -0.132465
   6 C :    0.098731
   7 N :   -0.646326
   8 C :    0.110167
   9 H :    0.196983
  10 H :    0.188801
  11 H :    0.174575
  12 H :    0.194937
  13 H :    0.187261
  14 H :    0.198207
  15 H :    0.203453

  Mayer bond orders larger than 0.100000
B(  0-C ,  1-C ) :   0.9169 B(  0-C ,  9-H ) :   0.9339 B(  0-C , 10-H ) :   0.9534
B(  0-C , 11-H ) :   0.9586 B(  1-C ,  2-O ) :   1.8620 B(  1-C ,  3-C ) :   0.9106
B(  2-O ,  3-C ) :  -0.1198 B(  3-C ,  4-C ) :   1.3052 B(  3-C ,  8-C ) :   1.2917
B(  4-C ,  5-C ) :   1.4028 B(  4-C , 12-H ) :   0.9489 B(  5-C ,  6-C ) :   1.3398
B(  5-C , 13-H ) :   0.9427 B(  6-C ,  7-N ) :   1.4458 B(  6-C , 14-H ) :   0.9662
B(  7-N ,  8-C ) :   1.5004 B(  8-C , 15-H ) :   0.9645

Dispersion correction           -0.005262015
FINAL SINGLE POINT ENERGY      -400.842071832002

DIPOLE MOMENT
-------------

Method             : SCF
Type of density    : Electron Density
Multiplicity       :   1
Irrep              :   0
Energy             :  -400.8442214837258462 Eh
Relativity type    :
Basis              : AO
                                X                 Y                 Z
Electronic contribution:     -2.324791406       1.787937029      -1.226352348
Nuclear contribution   :      1.871206538      -2.092597220       1.983330869
                        -----------------------------------------
Total Dipole Moment    :     -0.453584868      -0.304660191       0.756978522
                        -----------------------------------------
Magnitude (a.u.)       :      0.933581034
Magnitude (Debye)      :      2.372974405

Rotational constants in cm-1:             0.126399             0.040751             0.032095
Rotational constants in MHz :          3789.348323          1221.679398           962.181005

                             ****ORCA TERMINATED NORMALLY****
TOTAL RUN TIME: 0 days 0 hours 0 minutes 27 seconds 950 msec
