                         Program Version 6.0.0  -   RELEASE  -
|  1> ! wb97x-v def2-tzvp def2/J RIJCOSX DEFGRID2 scfconv7 GCP(DFT/TZ) printgap
|  2> %output
|  3>     printlevel normal
|  4> end
|  5> * xyz 0 1
|  6> C 1.7209234916607414 0.43922876470580025 0.598540077886557
|  7> C 0.8945277665921404 0.35227508437301647 -0.6827370878505443
|  8> C -0.5613108541280796 -0.07336650290221858 -0.48030837843316654
|  9> H -1.0465643908583648 -0.09769808836754112 -1.4628764277589084
| 10> C -1.3466535571014102 0.8471773553002758 0.4404119049484364
| 11> O -0.6446583230366978 -1.444344912036885 -0.01158476234645704
| 12> H 1.7233892934602222 -0.5109691496581993 1.144582782052742
| 13> H 1.3474863412174622 1.2163451792394218 1.2723406137559679
| 14> H 2.7619028930459875 0.6803269186849746 0.36283197432294334
| 15> H 1.3597776663361287 -0.36060780006033605 -1.374136481270984
| 16> H 0.8926092793510692 1.326284310197881 -1.1878094526713798
| 17> H -0.9493850647480279 0.8135999102913397 1.460684896136882
| 18> H -1.292041049025354 1.882285365781995 0.08751993193366096
| 19> H -2.3986213878116986 0.5488393186919115 0.472911924958204
| 20> H -0.3241132678283113 -1.4538484187899965 0.9002772912295731
| 21> *
| 22>
| 23>                          ****END OF INPUT****

CARTESIAN COORDINATES (ANGSTROEM)
---------------------------------
  C      1.720923    0.439229    0.598540
  C      0.894528    0.352275   -0.682737
  C     -0.561311   -0.073367   -0.480308
  H     -1.046564   -0.097698   -1.462876
  C     -1.346654    0.847177    0.440412
  O     -0.644658   -1.444345   -0.011585
  H      1.723389   -0.510969    1.144583
  H      1.347486    1.216345    1.272341
  H      2.761903    0.680327    0.362832
  H      1.359778   -0.360608   -1.374136
  H      0.892609    1.326284   -1.187809
  H     -0.949385    0.813600    1.460685
  H     -1.292041    1.882285    0.087520
  H     -2.398621    0.548839    0.472912
  H     -0.324113   -1.453848    0.900277

 Total Charge           Charge          ....    0
 Multiplicity           Mult            ....    1
 Number of Electrons    NEL             ....   42
 Basis Dimension        Dim             ....  215

ORBITAL ENERGIES
----------------

  NO   OCC          E(Eh)            E(eV)
   0   2.0000     -21.663729      -589.5000
   1   2.0000     -12.095201      -329.1272
   2   2.0000     -12.042907      -327.7042
   3   2.0000     -12.040454      -327.6374
   4   2.0000     -12.038251      -327.5775
   5   2.0000      -1.661367       -45.2081
   6   2.0000      -1.304956       -35.5097
   7   2.0000      -1.232130       -33.5280
   8   2.0000      -1.147167       -31.2160
   9   2.0000      -1.087908       -29.6035
  10   2.0000      -0.991053       -26.9679
  11   2.0000      -0.948725       -25.8161
  12   2.0000      -0.922866       -25.1125
  13   2.0000      -0.882236       -24.0069
  14   2.0000      -0.856918       -23.3179
  15   2.0000      -0.832699       -22.6589
  16   2.0000      -0.820272       -22.3207
  17   2.0000      -0.817985       -22.2585
  18   2.0000      -0.784455       -21.3461
  19   2.0000      -0.767558       -20.8863
  20   2.0000      -0.765984       -20.8435
  21   0.0000      -0.143898        -3.9157
  22   0.0000      -0.057828        -1.5736
  23   0.0000      -0.019091        -0.5195
  24   0.0000      -0.013229        -0.3600
  25   0.0000      -0.006657        -0.1812

MULLIKEN ATOMIC CHARGES
-----------------------
   0 C :   -0.390952
   1 C :   -0.143333
   2 C :    0.109865
   3 H :    0.083905
   4 C :   -0.372159
   5 O :   -0.451384
   6 H :    0.096574
   7 H :    0.118032
   8 H :    0.121681
   9 H :    0.103346
  10 H :    0.089102
  11 H :    0.105688
  12 H :    0.107954
  13 H :    0.128914
  14 H :    0.292768
Sum of atomic charges:   -0.0000000

LOEWDIN ATOMIC CHARGES
----------------------
   0 C :   -0.311556
   1 C :   -0.278888
   2 C :   -0.361911
   3 H :    0.140712
   4 C :   -0.291883
   5 O :   -0.040814
   6 H :    0.112428
   7 H :    0.115746
   8 H :    0.119870
   9 H :    0.137180
  10 H :    0.135572
  11 H :    0.116198
  12 H :    0.122950
  13 H :    0.122033
  14 H :    0.162364

  Mayer bond orders larger than 0.100000
B(  0-C ,  1-C ) :   0.9595 B(  0-C ,  6-H ) :   0.9788 B(  0-C ,  7-H ) :   0.9823
B(  0-C ,  8-H ) :   0.9819 B(  1-C ,  2-C ) :   0.9790 B(  1-C ,  9-H ) :   0.9745
B(  1-C , 10-H ) :   0.9655 B(  2-C ,  3-H ) :   0.9640 B(  2-C ,  4-C ) :   0.9937
B(  2-C ,  5-O ) :   0.9844 B(  4-C , 11-H ) :   0.9700 B(  4-C , 12-H ) :   0.9724
B(  4-C , 13-H ) :   0.9822 B(  5-O , 14-H ) :   0.9035

FINAL SINGLE POINT ENERGY      -233.679620504676

DIPOLE MOMENT
-------------

Method             : SCF
Type of density    : Electron Density
Multiplicity       :   1
Irrep              :   0
Energy             :  -233.6903448036756004 Eh
Relativity type    :
Basis              : AO
                                X                 Y                 Z
Electronic contribution:     -1.659678479      -3.208646350      -1.293279742
Nuclear contribution   :      1.901824179       3.802325660       1.570756288
                        -----------------------------------------
Total Dipole Moment    :      0.242145700       0.593679310       0.277476545
                        -----------------------------------------
Magnitude (a.u.)       :      0.698629298
Magnitude (Debye)      :      1.775774554

Rotational constants in cm-1:             0.212337             0.127879             0.105337
Rotational constants in MHz :          6365.690093          3833.722956          3157.919493

                             ****ORCA TERMINATED NORMALLY****
TOTAL RUN TIME: 0 days 0 hours 1 minutes 2 seconds 35 msec
