                         Program Version 6.0.0  -   RELEASE  -
|  1> ! wb97x-v def2-tzvp def2/J RIJCOSX DEFGRID2 scfconv7 GCP(DFT/TZ) printgap
|  2> %output
|  3>     printlevel normal
|  4> end
|  5> %cpcm
|  6>     smd true
|  7>     smdsolvent "water"
|  8> end
|  9> * xyz 0 1
| 10> C 1.7209234916607414 0.43922876470580025 0.598540077886557
| 11> C 0.8945277665921404 0.35227508437301647 -0.6827370878505443
| 12> C -0.5613108541280796 -0.07336650290221858 -0.48030837843316654
| 13> H -1.0465643908583648 -0.09769808836754112 -1.4628764277589084
| 14> C -1.3466535571014102 0.8471773553002758 0.4404119049484364
| 15> O -0.6446583230366978 -1.444344912036885 -0.01158476234645704
| 16> H 1.7233892934602222 -0.5109691496581993 1.144582782052742
| 17> H 1.3474863412174622 1.2163451792394218 1.2723406137559679
| 18> H 2.7619028930459875 0.6803269186849746 0.36283197432294334
| 19> H 1.3597776663361287 -0.36060780006033605 -1.374136481270984
| 20> H 0.8926092793510692 1.326284310197881 -1.1878094526713798
| 21> H -0.9493850647480279 0.8135999102913397 1.460684896136882
| 22> H -1.292041049025354 1.882285365781995 0.08751993193366096
| 23> H -2.3986213878116986 0.5488393186919115 0.472911924958204
| 24> H -0.3241132678283113 -1.4538484187899965 0.9002772912295731
| 25> *
| 26>
| 27>                          ****END OF INPUT****

CARTESIAN COORDINATES (ANGSTROEM)
---------------------------------
  C      1.720923    0.439229    0.598540
  C      0.894528    0.352275   -0.682737
  C     -0.561311   -0.073367   -0.480308
  H     -1.046564   -0.097698   -1.462876
  C     -1.346654    0.847177    0.440412
  O     -0.644658   -1.444345   -0.011585
  H      1.723389   -0.510969    1.144583
  H      1.347486    1.216345    1.272341
  H      2.761903    0.680327    0.362832
  H      1.359778   -0.360608   -1.374136
  H      0.892609    1.326284   -1.187809
  H     -0.949385    0.813600    1.460685
  H     -1.292041    1.882285    0.087520
  H     -2.398621    0.548839    0.472912
  H     -0.324113   -1.453848    0.900277

 Total Charge           Charge          ....    0
 Multiplicity           Mult            ....    1
 Number of Electrons    NEL             ....   42
 Basis Dimension        Dim             ....  215

ORBITAL ENERGIES
----------------

  NO   OCC          E(Eh)            E(eV)
   0   2.0000     -21.668470      -589.6291
   1   2.0000     -12.089429      -328.9701
   2   2.0000     -12.032675      -327.4257
   3   2.0000     -12.026128      -327.2476
   4   2.0000     -12.025923      -327.2420
   5   2.0000      -1.666496       -45.3477
   6   2.0000      -1.296324       -35.2748
   7   2.0000      -1.221400       -33.2360
   8   2.0000      -1.139186       -30.9988
   9   2.0000      -1.083205       -29.4755
  10   2.0000      -0.993570       -27.0364
  11   2.0000      -0.946709       -25.7613
  12   2.0000      -0.925234       -25.1769
  13   2.0000      -0.873557       -23.7707
  14   2.0000      -0.847946       -23.0738
  15   2.0000      -0.824347       -22.4316
  16   2.0000      -0.807932       -21.9849
  17   2.0000      -0.806718       -21.9519
  18   2.0000      -0.773227       -21.0406
  19   2.0000      -0.757741       -20.6192
  20   2.0000      -0.754888       -20.5416
  21   0.0000      -0.139544        -3.7972
  22   0.0000      -0.036573        -0.9952
  23   0.0000      -0.008271        -0.2251
  24   0.0000      -0.003446        -0.0938
  25   0.0000       0.007456         0.2029

MULLIKEN ATOMIC CHARGES
-----------------------
   0 C :   -0.423438
   1 C :   -0.180236
   2 C :    0.136560
   3 H :    0.103536
   4 C :   -0.423192
   5 O :   -0.567903
   6 H :    0.118835
   7 H :    0.131413
   8 H :    0.134107
   9 H :    0.107196
  10 H :    0.109318
  11 H :    0.136529
  12 H :    0.129808
  13 H :    0.132585
  14 H :    0.354881
Sum of atomic charges:   -0.0000000

LOEWDIN ATOMIC CHARGES
----------------------
   0 C :   -0.314588
   1 C :   -0.280373
   2 C :   -0.362256
   3 H :    0.143446
   4 C :   -0.293723
   5 O :   -0.086007
   6 H :    0.118082
   7 H :    0.119352
   8 H :    0.120672
   9 H :    0.135828
  10 H :    0.141484
  11 H :    0.123783
  12 H :    0.128836
  13 H :    0.121250
  14 H :    0.184215

  Mayer bond orders larger than 0.100000
B(  0-C ,  1-C ) :   0.9659 B(  0-C ,  6-H ) :   0.9737 B(  0-C ,  7-H ) :   0.9789
B(  0-C ,  8-H ) :   0.9789 B(  1-C ,  2-C ) :   0.9823 B(  1-C ,  9-H ) :   0.9746
B(  1-C , 10-H ) :   0.9646 B(  2-C ,  3-H ) :   0.9664 B(  2-C ,  4-C ) :   0.9902
B(  2-C ,  5-O ) :   0.9411 B(  4-C , 11-H ) :   0.9701 B(  4-C , 12-H ) :   0.9691
B(  4-C , 13-H ) :   0.9766 B(  5-O , 14-H ) :   0.8696

FINAL SINGLE POINT ENERGY      -233.687331852245

DIPOLE MOMENT
-------------

Method             : SCF
Type of density    : Electron Density
Multiplicity       :   1
Irrep              :   0
Energy             :  -233.6980561512454528 Eh
Relativity type    :
Basis              : AO
                                X                 Y                 Z
Electronic contribution:     -1.579910803      -2.984101122      -1.144563763
Nuclear contribution   :      1.901824179       3.802325660       1.570756288
                        -----------------------------------------
Total Dipole Moment    :      0.321913376       0.818224539       0.426192525
                        -----------------------------------------
Magnitude (a.u.)       :      0.977118051
Magnitude (Debye)      :      2.483636708

Rotational constants in cm-1:             0.212337             0.127879             0.105337
Rotational constants in MHz :          6365.690093          3833.722956          3157.919493

                             ****ORCA TERMINATED NORMALLY****
TOTAL RUN TIME: 0 days 0 hours 1 minutes 10 seconds 696 msec
