                         Program Version 6.0.0  -   RELEASE  -
|  1> ! pbe def2-sv(p) def2/J RI DEFGRID1 loosescf d4 GCP(DFT/SV(P)) printgap
|  2> %output
|  3>     printlevel normal
|  4> end
|  5> * xyz 0 1
|  6> C -2.2085120016 -1.0088191941 -0.4123668068
|  7> C -1.1439875722 -0.259595991 0.3980557387
|  8> H -1.6289989998 0.1263815053 1.3039442057
|  9> C -0.5639313673 0.8982394778 -0.4246625894
| 10> H -0.3884967679 0.5724482381 -1.45608198
| 11> C 0.7813201683 1.32235304 0.1849190347
| 12> H 0.6387339993 1.5169811302 1.2632210347
| 13> C 1.7849857929 0.1722103138 0.0176525615
| 14> H 2.2227820285 0.2390296469 -0.9832208822
| 15> C 1.0576186458 -1.193096248 0.1267312315
| 16> H 1.7011269338 -1.8714445102 0.7042231752
| 17> O -0.1207833764 -1.1195875025 0.8931784842
| 18> O 0.8304672042 -1.6790117324 -1.1586071568
| 19> O 2.8640540563 0.2503899877 0.9070376597
| 20> O 1.2777041353 2.4812454177 -0.4333670585
| 21> O -1.4448545462 1.9857009338 -0.5191571191
| 22> O -2.9568087049 -1.8275450076 0.4567052699
| 23> H -1.7160487061 -1.5990885671 -1.1924517701
| 24> H -2.8501338506 -0.2530239733 -0.8849828204
| 25> H 0.6413538658 -2.6296819576 -1.1280756496
| 26> H 2.5406232712 0.32267209 1.8175563508
| 27> H 0.5214947434 2.9960077066 -0.7636278009
| 28> H -1.7201067019 2.267439288 0.3670418669
| 29> H -3.6163598273 -2.3165129578 -0.0548852101
| 30> *
| 31>
| 32>                          ****END OF INPUT****

CARTESIAN COORDINATES (ANGSTROEM)
---------------------------------
  C     -2.208512   -1.008819   -0.412367
  C     -1.143988   -0.259596    0.398056
  H     -1.628999    0.126382    1.303944
  C     -0.563931    0.898239   -0.424663
  H     -0.388497    0.572448   -1.456082
  C      0.781320    1.322353    0.184919
  H      0.638734    1.516981    1.263221
  C      1.784986    0.172210    0.017653
  H      2.222782    0.239030   -0.983221
  C      1.057619   -1.193096    0.126731
  H      1.701127   -1.871445    0.704223
  O     -0.120783   -1.119588    0.893178
  O      0.830467   -1.679012   -1.158607
  O      2.864054    0.250390    0.907038
  O      1.277704    2.481245   -0.433367
  O     -1.444855    1.985701   -0.519157
  O     -2.956809   -1.827545    0.456705
  H     -1.716049   -1.599089   -1.192452
  H     -2.850134   -0.253024   -0.884983
  H      0.641354   -2.629682   -1.128076
  H      2.540623    0.322672    1.817556
  H      0.521495    2.996008   -0.763628
  H     -1.720107    2.267439    0.367042
  H     -3.616360   -2.316513   -0.054885

 Total Charge           Charge          ....    0
 Multiplicity           Mult            ....    1
 Number of Electrons    NEL             ....   96
 Basis Dimension        Dim             ....  192

ORBITAL ENERGIES
----------------

  NO   OCC          E(Eh)            E(eV)
   0   2.0000     -18.775445      -510.9058
   1   2.0000     -18.769643      -510.7480
   2   2.0000     -18.765660      -510.6396
   3   2.0000     -18.748759      -510.1797
   4   2.0000     -18.746424      -510.1161
   5   2.0000     -18.741899      -509.9930
   6   2.0000      -9.983532      -271.6657
   7   2.0000      -9.949818      -270.7483
   8   2.0000      -9.949209      -270.7317
   9   2.0000      -9.941839      -270.5312
  10   2.0000      -9.936492      -270.3857
  11   2.0000      -9.932034      -270.2644
  12   2.0000      -0.982060       -26.7232
  13   2.0000      -0.956690       -26.0329
  14   2.0000      -0.929599       -25.2957
  15   2.0000      -0.925478       -25.1835
  16   2.0000      -0.912974       -24.8433
  17   2.0000      -0.911682       -24.8081
  18   2.0000      -0.708417       -19.2770
  19   2.0000      -0.690763       -18.7966
  20   2.0000      -0.619896       -16.8682
  21   2.0000      -0.592834       -16.1318
  22   2.0000      -0.560981       -15.2651
  23   2.0000      -0.533303       -14.5119
  24   2.0000      -0.505394       -13.7525
  25   2.0000      -0.490609       -13.3501
  26   2.0000      -0.478700       -13.0261
  27   2.0000      -0.452383       -12.3100
  28   2.0000      -0.444509       -12.0957
  29   2.0000      -0.433999       -11.8097
  30   2.0000      -0.417321       -11.3559
  31   2.0000      -0.396241       -10.7823
  32   2.0000      -0.387485       -10.5440
  33   2.0000      -0.376266       -10.2387
  34   2.0000      -0.358073        -9.7437
  35   2.0000      -0.356359        -9.6970
  36   2.0000      -0.339986        -9.2515
  37   2.0000      -0.307309        -8.3623
  38   2.0000      -0.298200        -8.1144
  39   2.0000      -0.292272        -7.9531
  40   2.0000      -0.281838        -7.6692
  41   2.0000      -0.274369        -7.4659
  42   2.0000      -0.266430        -7.2499
  43   2.0000      -0.242449        -6.5974
  44   2.0000      -0.226786        -6.1712
  45   2.0000      -0.219753        -5.9798
  46   2.0000      -0.217126        -5.9083
  47   2.0000      -0.201789        -5.4909
  48   0.0000       0.009755         0.2655
  49   0.0000       0.017123         0.4659
  50   0.0000       0.028718         0.7815
  51   0.0000       0.033505         0.9117
  52   0.0000       0.052920         1.4400

MULLIKEN ATOMIC CHARGES
-----------------------
   0 C :    0.052638
   1 C :    0.081037
   2 H :    0.056683
   3 C :   -0.036149
   4 H :    0.089201
   5 C :    0.063890
   6 H :    0.020442
   7 C :    0.111743
   8 H :    0.082687
   9 C :    0.137755
  10 H :    0.065729
  11 O :   -0.314961
  12 O :   -0.393099
  13 O :   -0.412812
  14 O :   -0.406232
  15 O :   -0.409132
  16 O :   -0.429913
  17 H :    0.060025
  18 H :    0.072965
  19 H :    0.310066
  20 H :    0.297222
  21 H :    0.297049
  22 H :    0.303218
  23 H :    0.299949
Sum of atomic charges:    0.0000000

LOEWDIN ATOMIC CHARGES
----------------------
   0 C :   -0.137147
   1 C :   -0.061014
   2 H :    0.112892
   3 C :   -0.089801
   4 H :    0.125602
   5 C :   -0.076189
   6 H :    0.090605
   7 C :   -0.073098
   8 H :    0.129509
   9 C :   -0.013665
  10 H :    0.100515
  11 O :   -0.148821
  12 O :   -0.307071
  13 O :   -0.305880
  14 O :   -0.319487
  15 O :   -0.301133
  16 O :   -0.344807
  17 H :    0.096688
  18 H :    0.100171
  19 H :    0.289921
  20 H :    0.282243
  21 H :    0.276813
  22 H :    0.286899
  23 H :    0.286255

  Mayer bond orders larger than 0.100000
B(  0-C ,  1-C ) :   1.0707 B(  0-C , 16-O ) :   1.1068 B(  0-C , 17-H ) :   0.8961
B(  0-C , 18-H ) :   0.9093 B(  1-C ,  2-H ) :   0.8795 B(  1-C ,  3-C ) :   0.9590
B(  1-C , 11-O ) :   0.9843 B(  3-C ,  4-H ) :   0.8707 B(  3-C ,  5-C ) :   1.0336
B(  3-C , 15-O ) :   1.0018 B(  5-C ,  6-H ) :   0.8460 B(  5-C ,  7-C ) :   1.0122
B(  5-C , 14-O ) :   1.1264 B(  7-C ,  8-H ) :   0.8648 B(  7-C ,  9-C ) :   0.9688
B(  7-C , 13-O ) :   1.0529 B(  9-C , 10-H ) :   0.8988 B(  9-C , 11-O ) :   1.0736
B(  9-C , 12-O ) :   1.0929 B( 12-O , 19-H ) :   0.8339 B( 13-O , 20-H ) :   0.8488
B( 14-O , 21-H ) :   0.8238 B( 15-O , 22-H ) :   0.8428 B( 16-O , 23-H ) :   0.8520

Dispersion correction           -0.024326737
FINAL SINGLE POINT ENERGY      -685.687321598109

DIPOLE MOMENT
-------------

Method             : SCF
Type of density    : Electron Density
Multiplicity       :   1
Irrep              :   0
Energy             :  -685.8169919778284793 Eh
Relativity type    :
Basis              : AO
                                X                 Y                 Z
Electronic contribution:      2.232996230       0.102827614       1.026648518
Nuclear contribution   :     -3.421438523      -0.588563239      -0.942895993
                        -----------------------------------------
Total Dipole Moment    :     -1.188442294      -0.485735625       0.083752525
                        -----------------------------------------
Magnitude (a.u.)       :      1.286603540
Magnitude (Debye)      :      3.270286304

Rotational constants in cm-1:             0.042726             0.025460             0.018581
Rotational constants in MHz :          1280.907647           763.277267           557.054908

                             ****ORCA TERMINATED NORMALLY****
TOTAL RUN TIME: 0 days 0 hours 0 minutes 12 seconds 53 msec
