                         Program Version 6.0.0  -   RELEASE  -
|  1> ! r2scan-3c def2/J RI DEFGRID2 scfconv6 printgap
|  2> %output
|  3>     printlevel normal
|  4> end
|  5> * xyz 0 1
|  6> C 2.1078476375 0.0166872842 0.0002994674
|  7> N 0.6705126698 -0.0033883584 -0.0003678595
|  8> C -0.120388394 -1.115348697 -0.0002037043
|  9> C -1.4088776228 -0.6640953306 0.0002172956
| 10> N -1.4252920335 0.6964237023 0.0001323465
| 11> C -0.1653838418 1.0541620737 -0.000167681
| 12> H 2.4910249671 -0.4844696354 -0.8892712596
| 13> H 2.4481580408 1.0494489635 0.0057241563
| 14> H 2.4899543584 -0.4933877942 0.8851870329
| 15> H 0.2853602949 -2.1052256167 -0.0003749144
| 16> H -2.3224991871 -1.2241562226 0.0005130358
| 17> H 0.1729726208 2.0708188125 -0.0002376155
| 18> *
| 19>
| 20>                          ****END OF INPUT****

CARTESIAN COORDINATES (ANGSTROEM)
---------------------------------
  C      2.107848    0.016687    0.000299
  N      0.670513   -0.003388   -0.000368
  C     -0.120388   -1.115349   -0.000204
  C     -1.408878   -0.664095    0.000217
  N     -1.425292    0.696424    0.000132
  C     -0.165384    1.054162   -0.000168
  H      2.491025   -0.484470   -0.889271
  H      2.448158    1.049449    0.005724
  H      2.489954   -0.493388    0.885187
  H      0.285360   -2.105226   -0.000375
  H     -2.322499   -1.224156    0.000513
  H      0.172973    2.070819   -0.000238

 Total Charge           Charge          ....    0
 Multiplicity           Mult            ....    1
 Number of Electrons    NEL             ....   44
 Basis Dimension        Dim             ....  154

ORBITAL ENERGIES
----------------

  NO   OCC          E(Eh)            E(eV)
   0   2.0000     -14.222396      -387.0111
   1   2.0000     -14.131152      -384.5282
   2   2.0000     -10.087752      -274.5017
   3   2.0000     -10.074283      -274.1352
   4   2.0000     -10.051289      -273.5095
   5   2.0000     -10.037600      -273.1370
   6   2.0000      -0.991990       -26.9934
   7   2.0000      -0.856865       -23.3165
   8   2.0000      -0.720108       -19.5951
   9   2.0000      -0.689415       -18.7599
  10   2.0000      -0.567116       -15.4320
  11   2.0000      -0.546373       -14.8676
  12   2.0000      -0.507673       -13.8145
  13   2.0000      -0.451374       -12.2825
  14   2.0000      -0.424266       -11.5449
  15   2.0000      -0.400055       -10.8860
  16   2.0000      -0.385335       -10.4855
  17   2.0000      -0.371772       -10.1164
  18   2.0000      -0.368530       -10.0282
  19   2.0000      -0.247749        -6.7416
  20   2.0000      -0.233408        -6.3513
  21   2.0000      -0.207971        -5.6592
  22   0.0000      -0.001168        -0.0318
  23   0.0000       0.036480         0.9927
  24   0.0000       0.070956         1.9308
  25   0.0000       0.097834         2.6622
  26   0.0000       0.111488         3.0337

MULLIKEN ATOMIC CHARGES
-----------------------
   0 C :   -0.390002
   1 N :    0.198090
   2 C :   -0.206771
   3 C :   -0.116956
   4 N :   -0.197973
   5 C :   -0.162114
   6 H :    0.162077
   7 H :    0.156802
   8 H :    0.161976
   9 H :    0.131875
  10 H :    0.132719
  11 H :    0.130276
Sum of atomic charges:    0.0000000

LOEWDIN ATOMIC CHARGES
----------------------
   0 C :   -0.088561
   1 N :   -0.785791
   2 C :    0.056844
   3 C :    0.053926
   4 N :   -0.569435
   5 C :    0.217782
   6 H :    0.180006
   7 H :    0.187846
   8 H :    0.180119
   9 H :    0.186836
  10 H :    0.181401
  11 H :    0.199027

  Mayer bond orders larger than 0.100000
B(  0-C ,  1-N ) :   0.9187 B(  0-C ,  6-H ) :   0.9540 B(  0-C ,  7-H ) :   0.9640
B(  0-C ,  8-H ) :   0.9542 B(  1-N ,  2-C ) :   1.2384 B(  1-N ,  5-C ) :   1.2495
B(  2-C ,  3-C ) :   1.4777 B(  2-C ,  5-C ) :   0.1051 B(  2-C ,  9-H ) :   0.9539
B(  3-C ,  4-N ) :   1.3154 B(  3-C , 10-H ) :   0.9761 B(  4-N ,  5-C ) :   1.6069
B(  5-C , 11-H ) :   0.9589

Dispersion correction           -0.003065605
FINAL SINGLE POINT ENERGY      -265.450170951024

DIPOLE MOMENT
-------------

Method             : SCF
Type of density    : Electron Density
Multiplicity       :   1
Irrep              :   0
Energy             :  -265.4590817265649321 Eh
Relativity type    :
Basis              : AO
                                X                 Y                 Z
Electronic contribution:     -3.649909307       0.686382372      -0.001189105
Nuclear contribution   :      5.216753573      -1.109768799       0.001443899
                        -----------------------------------------
Total Dipole Moment    :      1.566844266      -0.423386427       0.000254794
                        -----------------------------------------
Magnitude (a.u.)       :      1.623039459
Magnitude (Debye)      :      4.125438451

Rotational constants in cm-1:             0.312974             0.122030             0.089273
Rotational constants in MHz :          9382.713507          3658.381122          2676.347725

                             ****ORCA TERMINATED NORMALLY****
TOTAL RUN TIME: 0 days 0 hours 0 minutes 15 seconds 753 msec
