                         Program Version 6.0.0  -   RELEASE  -
|  1> ! r2scan-3c def2/J RI DEFGRID2 scfconv6 printgap
|  2> %output
|  3>     printlevel normal
|  4> end
|  5> %cpcm
|  6>     smd true
|  7>     smdsolvent "water"
|  8> end
|  9> * xyz 0 1
| 10> C 2.1078476375 0.0166872842 0.0002994674
| 11> N 0.6705126698 -0.0033883584 -0.0003678595
| 12> C -0.120388394 -1.115348697 -0.0002037043
| 13> C -1.4088776228 -0.6640953306 0.0002172956
| 14> N -1.4252920335 0.6964237023 0.0001323465
| 15> C -0.1653838418 1.0541620737 -0.000167681
| 16> H 2.4910249671 -0.4844696354 -0.8892712596
| 17> H 2.4481580408 1.0494489635 0.0057241563
| 18> H 2.4899543584 -0.4933877942 0.8851870329
| 19> H 0.2853602949 -2.1052256167 -0.0003749144
| 20> H -2.3224991871 -1.2241562226 0.0005130358
| 21> H 0.1729726208 2.0708188125 -0.0002376155
| 22> *
| 23>
| 24>                          ****END OF INPUT****

CARTESIAN COORDINATES (ANGSTROEM)
---------------------------------
  C      2.107848    0.016687    0.000299
  N      0.670513   -0.003388   -0.000368
  C     -0.120388   -1.115349   -0.000204
  C     -1.408878   -0.664095    0.000217
  N     -1.425292    0.696424    0.000132
  C     -0.165384    1.054162   -0.000168
  H      2.491025   -0.484470   -0.889271
  H      2.448158    1.049449    0.005724
  H      2.489954   -0.493388    0.885187
  H      0.285360   -2.105226   -0.000375
  H     -2.322499   -1.224156    0.000513
  H      0.172973    2.070819   -0.000238

 Total Charge           Charge          ....    0
 Multiplicity           Mult            ....    1
 Number of Electrons    NEL             ....   44
 Basis Dimension        Dim             ....  154

ORBITAL ENERGIES
----------------

  NO   OCC          E(Eh)            E(eV)
   0   2.0000     -14.219810      -386.9407
   1   2.0000     -14.140198      -384.7744
   2   2.0000     -10.073932      -274.1256
   3   2.0000     -10.062031      -273.8018
   4   2.0000     -10.049434      -273.4590
   5   2.0000     -10.038943      -273.1735
   6   2.0000      -0.991521       -26.9807
   7   2.0000      -0.857099       -23.3229
   8   2.0000      -0.716098       -19.4860
   9   2.0000      -0.678268       -18.4566
  10   2.0000      -0.565738       -15.3945
  11   2.0000      -0.542066       -14.7504
  12   2.0000      -0.497594       -13.5402
  13   2.0000      -0.438916       -11.9435
  14   2.0000      -0.411669       -11.2021
  15   2.0000      -0.395645       -10.7660
  16   2.0000      -0.374341       -10.1863
  17   2.0000      -0.364311        -9.9134
  18   2.0000      -0.359780        -9.7901
  19   2.0000      -0.250218        -6.8088
  20   2.0000      -0.249247        -6.7824
  21   2.0000      -0.211114        -5.7447
  22   0.0000      -0.000812        -0.0221
  23   0.0000       0.030824         0.8388
  24   0.0000       0.087334         2.3765
  25   0.0000       0.118079         3.2131
  26   0.0000       0.121755         3.3131

MULLIKEN ATOMIC CHARGES
-----------------------
   0 C :   -0.414489
   1 N :    0.202476
   2 C :   -0.222081
   3 C :   -0.177675
   4 N :   -0.286177
   5 C :   -0.157705
   6 H :    0.181942
   7 H :    0.185105
   8 H :    0.181917
   9 H :    0.174032
  10 H :    0.161531
  11 H :    0.171124
Sum of atomic charges:    0.0000000

LOEWDIN ATOMIC CHARGES
----------------------
   0 C :   -0.082433
   1 N :   -0.767173
   2 C :    0.064266
   3 C :    0.024814
   4 N :   -0.642296
   5 C :    0.217319
   6 H :    0.190192
   7 H :    0.198814
   8 H :    0.190317
   9 H :    0.203357
  10 H :    0.188995
  11 H :    0.213827

  Mayer bond orders larger than 0.100000
B(  0-C ,  1-N ) :   0.9212 B(  0-C ,  6-H ) :   0.9434 B(  0-C ,  7-H ) :   0.9552
B(  0-C ,  8-H ) :   0.9436 B(  1-N ,  2-C ) :   1.2221 B(  1-N ,  5-C ) :   1.2703
B(  2-C ,  3-C ) :   1.4793 B(  2-C ,  9-H ) :   0.9621 B(  3-C ,  4-N ) :   1.3047
B(  3-C , 10-H ) :   0.9720 B(  4-N ,  5-C ) :   1.5880 B(  5-C , 11-H ) :   0.9510

Dispersion correction           -0.003065605
FINAL SINGLE POINT ENERGY      -265.462399807038

DIPOLE MOMENT
-------------

Method             : SCF
Type of density    : Electron Density
Multiplicity       :   1
Irrep              :   0
Energy             :  -265.4713105825789512 Eh
Relativity type    :
Basis              : AO
                                X                 Y                 Z
Electronic contribution:     -3.028890404       0.526160080      -0.001120567
Nuclear contribution   :      5.216753573      -1.109768799       0.001443899
                        -----------------------------------------
Total Dipole Moment    :      2.187863168      -0.583608719       0.000323332
                        -----------------------------------------
Magnitude (a.u.)       :      2.264364036
Magnitude (Debye)      :      5.755555977

Rotational constants in cm-1:             0.312974             0.122030             0.089273
Rotational constants in MHz :          9382.713507          3658.381122          2676.347725

                             ****ORCA TERMINATED NORMALLY****
TOTAL RUN TIME: 0 days 0 hours 0 minutes 19 seconds 494 msec
