                         Program Version 6.0.0  -   RELEASE  -
|  1> ! pbe def2-sv(p) def2/J RI DEFGRID1 loosescf d4 GCP(DFT/SV(P)) printgap
|  2> %output
|  3>     printlevel normal
|  4> end
|  5> * xyz 0 1
|  6> C -3.6944315311 -0.1508966296 0.3011248502
|  7> C -2.2608894565 -0.1112862313 -0.2189128878
|  8> H -2.2808194352 0.0683677882 -1.3000209193
|  9> C -1.5314910383 -1.4254259636 0.0495071214
| 10> C -0.0863661544 -1.3750975502 -0.4360843512
| 11> C 0.6908408425 -0.2337461144 0.2485637257
| 12> H 0.6384808511 -0.3914190061 1.3305286109
| 13> C -0.0731351183 1.0277552965 -0.0864071187
| 14> O 0.363906415 1.9179906298 -0.7899454134
| 15> C -1.4809177779 1.0393898527 0.4412073825
| 16> C 2.1673422363 -0.1382504419 -0.1702039514
| 17> C 2.8808998379 0.8899647905 0.7094402681
| 18> C 2.8907823212 -1.4800979523 -0.0726816964
| 19> H -3.7040975315 -0.3292666783 1.3736601988
| 20> H -4.1993717329 0.7910408656 0.1032055936
| 21> H -4.2495838994 -0.9477956561 -0.1868279885
| 22> H -1.5477917559 -1.633175681 1.1214182495
| 23> H -2.0523006498 -2.2393336549 -0.4575198862
| 24> H 0.3982338639 -2.3245589332 -0.2140939594
| 25> H -0.0603193836 -1.2224056766 -1.5178064826
| 26> H -1.4721692808 0.8920839156 1.521551534
| 27> H -1.9477056676 1.9983046667 0.2114841944
| 28> H 2.201826968 0.2134759192 -1.2074720167
| 29> H 3.9154891885 1.0025208322 0.3952118879
| 30> H 2.8694987493 0.5724112787 1.7501721361
| 31> H 2.3975435413 1.8610275528 0.6343921482
| 32> H 3.9551251948 -1.3323888939 -0.2379531476
| 33> H 2.5319670409 -2.1823053213 -0.8192892843
| 34> H 2.7563826577 -1.913235126 0.9159594403
| 35> *
| 36>
| 37>                          ****END OF INPUT****

CARTESIAN COORDINATES (ANGSTROEM)
---------------------------------
  C     -3.694432   -0.150897    0.301125
  C     -2.260889   -0.111286   -0.218913
  H     -2.280819    0.068368   -1.300021
  C     -1.531491   -1.425426    0.049507
  C     -0.086366   -1.375098   -0.436084
  C      0.690841   -0.233746    0.248564
  H      0.638481   -0.391419    1.330529
  C     -0.073135    1.027755   -0.086407
  O      0.363906    1.917991   -0.789945
  C     -1.480918    1.039390    0.441207
  C      2.167342   -0.138250   -0.170204
  C      2.880900    0.889965    0.709440
  C      2.890782   -1.480098   -0.072682
  H     -3.704098   -0.329267    1.373660
  H     -4.199372    0.791041    0.103206
  H     -4.249584   -0.947796   -0.186828
  H     -1.547792   -1.633176    1.121418
  H     -2.052301   -2.239334   -0.457520
  H      0.398234   -2.324559   -0.214094
  H     -0.060319   -1.222406   -1.517806
  H     -1.472169    0.892084    1.521552
  H     -1.947706    1.998305    0.211484
  H      2.201827    0.213476   -1.207472
  H      3.915489    1.002521    0.395212
  H      2.869499    0.572411    1.750172
  H      2.397544    1.861028    0.634392
  H      3.955125   -1.332389   -0.237953
  H      2.531967   -2.182305   -0.819289
  H      2.756383   -1.913235    0.915959

 Total Charge           Charge          ....    0
 Multiplicity           Mult            ....    1
 Number of Electrons    NEL             ....   86
 Basis Dimension        Dim             ....  190

ORBITAL ENERGIES
----------------

  NO   OCC          E(Eh)            E(eV)
   0   2.0000     -18.733486      -509.7641
   1   2.0000      -9.966743      -271.2089
   2   2.0000      -9.909627      -269.6547
   3   2.0000      -9.898394      -269.3490
   4   2.0000      -9.896301      -269.2920
   5   2.0000      -9.892693      -269.1939
   6   2.0000      -9.891011      -269.1481
   7   2.0000      -9.888743      -269.0864
   8   2.0000      -9.880987      -268.8753
   9   2.0000      -9.871811      -268.6256
  10   2.0000      -9.863988      -268.4128
  11   2.0000      -0.932159       -25.3653
  12   2.0000      -0.769931       -20.9509
  13   2.0000      -0.729182       -19.8420
  14   2.0000      -0.679437       -18.4884
  15   2.0000      -0.656937       -17.8762
  16   2.0000      -0.613961       -16.7067
  17   2.0000      -0.606341       -16.4994
  18   2.0000      -0.548251       -14.9187
  19   2.0000      -0.522085       -14.2066
  20   2.0000      -0.503289       -13.6952
  21   2.0000      -0.475923       -12.9505
  22   2.0000      -0.441187       -12.0053
  23   2.0000      -0.418224       -11.3804
  24   2.0000      -0.400086       -10.8869
  25   2.0000      -0.395796       -10.7702
  26   2.0000      -0.391587       -10.6556
  27   2.0000      -0.381230       -10.3738
  28   2.0000      -0.372293       -10.1306
  29   2.0000      -0.353626        -9.6227
  30   2.0000      -0.350007        -9.5242
  31   2.0000      -0.348708        -9.4888
  32   2.0000      -0.336267        -9.1503
  33   2.0000      -0.332092        -9.0367
  34   2.0000      -0.316436        -8.6107
  35   2.0000      -0.308678        -8.3996
  36   2.0000      -0.306121        -8.3300
  37   2.0000      -0.294990        -8.0271
  38   2.0000      -0.291276        -7.9260
  39   2.0000      -0.282805        -7.6955
  40   2.0000      -0.273518        -7.4428
  41   2.0000      -0.266876        -7.2621
  42   2.0000      -0.188785        -5.1371
  43   0.0000      -0.049189        -1.3385
  44   0.0000       0.034647         0.9428
  45   0.0000       0.039215         1.0671
  46   0.0000       0.045525         1.2388
  47   0.0000       0.066513         1.8099

MULLIKEN ATOMIC CHARGES
-----------------------
   0 C :   -0.192414
   1 C :   -0.239860
   2 H :    0.079805
   3 C :   -0.110852
   4 C :   -0.102091
   5 C :   -0.169048
   6 H :    0.068517
   7 C :    0.004835
   8 O :   -0.166586
   9 C :   -0.033802
  10 C :   -0.116036
  11 C :   -0.252908
  12 C :   -0.237648
  13 H :    0.092263
  14 H :    0.103087
  15 H :    0.101182
  16 H :    0.071312
  17 H :    0.086470
  18 H :    0.098259
  19 H :    0.083510
  20 H :    0.081383
  21 H :    0.083491
  22 H :    0.074644
  23 H :    0.097766
  24 H :    0.083543
  25 H :    0.116441
  26 H :    0.098774
  27 H :    0.107744
  28 H :    0.088217
Sum of atomic charges:   -0.0000000

LOEWDIN ATOMIC CHARGES
----------------------
   0 C :   -0.326852
   1 C :   -0.143907
   2 H :    0.121019
   3 C :   -0.217538
   4 C :   -0.207018
   5 C :   -0.160846
   6 H :    0.125903
   7 C :    0.057572
   8 O :   -0.127123
   9 C :   -0.232620
  10 C :   -0.147586
  11 C :   -0.332141
  12 C :   -0.330472
  13 H :    0.117893
  14 H :    0.121148
  15 H :    0.120307
  16 H :    0.115887
  17 H :    0.120741
  18 H :    0.123207
  19 H :    0.122131
  20 H :    0.128861
  21 H :    0.127194
  22 H :    0.120777
  23 H :    0.117720
  24 H :    0.111459
  25 H :    0.122711
  26 H :    0.120006
  27 H :    0.116616
  28 H :    0.114952

  Mayer bond orders larger than 0.100000
B(  0-C ,  1-C ) :   1.1150 B(  0-C , 13-H ) :   0.9451 B(  0-C , 14-H ) :   0.9470
B(  0-C , 15-H ) :   0.9472 B(  1-C ,  2-H ) :   0.8918 B(  1-C ,  3-C ) :   1.0944
B(  1-C ,  9-C ) :   1.0773 B(  3-C ,  4-C ) :   1.1410 B(  3-C , 16-H ) :   0.9039
B(  3-C , 17-H ) :   0.9090 B(  4-C ,  5-C ) :   1.0795 B(  4-C , 18-H ) :   0.9001
B(  4-C , 19-H ) :   0.9005 B(  5-C ,  6-H ) :   0.8626 B(  5-C ,  7-C ) :   0.9343
B(  5-C , 10-C ) :   1.0414 B(  7-C ,  8-O ) :   2.1612 B(  7-C ,  9-C ) :   1.0567
B(  9-C , 20-H ) :   0.8805 B(  9-C , 21-H ) :   0.8878 B( 10-C , 11-C ) :   1.1149
B( 10-C , 12-C ) :   1.1186 B( 10-C , 22-H ) :   0.8818 B( 11-C , 23-H ) :   0.9498
B( 11-C , 24-H ) :   0.9466 B( 11-C , 25-H ) :   0.9439 B( 12-C , 26-H ) :   0.9484
B( 12-C , 27-H ) :   0.9394 B( 12-C , 28-H ) :   0.9448

Dispersion correction           -0.029674230
FINAL SINGLE POINT ENERGY      -466.036290974478

DIPOLE MOMENT
-------------

Method             : SCF
Type of density    : Electron Density
Multiplicity       :   1
Irrep              :   0
Energy             :  -466.1332911325046098 Eh
Relativity type    :
Basis              : AO
                                X                 Y                 Z
Electronic contribution:     -0.635046637       5.817809452      -2.778100268
Nuclear contribution   :      0.146487372      -6.648147112       3.193619037
                        -----------------------------------------
Total Dipole Moment    :     -0.488559265      -0.830337660       0.415518769
                        -----------------------------------------
Magnitude (a.u.)       :      1.049193325
Magnitude (Debye)      :      2.666837495

Rotational constants in cm-1:             0.068193             0.023449             0.019109
Rotational constants in MHz :          2044.364564           702.992797           572.860383

                             ****ORCA TERMINATED NORMALLY****
TOTAL RUN TIME: 0 days 0 hours 0 minutes 13 seconds 504 msec
