                         Program Version 6.0.0  -   RELEASE  -
|  1> ! wb97x-v def2-tzvp def2/J RIJCOSX DEFGRID2 scfconv7 GCP(DFT/TZ) printgap
|  2> %output
|  3>     printlevel normal
|  4> end
|  5> * xyz 0 1
|  6> C 1.2747416086260952 1.0956440741233457 0.7983708251584728
|  7> C 0.7061005325831526 0.27923663929590725 -0.3758763073003202
|  8> C 1.5125643205063197 -1.000877907272833 -0.5966239804770116
|  9> C -0.7621596795184338 0.026169073338375454 -0.09895249513629747
| 10> O -1.621386956434067 0.7677698618125699 -0.5712610203368864
| 11> C -1.1347236073398104 -1.1273546754501875 0.7833835427814414
| 12> H 2.322317463466209 1.3393589831643375 0.5970940085370855
| 13> H 0.7244953204255805 2.030969159324098 0.937213628827107
| 14> H 1.2319347312862414 0.5229204295085789 1.7304763098015483
| 15> H 0.745184105273548 0.8999160142428804 -1.2782098317543393
| 16> H 1.5584382445786122 -1.608333947965084 0.31274886103697946
| 17> H 2.538199430586451 -0.7405882789793192 -0.8757470542976689
| 18> H 1.0868827712450209 -1.6109189601772615 -1.3994476193010685
| 19> H -1.0195836413609702 -2.0556147033627648 0.21007625993395798
| 20> H -2.1714028375960885 -1.0391849676536815 1.111655384179992
| 21> H -0.463497915149825 -1.204010242212686 1.6437586986500283
| 22> *
| 23>
| 24>                          ****END OF INPUT****

CARTESIAN COORDINATES (ANGSTROEM)
---------------------------------
  C      1.274742    1.095644    0.798371
  C      0.706101    0.279237   -0.375876
  C      1.512564   -1.000878   -0.596624
  C     -0.762160    0.026169   -0.098952
  O     -1.621387    0.767770   -0.571261
  C     -1.134724   -1.127355    0.783384
  H      2.322317    1.339359    0.597094
  H      0.724495    2.030969    0.937214
  H      1.231935    0.522920    1.730476
  H      0.745184    0.899916   -1.278210
  H      1.558438   -1.608334    0.312749
  H      2.538199   -0.740588   -0.875747
  H      1.086883   -1.610919   -1.399448
  H     -1.019584   -2.055615    0.210076
  H     -2.171403   -1.039185    1.111655
  H     -0.463498   -1.204010    1.643759

 Total Charge           Charge          ....    0
 Multiplicity           Mult            ....    1
 Number of Electrons    NEL             ....   48
 Basis Dimension        Dim             ....  246

ORBITAL ENERGIES
----------------

  NO   OCC          E(Eh)            E(eV)
   0   2.0000     -21.656075      -589.2918
   1   2.0000     -12.135116      -330.2133
   2   2.0000     -12.062651      -328.2414
   3   2.0000     -12.052364      -327.9615
   4   2.0000     -12.050314      -327.9057
   5   2.0000     -12.049898      -327.8944
   6   2.0000      -1.698202       -46.2104
   7   2.0000      -1.329631       -36.1811
   8   2.0000      -1.250581       -34.0300
   9   2.0000      -1.191600       -32.4251
  10   2.0000      -1.130936       -30.7743
  11   2.0000      -1.057595       -28.7786
  12   2.0000      -0.968336       -26.3498
  13   2.0000      -0.955528       -26.0012
  14   2.0000      -0.910303       -24.7706
  15   2.0000      -0.884991       -24.0818
  16   2.0000      -0.851582       -23.1727
  17   2.0000      -0.845718       -23.0131
  18   2.0000      -0.836992       -22.7757
  19   2.0000      -0.832174       -22.6446
  20   2.0000      -0.822110       -22.3708
  21   2.0000      -0.797476       -21.7004
  22   2.0000      -0.786909       -21.4129
  23   2.0000      -0.765793       -20.8383
  24   0.0000      -0.309761        -8.4290
  25   0.0000      -0.055886        -1.5207
  26   0.0000      -0.034728        -0.9450
  27   0.0000      -0.030460        -0.8289
  28   0.0000      -0.012207        -0.3322

MULLIKEN ATOMIC CHARGES
-----------------------
   0 C :   -0.366804
   1 C :    0.013060
   2 C :   -0.367399
   3 C :    0.190988
   4 O :   -0.312816
   5 C :   -0.366401
   6 H :    0.118314
   7 H :    0.137160
   8 H :    0.102957
   9 H :    0.088352
  10 H :    0.109560
  11 H :    0.121802
  12 H :    0.127205
  13 H :    0.135186
  14 H :    0.141123
  15 H :    0.127712
Sum of atomic charges:    0.0000000

LOEWDIN ATOMIC CHARGES
----------------------
   0 C :   -0.265505
   1 C :   -0.275731
   2 C :   -0.275202
   3 C :   -0.318625
   4 O :    0.103100
   5 C :   -0.258415
   6 H :    0.122596
   7 H :    0.126294
   8 H :    0.117874
   9 H :    0.158538
  10 H :    0.119715
  11 H :    0.123384
  12 H :    0.121870
  13 H :    0.139452
  14 H :    0.131761
  15 H :    0.128892

  Mayer bond orders larger than 0.100000
B(  0-C ,  1-C ) :   0.9710 B(  0-C ,  6-H ) :   0.9780 B(  0-C ,  7-H ) :   0.9798
B(  0-C ,  8-H ) :   0.9657 B(  1-C ,  2-C ) :   0.9545 B(  1-C ,  3-C ) :   0.9340
B(  1-C ,  9-H ) :   0.9613 B(  2-C , 10-H ) :   0.9627 B(  2-C , 11-H ) :   0.9754
B(  2-C , 12-H ) :   0.9862 B(  3-C ,  4-O ) :   2.1581 B(  3-C ,  5-C ) :   0.9577
B(  5-C , 13-H ) :   0.9430 B(  5-C , 14-H ) :   0.9751 B(  5-C , 15-H ) :   0.9671

FINAL SINGLE POINT ENERGY      -271.792835472873

DIPOLE MOMENT
-------------

Method             : SCF
Type of density    : Electron Density
Multiplicity       :   1
Irrep              :   0
Energy             :  -271.8036440491725898 Eh
Relativity type    :
Basis              : AO
                                X                 Y                 Z
Electronic contribution:     -5.223881624       2.556631087      -2.346225741
Nuclear contribution   :      6.141243168      -3.246008151       2.795996113
                        -----------------------------------------
Total Dipole Moment    :      0.917361544      -0.689377063       0.449770372
                        -----------------------------------------
Magnitude (a.u.)       :      1.232512201
Magnitude (Debye)      :      3.132797047

Rotational constants in cm-1:             0.152102             0.093234             0.078985
Rotational constants in MHz :          4559.917673          2795.079375          2367.925572

                             ****ORCA TERMINATED NORMALLY****
TOTAL RUN TIME: 0 days 0 hours 1 minutes 35 seconds 566 msec
