                         Program Version 6.0.0  -   RELEASE  -
|  1> ! wb97x-v def2-tzvp def2/J RIJCOSX DEFGRID2 scfconv7 GCP(DFT/TZ) printgap
|  2> %output
|  3>     printlevel normal
|  4> end
|  5> %cpcm
|  6>     smd true
|  7>     smdsolvent "water"
|  8> end
|  9> * xyz 0 1
| 10> C 1.2747416086260952 1.0956440741233457 0.7983708251584728
| 11> C 0.7061005325831526 0.27923663929590725 -0.3758763073003202
| 12> C 1.5125643205063197 -1.000877907272833 -0.5966239804770116
| 13> C -0.7621596795184338 0.026169073338375454 -0.09895249513629747
| 14> O -1.621386956434067 0.7677698618125699 -0.5712610203368864
| 15> C -1.1347236073398104 -1.1273546754501875 0.7833835427814414
| 16> H 2.322317463466209 1.3393589831643375 0.5970940085370855
| 17> H 0.7244953204255805 2.030969159324098 0.937213628827107
| 18> H 1.2319347312862414 0.5229204295085789 1.7304763098015483
| 19> H 0.745184105273548 0.8999160142428804 -1.2782098317543393
| 20> H 1.5584382445786122 -1.608333947965084 0.31274886103697946
| 21> H 2.538199430586451 -0.7405882789793192 -0.8757470542976689
| 22> H 1.0868827712450209 -1.6109189601772615 -1.3994476193010685
| 23> H -1.0195836413609702 -2.0556147033627648 0.21007625993395798
| 24> H -2.1714028375960885 -1.0391849676536815 1.111655384179992
| 25> H -0.463497915149825 -1.204010242212686 1.6437586986500283
| 26> *
| 27>
| 28>                          ****END OF INPUT****

CARTESIAN COORDINATES (ANGSTROEM)
---------------------------------
  C      1.274742    1.095644    0.798371
  C      0.706101    0.279237   -0.375876
  C      1.512564   -1.000878   -0.596624
  C     -0.762160    0.026169   -0.098952
  O     -1.621387    0.767770   -0.571261
  C     -1.134724   -1.127355    0.783384
  H      2.322317    1.339359    0.597094
  H      0.724495    2.030969    0.937214
  H      1.231935    0.522920    1.730476
  H      0.745184    0.899916   -1.278210
  H      1.558438   -1.608334    0.312749
  H      2.538199   -0.740588   -0.875747
  H      1.086883   -1.610919   -1.399448
  H     -1.019584   -2.055615    0.210076
  H     -2.171403   -1.039185    1.111655
  H     -0.463498   -1.204010    1.643759

 Total Charge           Charge          ....    0
 Multiplicity           Mult            ....    1
 Number of Electrons    NEL             ....   48
 Basis Dimension        Dim             ....  246

ORBITAL ENERGIES
----------------

  NO   OCC          E(Eh)            E(eV)
   0   2.0000     -21.667141      -589.5929
   1   2.0000     -12.142349      -330.4101
   2   2.0000     -12.053228      -327.9850
   3   2.0000     -12.039053      -327.5993
   4   2.0000     -12.035118      -327.4922
   5   2.0000     -12.031635      -327.3974
   6   2.0000      -1.712844       -46.6089
   7   2.0000      -1.319581       -35.9076
   8   2.0000      -1.241253       -33.7762
   9   2.0000      -1.175411       -31.9846
  10   2.0000      -1.127494       -30.6807
  11   2.0000      -1.064489       -28.9662
  12   2.0000      -0.963995       -26.2316
  13   2.0000      -0.956416       -26.0254
  14   2.0000      -0.920668       -25.0527
  15   2.0000      -0.872124       -23.7317
  16   2.0000      -0.840585       -22.8735
  17   2.0000      -0.837532       -22.7904
  18   2.0000      -0.824790       -22.4437
  19   2.0000      -0.821327       -22.3494
  20   2.0000      -0.804898       -21.9024
  21   2.0000      -0.782663       -21.2973
  22   2.0000      -0.776139       -21.1198
  23   2.0000      -0.756457       -20.5842
  24   0.0000      -0.307575        -8.3695
  25   0.0000      -0.048735        -1.3262
  26   0.0000      -0.022877        -0.6225
  27   0.0000      -0.011871        -0.3230
  28   0.0000       0.002444         0.0665

MULLIKEN ATOMIC CHARGES
-----------------------
   0 C :   -0.410552
   1 C :    0.019816
   2 C :   -0.415440
   3 C :    0.279026
   4 O :   -0.457388
   5 C :   -0.410381
   6 H :    0.139534
   7 H :    0.136833
   8 H :    0.133409
   9 H :    0.092093
  10 H :    0.133411
  11 H :    0.139355
  12 H :    0.140706
  13 H :    0.169155
  14 H :    0.144126
  15 H :    0.166296
Sum of atomic charges:    0.0000000

LOEWDIN ATOMIC CHARGES
----------------------
   0 C :   -0.266158
   1 C :   -0.272187
   2 C :   -0.274195
   3 C :   -0.297214
   4 O :    0.020529
   5 C :   -0.252429
   6 H :    0.127817
   7 H :    0.125038
   8 H :    0.125707
   9 H :    0.158786
  10 H :    0.125921
  11 H :    0.127099
  12 H :    0.125416
  13 H :    0.151438
  14 H :    0.131644
  15 H :    0.142788

  Mayer bond orders larger than 0.100000
B(  0-C ,  1-C ) :   0.9558 B(  0-C ,  6-H ) :   0.9739 B(  0-C ,  7-H ) :   0.9752
B(  0-C ,  8-H ) :   0.9654 B(  1-C ,  2-C ) :   0.9527 B(  1-C ,  3-C ) :   0.9463
B(  1-C ,  9-H ) :   0.9626 B(  2-C , 10-H ) :   0.9633 B(  2-C , 11-H ) :   0.9713
B(  2-C , 12-H ) :   0.9801 B(  3-C ,  4-O ) :   1.9927 B(  3-C ,  5-C ) :   0.9862
B(  5-C , 13-H ) :   0.9320 B(  5-C , 14-H ) :   0.9673 B(  5-C , 15-H ) :   0.9540

FINAL SINGLE POINT ENERGY      -271.800298860259

DIPOLE MOMENT
-------------

Method             : SCF
Type of density    : Electron Density
Multiplicity       :   1
Irrep              :   0
Energy             :  -271.8111074365590980 Eh
Relativity type    :
Basis              : AO
                                X                 Y                 Z
Electronic contribution:     -4.834800434       2.195711355      -2.112428052
Nuclear contribution   :      6.141243168      -3.246008151       2.795996113
                        -----------------------------------------
Total Dipole Moment    :      1.306442733      -1.050296796       0.683568061
                        -----------------------------------------
Magnitude (a.u.)       :      1.810298668
Magnitude (Debye)      :      4.601413534

Rotational constants in cm-1:             0.152102             0.093234             0.078985
Rotational constants in MHz :          4559.917673          2795.079375          2367.925572

                             ****ORCA TERMINATED NORMALLY****
TOTAL RUN TIME: 0 days 0 hours 1 minutes 39 seconds 888 msec
