                         Program Version 6.0.0  -   RELEASE  -
|  1> ! pbe def2-sv(p) def2/J RI DEFGRID1 loosescf d4 GCP(DFT/SV(P)) printgap
|  2> %output
|  3>     printlevel normal
|  4> end
|  5> * xyz 0 1
|  6> C -1.6391357492 -1.2767325445 -0.6898053455
|  7> C -1.1641369282 -0.4660227377 0.5346433665
|  8> H -1.9599763686 -0.5030671108 1.2873048094
|  9> C -0.8705268598 1.0201384981 0.2155471921
| 10> H -1.2697718607 1.2813487403 -0.7742445166
| 11> C 0.6383130712 1.2921374256 0.1669178594
| 12> H 0.9812475511 1.4829822355 1.194575241
| 13> C 1.4054056856 0.0868180088 -0.3878429188
| 14> H 1.0573123463 -0.1191999617 -1.4096242077
| 15> C 1.142265233 -1.1518341158 0.4847380018
| 16> H 1.9120760343 -1.1953780018 1.2712710225
| 17> O -0.0688099944 -1.0889384028 1.1927069039
| 18> O 1.211942888 -2.2730078027 -0.3446565086
| 19> O 2.7680833203 0.4306449864 -0.3975708356
| 20> O 0.8443951325 2.4213732442 -0.6412141059
| 21> O -1.402638607 1.8801614482 1.194171253
| 22> O -2.9275882201 -0.9034778659 -1.1096044025
| 23> H -1.7141871318 -2.3242194258 -0.3894134859
| 24> H -0.9160617998 -1.2020785802 -1.5078570762
| 25> H 1.154257746 -3.0845938441 0.18202996
| 26> H 3.2765385523 -0.255512266 -0.8529430418
| 27> H 1.7990996001 2.5797153765 -0.7012824734
| 28> H -2.3676244262 1.9084662936 1.1253366905
| 29> H -2.8922341241 -0.0729913152 -1.6032704102
| 30> *
| 31>
| 32>                          ****END OF INPUT****

CARTESIAN COORDINATES (ANGSTROEM)
---------------------------------
  C     -1.639136   -1.276733   -0.689805
  C     -1.164137   -0.466023    0.534643
  H     -1.959976   -0.503067    1.287305
  C     -0.870527    1.020138    0.215547
  H     -1.269772    1.281349   -0.774245
  C      0.638313    1.292137    0.166918
  H      0.981248    1.482982    1.194575
  C      1.405406    0.086818   -0.387843
  H      1.057312   -0.119200   -1.409624
  C      1.142265   -1.151834    0.484738
  H      1.912076   -1.195378    1.271271
  O     -0.068810   -1.088938    1.192707
  O      1.211943   -2.273008   -0.344657
  O      2.768083    0.430645   -0.397571
  O      0.844395    2.421373   -0.641214
  O     -1.402639    1.880161    1.194171
  O     -2.927588   -0.903478   -1.109604
  H     -1.714187   -2.324219   -0.389413
  H     -0.916062   -1.202079   -1.507857
  H      1.154258   -3.084594    0.182030
  H      3.276539   -0.255512   -0.852943
  H      1.799100    2.579715   -0.701282
  H     -2.367624    1.908466    1.125337
  H     -2.892234   -0.072991   -1.603270

 Total Charge           Charge          ....    0
 Multiplicity           Mult            ....    1
 Number of Electrons    NEL             ....   96
 Basis Dimension        Dim             ....  192

ORBITAL ENERGIES
----------------

  NO   OCC          E(Eh)            E(eV)
   0   2.0000     -18.768604      -510.7197
   1   2.0000     -18.767091      -510.6785
   2   2.0000     -18.765747      -510.6419
   3   2.0000     -18.753522      -510.3093
   4   2.0000     -18.747681      -510.1503
   5   2.0000     -18.742994      -510.0228
   6   2.0000      -9.985919      -271.7307
   7   2.0000      -9.945027      -270.6179
   8   2.0000      -9.944974      -270.6165
   9   2.0000      -9.940760      -270.5018
  10   2.0000      -9.939286      -270.4617
  11   2.0000      -9.930799      -270.2308
  12   2.0000      -0.981679       -26.7128
  13   2.0000      -0.945718       -25.7343
  14   2.0000      -0.934440       -25.4274
  15   2.0000      -0.927211       -25.2307
  16   2.0000      -0.913789       -24.8655
  17   2.0000      -0.912259       -24.8238
  18   2.0000      -0.703318       -19.1382
  19   2.0000      -0.690010       -18.7761
  20   2.0000      -0.625341       -17.0164
  21   2.0000      -0.583273       -15.8717
  22   2.0000      -0.569505       -15.4970
  23   2.0000      -0.516461       -14.0536
  24   2.0000      -0.506039       -13.7700
  25   2.0000      -0.490832       -13.3562
  26   2.0000      -0.478627       -13.0241
  27   2.0000      -0.466258       -12.6875
  28   2.0000      -0.447140       -12.1673
  29   2.0000      -0.431450       -11.7404
  30   2.0000      -0.404615       -11.0101
  31   2.0000      -0.401216       -10.9176
  32   2.0000      -0.383578       -10.4377
  33   2.0000      -0.376347       -10.2409
  34   2.0000      -0.366272        -9.9668
  35   2.0000      -0.348772        -9.4906
  36   2.0000      -0.333932        -9.0868
  37   2.0000      -0.310484        -8.4487
  38   2.0000      -0.295365        -8.0373
  39   2.0000      -0.288237        -7.8433
  40   2.0000      -0.279681        -7.6105
  41   2.0000      -0.271464        -7.3869
  42   2.0000      -0.255299        -6.9470
  43   2.0000      -0.251421        -6.8415
  44   2.0000      -0.232325        -6.3219
  45   2.0000      -0.228691        -6.2230
  46   2.0000      -0.214312        -5.8317
  47   2.0000      -0.198396        -5.3986
  48   0.0000       0.008342         0.2270
  49   0.0000       0.018008         0.4900
  50   0.0000       0.027894         0.7590
  51   0.0000       0.038481         1.0471
  52   0.0000       0.059466         1.6182

MULLIKEN ATOMIC CHARGES
-----------------------
   0 C :    0.007348
   1 C :    0.045275
   2 H :    0.062135
   3 C :    0.057499
   4 H :    0.042910
   5 C :    0.078364
   6 H :    0.072322
   7 C :   -0.015133
   8 H :    0.070024
   9 C :    0.200202
  10 H :    0.061715
  11 O :   -0.303648
  12 O :   -0.398668
  13 O :   -0.420725
  14 O :   -0.414799
  15 O :   -0.406706
  16 O :   -0.433522
  17 H :    0.082056
  18 H :    0.094258
  19 H :    0.303624
  20 H :    0.310990
  21 H :    0.303595
  22 H :    0.299687
  23 H :    0.301197
Sum of atomic charges:   -0.0000000

LOEWDIN ATOMIC CHARGES
----------------------
   0 C :   -0.144011
   1 C :   -0.076368
   2 H :    0.118064
   3 C :   -0.063538
   4 H :    0.095622
   5 C :   -0.055917
   6 H :    0.115811
   7 C :   -0.091557
   8 H :    0.106637
   9 C :   -0.014220
  10 H :    0.099748
  11 O :   -0.140871
  12 O :   -0.314151
  13 O :   -0.316906
  14 O :   -0.316907
  15 O :   -0.313697
  16 O :   -0.333160
  17 H :    0.114506
  18 H :    0.100231
  19 H :    0.286170
  20 H :    0.293657
  21 H :    0.284917
  22 H :    0.284836
  23 H :    0.281103

  Mayer bond orders larger than 0.100000
B(  0-C ,  1-C ) :   1.0004 B(  0-C , 16-O ) :   1.0591 B(  0-C , 17-H ) :   0.9123
B(  0-C , 18-H ) :   0.9158 B(  1-C ,  2-H ) :   0.8890 B(  1-C ,  3-C ) :   0.9712
B(  1-C , 11-O ) :   1.0233 B(  3-C ,  4-H ) :   0.8801 B(  3-C ,  5-C ) :   1.0249
B(  3-C , 15-O ) :   1.0883 B(  5-C ,  6-H ) :   0.8638 B(  5-C ,  7-C ) :   1.0221
B(  5-C , 14-O ) :   1.0933 B(  7-C ,  8-H ) :   0.8774 B(  7-C ,  9-C ) :   0.9716
B(  7-C , 13-O ) :   1.0689 B(  9-C , 10-H ) :   0.8866 B(  9-C , 11-O ) :   1.0697
B(  9-C , 12-O ) :   1.1170 B( 12-O , 19-H ) :   0.8397 B( 13-O , 20-H ) :   0.8436
B( 14-O , 21-H ) :   0.8367 B( 15-O , 22-H ) :   0.8480 B( 16-O , 23-H ) :   0.8479

Dispersion correction           -0.024474264
FINAL SINGLE POINT ENERGY      -685.688972321439

DIPOLE MOMENT
-------------

Method             : SCF
Type of density    : Electron Density
Multiplicity       :   1
Irrep              :   0
Energy             :  -685.8178926777807192 Eh
Relativity type    :
Basis              : AO
                                X                 Y                 Z
Electronic contribution:      1.325490917       0.831577409       1.629038544
Nuclear contribution   :     -0.874943741      -1.404588333      -2.045017561
                        -----------------------------------------
Total Dipole Moment    :      0.450547176      -0.573010924      -0.415979017
                        -----------------------------------------
Magnitude (a.u.)       :      0.839269217
Magnitude (Debye)      :      2.133252818

Rotational constants in cm-1:             0.035766             0.028951             0.019923
Rotational constants in MHz :          1072.236298           867.915120           597.268364

                             ****ORCA TERMINATED NORMALLY****
TOTAL RUN TIME: 0 days 0 hours 0 minutes 12 seconds 163 msec
