                         Program Version 6.0.0  -   RELEASE  -
|  1> ! pbe def2-sv(p) def2/J RI DEFGRID1 loosescf d4 GCP(DFT/SV(P)) printgap
|  2> %output
|  3>     printlevel normal
|  4> end
|  5> * xyz 0 1
|  6> C -2.3926779861 -1.1584919216 -0.3036772014
|  7> C -1.0587123026 -0.6255258374 0.2457546277
|  8> H -1.0816627406 -0.6098291236 1.3482237587
|  9> C -0.7796233421 0.8041799722 -0.2491915856
| 10> H -0.8100017204 0.8097834796 -1.3509033844
| 11> C 0.6224069509 1.2352783555 0.1981133251
| 12> H 0.6272079212 1.3153841439 1.2972148019
| 13> C 1.6667499305 0.1952222197 -0.2238570073
| 14> H 1.7164312983 0.1815668274 -1.3242394698
| 15> C 1.2429034308 -1.2008138079 0.2725535121
| 16> H 1.2643148634 -1.2006815658 1.3743144268
| 17> O -0.0536862633 -1.5129260087 -0.1991845167
| 18> O 2.0911332376 -2.2061881156 -0.1240797621
| 19> O 2.9251667194 0.4842593276 0.3225422463
| 20> O 0.9956815675 2.4651967016 -0.3742902634
| 21> O -1.6913356829 1.7367400166 0.274739071
| 22> O -3.4947514639 -0.4142017751 0.1523490538
| 23> H -2.4752896486 -2.2177621323 -0.0449498393
| 24> H -2.3842840329 -1.0711315499 -1.3925374983
| 25> H 2.0674647481 -2.29785369 -1.090153722
| 26> H 3.1526570506 1.3983336826 0.0898604654
| 27> H 0.296804844 3.1109313943 -0.1924110052
| 28> H -2.5946675162 1.408879058 0.1149061072
| 29> H -3.7076765211 -0.6645951437 1.0626619486
| 30> *
| 31>
| 32>                          ****END OF INPUT****

CARTESIAN COORDINATES (ANGSTROEM)
---------------------------------
  C     -2.392678   -1.158492   -0.303677
  C     -1.058712   -0.625526    0.245755
  H     -1.081663   -0.609829    1.348224
  C     -0.779623    0.804180   -0.249192
  H     -0.810002    0.809783   -1.350903
  C      0.622407    1.235278    0.198113
  H      0.627208    1.315384    1.297215
  C      1.666750    0.195222   -0.223857
  H      1.716431    0.181567   -1.324239
  C      1.242903   -1.200814    0.272554
  H      1.264315   -1.200682    1.374314
  O     -0.053686   -1.512926   -0.199185
  O      2.091133   -2.206188   -0.124080
  O      2.925167    0.484259    0.322542
  O      0.995682    2.465197   -0.374290
  O     -1.691336    1.736740    0.274739
  O     -3.494751   -0.414202    0.152349
  H     -2.475290   -2.217762   -0.044950
  H     -2.384284   -1.071132   -1.392537
  H      2.067465   -2.297854   -1.090154
  H      3.152657    1.398334    0.089860
  H      0.296805    3.110931   -0.192411
  H     -2.594668    1.408879    0.114906
  H     -3.707677   -0.664595    1.062662

 Total Charge           Charge          ....    0
 Multiplicity           Mult            ....    1
 Number of Electrons    NEL             ....   96
 Basis Dimension        Dim             ....  192

ORBITAL ENERGIES
----------------

  NO   OCC          E(Eh)            E(eV)
   0   2.0000     -18.784683      -511.1572
   1   2.0000     -18.774962      -510.8927
   2   2.0000     -18.755118      -510.3527
   3   2.0000     -18.753548      -510.3100
   4   2.0000     -18.751083      -510.2429
   5   2.0000     -18.744178      -510.0550
   6   2.0000      -9.985397      -271.7165
   7   2.0000      -9.949999      -270.7532
   8   2.0000      -9.949824      -270.7485
   9   2.0000      -9.941778      -270.5295
  10   2.0000      -9.939392      -270.4646
  11   2.0000      -9.937406      -270.4106
  12   2.0000      -0.983760       -26.7695
  13   2.0000      -0.958467       -26.0812
  14   2.0000      -0.942562       -25.6484
  15   2.0000      -0.927512       -25.2389
  16   2.0000      -0.915067       -24.9002
  17   2.0000      -0.910595       -24.7785
  18   2.0000      -0.703800       -19.1514
  19   2.0000      -0.694387       -18.8952
  20   2.0000      -0.623830       -16.9753
  21   2.0000      -0.579684       -15.7740
  22   2.0000      -0.568713       -15.4755
  23   2.0000      -0.536781       -14.6065
  24   2.0000      -0.504227       -13.7207
  25   2.0000      -0.496735       -13.5168
  26   2.0000      -0.478253       -13.0139
  27   2.0000      -0.464740       -12.6462
  28   2.0000      -0.444553       -12.0969
  29   2.0000      -0.436536       -11.8787
  30   2.0000      -0.415495       -11.3062
  31   2.0000      -0.406374       -11.0580
  32   2.0000      -0.397913       -10.8278
  33   2.0000      -0.385943       -10.5020
  34   2.0000      -0.357891        -9.7387
  35   2.0000      -0.352385        -9.5889
  36   2.0000      -0.332055        -9.0357
  37   2.0000      -0.310705        -8.4547
  38   2.0000      -0.305866        -8.3230
  39   2.0000      -0.299863        -8.1597
  40   2.0000      -0.294214        -8.0060
  41   2.0000      -0.281312        -7.6549
  42   2.0000      -0.250344        -6.8122
  43   2.0000      -0.243716        -6.6318
  44   2.0000      -0.232799        -6.3348
  45   2.0000      -0.225850        -6.1457
  46   2.0000      -0.213752        -5.8165
  47   2.0000      -0.209131        -5.6908
  48   0.0000       0.001304         0.0355
  49   0.0000       0.024847         0.6761
  50   0.0000       0.035118         0.9556
  51   0.0000       0.044507         1.2111
  52   0.0000       0.059589         1.6215

MULLIKEN ATOMIC CHARGES
-----------------------
   0 C :    0.073146
   1 C :   -0.019857
   2 H :    0.045604
   3 C :    0.044151
   4 H :    0.048823
   5 C :    0.069857
   6 H :    0.053136
   7 C :    0.043714
   8 H :    0.039095
   9 C :    0.205210
  10 H :    0.054197
  11 O :   -0.307431
  12 O :   -0.365338
  13 O :   -0.410017
  14 O :   -0.427196
  15 O :   -0.438019
  16 O :   -0.437206
  17 H :    0.100549
  18 H :    0.090004
  19 H :    0.301263
  20 H :    0.309040
  21 H :    0.312094
  22 H :    0.303127
  23 H :    0.312054
Sum of atomic charges:    0.0000000

LOEWDIN ATOMIC CHARGES
----------------------
   0 C :   -0.126193
   1 C :   -0.079323
   2 H :    0.097825
   3 C :   -0.080472
   4 H :    0.100888
   5 C :   -0.077126
   6 H :    0.104214
   7 C :   -0.087183
   8 H :    0.098664
   9 C :    0.009036
  10 H :    0.101149
  11 O :   -0.155003
  12 O :   -0.277091
  13 O :   -0.315406
  14 O :   -0.326072
  15 O :   -0.334775
  16 O :   -0.318993
  17 H :    0.110149
  18 H :    0.118945
  19 H :    0.288067
  20 H :    0.289135
  21 H :    0.291199
  22 H :    0.274328
  23 H :    0.294036

  Mayer bond orders larger than 0.100000
B(  0-C ,  1-C ) :   1.0243 B(  0-C , 16-O ) :   1.0357 B(  0-C , 17-H ) :   0.9247
B(  0-C , 18-H ) :   0.9139 B(  1-C ,  2-H ) :   0.8743 B(  1-C ,  3-C ) :   0.9991
B(  1-C , 11-O ) :   0.9939 B(  3-C ,  4-H ) :   0.8691 B(  3-C ,  5-C ) :   1.0065
B(  3-C , 15-O ) :   1.0824 B(  5-C ,  6-H ) :   0.8748 B(  5-C ,  7-C ) :   1.0161
B(  5-C , 14-O ) :   1.0804 B(  7-C ,  8-H ) :   0.8599 B(  7-C ,  9-C ) :   0.9871
B(  7-C , 13-O ) :   1.0886 B(  9-C , 10-H ) :   0.8781 B(  9-C , 11-O ) :   0.9904
B(  9-C , 12-O ) :   1.1693 B( 12-O , 19-H ) :   0.8428 B( 13-O , 20-H ) :   0.8379
B( 14-O , 21-H ) :   0.8355 B( 15-O , 22-H ) :   0.8022 B( 16-O , 22-H ) :   0.1105
B( 16-O , 23-H ) :   0.8428

Dispersion correction           -0.023816877
FINAL SINGLE POINT ENERGY      -685.703331316305

DIPOLE MOMENT
-------------

Method             : SCF
Type of density    : Electron Density
Multiplicity       :   1
Irrep              :   0
Energy             :  -685.8340698372275028 Eh
Relativity type    :
Basis              : AO
                                X                 Y                 Z
Electronic contribution:      2.560746577      -0.086200825       0.035756393
Nuclear contribution   :     -3.674350436       0.161136179      -0.100563477
                        -----------------------------------------
Total Dipole Moment    :     -1.113603859       0.074935353      -0.064807084
                        -----------------------------------------
Magnitude (a.u.)       :      1.118002156
Magnitude (Debye)      :      2.841735644

Rotational constants in cm-1:             0.043752             0.024499             0.016448
Rotational constants in MHz :          1311.650297           734.457019           493.091043

                             ****ORCA TERMINATED NORMALLY****
TOTAL RUN TIME: 0 days 0 hours 0 minutes 12 seconds 43 msec
