                         Program Version 6.0.0  -   RELEASE  -
|  1> ! wb97x-v def2-tzvp def2/J RIJCOSX DEFGRID2 scfconv7 GCP(DFT/TZ) printgap
|  2> %output
|  3>     printlevel normal
|  4> end
|  5> %cpcm
|  6>     smd true
|  7>     smdsolvent "water"
|  8> end
|  9> * xyz 0 1
| 10> C 1.9491099950622648 -0.13163438606314662 -2.0577489391791652e-06
| 11> C 0.5659385212965224 0.5132623098908335 5.9122472137560175e-06
| 12> C -0.5659454759214562 -0.5132635686497659 1.199012200485432e-06
| 13> C -1.9491173988521482 0.13163228291827475 -4.2231253193192394e-05
| 14> H 2.086721650764293 -0.7634922318939691 -0.8847696691285027
| 15> H 2.744390645146873 0.6209374100723656 -3.834648652192598e-06
| 16> H 2.086729826573502 -0.7634976792219503 0.8847604391057682
| 17> H 0.46141578117384646 1.162802347777764 0.8792507117368049
| 18> H 0.461415390610632 1.162811747556108 -0.87923180438365
| 19> H -0.4614010727198406 -1.1628235522496821 -0.8792261442390787
| 20> H -0.4614422173721966 -1.162792941427653 0.8792560207829437
| 21> H -2.086755966837652 0.7635125520876695 0.8847051006718007
| 22> H -2.744397104627152 -0.6209403682379244 -4.484393989074432e-05
| 23> H -2.086713319676804 0.7634725751255572 -0.8848246868220929
| 24> *
| 25>
| 26>                          ****END OF INPUT****

CARTESIAN COORDINATES (ANGSTROEM)
---------------------------------
  C      1.949110   -0.131634   -0.000002
  C      0.565939    0.513262    0.000006
  C     -0.565945   -0.513264    0.000001
  C     -1.949117    0.131632   -0.000042
  H      2.086722   -0.763492   -0.884770
  H      2.744391    0.620937   -0.000004
  H      2.086730   -0.763498    0.884760
  H      0.461416    1.162802    0.879251
  H      0.461415    1.162812   -0.879232
  H     -0.461401   -1.162824   -0.879226
  H     -0.461442   -1.162793    0.879256
  H     -2.086756    0.763513    0.884705
  H     -2.744397   -0.620940   -0.000045
  H     -2.086713    0.763473   -0.884825

 Total Charge           Charge          ....    0
 Multiplicity           Mult            ....    1
 Number of Electrons    NEL             ....   34
 Basis Dimension        Dim             ....  184

ORBITAL ENERGIES
----------------

  NO   OCC          E(Eh)            E(eV)
   0   2.0000     -12.030339      -327.3622
   1   2.0000     -12.029233      -327.3321
   2   2.0000     -12.023924      -327.1876
   3   2.0000     -12.023625      -327.1795
   4   2.0000      -1.290381       -35.1130
   5   2.0000      -1.213828       -33.0299
   6   2.0000      -1.111013       -30.2322
   7   2.0000      -1.035353       -28.1734
   8   2.0000      -0.881212       -23.9790
   9   2.0000      -0.851975       -23.1834
  10   2.0000      -0.851409       -23.1680
  11   2.0000      -0.826757       -22.4972
  12   2.0000      -0.791485       -21.5374
  13   2.0000      -0.778042       -21.1716
  14   2.0000      -0.768491       -20.9117
  15   2.0000      -0.747016       -20.3273
  16   2.0000      -0.730544       -19.8791
  17   0.0000      -0.016463        -0.4480
  18   0.0000      -0.007542        -0.2052
  19   0.0000       0.005929         0.1613
  20   0.0000       0.023854         0.6491
  21   0.0000       0.035177         0.9572

MULLIKEN ATOMIC CHARGES
-----------------------
   0 C :   -0.380353
   1 C :   -0.174339
   2 C :   -0.174349
   3 C :   -0.380355
   4 H :    0.117854
   5 H :    0.126847
   6 H :    0.117854
   7 H :    0.096070
   8 H :    0.096068
   9 H :    0.096070
  10 H :    0.096074
  11 H :    0.117856
  12 H :    0.126851
  13 H :    0.117853
Sum of atomic charges:   -0.0000000

LOEWDIN ATOMIC CHARGES
----------------------
   0 C :   -0.317302
   1 C :   -0.297431
   2 C :   -0.297430
   3 C :   -0.317303
   4 H :    0.117469
   5 H :    0.116954
   6 H :    0.117468
   7 H :    0.131421
   8 H :    0.131420
   9 H :    0.131421
  10 H :    0.131421
  11 H :    0.117469
  12 H :    0.116954
  13 H :    0.117469

  Mayer bond orders larger than 0.100000
B(  0-C ,  1-C ) :   0.9814 B(  0-C ,  4-H ) :   0.9787 B(  0-C ,  5-H ) :   0.9811
B(  0-C ,  6-H ) :   0.9787 B(  1-C ,  2-C ) :   0.9855 B(  1-C ,  7-H ) :   0.9717
B(  1-C ,  8-H ) :   0.9717 B(  2-C ,  3-C ) :   0.9814 B(  2-C ,  9-H ) :   0.9717
B(  2-C , 10-H ) :   0.9717 B(  3-C , 11-H ) :   0.9787 B(  3-C , 12-H ) :   0.9811
B(  3-C , 13-H ) :   0.9787

FINAL SINGLE POINT ENERGY      -158.451001773688

DIPOLE MOMENT
-------------

Method             : SCF
Type of density    : Electron Density
Multiplicity       :   1
Irrep              :   0
Energy             :  -158.4607655168881593 Eh
Relativity type    :
Basis              : AO
                                X                 Y                 Z
Electronic contribution:      0.000000573       0.000000536       0.000026253
Nuclear contribution   :     -0.000000381      -0.000001346      -0.000027736
                        -----------------------------------------
Total Dipole Moment    :      0.000000192      -0.000000810      -0.000001483
                        -----------------------------------------
Magnitude (a.u.)       :      0.000001701
Magnitude (Debye)      :      0.000004323

Rotational constants in cm-1:             0.780546             0.121429             0.113997
Rotational constants in MHz :         23400.180953          3640.343964          3417.541628

                             ****ORCA TERMINATED NORMALLY****
TOTAL RUN TIME: 0 days 0 hours 0 minutes 52 seconds 506 msec
