                         Program Version 6.0.0  -   RELEASE  -
|  1> ! pbe def2-sv(p) def2/J RI DEFGRID1 loosescf d4 GCP(DFT/SV(P)) printgap
|  2> %output
|  3>     printlevel normal
|  4> end
|  5> * xyz 0 1
|  6> C -2.2935976436 -1.0501042966 -0.2628844718
|  7> C -0.9191087185 -0.5746435951 0.206639353
|  8> H -0.8414356693 -0.7286304488 1.2946891142
|  9> C -0.7321106537 0.9328363322 -0.0799005176
| 10> H -1.3262559032 1.2176094779 -0.958547494
| 11> C 0.7403871365 1.2500625321 -0.4012459144
| 12> H 0.9103281496 2.2926967655 -0.1002727959
| 13> C 1.6394267266 0.3320309988 0.4374933953
| 14> H 2.698553325 0.5124548156 0.2104495641
| 15> C 1.365045852 -1.1500806646 0.0472311352
| 16> H 1.5294385947 -1.7696653237 0.9455398891
| 17> O 0.0590206063 -1.3499311412 -0.450600449
| 18> O 2.24503413 -1.5997794854 -0.9195093817
| 19> O 1.4702665258 0.5528189941 1.8165546979
| 20> O 0.9581896169 1.070128404 -1.7780276224
| 21> O -1.0951628302 1.7007067453 1.0436828361
| 22> O -3.2575313349 -0.2311868976 0.3581370036
| 23> H -2.4178890121 -2.1024831968 0.0145110305
| 24> H -2.3351357078 -0.9625343153 -1.3551658403
| 25> H 1.9449669086 -1.2575938125 -1.7788196466
| 26> H 0.6351533813 1.027548287 1.9708856707
| 27> H 1.7339282402 1.5782787304 -2.0541762503
| 28> H -2.0355222319 1.5453133337 1.2267399149
| 29> H -4.1424763316 -0.5219367169 0.0968490281
| 30> *
| 31>
| 32>                          ****END OF INPUT****

CARTESIAN COORDINATES (ANGSTROEM)
---------------------------------
  C     -2.293598   -1.050104   -0.262884
  C     -0.919109   -0.574644    0.206639
  H     -0.841436   -0.728630    1.294689
  C     -0.732111    0.932836   -0.079901
  H     -1.326256    1.217609   -0.958547
  C      0.740387    1.250063   -0.401246
  H      0.910328    2.292697   -0.100273
  C      1.639427    0.332031    0.437493
  H      2.698553    0.512455    0.210450
  C      1.365046   -1.150081    0.047231
  H      1.529439   -1.769665    0.945540
  O      0.059021   -1.349931   -0.450600
  O      2.245034   -1.599779   -0.919509
  O      1.470267    0.552819    1.816555
  O      0.958190    1.070128   -1.778028
  O     -1.095163    1.700707    1.043683
  O     -3.257531   -0.231187    0.358137
  H     -2.417889   -2.102483    0.014511
  H     -2.335136   -0.962534   -1.355166
  H      1.944967   -1.257594   -1.778820
  H      0.635153    1.027548    1.970886
  H      1.733928    1.578279   -2.054176
  H     -2.035522    1.545313    1.226740
  H     -4.142476   -0.521937    0.096849

 Total Charge           Charge          ....    0
 Multiplicity           Mult            ....    1
 Number of Electrons    NEL             ....   96
 Basis Dimension        Dim             ....  192

ORBITAL ENERGIES
----------------

  NO   OCC          E(Eh)            E(eV)
   0   2.0000     -18.775126      -510.8971
   1   2.0000     -18.768076      -510.7053
   2   2.0000     -18.765348      -510.6311
   3   2.0000     -18.763692      -510.5860
   4   2.0000     -18.741474      -509.9814
   5   2.0000     -18.738388      -509.8975
   6   2.0000      -9.971724      -271.3444
   7   2.0000      -9.948477      -270.7118
   8   2.0000      -9.945272      -270.6246
   9   2.0000      -9.944605      -270.6065
  10   2.0000      -9.944041      -270.5911
  11   2.0000      -9.929514      -270.1958
  12   2.0000      -0.976937       -26.5838
  13   2.0000      -0.949521       -25.8378
  14   2.0000      -0.945378       -25.7250
  15   2.0000      -0.935621       -25.4596
  16   2.0000      -0.913721       -24.8636
  17   2.0000      -0.903169       -24.5765
  18   2.0000      -0.703036       -19.1306
  19   2.0000      -0.683923       -18.6105
  20   2.0000      -0.624195       -16.9852
  21   2.0000      -0.573930       -15.6174
  22   2.0000      -0.565631       -15.3916
  23   2.0000      -0.516367       -14.0511
  24   2.0000      -0.507238       -13.8027
  25   2.0000      -0.503516       -13.7014
  26   2.0000      -0.477365       -12.9898
  27   2.0000      -0.462734       -12.5916
  28   2.0000      -0.444567       -12.0973
  29   2.0000      -0.434050       -11.8111
  30   2.0000      -0.411987       -11.2107
  31   2.0000      -0.406501       -11.0615
  32   2.0000      -0.382304       -10.4030
  33   2.0000      -0.375575       -10.2199
  34   2.0000      -0.357179        -9.7193
  35   2.0000      -0.348818        -9.4918
  36   2.0000      -0.325960        -8.8698
  37   2.0000      -0.317082        -8.6282
  38   2.0000      -0.308397        -8.3919
  39   2.0000      -0.302813        -8.2400
  40   2.0000      -0.288890        -7.8611
  41   2.0000      -0.269916        -7.3448
  42   2.0000      -0.248420        -6.7599
  43   2.0000      -0.241404        -6.5689
  44   2.0000      -0.238948        -6.5021
  45   2.0000      -0.226319        -6.1585
  46   2.0000      -0.218399        -5.9429
  47   2.0000      -0.187731        -5.1084
  48   0.0000       0.000320         0.0087
  49   0.0000       0.011948         0.3251
  50   0.0000       0.047363         1.2888
  51   0.0000       0.054305         1.4777
  52   0.0000       0.064753         1.7620

MULLIKEN ATOMIC CHARGES
-----------------------
   0 C :    0.055825
   1 C :    0.020000
   2 H :    0.056083
   3 C :    0.030387
   4 H :    0.068338
   5 C :    0.021776
   6 H :    0.083280
   7 C :   -0.007662
   8 H :    0.064891
   9 C :    0.247312
  10 H :    0.065333
  11 O :   -0.304946
  12 O :   -0.400045
  13 O :   -0.425048
  14 O :   -0.410973
  15 O :   -0.424889
  16 O :   -0.449048
  17 H :    0.089573
  18 H :    0.083975
  19 H :    0.290760
  20 H :    0.306728
  21 H :    0.309109
  22 H :    0.314783
  23 H :    0.314457
Sum of atomic charges:    0.0000000

LOEWDIN ATOMIC CHARGES
----------------------
   0 C :   -0.121326
   1 C :   -0.071819
   2 H :    0.103730
   3 C :   -0.069582
   4 H :    0.111602
   5 C :   -0.074342
   6 H :    0.110383
   7 C :   -0.097326
   8 H :    0.108680
   9 C :    0.008145
  10 H :    0.099590
  11 O :   -0.148463
  12 O :   -0.301540
  13 O :   -0.322785
  14 O :   -0.312590
  15 O :   -0.313904
  16 O :   -0.341506
  17 H :    0.105217
  18 H :    0.102787
  19 H :    0.275703
  20 H :    0.274402
  21 H :    0.292943
  22 H :    0.286783
  23 H :    0.295217

  Mayer bond orders larger than 0.100000
B(  0-C ,  1-C ) :   1.0635 B(  0-C , 16-O ) :   1.0621 B(  0-C , 17-H ) :   0.9187
B(  0-C , 18-H ) :   0.9081 B(  1-C ,  2-H ) :   0.8655 B(  1-C ,  3-C ) :   0.9929
B(  1-C , 11-O ) :   1.0514 B(  3-C ,  4-H ) :   0.8792 B(  3-C ,  5-C ) :   1.0022
B(  3-C , 15-O ) :   1.0490 B(  5-C ,  6-H ) :   0.8969 B(  5-C ,  7-C ) :   1.0193
B(  5-C , 14-O ) :   1.0620 B(  7-C ,  8-H ) :   0.8974 B(  7-C ,  9-C ) :   0.9173
B(  7-C , 13-O ) :   1.0741 B(  9-C , 10-H ) :   0.9005 B(  9-C , 11-O ) :   1.0078
B(  9-C , 12-O ) :   1.1288 B( 12-O , 19-H ) :   0.8361 B( 13-O , 20-H ) :   0.8086
B( 14-O , 21-H ) :   0.8440 B( 15-O , 22-H ) :   0.8216 B( 16-O , 23-H ) :   0.8450

Dispersion correction           -0.025062256
FINAL SINGLE POINT ENERGY      -685.693508631428

DIPOLE MOMENT
-------------

Method             : SCF
Type of density    : Electron Density
Multiplicity       :   1
Irrep              :   0
Energy             :  -685.8255260728830081 Eh
Relativity type    :
Basis              : AO
                                X                 Y                 Z
Electronic contribution:      2.049401142      -0.246417010      -0.225651668
Nuclear contribution   :     -3.415266306       0.781788270      -0.456146486
                        -----------------------------------------
Total Dipole Moment    :     -1.365865164       0.535371260      -0.681798154
                        -----------------------------------------
Magnitude (a.u.)       :      1.617732597
Magnitude (Debye)      :      4.111949480

Rotational constants in cm-1:             0.043879             0.025551             0.022019
Rotational constants in MHz :          1315.461788           766.001729           660.112000

                             ****ORCA TERMINATED NORMALLY****
TOTAL RUN TIME: 0 days 0 hours 0 minutes 12 seconds 171 msec
