                         Program Version 6.0.0  -   RELEASE  -
|  1> ! pbe def2-sv(p) def2/J RI DEFGRID1 loosescf d4 GCP(DFT/SV(P)) printgap
|  2> %output
|  3>     printlevel normal
|  4> end
|  5> * xyz 0 1
|  6> C -2.0736994008 -1.3796233973 -0.0836304281
|  7> C -0.9884691701 -0.523244394 0.5961753424
|  8> H -1.373667516 -0.1453903771 1.5530173345
|  9> C -0.627262237 0.6852803916 -0.2796098606
| 10> H -0.51478773 0.3704827859 -1.3274772852
| 11> C 0.7138844649 1.2583634232 0.1934686905
| 12> H 0.6357130522 1.4695453647 1.2738273882
| 13> C 1.816270904 0.215525587 -0.0416229061
| 14> H 2.2037538642 0.3542663317 -1.0557805166
| 15> C 1.243574963 -1.2213137578 0.0521060057
| 16> H 2.0092061138 -1.856373288 0.5185854172
| 17> O 0.149237412 -1.3118981575 0.9342129952
| 18> O 0.9239704685 -1.6623975589 -1.2290039221
| 19> O 2.9159554435 0.3792915383 0.8104977083
| 20> O 1.045516302 2.434603056 -0.4955169851
| 21> O -1.5964346937 1.6991006251 -0.1717774841
| 22> O -3.2836880953 -0.6697113398 -0.2072417394
| 23> H -2.2024321186 -2.3073758064 0.4827567155
| 24> H -1.7555438043 -1.6260954295 -1.0995467158
| 25> H 0.8500975268 -2.6290834766 -1.2464964486
| 26> H 2.621598482 0.3935921985 1.733595827
| 27> H 0.257115057 3.0006553035 -0.5145524459
| 28> H -2.4471967808 1.3392280619 -0.4731051249
| 29> H -3.7418760302 -0.657854204 0.6449145732
| 30> *
| 31>
| 32>                          ****END OF INPUT****

CARTESIAN COORDINATES (ANGSTROEM)
---------------------------------
  C     -2.073699   -1.379623   -0.083630
  C     -0.988469   -0.523244    0.596175
  H     -1.373668   -0.145390    1.553017
  C     -0.627262    0.685280   -0.279610
  H     -0.514788    0.370483   -1.327477
  C      0.713884    1.258363    0.193469
  H      0.635713    1.469545    1.273827
  C      1.816271    0.215526   -0.041623
  H      2.203754    0.354266   -1.055781
  C      1.243575   -1.221314    0.052106
  H      2.009206   -1.856373    0.518585
  O      0.149237   -1.311898    0.934213
  O      0.923970   -1.662398   -1.229004
  O      2.915955    0.379292    0.810498
  O      1.045516    2.434603   -0.495517
  O     -1.596435    1.699101   -0.171777
  O     -3.283688   -0.669711   -0.207242
  H     -2.202432   -2.307376    0.482757
  H     -1.755544   -1.626095   -1.099547
  H      0.850098   -2.629083   -1.246496
  H      2.621598    0.393592    1.733596
  H      0.257115    3.000655   -0.514552
  H     -2.447197    1.339228   -0.473105
  H     -3.741876   -0.657854    0.644915

 Total Charge           Charge          ....    0
 Multiplicity           Mult            ....    1
 Number of Electrons    NEL             ....   96
 Basis Dimension        Dim             ....  192

ORBITAL ENERGIES
----------------

  NO   OCC          E(Eh)            E(eV)
   0   2.0000     -18.776462      -510.9335
   1   2.0000     -18.771988      -510.8118
   2   2.0000     -18.769921      -510.7555
   3   2.0000     -18.752411      -510.2790
   4   2.0000     -18.745304      -510.0856
   5   2.0000     -18.737551      -509.8747
   6   2.0000      -9.985034      -271.7066
   7   2.0000      -9.945133      -270.6208
   8   2.0000      -9.941502      -270.5220
   9   2.0000      -9.938288      -270.4346
  10   2.0000      -9.937242      -270.4061
  11   2.0000      -9.935127      -270.3485
  12   2.0000      -0.983867       -26.7724
  13   2.0000      -0.950868       -25.8744
  14   2.0000      -0.937062       -25.4987
  15   2.0000      -0.925073       -25.1725
  16   2.0000      -0.916834       -24.9483
  17   2.0000      -0.906559       -24.6687
  18   2.0000      -0.703106       -19.1325
  19   2.0000      -0.690428       -18.7875
  20   2.0000      -0.623960       -16.9788
  21   2.0000      -0.582853       -15.8602
  22   2.0000      -0.568371       -15.4662
  23   2.0000      -0.517794       -14.0899
  24   2.0000      -0.505809       -13.7638
  25   2.0000      -0.495386       -13.4801
  26   2.0000      -0.480651       -13.0792
  27   2.0000      -0.469019       -12.7627
  28   2.0000      -0.444952       -12.1078
  29   2.0000      -0.425957       -11.5909
  30   2.0000      -0.407019       -11.0755
  31   2.0000      -0.394855       -10.7446
  32   2.0000      -0.385840       -10.4992
  33   2.0000      -0.379245       -10.3198
  34   2.0000      -0.367430        -9.9983
  35   2.0000      -0.354564        -9.6482
  36   2.0000      -0.324946        -8.8422
  37   2.0000      -0.316235        -8.6052
  38   2.0000      -0.302544        -8.2326
  39   2.0000      -0.296304        -8.0628
  40   2.0000      -0.284296        -7.7361
  41   2.0000      -0.271950        -7.4001
  42   2.0000      -0.261243        -7.1088
  43   2.0000      -0.250196        -6.8082
  44   2.0000      -0.229695        -6.2503
  45   2.0000      -0.218700        -5.9511
  46   2.0000      -0.215057        -5.8520
  47   2.0000      -0.200987        -5.4691
  48   0.0000       0.004991         0.1358
  49   0.0000       0.016497         0.4489
  50   0.0000       0.031242         0.8501
  51   0.0000       0.047753         1.2994
  52   0.0000       0.062539         1.7018

MULLIKEN ATOMIC CHARGES
-----------------------
   0 C :    0.051699
   1 C :    0.039047
   2 H :    0.056082
   3 C :   -0.004023
   4 H :    0.074862
   5 C :    0.077462
   6 H :    0.031597
   7 C :    0.113773
   8 H :    0.085899
   9 C :    0.123182
  10 H :    0.066937
  11 O :   -0.320146
  12 O :   -0.388536
  13 O :   -0.415200
  14 O :   -0.412359
  15 O :   -0.432894
  16 O :   -0.437440
  17 H :    0.085691
  18 H :    0.085867
  19 H :    0.307469
  20 H :    0.295631
  21 H :    0.304776
  22 H :    0.302981
  23 H :    0.307643
Sum of atomic charges:    0.0000000

LOEWDIN ATOMIC CHARGES
----------------------
   0 C :   -0.137458
   1 C :   -0.079029
   2 H :    0.107336
   3 C :   -0.085587
   4 H :    0.110811
   5 C :   -0.063148
   6 H :    0.096360
   7 C :   -0.070679
   8 H :    0.130931
   9 C :   -0.015025
  10 H :    0.100835
  11 O :   -0.153476
  12 O :   -0.305031
  13 O :   -0.306426
  14 O :   -0.316085
  15 O :   -0.327948
  16 O :   -0.324837
  17 H :    0.101627
  18 H :    0.114678
  19 H :    0.288959
  20 H :    0.281403
  21 H :    0.284002
  22 H :    0.276800
  23 H :    0.290986

  Mayer bond orders larger than 0.100000
B(  0-C ,  1-C ) :   1.0379 B(  0-C , 16-O ) :   1.0368 B(  0-C , 17-H ) :   0.9236
B(  0-C , 18-H ) :   0.9111 B(  1-C ,  2-H ) :   0.8845 B(  1-C ,  3-C ) :   0.9626
B(  1-C , 11-O ) :   0.9735 B(  3-C ,  4-H ) :   0.8800 B(  3-C ,  5-C ) :   1.0475
B(  3-C , 15-O ) :   1.0718 B(  5-C ,  6-H ) :   0.8525 B(  5-C ,  7-C ) :   1.0248
B(  5-C , 14-O ) :   1.1099 B(  7-C ,  8-H ) :   0.8621 B(  7-C ,  9-C ) :   0.9843
B(  7-C , 13-O ) :   1.0499 B(  9-C , 10-H ) :   0.9001 B(  9-C , 11-O ) :   1.0607
B(  9-C , 12-O ) :   1.1043 B( 12-O , 19-H ) :   0.8365 B( 13-O , 20-H ) :   0.8492
B( 14-O , 21-H ) :   0.8319 B( 15-O , 22-H ) :   0.8124 B( 16-O , 23-H ) :   0.8453

Dispersion correction           -0.024614638
FINAL SINGLE POINT ENERGY      -685.694547505403

DIPOLE MOMENT
-------------

Method             : SCF
Type of density    : Electron Density
Multiplicity       :   1
Irrep              :   0
Energy             :  -685.8254117091909166 Eh
Relativity type    :
Basis              : AO
                                X                 Y                 Z
Electronic contribution:      2.048961197       1.083920416       0.209712820
Nuclear contribution   :     -3.241921242      -2.139666280       0.454142356
                        -----------------------------------------
Total Dipole Moment    :     -1.192960045      -1.055745864       0.663855176
                        -----------------------------------------
Magnitude (a.u.)       :      1.725820585
Magnitude (Debye)      :      4.386687311

Rotational constants in cm-1:             0.044135             0.026008             0.019015
Rotational constants in MHz :          1323.141860           779.708099           570.061016

                             ****ORCA TERMINATED NORMALLY****
TOTAL RUN TIME: 0 days 0 hours 0 minutes 12 seconds 175 msec
