                         Program Version 6.0.0  -   RELEASE  -
|  1> ! wb97x-v def2-tzvp def2/J RIJCOSX DEFGRID2 scfconv7 GCP(DFT/TZ) printgap
|  2> %output
|  3>     printlevel normal
|  4> end
|  5> * xyz 0 1
|  6> C -2.7683198248040597 -0.7810490758565788 -0.006638548381840615
|  7> O -1.798871139163722 0.2751805692258261 -0.025365652092197693
|  8> C -0.4718313668434955 -0.09016864883221014 -0.015870139511170805
|  9> C -0.012277269451386307 -1.4020624595575066 -0.010000802564075971
| 10> C 1.3614751857308944 -1.6637888170161643 -0.0006721156083515999
| 11> C 2.265614776921967 -0.6092455085873304 0.006251356928257502
| 12> C 1.803838463654151 0.7061759522375513 0.003730687279989838
| 13> C 0.43736961341335634 0.9919299904141964 -0.01033039086513685
| 14> N -0.03848347268759974 2.2990008888911575 -0.08337505770013554
| 15> H -3.7417083523962082 -0.28921840891098843 -0.005956461756109217
| 16> H -2.6652305623229413 -1.3931995496170664 0.8965966936116591
| 17> H -2.6773816222316604 -1.4136844619581292 -0.8970235340794568
| 18> H -0.7126897524955 -2.2285872728486567 -0.011681510985170868
| 19> H 1.7084128143752368 -2.6916016163482364 0.0032809186004230657
| 20> H 3.3337406259628812 -0.8008063761672122 0.01751007575738172
| 21> H 2.5072964361184713 1.5345385552179234 0.011822061058587274
| 22> H 0.6134367889279042 2.9840227328256734 0.27344033953129127
| 23> H -0.963602309318868 2.4229356326103293 0.30389731115379864
| 24> *
| 25>
| 26>                          ****END OF INPUT****

CARTESIAN COORDINATES (ANGSTROEM)
---------------------------------
  C     -2.768320   -0.781049   -0.006639
  O     -1.798871    0.275181   -0.025366
  C     -0.471831   -0.090169   -0.015870
  C     -0.012277   -1.402062   -0.010001
  C      1.361475   -1.663789   -0.000672
  C      2.265615   -0.609246    0.006251
  C      1.803838    0.706176    0.003731
  C      0.437370    0.991930   -0.010330
  N     -0.038483    2.299001   -0.083375
  H     -3.741708   -0.289218   -0.005956
  H     -2.665231   -1.393200    0.896597
  H     -2.677382   -1.413684   -0.897024
  H     -0.712690   -2.228587   -0.011682
  H      1.708413   -2.691602    0.003281
  H      3.333741   -0.800806    0.017510
  H      2.507296    1.534539    0.011822
  H      0.613437    2.984023    0.273440
  H     -0.963602    2.422936    0.303897

 Total Charge           Charge          ....    0
 Multiplicity           Mult            ....    1
 Number of Electrons    NEL             ....   66
 Basis Dimension        Dim             ....  333

ORBITAL ENERGIES
----------------

  NO   OCC          E(Eh)            E(eV)
   0   2.0000     -21.702541      -590.5562
   1   2.0000     -16.523735      -449.6337
   2   2.0000     -12.102359      -329.3219
   3   2.0000     -12.101504      -329.2987
   4   2.0000     -12.083838      -328.8180
   5   2.0000     -12.044866      -327.7575
   6   2.0000     -12.040977      -327.6516
   7   2.0000     -12.039247      -327.6046
   8   2.0000     -12.037122      -327.5467
   9   2.0000      -1.714677       -46.6587
  10   2.0000      -1.483622       -40.3714
  11   2.0000      -1.367238       -37.2044
  12   2.0000      -1.289350       -35.0850
  13   2.0000      -1.261794       -34.3352
  14   2.0000      -1.219392       -33.1813
  15   2.0000      -1.115123       -30.3440
  16   2.0000      -1.106616       -30.1125
  17   2.0000      -1.044662       -28.4267
  18   2.0000      -1.008770       -27.4500
  19   2.0000      -0.999270       -27.1915
  20   2.0000      -0.977055       -26.5870
  21   2.0000      -0.966433       -26.2980
  22   2.0000      -0.919059       -25.0089
  23   2.0000      -0.912448       -24.8290
  24   2.0000      -0.887798       -24.1582
  25   2.0000      -0.837154       -22.7801
  26   2.0000      -0.831100       -22.6154
  27   2.0000      -0.826941       -22.5022
  28   2.0000      -0.812425       -22.1072
  29   2.0000      -0.807049       -21.9609
  30   2.0000      -0.740232       -20.1427
  31   2.0000      -0.633312       -17.2333
  32   2.0000      -0.611173       -16.6308
  33   0.0000      -0.237984        -6.4759
  34   0.0000      -0.232525        -6.3273
  35   0.0000      -0.183405        -4.9907
  36   0.0000      -0.116165        -3.1610
  37   0.0000      -0.063674        -1.7327

MULLIKEN ATOMIC CHARGES
-----------------------
   0 C :   -0.219180
   1 O :   -0.293642
   2 C :    0.221079
   3 C :   -0.220613
   4 C :   -0.169233
   5 C :   -0.122115
   6 C :   -0.218270
   7 C :    0.176771
   8 N :   -0.440337
   9 H :    0.133413
  10 H :    0.123519
  11 H :    0.125184
  12 H :    0.125732
  13 H :    0.111039
  14 H :    0.109818
  15 H :    0.099966
  16 H :    0.220459
  17 H :    0.236410
Sum of atomic charges:    0.0000000

LOEWDIN ATOMIC CHARGES
----------------------
   0 C :   -0.312509
   1 O :    0.201880
   2 C :   -0.224327
   3 C :   -0.146686
   4 C :   -0.165195
   5 C :   -0.158935
   6 C :   -0.136759
   7 C :   -0.216905
   8 N :   -0.051581
   9 H :    0.111556
  10 H :    0.106075
  11 H :    0.106921
  12 H :    0.144803
  13 H :    0.138896
  14 H :    0.140011
  15 H :    0.139984
  16 H :    0.159921
  17 H :    0.162852

  Mayer bond orders larger than 0.100000
B(  0-C ,  1-O ) :   0.9609 B(  0-C ,  9-H ) :   0.9783 B(  0-C , 10-H ) :   0.9744
B(  0-C , 11-H ) :   0.9741 B(  1-O ,  2-C ) :   1.0962 B(  2-C ,  3-C ) :   1.4012
B(  2-C ,  7-C ) :   1.3469 B(  3-C ,  4-C ) :   1.3941 B(  3-C , 12-H ) :   0.9612
B(  4-C ,  5-C ) :   1.4792 B(  4-C , 13-H ) :   0.9707 B(  5-C ,  6-C ) :   1.4372
B(  5-C , 14-H ) :   0.9763 B(  6-C ,  7-C ) :   1.4361 B(  6-C , 15-H ) :   0.9715
B(  7-C ,  8-N ) :   1.0921 B(  8-N , 16-H ) :   0.9302 B(  8-N , 17-H ) :   0.9146

FINAL SINGLE POINT ENERGY      -402.148749778174

DIPOLE MOMENT
-------------

Method             : SCF
Type of density    : Electron Density
Multiplicity       :   1
Irrep              :   0
Energy             :  -402.1594542341742908 Eh
Relativity type    :
Basis              : AO
                                X                 Y                 Z
Electronic contribution:      1.982053670       1.759133633      -0.237071133
Nuclear contribution   :     -2.428308691      -1.777571798       0.649284231
                        -----------------------------------------
Total Dipole Moment    :     -0.446255021      -0.018438165       0.412213099
                        -----------------------------------------
Magnitude (a.u.)       :      0.607785446
Magnitude (Debye)      :      1.544867831

Rotational constants in cm-1:             0.085160             0.051949             0.032500
Rotational constants in MHz :          2553.039053          1557.398134           974.323956

                             ****ORCA TERMINATED NORMALLY****
TOTAL RUN TIME: 0 days 0 hours 3 minutes 16 seconds 834 msec
