                         Program Version 6.0.0  -   RELEASE  -
|  1> ! wb97x-v def2-tzvp def2/J RIJCOSX DEFGRID2 scfconv7 GCP(DFT/TZ) printgap
|  2> %output
|  3>     printlevel normal
|  4> end
|  5> %cpcm
|  6>     smd true
|  7>     smdsolvent "water"
|  8> end
|  9> * xyz 0 1
| 10> C -2.7683198248040597 -0.7810490758565788 -0.006638548381840615
| 11> O -1.798871139163722 0.2751805692258261 -0.025365652092197693
| 12> C -0.4718313668434955 -0.09016864883221014 -0.015870139511170805
| 13> C -0.012277269451386307 -1.4020624595575066 -0.010000802564075971
| 14> C 1.3614751857308944 -1.6637888170161643 -0.0006721156083515999
| 15> C 2.265614776921967 -0.6092455085873304 0.006251356928257502
| 16> C 1.803838463654151 0.7061759522375513 0.003730687279989838
| 17> C 0.43736961341335634 0.9919299904141964 -0.01033039086513685
| 18> N -0.03848347268759974 2.2990008888911575 -0.08337505770013554
| 19> H -3.7417083523962082 -0.28921840891098843 -0.005956461756109217
| 20> H -2.6652305623229413 -1.3931995496170664 0.8965966936116591
| 21> H -2.6773816222316604 -1.4136844619581292 -0.8970235340794568
| 22> H -0.7126897524955 -2.2285872728486567 -0.011681510985170868
| 23> H 1.7084128143752368 -2.6916016163482364 0.0032809186004230657
| 24> H 3.3337406259628812 -0.8008063761672122 0.01751007575738172
| 25> H 2.5072964361184713 1.5345385552179234 0.011822061058587274
| 26> H 0.6134367889279042 2.9840227328256734 0.27344033953129127
| 27> H -0.963602309318868 2.4229356326103293 0.30389731115379864
| 28> *
| 29>
| 30>                          ****END OF INPUT****

CARTESIAN COORDINATES (ANGSTROEM)
---------------------------------
  C     -2.768320   -0.781049   -0.006639
  O     -1.798871    0.275181   -0.025366
  C     -0.471831   -0.090169   -0.015870
  C     -0.012277   -1.402062   -0.010001
  C      1.361475   -1.663789   -0.000672
  C      2.265615   -0.609246    0.006251
  C      1.803838    0.706176    0.003731
  C      0.437370    0.991930   -0.010330
  N     -0.038483    2.299001   -0.083375
  H     -3.741708   -0.289218   -0.005956
  H     -2.665231   -1.393200    0.896597
  H     -2.677382   -1.413684   -0.897024
  H     -0.712690   -2.228587   -0.011682
  H      1.708413   -2.691602    0.003281
  H      3.333741   -0.800806    0.017510
  H      2.507296    1.534539    0.011822
  H      0.613437    2.984023    0.273440
  H     -0.963602    2.422936    0.303897

 Total Charge           Charge          ....    0
 Multiplicity           Mult            ....    1
 Number of Electrons    NEL             ....   66
 Basis Dimension        Dim             ....  333

ORBITAL ENERGIES
----------------

  NO   OCC          E(Eh)            E(eV)
   0   2.0000     -21.703604      -590.5851
   1   2.0000     -16.521144      -449.5632
   2   2.0000     -12.105094      -329.3964
   3   2.0000     -12.087700      -328.9230
   4   2.0000     -12.087425      -328.9156
   5   2.0000     -12.046424      -327.7999
   6   2.0000     -12.043452      -327.7190
   7   2.0000     -12.041622      -327.6692
   8   2.0000     -12.039933      -327.6232
   9   2.0000      -1.715993       -46.6946
  10   2.0000      -1.482825       -40.3497
  11   2.0000      -1.371090       -37.3093
  12   2.0000      -1.290250       -35.1095
  13   2.0000      -1.264427       -34.4068
  14   2.0000      -1.217257       -33.1232
  15   2.0000      -1.116853       -30.3911
  16   2.0000      -1.104809       -30.0634
  17   2.0000      -1.044363       -28.4186
  18   2.0000      -1.007156       -27.4061
  19   2.0000      -0.998829       -27.1795
  20   2.0000      -0.977203       -26.5911
  21   2.0000      -0.964183       -26.2368
  22   2.0000      -0.920534       -25.0490
  23   2.0000      -0.914054       -24.8727
  24   2.0000      -0.886347       -24.1187
  25   2.0000      -0.833697       -22.6860
  26   2.0000      -0.824065       -22.4239
  27   2.0000      -0.822034       -22.3687
  28   2.0000      -0.811547       -22.0833
  29   2.0000      -0.803476       -21.8637
  30   2.0000      -0.744967       -20.2716
  31   2.0000      -0.638415       -17.3722
  32   2.0000      -0.616254       -16.7691
  33   0.0000      -0.243323        -6.6211
  34   0.0000      -0.237642        -6.4666
  35   0.0000      -0.179109        -4.8738
  36   0.0000      -0.112457        -3.0601
  37   0.0000      -0.067562        -1.8385

MULLIKEN ATOMIC CHARGES
-----------------------
   0 C :   -0.235241
   1 O :   -0.330710
   2 C :    0.206888
   3 C :   -0.260171
   4 C :   -0.225124
   5 C :   -0.165127
   6 C :   -0.280764
   7 C :    0.156564
   8 N :   -0.498547
   9 H :    0.156521
  10 H :    0.144454
  11 H :    0.144311
  12 H :    0.175109
  13 H :    0.158388
  14 H :    0.156771
  15 H :    0.153935
  16 H :    0.274059
  17 H :    0.268685
Sum of atomic charges:    0.0000000

LOEWDIN ATOMIC CHARGES
----------------------
   0 C :   -0.307556
   1 O :    0.185833
   2 C :   -0.235148
   3 C :   -0.149532
   4 C :   -0.181129
   5 C :   -0.174915
   6 C :   -0.145600
   7 C :   -0.230513
   8 N :   -0.062245
   9 H :    0.117573
  10 H :    0.113940
  11 H :    0.113944
  12 H :    0.157904
  13 H :    0.147919
  14 H :    0.148915
  15 H :    0.152805
  16 H :    0.176864
  17 H :    0.170942

  Mayer bond orders larger than 0.100000
B(  0-C ,  1-O ) :   0.9249 B(  0-C ,  9-H ) :   0.9702 B(  0-C , 10-H ) :   0.9716
B(  0-C , 11-H ) :   0.9704 B(  1-O ,  2-C ) :   1.0965 B(  2-C ,  3-C ) :   1.3952
B(  2-C ,  7-C ) :   1.3174 B(  3-C ,  4-C ) :   1.3637 B(  3-C , 12-H ) :   0.9623
B(  4-C ,  5-C ) :   1.4472 B(  4-C , 13-H ) :   0.9755 B(  5-C ,  6-C ) :   1.4018
B(  5-C , 14-H ) :   0.9784 B(  6-C ,  7-C ) :   1.4188 B(  6-C , 15-H ) :   0.9797
B(  7-C ,  8-N ) :   1.1245 B(  8-N , 16-H ) :   0.9078 B(  8-N , 17-H ) :   0.9044

FINAL SINGLE POINT ENERGY      -402.157522013352

DIPOLE MOMENT
-------------

Method             : SCF
Type of density    : Electron Density
Multiplicity       :   1
Irrep              :   0
Energy             :  -402.1682264693521915 Eh
Relativity type    :
Basis              : AO
                                X                 Y                 Z
Electronic contribution:      1.888174082       1.697978252      -0.080953765
Nuclear contribution   :     -2.428308691      -1.777571798       0.649284231
                        -----------------------------------------
Total Dipole Moment    :     -0.540134609      -0.079593546       0.568330466
                        -----------------------------------------
Magnitude (a.u.)       :      0.788086320
Magnitude (Debye)      :      2.003156231

Rotational constants in cm-1:             0.085160             0.051949             0.032500
Rotational constants in MHz :          2553.039053          1557.398134           974.323956

                             ****ORCA TERMINATED NORMALLY****
TOTAL RUN TIME: 0 days 0 hours 3 minutes 24 seconds 853 msec
