                         Program Version 6.0.0  -   RELEASE  -
|  1> ! pbe def2-sv(p) def2/J RI DEFGRID1 loosescf d4 GCP(DFT/SV(P)) printgap
|  2> %output
|  3>     printlevel normal
|  4> end
|  5> * xyz 0 1
|  6> C 2.4524543653 -0.0328350254 0.2776838525
|  7> C 1.0046723925 0.106944564 -0.06416497
|  8> C 0.3017869604 1.2264434737 0.0543308821
|  9> C -1.1477409833 1.2035364641 -0.3165350887
| 10> C -1.8472879902 0.0076362558 0.3502494569
| 11> C -1.0301873141 -1.2914626957 0.2374832685
| 12> C 0.2672557078 -1.1027412046 -0.5626139869
| 13> H 2.8658021985 0.9154948808 0.6113995654
| 14> H 3.0125000388 -0.3755760895 -0.5915662219
| 15> H 2.5822852856 -0.7707852245 1.0687002672
| 16> H 0.7366062624 2.1464932246 0.4150370276
| 17> H -1.6440070834 2.1295294241 -0.0254231054
| 18> H -1.2396648416 1.1024337501 -1.4029471697
| 19> H -2.0018272153 0.2471243372 1.4035186374
| 20> H -2.8312947457 -0.1214482743 -0.1025968139
| 21> H -0.7636335395 -1.6395290555 1.2368632899
| 22> H -1.6260456143 -2.0747419561 -0.2329200331
| 23> H 0.8834761971 -1.9985998571 -0.4816490848
| 24> H 0.0144446432 -0.960886003 -1.6175767308
| 25> *
| 26>
| 27>                          ****END OF INPUT****

CARTESIAN COORDINATES (ANGSTROEM)
---------------------------------
  C      2.452454   -0.032835    0.277684
  C      1.004672    0.106945   -0.064165
  C      0.301787    1.226443    0.054331
  C     -1.147741    1.203536   -0.316535
  C     -1.847288    0.007636    0.350249
  C     -1.030187   -1.291463    0.237483
  C      0.267256   -1.102741   -0.562614
  H      2.865802    0.915495    0.611400
  H      3.012500   -0.375576   -0.591566
  H      2.582285   -0.770785    1.068700
  H      0.736606    2.146493    0.415037
  H     -1.644007    2.129529   -0.025423
  H     -1.239665    1.102434   -1.402947
  H     -2.001827    0.247124    1.403519
  H     -2.831295   -0.121448   -0.102597
  H     -0.763634   -1.639529    1.236863
  H     -1.626046   -2.074742   -0.232920
  H      0.883476   -1.998600   -0.481649
  H      0.014445   -0.960886   -1.617577

 Total Charge           Charge          ....    0
 Multiplicity           Mult            ....    1
 Number of Electrons    NEL             ....   54
 Basis Dimension        Dim             ....  122

ORBITAL ENERGIES
----------------

  NO   OCC          E(Eh)            E(eV)
   0   2.0000      -9.883739      -268.9502
   1   2.0000      -9.881274      -268.8831
   2   2.0000      -9.880232      -268.8548
   3   2.0000      -9.880082      -268.8507
   4   2.0000      -9.878906      -268.8187
   5   2.0000      -9.875741      -268.7326
   6   2.0000      -9.869252      -268.5560
   7   2.0000      -0.755896       -20.5690
   8   2.0000      -0.681908       -18.5557
   9   2.0000      -0.657567       -17.8933
  10   2.0000      -0.608013       -16.5449
  11   2.0000      -0.547259       -14.8917
  12   2.0000      -0.512162       -13.9366
  13   2.0000      -0.441222       -12.0063
  14   2.0000      -0.430303       -11.7092
  15   2.0000      -0.416258       -11.3270
  16   2.0000      -0.379075       -10.3152
  17   2.0000      -0.367229        -9.9928
  18   2.0000      -0.347496        -9.4559
  19   2.0000      -0.344928        -9.3860
  20   2.0000      -0.338727        -9.2172
  21   2.0000      -0.325552        -8.8587
  22   2.0000      -0.310932        -8.4609
  23   2.0000      -0.280171        -7.6239
  24   2.0000      -0.273969        -7.4551
  25   2.0000      -0.255554        -6.9540
  26   2.0000      -0.199000        -5.4151
  27   0.0000      -0.001850        -0.0504
  28   0.0000       0.033366         0.9079
  29   0.0000       0.061216         1.6658
  30   0.0000       0.066698         1.8149
  31   0.0000       0.076772         2.0891

MULLIKEN ATOMIC CHARGES
-----------------------
   0 C :   -0.207088
   1 C :   -0.092949
   2 C :   -0.212028
   3 C :   -0.076600
   4 C :   -0.151477
   5 C :   -0.155157
   6 C :   -0.085893
   7 H :    0.094973
   8 H :    0.105945
   9 H :    0.104504
  10 H :    0.037845
  11 H :    0.081216
  12 H :    0.084910
  13 H :    0.079064
  14 H :    0.077076
  15 H :    0.080034
  16 H :    0.078304
  17 H :    0.073337
  18 H :    0.083984
Sum of atomic charges:    0.0000000

LOEWDIN ATOMIC CHARGES
----------------------
   0 C :   -0.322364
   1 C :   -0.070507
   2 C :   -0.163781
   3 C :   -0.223807
   4 C :   -0.225083
   5 C :   -0.222778
   6 C :   -0.214244
   7 H :    0.122100
   8 H :    0.126356
   9 H :    0.126211
  10 H :    0.113669
  11 H :    0.119866
  12 H :    0.122858
  13 H :    0.118394
  14 H :    0.115491
  15 H :    0.117906
  16 H :    0.116190
  17 H :    0.117533
  18 H :    0.125989

  Mayer bond orders larger than 0.100000
B(  0-C ,  1-C ) :   1.1436 B(  0-C ,  7-H ) :   0.9444 B(  0-C ,  8-H ) :   0.9310
B(  0-C ,  9-H ) :   0.9288 B(  1-C ,  2-C ) :   1.8899 B(  1-C ,  6-C ) :   1.0995
B(  2-C ,  3-C ) :   1.0874 B(  2-C , 10-H ) :   0.9482 B(  3-C ,  4-C ) :   1.1628
B(  3-C , 11-H ) :   0.9177 B(  3-C , 12-H ) :   0.8821 B(  4-C ,  5-C ) :   1.1337
B(  4-C , 13-H ) :   0.9217 B(  4-C , 14-H ) :   0.9172 B(  5-C ,  6-C ) :   1.1651
B(  5-C , 15-H ) :   0.9213 B(  5-C , 16-H ) :   0.9171 B(  6-C , 17-H ) :   0.9138
B(  6-C , 18-H ) :   0.8741

Dispersion correction           -0.016827927
FINAL SINGLE POINT ENERGY      -273.283104443607

DIPOLE MOMENT
-------------

Method             : SCF
Type of density    : Electron Density
Multiplicity       :   1
Irrep              :   0
Energy             :  -273.3433054560708797 Eh
Relativity type    :
Basis              : AO
                                X                 Y                 Z
Electronic contribution:      0.013030355       1.197604191      -0.283756498
Nuclear contribution   :     -0.010656063      -1.313891086       0.263473828
                        -----------------------------------------
Total Dipole Moment    :      0.002374291      -0.116286896      -0.020282670
                        -----------------------------------------
Magnitude (a.u.)       :      0.118066363
Magnitude (Debye)      :      0.300100845

Rotational constants in cm-1:             0.149148             0.076740             0.057073
Rotational constants in MHz :          4471.344365          2300.604001          1711.015004

                             ****ORCA TERMINATED NORMALLY****
TOTAL RUN TIME: 0 days 0 hours 0 minutes 6 seconds 968 msec
