                         Program Version 6.0.0  -   RELEASE  -
|  1> ! pbe def2-sv(p) def2/J RI DEFGRID1 loosescf d4 GCP(DFT/SV(P)) printgap
|  2> %output
|  3>     printlevel normal
|  4> end
|  5> * xyz 0 1
|  6> C -2.2564667602 -0.960893506 0.77292122
|  7> C -0.8142977884 -0.4431517933 0.7515457006
|  8> H -0.5341097144 -0.1337891887 1.7679942227
|  9> C -0.6376055273 0.7567372974 -0.1935781807
| 10> H -0.8099083432 0.4077409477 -1.2204831262
| 11> C 0.8035284455 1.2889908166 -0.0888939041
| 12> H 0.814214138 2.0764053984 0.6719141479
| 13> C 1.7784917376 0.1769770375 0.3546537274
| 14> H 2.7491636007 0.3893044704 -0.1139639066
| 15> C 1.2738680541 -1.1730641305 -0.1820319841
| 16> H 1.9502553284 -1.9882153767 0.1241190045
| 17> O 0.0247572589 -1.5258445963 0.3504687139
| 18> O 1.2405366427 -1.0693451238 -1.5751989554
| 19> O 1.8772390892 0.1813134742 1.754198953
| 20> O 1.2311596022 1.891021711 -1.280359837
| 21> O -1.5199215225 1.8027718757 0.1263958923
| 22> O -2.8286338907 -0.8590143088 -0.5129872324
| 23> H -2.8282979363 -0.3654615433 1.4947279058
| 24> H -2.2179056281 -2.0020893866 1.1089366447
| 25> H 0.9250813117 -1.9022621582 -1.9592383639
| 26> H 2.6111073856 -0.3825221569 2.040011603
| 27> H 1.2458669557 1.2174711384 -1.9793985695
| 28> H -2.4007414131 1.575197193 -0.205702853
| 29> H -3.6617059698 -1.3498071025 -0.5303084866
| 30> *
| 31>
| 32>                          ****END OF INPUT****

CARTESIAN COORDINATES (ANGSTROEM)
---------------------------------
  C     -2.256467   -0.960894    0.772921
  C     -0.814298   -0.443152    0.751546
  H     -0.534110   -0.133789    1.767994
  C     -0.637606    0.756737   -0.193578
  H     -0.809908    0.407741   -1.220483
  C      0.803528    1.288991   -0.088894
  H      0.814214    2.076405    0.671914
  C      1.778492    0.176977    0.354654
  H      2.749164    0.389304   -0.113964
  C      1.273868   -1.173064   -0.182032
  H      1.950255   -1.988215    0.124119
  O      0.024757   -1.525845    0.350469
  O      1.240537   -1.069345   -1.575199
  O      1.877239    0.181313    1.754199
  O      1.231160    1.891022   -1.280360
  O     -1.519922    1.802772    0.126396
  O     -2.828634   -0.859014   -0.512987
  H     -2.828298   -0.365462    1.494728
  H     -2.217906   -2.002089    1.108937
  H      0.925081   -1.902262   -1.959238
  H      2.611107   -0.382522    2.040012
  H      1.245867    1.217471   -1.979399
  H     -2.400741    1.575197   -0.205703
  H     -3.661706   -1.349807   -0.530308

 Total Charge           Charge          ....    0
 Multiplicity           Mult            ....    1
 Number of Electrons    NEL             ....   96
 Basis Dimension        Dim             ....  192

ORBITAL ENERGIES
----------------

  NO   OCC          E(Eh)            E(eV)
   0   2.0000     -18.770461      -510.7702
   1   2.0000     -18.761626      -510.5298
   2   2.0000     -18.760249      -510.4923
   3   2.0000     -18.758096      -510.4337
   4   2.0000     -18.736476      -509.8454
   5   2.0000     -18.728479      -509.6278
   6   2.0000      -9.985566      -271.7211
   7   2.0000      -9.938525      -270.4410
   8   2.0000      -9.934742      -270.3381
   9   2.0000      -9.931686      -270.2549
  10   2.0000      -9.926316      -270.1088
  11   2.0000      -9.924754      -270.0663
  12   2.0000      -0.980121       -26.6704
  13   2.0000      -0.936087       -25.4722
  14   2.0000      -0.934126       -25.4189
  15   2.0000      -0.918086       -24.9824
  16   2.0000      -0.912149       -24.8208
  17   2.0000      -0.901584       -24.5334
  18   2.0000      -0.693831       -18.8801
  19   2.0000      -0.686032       -18.6679
  20   2.0000      -0.619809       -16.8658
  21   2.0000      -0.576413       -15.6850
  22   2.0000      -0.556070       -15.1314
  23   2.0000      -0.513661       -13.9774
  24   2.0000      -0.499672       -13.5968
  25   2.0000      -0.476234       -12.9590
  26   2.0000      -0.474082       -12.9004
  27   2.0000      -0.459493       -12.5034
  28   2.0000      -0.439763       -11.9666
  29   2.0000      -0.435881       -11.8609
  30   2.0000      -0.411264       -11.1911
  31   2.0000      -0.388889       -10.5822
  32   2.0000      -0.376768       -10.2524
  33   2.0000      -0.358301        -9.7499
  34   2.0000      -0.355853        -9.6832
  35   2.0000      -0.348901        -9.4941
  36   2.0000      -0.334128        -9.0921
  37   2.0000      -0.305218        -8.3054
  38   2.0000      -0.294849        -8.0233
  39   2.0000      -0.290643        -7.9088
  40   2.0000      -0.276136        -7.5140
  41   2.0000      -0.261561        -7.1174
  42   2.0000      -0.249773        -6.7967
  43   2.0000      -0.234192        -6.3727
  44   2.0000      -0.228889        -6.2284
  45   2.0000      -0.217270        -5.9122
  46   2.0000      -0.204276        -5.5586
  47   2.0000      -0.194838        -5.3018
  48   0.0000       0.013428         0.3654
  49   0.0000       0.016695         0.4543
  50   0.0000       0.024204         0.6586
  51   0.0000       0.062877         1.7110
  52   0.0000       0.071425         1.9436

MULLIKEN ATOMIC CHARGES
-----------------------
   0 C :    0.032458
   1 C :    0.044280
   2 H :    0.072799
   3 C :    0.043499
   4 H :    0.046674
   5 C :    0.123392
   6 H :    0.077506
   7 C :   -0.002874
   8 H :    0.073943
   9 C :    0.166911
  10 H :    0.045766
  11 O :   -0.316435
  12 O :   -0.399877
  13 O :   -0.405210
  14 O :   -0.428546
  15 O :   -0.413377
  16 O :   -0.440354
  17 H :    0.076074
  18 H :    0.084914
  19 H :    0.307343
  20 H :    0.303145
  21 H :    0.298825
  22 H :    0.303959
  23 H :    0.305186
Sum of atomic charges:    0.0000000

LOEWDIN ATOMIC CHARGES
----------------------
   0 C :   -0.132130
   1 C :   -0.068064
   2 H :    0.114429
   3 C :   -0.079157
   4 H :    0.104633
   5 C :   -0.053857
   6 H :    0.128057
   7 C :   -0.089788
   8 H :    0.109914
   9 C :   -0.011392
  10 H :    0.087671
  11 O :   -0.149988
  12 O :   -0.314748
  13 O :   -0.306757
  14 O :   -0.312680
  15 O :   -0.316825
  16 O :   -0.342615
  17 H :    0.099511
  18 H :    0.108252
  19 H :    0.288981
  20 H :    0.288847
  21 H :    0.274750
  22 H :    0.282879
  23 H :    0.290075

  Mayer bond orders larger than 0.100000
B(  0-C ,  1-C ) :   1.0449 B(  0-C , 16-O ) :   1.0738 B(  0-C , 17-H ) :   0.9129
B(  0-C , 18-H ) :   0.9169 B(  1-C ,  2-H ) :   0.8676 B(  1-C ,  3-C ) :   1.0571
B(  1-C , 11-O ) :   0.9596 B(  3-C ,  4-H ) :   0.8404 B(  3-C ,  5-C ) :   1.0389
B(  3-C , 15-O ) :   1.0948 B(  5-C ,  6-H ) :   0.8528 B(  5-C ,  7-C ) :   0.9951
B(  5-C , 14-O ) :   1.0475 B(  7-C ,  8-H ) :   0.8862 B(  7-C ,  9-C ) :   1.0186
B(  7-C , 13-O ) :   1.0389 B(  9-C , 10-H ) :   0.8944 B(  9-C , 11-O ) :   1.0901
B(  9-C , 12-O ) :   1.1058 B( 12-O , 19-H ) :   0.8366 B( 13-O , 20-H ) :   0.8459
B( 14-O , 21-H ) :   0.8371 B( 15-O , 22-H ) :   0.8381 B( 16-O , 23-H ) :   0.8486

Dispersion correction           -0.025028451
FINAL SINGLE POINT ENERGY      -685.690014773691

DIPOLE MOMENT
-------------

Method             : SCF
Type of density    : Electron Density
Multiplicity       :   1
Irrep              :   0
Energy             :  -685.8206241590352192 Eh
Relativity type    :
Basis              : AO
                                X                 Y                 Z
Electronic contribution:      1.614847878       0.526174960      -1.151249032
Nuclear contribution   :     -2.023242054      -2.299812734       1.107647194
                        -----------------------------------------
Total Dipole Moment    :     -0.408394176      -1.773637774      -0.043601838
                        -----------------------------------------
Magnitude (a.u.)       :      1.820570756
Magnitude (Debye)      :      4.627523107

Rotational constants in cm-1:             0.041448             0.026815             0.023271
Rotational constants in MHz :          1242.575231           803.895125           697.635699

                             ****ORCA TERMINATED NORMALLY****
TOTAL RUN TIME: 0 days 0 hours 0 minutes 12 seconds 193 msec
