                         Program Version 6.0.0  -   RELEASE  -
|  1> ! pbe def2-sv(p) def2/J RI DEFGRID1 loosescf d4 GCP(DFT/SV(P)) printgap
|  2> %output
|  3>     printlevel normal
|  4> end
|  5> * xyz 0 1
|  6> C -2.5343618478 -0.7072372845 -0.3947643238
|  7> C -1.1599566861 -0.3432707138 0.1639785984
|  8> H -1.2263327321 -0.3349963358 1.2635444887
|  9> C -0.7004772171 1.0454639564 -0.3332244017
| 10> H -0.6816636555 1.0470505753 -1.4284672105
| 11> C 0.7198518948 1.3238700826 0.1797733427
| 12> H 0.6977957231 1.4016046245 1.2806439683
| 13> C 1.6488529475 0.1607804138 -0.1889565158
| 14> H 1.7494561066 0.123750177 -1.2849467321
| 15> C 1.0407130106 -1.1708680283 0.2977379877
| 16> H 1.0075593367 -1.160668651 1.4021352889
| 17> O -0.2433199503 -1.3438103521 -0.2391412877
| 18> O 1.8263002537 -2.2486799404 -0.073503249
| 19> O 2.8974227666 0.3971004695 0.4131149266
| 20> O 1.1712532694 2.531904803 -0.376086986
| 21> O -1.6103627536 2.0469321484 0.0235292923
| 22> O -3.1490367419 -1.6266346719 0.4781169911
| 23> H -2.3913332231 -1.1412008225 -1.3903937128
| 24> H -3.1244698243 0.2140774821 -0.472032924
| 25> H 1.5350123771 -2.5650787259 -0.9431741675
| 26> H 3.4459917688 -0.396981802 0.324045382
| 27> H 2.1005711343 2.653887963 -0.1287369444
| 28> H -1.5369754184 2.2436567387 0.9690764693
| 29> H -3.9966853244 -1.9039348934 0.1028733912
| 30> *
| 31>
| 32>                          ****END OF INPUT****

CARTESIAN COORDINATES (ANGSTROEM)
---------------------------------
  C     -2.534362   -0.707237   -0.394764
  C     -1.159957   -0.343271    0.163979
  H     -1.226333   -0.334996    1.263544
  C     -0.700477    1.045464   -0.333224
  H     -0.681664    1.047051   -1.428467
  C      0.719852    1.323870    0.179773
  H      0.697796    1.401605    1.280644
  C      1.648853    0.160780   -0.188957
  H      1.749456    0.123750   -1.284947
  C      1.040713   -1.170868    0.297738
  H      1.007559   -1.160669    1.402135
  O     -0.243320   -1.343810   -0.239141
  O      1.826300   -2.248680   -0.073503
  O      2.897423    0.397100    0.413115
  O      1.171253    2.531905   -0.376087
  O     -1.610363    2.046932    0.023529
  O     -3.149037   -1.626635    0.478117
  H     -2.391333   -1.141201   -1.390394
  H     -3.124470    0.214077   -0.472033
  H      1.535012   -2.565079   -0.943174
  H      3.445992   -0.396982    0.324045
  H      2.100571    2.653888   -0.128737
  H     -1.536975    2.243657    0.969076
  H     -3.996685   -1.903935    0.102873

 Total Charge           Charge          ....    0
 Multiplicity           Mult            ....    1
 Number of Electrons    NEL             ....   96
 Basis Dimension        Dim             ....  192

ORBITAL ENERGIES
----------------

  NO   OCC          E(Eh)            E(eV)
   0   2.0000     -18.776281      -510.9286
   1   2.0000     -18.767958      -510.7021
   2   2.0000     -18.759924      -510.4835
   3   2.0000     -18.754899      -510.3467
   4   2.0000     -18.747090      -510.1342
   5   2.0000     -18.746360      -510.1144
   6   2.0000      -9.989094      -271.8171
   7   2.0000      -9.946718      -270.6640
   8   2.0000      -9.945348      -270.6267
   9   2.0000      -9.944989      -270.6169
  10   2.0000      -9.940144      -270.4851
  11   2.0000      -9.930682      -270.2276
  12   2.0000      -0.990965       -26.9655
  13   2.0000      -0.944690       -25.7063
  14   2.0000      -0.938826       -25.5468
  15   2.0000      -0.924701       -25.1624
  16   2.0000      -0.917028       -24.9536
  17   2.0000      -0.913787       -24.8654
  18   2.0000      -0.705281       -19.1917
  19   2.0000      -0.693567       -18.8729
  20   2.0000      -0.617430       -16.8011
  21   2.0000      -0.586508       -15.9597
  22   2.0000      -0.553206       -15.0535
  23   2.0000      -0.546179       -14.8623
  24   2.0000      -0.503344       -13.6967
  25   2.0000      -0.495674       -13.4880
  26   2.0000      -0.477448       -12.9920
  27   2.0000      -0.460267       -12.5245
  28   2.0000      -0.444959       -12.1079
  29   2.0000      -0.436269       -11.8715
  30   2.0000      -0.416727       -11.3397
  31   2.0000      -0.404890       -11.0176
  32   2.0000      -0.387574       -10.5464
  33   2.0000      -0.367561       -10.0018
  34   2.0000      -0.360317        -9.8047
  35   2.0000      -0.351921        -9.5762
  36   2.0000      -0.326797        -8.8926
  37   2.0000      -0.321282        -8.7425
  38   2.0000      -0.308348        -8.3906
  39   2.0000      -0.299650        -8.1539
  40   2.0000      -0.281133        -7.6500
  41   2.0000      -0.273946        -7.4545
  42   2.0000      -0.261194        -7.1074
  43   2.0000      -0.246011        -6.6943
  44   2.0000      -0.228073        -6.2062
  45   2.0000      -0.221590        -6.0298
  46   2.0000      -0.213518        -5.8101
  47   2.0000      -0.201001        -5.4695
  48   0.0000       0.016286         0.4432
  49   0.0000       0.023824         0.6483
  50   0.0000       0.031295         0.8516
  51   0.0000       0.043576         1.1858
  52   0.0000       0.050151         1.3647

MULLIKEN ATOMIC CHARGES
-----------------------
   0 C :    0.077354
   1 C :    0.007555
   2 H :    0.052657
   3 C :    0.060116
   4 H :    0.067974
   5 C :    0.068594
   6 H :    0.037285
   7 C :    0.031514
   8 H :    0.043461
   9 C :    0.183682
  10 H :    0.053189
  11 O :   -0.303184
  12 O :   -0.392720
  13 O :   -0.425389
  14 O :   -0.405190
  15 O :   -0.400747
  16 O :   -0.434866
  17 H :    0.069072
  18 H :    0.084504
  19 H :    0.307606
  20 H :    0.307733
  21 H :    0.308490
  22 H :    0.301320
  23 H :    0.299990
Sum of atomic charges:    0.0000000

LOEWDIN ATOMIC CHARGES
----------------------
   0 C :   -0.127031
   1 C :   -0.063801
   2 H :    0.105645
   3 C :   -0.067872
   4 H :    0.121152
   5 C :   -0.074431
   6 H :    0.095964
   7 C :   -0.100888
   8 H :    0.100861
   9 C :   -0.003473
  10 H :    0.095802
  11 O :   -0.145458
  12 O :   -0.300267
  13 O :   -0.325973
  14 O :   -0.317431
  15 O :   -0.298047
  16 O :   -0.344192
  17 H :    0.101878
  18 H :    0.105068
  19 H :    0.291636
  20 H :    0.288335
  21 H :    0.288700
  22 H :    0.287361
  23 H :    0.286462

  Mayer bond orders larger than 0.100000
B(  0-C ,  1-C ) :   1.0661 B(  0-C , 16-O ) :   1.1049 B(  0-C , 17-H ) :   0.9003
B(  0-C , 18-H ) :   0.9096 B(  1-C ,  2-H ) :   0.8731 B(  1-C ,  3-C ) :   0.9680
B(  1-C , 11-O ) :   0.9807 B(  3-C ,  4-H ) :   0.8679 B(  3-C ,  5-C ) :   1.0148
B(  3-C , 15-O ) :   1.0389 B(  5-C ,  6-H ) :   0.8675 B(  5-C ,  7-C ) :   1.0069
B(  5-C , 14-O ) :   1.1121 B(  7-C ,  8-H ) :   0.8616 B(  7-C ,  9-C ) :   0.9712
B(  7-C , 13-O ) :   1.0663 B(  9-C , 10-H ) :   0.8791 B(  9-C , 11-O ) :   1.0281
B(  9-C , 12-O ) :   1.1158 B( 12-O , 19-H ) :   0.8393 B( 13-O , 20-H ) :   0.8325
B( 14-O , 21-H ) :   0.8387 B( 15-O , 22-H ) :   0.8459 B( 16-O , 23-H ) :   0.8514

Dispersion correction           -0.023500161
FINAL SINGLE POINT ENERGY      -685.694590567221

DIPOLE MOMENT
-------------

Method             : SCF
Type of density    : Electron Density
Multiplicity       :   1
Irrep              :   0
Energy             :  -685.8239037190091949 Eh
Relativity type    :
Basis              : AO
                                X                 Y                 Z
Electronic contribution:      2.223062397      -0.559931080       0.096463793
Nuclear contribution   :     -2.258160697       0.166362138      -0.283199320
                        -----------------------------------------
Total Dipole Moment    :     -0.035098300      -0.393568943      -0.186735527
                        -----------------------------------------
Magnitude (a.u.)       :      0.437033820
Magnitude (Debye)      :      1.110851691

Rotational constants in cm-1:             0.039738             0.025393             0.016317
Rotational constants in MHz :          1191.300823           761.265190           489.162692

                             ****ORCA TERMINATED NORMALLY****
TOTAL RUN TIME: 0 days 0 hours 0 minutes 11 seconds 902 msec
