                         Program Version 6.0.0  -   RELEASE  -
|  1> ! pbe def2-sv(p) def2/J RI DEFGRID1 loosescf d4 GCP(DFT/SV(P)) printgap
|  2> %output
|  3>     printlevel normal
|  4> end
|  5> * xyz 0 1
|  6> C -1.9391325213 0.4343667288 -0.2071299154
|  7> C -0.8915644552 -0.5544159973 0.2976538174
|  8> C 0.5466488321 -0.1545489744 0.0282641805
|  9> O 1.3979062998 -0.9842279996 -0.287269121
| 10> N 0.845492677 1.1399777281 0.1784534759
| 11> H -1.943732098 1.3504086984 0.3770394227
| 12> H -1.7613231461 0.6797792418 -1.2510948673
| 13> H -2.925450462 -0.014805868 -0.1259650193
| 14> H -1.0371252482 -1.5313127404 -0.16610897
| 15> H -0.9923707837 -0.6878171017 1.3775006032
| 16> H 0.1462799786 1.81388423 0.4356176726
| 17> H 1.7919626891 1.4434751435 0.0175917159
| 18> *
| 19>
| 20>                          ****END OF INPUT****

CARTESIAN COORDINATES (ANGSTROEM)
---------------------------------
  C     -1.939133    0.434367   -0.207130
  C     -0.891564   -0.554416    0.297654
  C      0.546649   -0.154549    0.028264
  O      1.397906   -0.984228   -0.287269
  N      0.845493    1.139978    0.178453
  H     -1.943732    1.350409    0.377039
  H     -1.761323    0.679779   -1.251095
  H     -2.925450   -0.014806   -0.125965
  H     -1.037125   -1.531313   -0.166109
  H     -0.992371   -0.687817    1.377501
  H      0.146280    1.813884    0.435618
  H      1.791963    1.443475    0.017592

 Total Charge           Charge          ....    0
 Multiplicity           Mult            ....    1
 Number of Electrons    NEL             ....   40
 Basis Dimension        Dim             ....   84

ORBITAL ENERGIES
----------------

  NO   OCC          E(Eh)            E(eV)
   0   2.0000     -18.698546      -508.8133
   1   2.0000     -14.009698      -381.2233
   2   2.0000      -9.973727      -271.3989
   3   2.0000      -9.892079      -269.1772
   4   2.0000      -9.891261      -269.1549
   5   2.0000      -0.917772       -24.9739
   6   2.0000      -0.816396       -22.2153
   7   2.0000      -0.701375       -19.0854
   8   2.0000      -0.587457       -15.9855
   9   2.0000      -0.527149       -14.3444
  10   2.0000      -0.496329       -13.5058
  11   2.0000      -0.422841       -11.5061
  12   2.0000      -0.398200       -10.8356
  13   2.0000      -0.374209       -10.1827
  14   2.0000      -0.349523        -9.5110
  15   2.0000      -0.323812        -8.8114
  16   2.0000      -0.322407        -8.7731
  17   2.0000      -0.305620        -8.3163
  18   2.0000      -0.222609        -6.0575
  19   2.0000      -0.185507        -5.0479
  20   0.0000       0.002956         0.0804
  21   0.0000       0.019159         0.5213
  22   0.0000       0.068053         1.8518
  23   0.0000       0.070817         1.9270
  24   0.0000       0.087616         2.3841

MULLIKEN ATOMIC CHARGES
-----------------------
   0 C :   -0.310692
   1 C :   -0.195597
   2 C :    0.021354
   3 O :   -0.222143
   4 N :   -0.308021
   5 H :    0.100741
   6 H :    0.120234
   7 H :    0.114195
   8 H :    0.106752
   9 H :    0.117789
  10 H :    0.223615
  11 H :    0.231773
Sum of atomic charges:    0.0000000

LOEWDIN ATOMIC CHARGES
----------------------
   0 C :   -0.345611
   1 C :   -0.258488
   2 C :    0.006853
   3 O :   -0.214313
   4 N :   -0.291102
   5 H :    0.112218
   6 H :    0.124798
   7 H :    0.127878
   8 H :    0.136788
   9 H :    0.137816
  10 H :    0.228810
  11 H :    0.234353

  Mayer bond orders larger than 0.100000
B(  0-C ,  1-C ) :   1.1281 B(  0-C ,  5-H ) :   0.9425 B(  0-C ,  6-H ) :   0.9589
B(  0-C ,  7-H ) :   0.9473 B(  1-C ,  2-C ) :   1.0090 B(  1-C ,  8-H ) :   0.9132
B(  1-C ,  9-H ) :   0.9061 B(  2-C ,  3-O ) :   2.1116 B(  2-C ,  4-N ) :   1.2791
B(  4-N , 10-H ) :   0.8657 B(  4-N , 11-H ) :   0.8649

Dispersion correction           -0.007556374
FINAL SINGLE POINT ENERGY      -247.971597203369

DIPOLE MOMENT
-------------

Method             : SCF
Type of density    : Electron Density
Multiplicity       :   1
Irrep              :   0
Energy             :  -248.0175582322504795 Eh
Relativity type    :
Basis              : AO
                                X                 Y                 Z
Electronic contribution:      5.526531771      -1.619426430      -0.260083177
Nuclear contribution   :     -6.280747294       2.856471634       0.620206347
                        -----------------------------------------
Total Dipole Moment    :     -0.754215523       1.237045204       0.360123170
                        -----------------------------------------
Magnitude (a.u.)       :      1.492920155
Magnitude (Debye)      :      3.794701463

Rotational constants in cm-1:             0.303382             0.130185             0.098376
Rotational constants in MHz :          9095.173060          3902.857697          2949.225591

                             ****ORCA TERMINATED NORMALLY****
TOTAL RUN TIME: 0 days 0 hours 0 minutes 4 seconds 369 msec
