                         Program Version 6.0.0  -   RELEASE  -
|  1> ! pbe def2-sv(p) def2/J RI DEFGRID1 loosescf d4 GCP(DFT/SV(P)) printgap
|  2> %output
|  3>     printlevel normal
|  4> end
|  5> * xyz 0 1
|  6> C -2.4349302823 -0.2170179763 -0.5953174724
|  7> C -1.2179479277 -0.2174887624 0.3367985191
|  8> H -1.514336629 -0.597612775 1.3287319269
|  9> C -0.6108694722 1.1924360717 0.5081536263
| 10> H -1.3678248545 1.9403045023 0.2440650678
| 11> C 0.580995392 1.365474441 -0.4459766713
| 12> H 1.0192707251 2.3575642902 -0.2596677864
| 13> C 1.6674221333 0.3180149552 -0.103715584
| 14> H 2.2838311352 0.1307332214 -0.9895094978
| 15> C 1.0058023405 -1.0175946989 0.327940604
| 16> H 0.950115863 -1.0436404287 1.4290537718
| 17> O -0.2843170273 -1.1269860143 -0.227249587
| 18> O 1.7310699444 -2.1324389095 -0.045220706
| 19> O 2.5529841644 0.8022661786 0.8703801034
| 20> O 0.1004579252 1.2662039598 -1.7590301002
| 21> O -0.1223478678 1.4056346439 1.8125742438
| 22> O -3.0501638834 -1.4777870489 -0.6542055359
| 23> H -2.1053162826 0.1107609464 -1.5880761879
| 24> H -3.1920779182 0.4707438071 -0.2153337674
| 25> H 1.6314464175 -2.2749922222 -0.9997169085
| 26> H 2.0418966978 1.0641135036 1.6531761983
| 27> H 0.80227867 1.5001957665 -2.3834461832
| 28> H -0.8582293858 1.5505342045 2.4239969137
| 29> H -2.3866957472 -2.1256541627 -0.9318729286
| 30> *
| 31>
| 32>                          ****END OF INPUT****

CARTESIAN COORDINATES (ANGSTROEM)
---------------------------------
  C     -2.434930   -0.217018   -0.595317
  C     -1.217948   -0.217489    0.336799
  H     -1.514337   -0.597613    1.328732
  C     -0.610869    1.192436    0.508154
  H     -1.367825    1.940305    0.244065
  C      0.580995    1.365474   -0.445977
  H      1.019271    2.357564   -0.259668
  C      1.667422    0.318015   -0.103716
  H      2.283831    0.130733   -0.989509
  C      1.005802   -1.017595    0.327941
  H      0.950116   -1.043640    1.429054
  O     -0.284317   -1.126986   -0.227250
  O      1.731070   -2.132439   -0.045221
  O      2.552984    0.802266    0.870380
  O      0.100458    1.266204   -1.759030
  O     -0.122348    1.405635    1.812574
  O     -3.050164   -1.477787   -0.654206
  H     -2.105316    0.110761   -1.588076
  H     -3.192078    0.470744   -0.215334
  H      1.631446   -2.274992   -0.999717
  H      2.041897    1.064114    1.653176
  H      0.802279    1.500196   -2.383446
  H     -0.858229    1.550534    2.423997
  H     -2.386696   -2.125654   -0.931873

 Total Charge           Charge          ....    0
 Multiplicity           Mult            ....    1
 Number of Electrons    NEL             ....   96
 Basis Dimension        Dim             ....  192

ORBITAL ENERGIES
----------------

  NO   OCC          E(Eh)            E(eV)
   0   2.0000     -18.780935      -511.0552
   1   2.0000     -18.769478      -510.7435
   2   2.0000     -18.766195      -510.6541
   3   2.0000     -18.753704      -510.3142
   4   2.0000     -18.741756      -509.9891
   5   2.0000     -18.739077      -509.9162
   6   2.0000      -9.981537      -271.6114
   7   2.0000      -9.957393      -270.9544
   8   2.0000      -9.949060      -270.7277
   9   2.0000      -9.945382      -270.6276
  10   2.0000      -9.936547      -270.3872
  11   2.0000      -9.928074      -270.1566
  12   2.0000      -0.983644       -26.7663
  13   2.0000      -0.956528       -26.0285
  14   2.0000      -0.941421       -25.6174
  15   2.0000      -0.924613       -25.1600
  16   2.0000      -0.917892       -24.9771
  17   2.0000      -0.905801       -24.6481
  18   2.0000      -0.707992       -19.2654
  19   2.0000      -0.683975       -18.6119
  20   2.0000      -0.618012       -16.8170
  21   2.0000      -0.587403       -15.9840
  22   2.0000      -0.566512       -15.4156
  23   2.0000      -0.530723       -14.4417
  24   2.0000      -0.512474       -13.9451
  25   2.0000      -0.495430       -13.4813
  26   2.0000      -0.480667       -13.0796
  27   2.0000      -0.460284       -12.5250
  28   2.0000      -0.445613       -12.1257
  29   2.0000      -0.432002       -11.7554
  30   2.0000      -0.420334       -11.4379
  31   2.0000      -0.396991       -10.8027
  32   2.0000      -0.379909       -10.3379
  33   2.0000      -0.374475       -10.1900
  34   2.0000      -0.362418        -9.8619
  35   2.0000      -0.352675        -9.5968
  36   2.0000      -0.327095        -8.9007
  37   2.0000      -0.316582        -8.6146
  38   2.0000      -0.313429        -8.5288
  39   2.0000      -0.305090        -8.3019
  40   2.0000      -0.284050        -7.7294
  41   2.0000      -0.272175        -7.4063
  42   2.0000      -0.250068        -6.8047
  43   2.0000      -0.243465        -6.6250
  44   2.0000      -0.242321        -6.5939
  45   2.0000      -0.226452        -6.1621
  46   2.0000      -0.209042        -5.6883
  47   2.0000      -0.192740        -5.2447
  48   0.0000      -0.000483        -0.0131
  49   0.0000       0.016695         0.4543
  50   0.0000       0.041236         1.1221
  51   0.0000       0.048699         1.3252
  52   0.0000       0.056754         1.5443

MULLIKEN ATOMIC CHARGES
-----------------------
   0 C :    0.065979
   1 C :    0.049884
   2 H :    0.055025
   3 C :   -0.029385
   4 H :    0.079299
   5 C :    0.060921
   6 H :    0.070013
   7 C :    0.057031
   8 H :    0.036657
   9 C :    0.214721
  10 H :    0.046766
  11 O :   -0.322996
  12 O :   -0.383063
  13 O :   -0.426069
  14 O :   -0.406291
  15 O :   -0.424156
  16 O :   -0.437506
  17 H :    0.091112
  18 H :    0.075683
  19 H :    0.297639
  20 H :    0.305590
  21 H :    0.307357
  22 H :    0.315720
  23 H :    0.300071
Sum of atomic charges:   -0.0000000

LOEWDIN ATOMIC CHARGES
----------------------
   0 C :   -0.131136
   1 C :   -0.072688
   2 H :    0.102042
   3 C :   -0.070902
   4 H :    0.112101
   5 C :   -0.075584
   6 H :    0.104616
   7 C :   -0.091577
   8 H :    0.107843
   9 C :    0.000437
  10 H :    0.096079
  11 O :   -0.162371
  12 O :   -0.291250
  13 O :   -0.313576
  14 O :   -0.311258
  15 O :   -0.314020
  16 O :   -0.337657
  17 H :    0.108544
  18 H :    0.111304
  19 H :    0.283895
  20 H :    0.276659
  21 H :    0.290703
  22 H :    0.295286
  23 H :    0.282508

  Mayer bond orders larger than 0.100000
B(  0-C ,  1-C ) :   1.0514 B(  0-C , 16-O ) :   1.0744 B(  0-C , 17-H ) :   0.9006
B(  0-C , 18-H ) :   0.9163 B(  1-C ,  2-H ) :   0.8883 B(  1-C ,  3-C ) :   0.9461
B(  1-C , 11-O ) :   0.9845 B(  3-C ,  4-H ) :   0.8991 B(  3-C ,  5-C ) :   1.0280
B(  3-C , 15-O ) :   1.0394 B(  5-C ,  6-H ) :   0.8917 B(  5-C ,  7-C ) :   0.9398
B(  5-C , 14-O ) :   1.0597 B(  7-C ,  8-H ) :   0.8837 B(  7-C ,  9-C ) :   0.9605
B(  7-C , 13-O ) :   1.0539 B(  9-C , 10-H ) :   0.8745 B(  9-C , 11-O ) :   1.0348
B(  9-C , 12-O ) :   1.1350 B( 12-O , 19-H ) :   0.8449 B( 13-O , 20-H ) :   0.8272
B( 14-O , 21-H ) :   0.8446 B( 15-O , 22-H ) :   0.8415 B( 16-O , 23-H ) :   0.8446

Dispersion correction           -0.024805031
FINAL SINGLE POINT ENERGY      -685.688058281763

DIPOLE MOMENT
-------------

Method             : SCF
Type of density    : Electron Density
Multiplicity       :   1
Irrep              :   0
Energy             :  -685.8182514139978139 Eh
Relativity type    :
Basis              : AO
                                X                 Y                 Z
Electronic contribution:      2.291680138      -1.975936619       0.094975317
Nuclear contribution   :     -2.515226969       2.873713705      -0.270796079
                        -----------------------------------------
Total Dipole Moment    :     -0.223546831       0.897777086      -0.175820762
                        -----------------------------------------
Magnitude (a.u.)       :      0.941748280
Magnitude (Debye)      :      2.393733894

Rotational constants in cm-1:             0.041675             0.025710             0.021571
Rotational constants in MHz :          1249.374993           770.781188           646.681164

                             ****ORCA TERMINATED NORMALLY****
TOTAL RUN TIME: 0 days 0 hours 0 minutes 11 seconds 911 msec
