                         Program Version 6.0.0  -   RELEASE  -
|  1> ! wb97x-v def2-tzvp def2/J RIJCOSX DEFGRID2 scfconv7 GCP(DFT/TZ) printgap
|  2> %output
|  3>     printlevel normal
|  4> end
|  5> * xyz 0 1
|  6> C -4.103280002544619 0.0036197887408011354 0.0031464271565857078
|  7> C -3.417173260518924 0.8595510233209658 0.856898588019477
|  8> C -2.029468598011758 0.8452867129107949 0.8422976896842882
|  9> C -1.2971010657956326 0.0017526715711450396 0.0017246627278915355
| 10> C -2.0314655906189887 -0.8408237881702076 -0.8380999172905514
| 11> C -3.419187507836031 -0.8532367569933628 -0.8512932783792752
| 12> Cl -1.1626496120992857 -1.9199040266082705 -1.9132266069330979
| 13> C 0.181001081806234 0.0006300324978369833 0.000746654210883686
| 14> C 0.9159075907142374 0.8406307328179027 -0.8404035173960511
| 15> C 2.303541146587527 0.8585053314318984 -0.8620185926484578
| 16> C 2.971467908500486 -0.002738620386907221 -0.002348816355092009
| 17> C 2.303395752589498 -0.862253993542115 0.8589200888673495
| 18> C 0.9157610972356582 -0.8410024817551567 0.8404031491451439
| 19> Cl 0.054591863987389334 -1.9162029604818414 1.9172874161937523
| 20> Cl 4.720951273407307 -0.005085986181543366 -0.004524963179094719
| 21> Cl 0.05494885609671236 1.9178373911401791 -1.9154303011906035
| 22> Cl -1.158041106957743 1.9231664300508469 1.9165093262570776
| 23> H -5.18791001259584 0.0043426086239040755 0.0036882677012106224
| 24> H -3.951568934365958 1.5266457863831822 1.5225950326307698
| 25> H -3.9551236694258716 -1.5196262382307608 -1.5164542304491793
| 26> H 2.842890986725997 1.5213433470121795 -1.526790511646476
| 27> H 2.8426415994884913 -1.5264685556687692 1.5224175906224582
| 28> *
| 29>
| 30>                          ****END OF INPUT****

CARTESIAN COORDINATES (ANGSTROEM)
---------------------------------
  C     -4.103280    0.003620    0.003146
  C     -3.417173    0.859551    0.856899
  C     -2.029469    0.845287    0.842298
  C     -1.297101    0.001753    0.001725
  C     -2.031466   -0.840824   -0.838100
  C     -3.419188   -0.853237   -0.851293
  Cl    -1.162650   -1.919904   -1.913227
  C      0.181001    0.000630    0.000747
  C      0.915908    0.840631   -0.840404
  C      2.303541    0.858505   -0.862019
  C      2.971468   -0.002739   -0.002349
  C      2.303396   -0.862254    0.858920
  C      0.915761   -0.841002    0.840403
  Cl     0.054592   -1.916203    1.917287
  Cl     4.720951   -0.005086   -0.004525
  Cl     0.054949    1.917837   -1.915430
  Cl    -1.158041    1.923166    1.916509
  H     -5.187910    0.004343    0.003688
  H     -3.951569    1.526646    1.522595
  H     -3.955124   -1.519626   -1.516454
  H      2.842891    1.521343   -1.526791
  H      2.842642   -1.526469    1.522418

 Total Charge           Charge          ....    0
 Multiplicity           Mult            ....    1
 Number of Electrons    NEL             ....  162
 Basis Dimension        Dim             ....  587

ORBITAL ENERGIES
----------------

  NO   OCC          E(Eh)            E(eV)
   0   2.0000    -107.159377     -2915.9549
   1   2.0000    -107.159158     -2915.9489
   2   2.0000    -107.159154     -2915.9488
   3   2.0000    -107.155631     -2915.8530
   4   2.0000    -107.155626     -2915.8528
   5   2.0000     -12.144220      -330.4610
   6   2.0000     -12.143883      -330.4519
   7   2.0000     -12.142496      -330.4141
   8   2.0000     -12.137809      -330.2866
   9   2.0000     -12.137448      -330.2768
  10   2.0000     -12.103152      -329.3435
  11   2.0000     -12.100539      -329.2724
  12   2.0000     -12.087828      -328.9265
  13   2.0000     -12.087452      -328.9163
  14   2.0000     -12.083272      -328.8025
  15   2.0000     -12.080061      -328.7152
  16   2.0000     -12.079195      -328.6916
  17   2.0000     -11.312552      -307.8302
  18   2.0000     -11.312285      -307.8229
  19   2.0000     -11.312242      -307.8217
  20   2.0000     -11.308748      -307.7267
  21   2.0000     -11.308700      -307.7254
  22   2.0000      -9.104266      -247.7397
  23   2.0000      -9.104126      -247.7359
  24   2.0000      -9.103450      -247.7175
  25   2.0000      -9.101417      -247.6622
  26   2.0000      -9.101412      -247.6620
  27   2.0000      -9.101175      -247.6556
  28   2.0000      -9.101144      -247.6547
  29   2.0000      -9.101139      -247.6546
  30   2.0000      -9.101038      -247.6518
  31   2.0000      -9.100549      -247.6385
  32   2.0000      -9.100066      -247.6254
  33   2.0000      -9.097660      -247.5599
  34   2.0000      -9.097629      -247.5591
  35   2.0000      -9.097580      -247.5577
  36   2.0000      -9.097523      -247.5562
  37   2.0000      -1.477050       -40.1926
  38   2.0000      -1.458329       -39.6832
  39   2.0000      -1.439626       -39.1742
  40   2.0000      -1.438788       -39.1514
  41   2.0000      -1.434092       -39.0236
  42   2.0000      -1.384813       -37.6827
  43   2.0000      -1.378799       -37.5190
  44   2.0000      -1.336820       -36.3767
  45   2.0000      -1.299573       -35.3632
  46   2.0000      -1.289408       -35.0866
  47   2.0000      -1.280633       -34.8478
  48   2.0000      -1.168043       -31.7841
  49   2.0000      -1.144274       -31.1373
  50   2.0000      -1.132170       -30.8079
  51   2.0000      -1.123554       -30.5735
  52   2.0000      -1.026555       -27.9340
  53   2.0000      -1.023454       -27.8496
  54   2.0000      -1.005996       -27.3745
  55   2.0000      -0.991266       -26.9737
  56   2.0000      -0.974971       -26.5303
  57   2.0000      -0.948347       -25.8058
  58   2.0000      -0.936692       -25.4887
  59   2.0000      -0.933566       -25.4036
  60   2.0000      -0.930016       -25.3070
  61   2.0000      -0.901550       -24.5324
  62   2.0000      -0.881121       -23.9765
  63   2.0000      -0.869486       -23.6599
  64   2.0000      -0.867843       -23.6152
  65   2.0000      -0.858634       -23.3646
  66   2.0000      -0.849557       -23.1176
  67   2.0000      -0.830376       -22.5957
  68   2.0000      -0.829309       -22.5667
  69   2.0000      -0.824845       -22.4452
  70   2.0000      -0.810050       -22.0426
  71   2.0000      -0.809421       -22.0255
  72   2.0000      -0.804865       -21.9015
  73   2.0000      -0.802277       -21.8311
  74   2.0000      -0.801934       -21.8217
  75   2.0000      -0.777983       -21.1700
  76   2.0000      -0.775587       -21.1048
  77   2.0000      -0.684416       -18.6239
  78   2.0000      -0.678947       -18.4751
  79   2.0000      -0.678322       -18.4581
  80   2.0000      -0.671473       -18.2717
  81   0.0000      -0.321977        -8.7614
  82   0.0000      -0.302439        -8.2298
  83   0.0000      -0.299141        -8.1400
  84   0.0000      -0.291463        -7.9311
  85   0.0000      -0.288710        -7.8562

MULLIKEN ATOMIC CHARGES
-----------------------
   0 C :   -0.054396
   1 C :   -0.256015
   2 C :    0.181451
   3 C :   -0.057487
   4 C :    0.181486
   5 C :   -0.256114
   6 Cl:   -0.071582
   7 C :   -0.077799
   8 C :    0.206706
   9 C :   -0.335976
  10 C :    0.232846
  11 C :   -0.335876
  12 C :    0.206605
  13 Cl:   -0.062692
  14 Cl:   -0.077378
  15 Cl:   -0.062729
  16 Cl:   -0.071542
  17 H :    0.132306
  18 H :    0.139487
  19 H :    0.139479
  20 H :    0.149597
  21 H :    0.149623
Sum of atomic charges:   -0.0000000

LOEWDIN ATOMIC CHARGES
----------------------
   0 C :   -0.118586
   1 C :   -0.135479
   2 C :   -0.366054
   3 C :   -0.146916
   4 C :   -0.366031
   5 C :   -0.135488
   6 Cl:    0.412432
   7 C :   -0.146513
   8 C :   -0.365964
   9 C :   -0.139841
  10 C :   -0.403353
  11 C :   -0.139843
  12 C :   -0.365949
  13 Cl:    0.425395
  14 Cl:    0.394973
  15 Cl:    0.425411
  16 Cl:    0.412406
  17 H :    0.149042
  18 H :    0.150435
  19 H :    0.150435
  20 H :    0.154743
  21 H :    0.154745

  Mayer bond orders larger than 0.100000
B(  0-C ,  1-C ) :   1.4093 B(  0-C ,  5-C ) :   1.4092 B(  0-C , 17-H ) :   0.9684
B(  1-C ,  2-C ) :   1.4404 B(  1-C , 18-H ) :   0.9619 B(  2-C ,  3-C ) :   1.2984
B(  2-C , 16-Cl) :   1.0698 B(  3-C ,  4-C ) :   1.2985 B(  3-C ,  7-C ) :   0.7836
B(  4-C ,  5-C ) :   1.4403 B(  4-C ,  6-Cl) :   1.0697 B(  5-C , 19-H ) :   0.9619
B(  7-C ,  8-C ) :   1.3023 B(  7-C , 12-C ) :   1.3025 B(  8-C ,  9-C ) :   1.4082
B(  8-C , 15-Cl) :   1.0649 B(  9-C , 10-C ) :   1.3749 B(  9-C , 20-H ) :   0.9592
B( 10-C , 11-C ) :   1.3749 B( 10-C , 14-Cl) :   0.9741 B( 11-C , 12-C ) :   1.4083
B( 11-C , 21-H ) :   0.9591 B( 12-C , 13-Cl) :   1.0649

FINAL SINGLE POINT ENERGY     -2761.054053374271

DIPOLE MOMENT
-------------

Method             : SCF
Type of density    : Electron Density
Multiplicity       :   1
Irrep              :   0
Energy             : -2761.0648866554715823 Eh
Relativity type    :
Basis              : AO
                                X                 Y                 Z
Electronic contribution:      9.574805804      -0.006445018      -0.004955072
Nuclear contribution   :    -10.313756114       0.006840048       0.005203788
                        -----------------------------------------
Total Dipole Moment    :     -0.738950310       0.000395030       0.000248716
                        -----------------------------------------
Magnitude (a.u.)       :      0.738950457
Magnitude (Debye)      :      1.878262794

Rotational constants in cm-1:             0.014046             0.006978             0.006971
Rotational constants in MHz :           421.092198           209.188106           208.991115

                             ****ORCA TERMINATED NORMALLY****
TOTAL RUN TIME: 0 days 0 hours 10 minutes 27 seconds 416 msec
