                         Program Version 6.0.0  -   RELEASE  -
|  1> ! wb97x-v def2-tzvp def2/J RIJCOSX DEFGRID2 scfconv7 GCP(DFT/TZ) printgap
|  2> %output
|  3>     printlevel normal
|  4> end
|  5> %cpcm
|  6>     smd true
|  7>     smdsolvent "water"
|  8> end
|  9> * xyz 0 1
| 10> C -4.103280002544619 0.0036197887408011354 0.0031464271565857078
| 11> C -3.417173260518924 0.8595510233209658 0.856898588019477
| 12> C -2.029468598011758 0.8452867129107949 0.8422976896842882
| 13> C -1.2971010657956326 0.0017526715711450396 0.0017246627278915355
| 14> C -2.0314655906189887 -0.8408237881702076 -0.8380999172905514
| 15> C -3.419187507836031 -0.8532367569933628 -0.8512932783792752
| 16> Cl -1.1626496120992857 -1.9199040266082705 -1.9132266069330979
| 17> C 0.181001081806234 0.0006300324978369833 0.000746654210883686
| 18> C 0.9159075907142374 0.8406307328179027 -0.8404035173960511
| 19> C 2.303541146587527 0.8585053314318984 -0.8620185926484578
| 20> C 2.971467908500486 -0.002738620386907221 -0.002348816355092009
| 21> C 2.303395752589498 -0.862253993542115 0.8589200888673495
| 22> C 0.9157610972356582 -0.8410024817551567 0.8404031491451439
| 23> Cl 0.054591863987389334 -1.9162029604818414 1.9172874161937523
| 24> Cl 4.720951273407307 -0.005085986181543366 -0.004524963179094719
| 25> Cl 0.05494885609671236 1.9178373911401791 -1.9154303011906035
| 26> Cl -1.158041106957743 1.9231664300508469 1.9165093262570776
| 27> H -5.18791001259584 0.0043426086239040755 0.0036882677012106224
| 28> H -3.951568934365958 1.5266457863831822 1.5225950326307698
| 29> H -3.9551236694258716 -1.5196262382307608 -1.5164542304491793
| 30> H 2.842890986725997 1.5213433470121795 -1.526790511646476
| 31> H 2.8426415994884913 -1.5264685556687692 1.5224175906224582
| 32> *
| 33>
| 34>                          ****END OF INPUT****

CARTESIAN COORDINATES (ANGSTROEM)
---------------------------------
  C     -4.103280    0.003620    0.003146
  C     -3.417173    0.859551    0.856899
  C     -2.029469    0.845287    0.842298
  C     -1.297101    0.001753    0.001725
  C     -2.031466   -0.840824   -0.838100
  C     -3.419188   -0.853237   -0.851293
  Cl    -1.162650   -1.919904   -1.913227
  C      0.181001    0.000630    0.000747
  C      0.915908    0.840631   -0.840404
  C      2.303541    0.858505   -0.862019
  C      2.971468   -0.002739   -0.002349
  C      2.303396   -0.862254    0.858920
  C      0.915761   -0.841002    0.840403
  Cl     0.054592   -1.916203    1.917287
  Cl     4.720951   -0.005086   -0.004525
  Cl     0.054949    1.917837   -1.915430
  Cl    -1.158041    1.923166    1.916509
  H     -5.187910    0.004343    0.003688
  H     -3.951569    1.526646    1.522595
  H     -3.955124   -1.519626   -1.516454
  H      2.842891    1.521343   -1.526791
  H      2.842642   -1.526469    1.522418

 Total Charge           Charge          ....    0
 Multiplicity           Mult            ....    1
 Number of Electrons    NEL             ....  162
 Basis Dimension        Dim             ....  587

ORBITAL ENERGIES
----------------

  NO   OCC          E(Eh)            E(eV)
   0   2.0000    -107.159577     -2915.9603
   1   2.0000    -107.159573     -2915.9602
   2   2.0000    -107.157734     -2915.9102
   3   2.0000    -107.155693     -2915.8546
   4   2.0000    -107.155688     -2915.8545
   5   2.0000     -12.140460      -330.3587
   6   2.0000     -12.140096      -330.3488
   7   2.0000     -12.137699      -330.2836
   8   2.0000     -12.132429      -330.1402
   9   2.0000     -12.132068      -330.1304
  10   2.0000     -12.100491      -329.2711
  11   2.0000     -12.096421      -329.1603
  12   2.0000     -12.082131      -328.7715
  13   2.0000     -12.081764      -328.7615
  14   2.0000     -12.071885      -328.4927
  15   2.0000     -12.070534      -328.4559
  16   2.0000     -12.069022      -328.4148
  17   2.0000     -11.312727      -307.8350
  18   2.0000     -11.312683      -307.8338
  19   2.0000     -11.310915      -307.7856
  20   2.0000     -11.308860      -307.7297
  21   2.0000     -11.308811      -307.7284
  22   2.0000      -9.104560      -247.7477
  23   2.0000      -9.104126      -247.7359
  24   2.0000      -9.102391      -247.6887
  25   2.0000      -9.101652      -247.6686
  26   2.0000      -9.101632      -247.6680
  27   2.0000      -9.101617      -247.6676
  28   2.0000      -9.101500      -247.6644
  29   2.0000      -9.100651      -247.6413
  30   2.0000      -9.100168      -247.6282
  31   2.0000      -9.099796      -247.6180
  32   2.0000      -9.099792      -247.6179
  33   2.0000      -9.097808      -247.5639
  34   2.0000      -9.097771      -247.5629
  35   2.0000      -9.097741      -247.5621
  36   2.0000      -9.097673      -247.5603
  37   2.0000      -1.474462       -40.1221
  38   2.0000      -1.455350       -39.6021
  39   2.0000      -1.439286       -39.1650
  40   2.0000      -1.437108       -39.1057
  41   2.0000      -1.433307       -39.0023
  42   2.0000      -1.381757       -37.5995
  43   2.0000      -1.375982       -37.4424
  44   2.0000      -1.331695       -36.2373
  45   2.0000      -1.295456       -35.2511
  46   2.0000      -1.283046       -34.9135
  47   2.0000      -1.275562       -34.7098
  48   2.0000      -1.162310       -31.6281
  49   2.0000      -1.140539       -31.0357
  50   2.0000      -1.125922       -30.6379
  51   2.0000      -1.117557       -30.4103
  52   2.0000      -1.020708       -27.7749
  53   2.0000      -1.019455       -27.7408
  54   2.0000      -0.998642       -27.1744
  55   2.0000      -0.988039       -26.8859
  56   2.0000      -0.970588       -26.4110
  57   2.0000      -0.942319       -25.6418
  58   2.0000      -0.934060       -25.4171
  59   2.0000      -0.926200       -25.2032
  60   2.0000      -0.925670       -25.1888
  61   2.0000      -0.895596       -24.3704
  62   2.0000      -0.874458       -23.7952
  63   2.0000      -0.864102       -23.5134
  64   2.0000      -0.857023       -23.3208
  65   2.0000      -0.851720       -23.1765
  66   2.0000      -0.847284       -23.0558
  67   2.0000      -0.830953       -22.6114
  68   2.0000      -0.828390       -22.5416
  69   2.0000      -0.825262       -22.4565
  70   2.0000      -0.810443       -22.0533
  71   2.0000      -0.808735       -22.0068
  72   2.0000      -0.804249       -21.8847
  73   2.0000      -0.802068       -21.8254
  74   2.0000      -0.801640       -21.8137
  75   2.0000      -0.774845       -21.0846
  76   2.0000      -0.774258       -21.0686
  77   2.0000      -0.681173       -18.5357
  78   2.0000      -0.675279       -18.3753
  79   2.0000      -0.671374       -18.2690
  80   2.0000      -0.666368       -18.1328
  81   0.0000      -0.320089        -8.7101
  82   0.0000      -0.299020        -8.1368
  83   0.0000      -0.296936        -8.0800
  84   0.0000      -0.286540        -7.7971
  85   0.0000      -0.282662        -7.6916

MULLIKEN ATOMIC CHARGES
-----------------------
   0 C :   -0.094162
   1 C :   -0.277340
   2 C :    0.174176
   3 C :   -0.043914
   4 C :    0.174220
   5 C :   -0.277439
   6 Cl:   -0.088412
   7 C :   -0.057425
   8 C :    0.183638
   9 C :   -0.335459
  10 C :    0.228279
  11 C :   -0.335309
  12 C :    0.183488
  13 Cl:   -0.075493
  14 Cl:   -0.088937
  15 Cl:   -0.075530
  16 Cl:   -0.088378
  17 H :    0.176687
  18 H :    0.176413
  19 H :    0.176400
  20 H :    0.182232
  21 H :    0.182266
Sum of atomic charges:   -0.0000000

LOEWDIN ATOMIC CHARGES
----------------------
   0 C :   -0.110477
   1 C :   -0.130184
   2 C :   -0.374295
   3 C :   -0.153117
   4 C :   -0.374270
   5 C :   -0.130193
   6 Cl:    0.398544
   7 C :   -0.149085
   8 C :   -0.370793
   9 C :   -0.130461
  10 C :   -0.404203
  11 C :   -0.130464
  12 C :   -0.370778
  13 Cl:    0.414536
  14 Cl:    0.385920
  15 Cl:    0.414554
  16 Cl:    0.398512
  17 H :    0.162034
  18 H :    0.161356
  19 H :    0.161354
  20 H :    0.165753
  21 H :    0.165757

  Mayer bond orders larger than 0.100000
B(  0-C ,  1-C ) :   1.3975 B(  0-C ,  5-C ) :   1.3973 B(  0-C , 17-H ) :   0.9686
B(  1-C ,  2-C ) :   1.4053 B(  1-C , 18-H ) :   0.9686 B(  2-C ,  3-C ) :   1.2904
B(  2-C , 16-Cl) :   1.0633 B(  3-C ,  4-C ) :   1.2905 B(  3-C ,  7-C ) :   0.7845
B(  4-C ,  5-C ) :   1.4052 B(  4-C ,  6-Cl) :   1.0632 B(  5-C , 19-H ) :   0.9685
B(  7-C ,  8-C ) :   1.2935 B(  7-C , 12-C ) :   1.2937 B(  8-C ,  9-C ) :   1.4040
B(  8-C , 15-Cl) :   1.0667 B(  9-C , 10-C ) :   1.3608 B(  9-C , 20-H ) :   0.9562
B( 10-C , 11-C ) :   1.3608 B( 10-C , 14-Cl) :   0.9777 B( 11-C , 12-C ) :   1.4041
B( 11-C , 21-H ) :   0.9561 B( 12-C , 13-Cl) :   1.0667

FINAL SINGLE POINT ENERGY     -2761.056574674654

DIPOLE MOMENT
-------------

Method             : SCF
Type of density    : Electron Density
Multiplicity       :   1
Irrep              :   0
Energy             : -2761.0674079558539233 Eh
Relativity type    :
Basis              : AO
                                X                 Y                 Z
Electronic contribution:      9.318466278      -0.006335300      -0.004908295
Nuclear contribution   :    -10.313756114       0.006840048       0.005203788
                        -----------------------------------------
Total Dipole Moment    :     -0.995289835       0.000504748       0.000295493
                        -----------------------------------------
Magnitude (a.u.)       :      0.995290007
Magnitude (Debye)      :      2.529826150

Rotational constants in cm-1:             0.014046             0.006978             0.006971
Rotational constants in MHz :           421.092198           209.188106           208.991115

                             ****ORCA TERMINATED NORMALLY****
TOTAL RUN TIME: 0 days 0 hours 11 minutes 14 seconds 22 msec
