                         Program Version 6.0.0  -   RELEASE  -
|  1> ! wb97x-v def2-tzvp def2/J RIJCOSX DEFGRID2 scfconv7 GCP(DFT/TZ) printgap
|  2> %output
|  3>     printlevel normal
|  4> end
|  5> * xyz 0 1
|  6> C -2.668567416437265 -1.4424713830688434 0.0811568503579502
|  7> C -1.960289443508807 -0.09443310331654851 0.03416688438703648
|  8> C -0.45023755071621213 -0.13642976539810953 0.04114356071744169
|  9> C 0.2549274821904719 -1.3408984939358812 0.10101239428114679
| 10> C 1.6492859353333333 -1.3685904855848097 0.10276761766276056
| 11> C 2.3626501328521465 -0.1776767576024513 0.04395452149832367
| 12> C 1.6718013303391583 1.0312432992272453 -0.01416137347082849
| 13> C 0.2760645848085102 1.073461165128957 -0.0158665232539905
| 14> C -0.436168968645496 2.3945764476498392 -0.07832206835168877
| 15> H -2.4047316976993085 -2.0686225221582077 -0.777333228568264
| 16> H -3.752248741915559 -1.2931376694580148 0.06261386417508177
| 17> H -2.4246622527528325 -1.9980376250946374 0.9929466257143115
| 18> H -2.296004486715933 0.5199115327223197 0.8806029558638161
| 19> H -2.2873661455588175 0.4537623199870324 -0.8596735098955132
| 20> H -0.2871067000436132 -2.2793965565907643 0.1464092054999238
| 21> H 2.1702486081317676 -2.3202028644927246 0.14941151620373305
| 22> H 3.4483352452714255 -0.18493326378691108 0.04308305396125344
| 23> H 2.225872542428095 1.965316833661276 -0.05942252201522837
| 24> H -1.0884964098147745 2.539862883581937 0.7907846779545457
| 25> H 0.27931036429009193 3.2197286983493427 -0.10951834900901283
| 26> H -1.0767620394920971 2.4637386730011372 -0.9654404521697789
| 27> *
| 28>
| 29>                          ****END OF INPUT****

CARTESIAN COORDINATES (ANGSTROEM)
---------------------------------
  C     -2.668567   -1.442471    0.081157
  C     -1.960289   -0.094433    0.034167
  C     -0.450238   -0.136430    0.041144
  C      0.254927   -1.340898    0.101012
  C      1.649286   -1.368590    0.102768
  C      2.362650   -0.177677    0.043955
  C      1.671801    1.031243   -0.014161
  C      0.276065    1.073461   -0.015867
  C     -0.436169    2.394576   -0.078322
  H     -2.404732   -2.068623   -0.777333
  H     -3.752249   -1.293138    0.062614
  H     -2.424662   -1.998038    0.992947
  H     -2.296004    0.519912    0.880603
  H     -2.287366    0.453762   -0.859674
  H     -0.287107   -2.279397    0.146409
  H      2.170249   -2.320203    0.149412
  H      3.448335   -0.184933    0.043083
  H      2.225873    1.965317   -0.059423
  H     -1.088496    2.539863    0.790785
  H      0.279310    3.219729   -0.109518
  H     -1.076762    2.463739   -0.965440

 Total Charge           Charge          ....    0
 Multiplicity           Mult            ....    1
 Number of Electrons    NEL             ....   66
 Basis Dimension        Dim             ....  351

ORBITAL ENERGIES
----------------

  NO   OCC          E(Eh)            E(eV)
   0   2.0000     -12.054651      -328.0237
   1   2.0000     -12.052687      -327.9703
   2   2.0000     -12.049266      -327.8772
   3   2.0000     -12.044547      -327.7488
   4   2.0000     -12.043658      -327.7246
   5   2.0000     -12.042251      -327.6863
   6   2.0000     -12.041975      -327.6788
   7   2.0000     -12.041157      -327.6566
   8   2.0000     -12.038144      -327.5745
   9   2.0000      -1.381806       -37.6008
  10   2.0000      -1.302198       -35.4346
  11   2.0000      -1.285210       -34.9724
  12   2.0000      -1.239441       -33.7269
  13   2.0000      -1.188592       -32.3432
  14   2.0000      -1.132636       -30.8206
  15   2.0000      -1.080103       -29.3911
  16   2.0000      -1.062446       -28.9106
  17   2.0000      -0.954519       -25.9738
  18   2.0000      -0.946733       -25.7619
  19   2.0000      -0.904285       -24.6068
  20   2.0000      -0.877694       -23.8833
  21   2.0000      -0.874410       -23.7939
  22   2.0000      -0.864475       -23.5236
  23   2.0000      -0.834986       -22.7211
  24   2.0000      -0.833820       -22.6894
  25   2.0000      -0.826169       -22.4812
  26   2.0000      -0.814885       -22.1742
  27   2.0000      -0.793432       -21.5904
  28   2.0000      -0.783127       -21.3100
  29   2.0000      -0.780622       -21.2418
  30   2.0000      -0.748267       -20.3614
  31   2.0000      -0.629305       -17.1242
  32   2.0000      -0.623204       -16.9583
  33   0.0000      -0.234386        -6.3780
  34   0.0000      -0.229647        -6.2490
  35   0.0000      -0.065917        -1.7937
  36   0.0000      -0.054354        -1.4791
  37   0.0000      -0.029875        -0.8129

MULLIKEN ATOMIC CHARGES
-----------------------
   0 C :   -0.368189
   1 C :   -0.137457
   2 C :    0.074410
   3 C :   -0.195000
   4 C :   -0.143234
   5 C :   -0.126994
   6 C :   -0.169870
   7 C :    0.051985
   8 C :   -0.352808
   9 H :    0.118814
  10 H :    0.120604
  11 H :    0.118348
  12 H :    0.098724
  13 H :    0.098076
  14 H :    0.124477
  15 H :    0.112335
  16 H :    0.112818
  17 H :    0.105552
  18 H :    0.119741
  19 H :    0.117325
  20 H :    0.120342
Sum of atomic charges:    0.0000000

LOEWDIN ATOMIC CHARGES
----------------------
   0 C :   -0.302637
   1 C :   -0.240871
   2 C :   -0.116144
   3 C :   -0.118377
   4 C :   -0.146658
   5 C :   -0.147112
   6 C :   -0.120384
   7 C :   -0.140808
   8 C :   -0.250519
   9 H :    0.118876
  10 H :    0.118460
  11 H :    0.118728
  12 H :    0.142394
  13 H :    0.142529
  14 H :    0.145295
  15 H :    0.139861
  16 H :    0.139857
  17 H :    0.141833
  18 H :    0.125714
  19 H :    0.124275
  20 H :    0.125686

  Mayer bond orders larger than 0.100000
B(  0-C ,  1-C ) :   0.9984 B(  0-C ,  9-H ) :   0.9811 B(  0-C , 10-H ) :   0.9817
B(  0-C , 11-H ) :   0.9807 B(  1-C ,  2-C ) :   0.9565 B(  1-C , 12-H ) :   0.9654
B(  1-C , 13-H ) :   0.9663 B(  2-C ,  3-C ) :   1.3924 B(  2-C ,  7-C ) :   1.3361
B(  3-C ,  4-C ) :   1.4336 B(  3-C , 14-H ) :   0.9680 B(  4-C ,  5-C ) :   1.4382
B(  4-C , 15-H ) :   0.9771 B(  5-C ,  6-C ) :   1.4113 B(  5-C , 16-H ) :   0.9783
B(  6-C ,  7-C ) :   1.4500 B(  6-C , 17-H ) :   0.9726 B(  7-C ,  8-C ) :   0.9408
B(  8-C , 18-H ) :   0.9787 B(  8-C , 19-H ) :   0.9884 B(  8-C , 20-H ) :   0.9791

FINAL SINGLE POINT ENERGY      -350.203737865617

DIPOLE MOMENT
-------------

Method             : SCF
Type of density    : Electron Density
Multiplicity       :   1
Irrep              :   0
Energy             :  -350.2165322673166656 Eh
Relativity type    :
Basis              : AO
                                X                 Y                 Z
Electronic contribution:      6.847224264      -0.802405954       0.076763036
Nuclear contribution   :     -7.109732460       0.927813714      -0.084380650
                        -----------------------------------------
Total Dipole Moment    :     -0.262508195       0.125407760      -0.007617614
                        -----------------------------------------
Magnitude (a.u.)       :      0.291025234
Magnitude (Debye)      :      0.739727359

Rotational constants in cm-1:             0.080100             0.048871             0.030872
Rotational constants in MHz :          2401.338130          1465.130528           925.513332

                             ****ORCA TERMINATED NORMALLY****
TOTAL RUN TIME: 0 days 0 hours 3 minutes 53 seconds 696 msec
