                         Program Version 6.0.0  -   RELEASE  -
|  1> ! wb97x-v def2-tzvp def2/J RIJCOSX DEFGRID2 scfconv7 GCP(DFT/TZ) printgap
|  2> %output
|  3>     printlevel normal
|  4> end
|  5> %cpcm
|  6>     smd true
|  7>     smdsolvent "water"
|  8> end
|  9> * xyz 0 1
| 10> C -2.668567416437265 -1.4424713830688434 0.0811568503579502
| 11> C -1.960289443508807 -0.09443310331654851 0.03416688438703648
| 12> C -0.45023755071621213 -0.13642976539810953 0.04114356071744169
| 13> C 0.2549274821904719 -1.3408984939358812 0.10101239428114679
| 14> C 1.6492859353333333 -1.3685904855848097 0.10276761766276056
| 15> C 2.3626501328521465 -0.1776767576024513 0.04395452149832367
| 16> C 1.6718013303391583 1.0312432992272453 -0.01416137347082849
| 17> C 0.2760645848085102 1.073461165128957 -0.0158665232539905
| 18> C -0.436168968645496 2.3945764476498392 -0.07832206835168877
| 19> H -2.4047316976993085 -2.0686225221582077 -0.777333228568264
| 20> H -3.752248741915559 -1.2931376694580148 0.06261386417508177
| 21> H -2.4246622527528325 -1.9980376250946374 0.9929466257143115
| 22> H -2.296004486715933 0.5199115327223197 0.8806029558638161
| 23> H -2.2873661455588175 0.4537623199870324 -0.8596735098955132
| 24> H -0.2871067000436132 -2.2793965565907643 0.1464092054999238
| 25> H 2.1702486081317676 -2.3202028644927246 0.14941151620373305
| 26> H 3.4483352452714255 -0.18493326378691108 0.04308305396125344
| 27> H 2.225872542428095 1.965316833661276 -0.05942252201522837
| 28> H -1.0884964098147745 2.539862883581937 0.7907846779545457
| 29> H 0.27931036429009193 3.2197286983493427 -0.10951834900901283
| 30> H -1.0767620394920971 2.4637386730011372 -0.9654404521697789
| 31> *
| 32>
| 33>                          ****END OF INPUT****

CARTESIAN COORDINATES (ANGSTROEM)
---------------------------------
  C     -2.668567   -1.442471    0.081157
  C     -1.960289   -0.094433    0.034167
  C     -0.450238   -0.136430    0.041144
  C      0.254927   -1.340898    0.101012
  C      1.649286   -1.368590    0.102768
  C      2.362650   -0.177677    0.043955
  C      1.671801    1.031243   -0.014161
  C      0.276065    1.073461   -0.015867
  C     -0.436169    2.394576   -0.078322
  H     -2.404732   -2.068623   -0.777333
  H     -3.752249   -1.293138    0.062614
  H     -2.424662   -1.998038    0.992947
  H     -2.296004    0.519912    0.880603
  H     -2.287366    0.453762   -0.859674
  H     -0.287107   -2.279397    0.146409
  H      2.170249   -2.320203    0.149412
  H      3.448335   -0.184933    0.043083
  H      2.225873    1.965317   -0.059423
  H     -1.088496    2.539863    0.790785
  H      0.279310    3.219729   -0.109518
  H     -1.076762    2.463739   -0.965440

 Total Charge           Charge          ....    0
 Multiplicity           Mult            ....    1
 Number of Electrons    NEL             ....   66
 Basis Dimension        Dim             ....  351

ORBITAL ENERGIES
----------------

  NO   OCC          E(Eh)            E(eV)
   0   2.0000     -12.053972      -328.0053
   1   2.0000     -12.051885      -327.9485
   2   2.0000     -12.044017      -327.7344
   3   2.0000     -12.042859      -327.7029
   4   2.0000     -12.041255      -327.6592
   5   2.0000     -12.040579      -327.6408
   6   2.0000     -12.039569      -327.6133
   7   2.0000     -12.032082      -327.4096
   8   2.0000     -12.027259      -327.2784
   9   2.0000      -1.382155       -37.6103
  10   2.0000      -1.299242       -35.3542
  11   2.0000      -1.283149       -34.9163
  12   2.0000      -1.234599       -33.5951
  13   2.0000      -1.183387       -32.2016
  14   2.0000      -1.127409       -30.6784
  15   2.0000      -1.077832       -29.3293
  16   2.0000      -1.058390       -28.8003
  17   2.0000      -0.953259       -25.9395
  18   2.0000      -0.944247       -25.6943
  19   2.0000      -0.899821       -24.4854
  20   2.0000      -0.873649       -23.7732
  21   2.0000      -0.865116       -23.5410
  22   2.0000      -0.861480       -23.4421
  23   2.0000      -0.826702       -22.4957
  24   2.0000      -0.826512       -22.4905
  25   2.0000      -0.819138       -22.2899
  26   2.0000      -0.807850       -21.9827
  27   2.0000      -0.788946       -21.4683
  28   2.0000      -0.774690       -21.0804
  29   2.0000      -0.772330       -21.0162
  30   2.0000      -0.747716       -20.3464
  31   2.0000      -0.631259       -17.1774
  32   2.0000      -0.624031       -16.9808
  33   0.0000      -0.235439        -6.4066
  34   0.0000      -0.231175        -6.2906
  35   0.0000      -0.066241        -1.8025
  36   0.0000      -0.048214        -1.3120
  37   0.0000      -0.022450        -0.6109

MULLIKEN ATOMIC CHARGES
-----------------------
   0 C :   -0.401442
   1 C :   -0.150119
   2 C :    0.045808
   3 C :   -0.233483
   4 C :   -0.195013
   5 C :   -0.177012
   6 C :   -0.216854
   7 C :    0.034710
   8 C :   -0.397617
   9 H :    0.128854
  10 H :    0.137606
  11 H :    0.128733
  12 H :    0.120822
  13 H :    0.120363
  14 H :    0.163215
  15 H :    0.156077
  16 H :    0.157003
  17 H :    0.151795
  18 H :    0.141880
  19 H :    0.142270
  20 H :    0.142406
Sum of atomic charges:    0.0000000

LOEWDIN ATOMIC CHARGES
----------------------
   0 C :   -0.306526
   1 C :   -0.240277
   2 C :   -0.122084
   3 C :   -0.129171
   4 C :   -0.162103
   5 C :   -0.162608
   6 C :   -0.131641
   7 C :   -0.147351
   8 C :   -0.252758
   9 H :    0.120853
  10 H :    0.121361
  11 H :    0.120802
  12 H :    0.148413
  13 H :    0.148546
  14 H :    0.153739
  15 H :    0.148445
  16 H :    0.148455
  17 H :    0.151536
  18 H :    0.131581
  19 H :    0.129178
  20 H :    0.131610

  Mayer bond orders larger than 0.100000
B(  0-C ,  1-C ) :   0.9924 B(  0-C ,  9-H ) :   0.9777 B(  0-C , 10-H ) :   0.9789
B(  0-C , 11-H ) :   0.9773 B(  1-C ,  2-C ) :   0.9683 B(  1-C , 12-H ) :   0.9633
B(  1-C , 13-H ) :   0.9645 B(  2-C ,  3-C ) :   1.3720 B(  2-C ,  7-C ) :   1.3102
B(  3-C ,  4-C ) :   1.4088 B(  3-C , 14-H ) :   0.9752 B(  4-C ,  5-C ) :   1.4164
B(  4-C , 15-H ) :   0.9827 B(  5-C ,  6-C ) :   1.3872 B(  5-C , 16-H ) :   0.9818
B(  6-C ,  7-C ) :   1.4318 B(  6-C , 17-H ) :   0.9798 B(  7-C ,  8-C ) :   0.9517
B(  8-C , 18-H ) :   0.9732 B(  8-C , 19-H ) :   0.9832 B(  8-C , 20-H ) :   0.9734

FINAL SINGLE POINT ENERGY      -350.205007329231

DIPOLE MOMENT
-------------

Method             : SCF
Type of density    : Electron Density
Multiplicity       :   1
Irrep              :   0
Energy             :  -350.2178017309304892 Eh
Relativity type    :
Basis              : AO
                                X                 Y                 Z
Electronic contribution:      6.701690298      -0.707054866       0.071517388
Nuclear contribution   :     -7.109732460       0.927813714      -0.084380650
                        -----------------------------------------
Total Dipole Moment    :     -0.408042161       0.220758848      -0.012863262
                        -----------------------------------------
Magnitude (a.u.)       :      0.464110265
Magnitude (Debye)      :      1.179674543

Rotational constants in cm-1:             0.080100             0.048871             0.030872
Rotational constants in MHz :          2401.338130          1465.130528           925.513332

                             ****ORCA TERMINATED NORMALLY****
TOTAL RUN TIME: 0 days 0 hours 3 minutes 42 seconds 290 msec
