                         Program Version 6.0.0  -   RELEASE  -
|  1> ! wb97x-v def2-tzvp def2/J RIJCOSX DEFGRID2 scfconv7 GCP(DFT/TZ) printgap
|  2> %output
|  3>     printlevel normal
|  4> end
|  5> * xyz 0 1
|  6> C -2.800748474306698 -0.8288466629482357 0.13918712765858396
|  7> C -1.9511619671653337 0.40726620199600727 -0.11374101093197628
|  8> C -0.46348915769983423 0.19644839955678256 -0.048758343695405625
|  9> C 0.39800180330443047 1.2713153622414337 -0.31293491657192896
| 10> N 1.7248915125270632 1.1670711509614136 -0.27145002689744396
| 11> C 2.2079366144958885 -0.046166462072594616 0.042139747400892415
| 12> C 1.369151023045085 -1.114937933969908 0.3035402445181207
| 13> N 0.03223691277459639 -1.006595159308782 0.2615504329852215
| 14> H -2.625124971291855 -1.2400408686713713 1.1370114336352863
| 15> H -2.5913539348797516 -1.6156466437209474 -0.59100483097142
| 16> H -3.8603928116347195 -0.5691013508654538 0.06243677188933115
| 17> H -2.2073267739412894 1.194213510522635 0.6078773957680225
| 18> H -2.1852575099589036 0.8314084729525014 -1.0986662633028104
| 19> H -0.015795883352762666 2.245842802348144 -0.5655608740885932
| 20> H 3.2873987410089893 -0.1622909821362334 0.08359674589783589
| 21> H 1.7802471517912748 -2.089973329436646 0.554279904166502
| 22> *
| 23>
| 24>                          ****END OF INPUT****

CARTESIAN COORDINATES (ANGSTROEM)
---------------------------------
  C     -2.800748   -0.828847    0.139187
  C     -1.951162    0.407266   -0.113741
  C     -0.463489    0.196448   -0.048758
  C      0.398002    1.271315   -0.312935
  N      1.724892    1.167071   -0.271450
  C      2.207937   -0.046166    0.042140
  C      1.369151   -1.114938    0.303540
  N      0.032237   -1.006595    0.261550
  H     -2.625125   -1.240041    1.137011
  H     -2.591354   -1.615647   -0.591005
  H     -3.860393   -0.569101    0.062437
  H     -2.207327    1.194214    0.607877
  H     -2.185258    0.831408   -1.098666
  H     -0.015796    2.245843   -0.565561
  H      3.287399   -0.162291    0.083597
  H      1.780247   -2.089973    0.554280

 Total Charge           Charge          ....    0
 Multiplicity           Mult            ....    1
 Number of Electrons    NEL             ....   58
 Basis Dimension        Dim             ....  296

ORBITAL ENERGIES
----------------

  NO   OCC          E(Eh)            E(eV)
   0   2.0000     -16.547013      -450.2671
   1   2.0000     -16.543666      -450.1760
   2   2.0000     -12.102459      -329.3247
   3   2.0000     -12.093458      -329.0797
   4   2.0000     -12.092172      -329.0447
   5   2.0000     -12.089665      -328.9765
   6   2.0000     -12.059106      -328.1450
   7   2.0000     -12.037519      -327.5575
   8   2.0000      -1.558443       -42.4074
   9   2.0000      -1.504505       -40.9397
  10   2.0000      -1.337336       -36.3908
  11   2.0000      -1.271643       -34.6032
  12   2.0000      -1.197424       -32.5836
  13   2.0000      -1.191080       -32.4109
  14   2.0000      -1.107017       -30.1235
  15   2.0000      -1.052310       -28.6348
  16   2.0000      -0.984185       -26.7810
  17   2.0000      -0.940557       -25.5939
  18   2.0000      -0.897319       -24.4173
  19   2.0000      -0.890413       -24.2294
  20   2.0000      -0.869472       -23.6595
  21   2.0000      -0.853183       -23.2163
  22   2.0000      -0.840891       -22.8818
  23   2.0000      -0.831286       -22.6205
  24   2.0000      -0.795288       -21.6409
  25   2.0000      -0.786966       -21.4144
  26   2.0000      -0.773172       -21.0391
  27   2.0000      -0.757922       -20.6241
  28   2.0000      -0.658419       -17.9165
  29   0.0000      -0.345367        -9.3979
  30   0.0000      -0.257704        -7.0125
  31   0.0000      -0.132392        -3.6026
  32   0.0000      -0.077719        -2.1148
  33   0.0000      -0.047949        -1.3048

MULLIKEN ATOMIC CHARGES
-----------------------
   0 C :   -0.311142
   1 C :   -0.180570
   2 C :    0.161394
   3 C :   -0.107619
   4 N :   -0.201269
   5 C :   -0.028145
   6 C :   -0.046122
   7 N :   -0.234782
   8 H :    0.113499
   9 H :    0.112196
  10 H :    0.112814
  11 H :    0.112339
  12 H :    0.112802
  13 H :    0.130579
  14 H :    0.128415
  15 H :    0.125611
Sum of atomic charges:   -0.0000000

LOEWDIN ATOMIC CHARGES
----------------------
   0 C :   -0.297953
   1 C :   -0.248407
   2 C :   -0.219872
   3 C :   -0.183295
   4 N :    0.144152
   5 C :   -0.219346
   6 C :   -0.210357
   7 N :    0.168637
   8 H :    0.121366
   9 H :    0.121235
  10 H :    0.117028
  11 H :    0.146676
  12 H :    0.146207
  13 H :    0.140215
  14 H :    0.136493
  15 H :    0.137221

  Mayer bond orders larger than 0.100000
B(  0-C ,  1-C ) :   1.0156 B(  0-C ,  8-H ) :   0.9757 B(  0-C ,  9-H ) :   0.9763
B(  0-C , 10-H ) :   0.9783 B(  1-C ,  2-C ) :   0.9527 B(  1-C , 11-H ) :   0.9653
B(  1-C , 12-H ) :   0.9708 B(  2-C ,  3-C ) :   1.3377 B(  2-C ,  7-N ) :   1.4583
B(  3-C ,  4-N ) :   1.5654 B(  3-C ,  6-C ) :   0.1018 B(  3-C , 13-H ) :   0.9850
B(  4-N ,  5-C ) :   1.4434 B(  5-C ,  6-C ) :   1.4375 B(  5-C , 14-H ) :   0.9714
B(  6-C ,  7-N ) :   1.4806 B(  6-C , 15-H ) :   0.9737

FINAL SINGLE POINT ENERGY      -342.962476511567

DIPOLE MOMENT
-------------

Method             : SCF
Type of density    : Electron Density
Multiplicity       :   1
Irrep              :   0
Energy             :  -342.9716596410674470 Eh
Relativity type    :
Basis              : AO
                                X                 Y                 Z
Electronic contribution:      7.689459144       1.260078987      -0.161949420
Nuclear contribution   :     -7.972998371      -1.279623336       0.166624842
                        -----------------------------------------
Total Dipole Moment    :     -0.283539227      -0.019544349       0.004675421
                        -----------------------------------------
Magnitude (a.u.)       :      0.284250478
Magnitude (Debye)      :      0.722507297

Rotational constants in cm-1:             0.171299             0.051468             0.040167
Rotational constants in MHz :          5135.411394          1542.978504          1204.173359

                             ****ORCA TERMINATED NORMALLY****
TOTAL RUN TIME: 0 days 0 hours 2 minutes 20 seconds 174 msec
