                         Program Version 6.0.0  -   RELEASE  -
|  1> ! wb97x-v def2-tzvp def2/J RIJCOSX DEFGRID2 scfconv7 GCP(DFT/TZ) printgap
|  2> %output
|  3>     printlevel normal
|  4> end
|  5> %cpcm
|  6>     smd true
|  7>     smdsolvent "water"
|  8> end
|  9> * xyz 0 1
| 10> C -2.800748474306698 -0.8288466629482357 0.13918712765858396
| 11> C -1.9511619671653337 0.40726620199600727 -0.11374101093197628
| 12> C -0.46348915769983423 0.19644839955678256 -0.048758343695405625
| 13> C 0.39800180330443047 1.2713153622414337 -0.31293491657192896
| 14> N 1.7248915125270632 1.1670711509614136 -0.27145002689744396
| 15> C 2.2079366144958885 -0.046166462072594616 0.042139747400892415
| 16> C 1.369151023045085 -1.114937933969908 0.3035402445181207
| 17> N 0.03223691277459639 -1.006595159308782 0.2615504329852215
| 18> H -2.625124971291855 -1.2400408686713713 1.1370114336352863
| 19> H -2.5913539348797516 -1.6156466437209474 -0.59100483097142
| 20> H -3.8603928116347195 -0.5691013508654538 0.06243677188933115
| 21> H -2.2073267739412894 1.194213510522635 0.6078773957680225
| 22> H -2.1852575099589036 0.8314084729525014 -1.0986662633028104
| 23> H -0.015795883352762666 2.245842802348144 -0.5655608740885932
| 24> H 3.2873987410089893 -0.1622909821362334 0.08359674589783589
| 25> H 1.7802471517912748 -2.089973329436646 0.554279904166502
| 26> *
| 27>
| 28>                          ****END OF INPUT****

CARTESIAN COORDINATES (ANGSTROEM)
---------------------------------
  C     -2.800748   -0.828847    0.139187
  C     -1.951162    0.407266   -0.113741
  C     -0.463489    0.196448   -0.048758
  C      0.398002    1.271315   -0.312935
  N      1.724892    1.167071   -0.271450
  C      2.207937   -0.046166    0.042140
  C      1.369151   -1.114938    0.303540
  N      0.032237   -1.006595    0.261550
  H     -2.625125   -1.240041    1.137011
  H     -2.591354   -1.615647   -0.591005
  H     -3.860393   -0.569101    0.062437
  H     -2.207327    1.194214    0.607877
  H     -2.185258    0.831408   -1.098666
  H     -0.015796    2.245843   -0.565561
  H      3.287399   -0.162291    0.083597
  H      1.780247   -2.089973    0.554280

 Total Charge           Charge          ....    0
 Multiplicity           Mult            ....    1
 Number of Electrons    NEL             ....   58
 Basis Dimension        Dim             ....  296

ORBITAL ENERGIES
----------------

  NO   OCC          E(Eh)            E(eV)
   0   2.0000     -16.546917      -450.2645
   1   2.0000     -16.542363      -450.1406
   2   2.0000     -12.097923      -329.2012
   3   2.0000     -12.087541      -328.9187
   4   2.0000     -12.086686      -328.8954
   5   2.0000     -12.083845      -328.8181
   6   2.0000     -12.045780      -327.7823
   7   2.0000     -12.028910      -327.3233
   8   2.0000      -1.556644       -42.3585
   9   2.0000      -1.503442       -40.9107
  10   2.0000      -1.331060       -36.2200
  11   2.0000      -1.263337       -34.3772
  12   2.0000      -1.192398       -32.4468
  13   2.0000      -1.186997       -32.2998
  14   2.0000      -1.098854       -29.9013
  15   2.0000      -1.048667       -28.5357
  16   2.0000      -0.978293       -26.6207
  17   2.0000      -0.931308       -25.3422
  18   2.0000      -0.889042       -24.1921
  19   2.0000      -0.882215       -24.0063
  20   2.0000      -0.861459       -23.4415
  21   2.0000      -0.848414       -23.0865
  22   2.0000      -0.839133       -22.8340
  23   2.0000      -0.825211       -22.4551
  24   2.0000      -0.786360       -21.3980
  25   2.0000      -0.784911       -21.3585
  26   2.0000      -0.766025       -20.8446
  27   2.0000      -0.757248       -20.6058
  28   2.0000      -0.652208       -17.7475
  29   0.0000      -0.343161        -9.3379
  30   0.0000      -0.252265        -6.8645
  31   0.0000      -0.127905        -3.4805
  32   0.0000      -0.072042        -1.9604
  33   0.0000      -0.040285        -1.0962

MULLIKEN ATOMIC CHARGES
-----------------------
   0 C :   -0.370542
   1 C :   -0.176823
   2 C :    0.170361
   3 C :   -0.107459
   4 N :   -0.264602
   5 C :   -0.045074
   6 C :   -0.060821
   7 N :   -0.291813
   8 H :    0.119807
   9 H :    0.120523
  10 H :    0.134501
  11 H :    0.133548
  12 H :    0.134445
  13 H :    0.169573
  14 H :    0.168748
  15 H :    0.165630
Sum of atomic charges:   -0.0000000

LOEWDIN ATOMIC CHARGES
----------------------
   0 C :   -0.307146
   1 C :   -0.242852
   2 C :   -0.213312
   3 C :   -0.176841
   4 N :    0.110778
   5 C :   -0.219739
   6 C :   -0.209017
   7 N :    0.143270
   8 H :    0.119199
   9 H :    0.119546
  10 H :    0.122244
  11 H :    0.154408
  12 H :    0.154077
  13 H :    0.151210
  14 H :    0.146576
  15 H :    0.147598

  Mayer bond orders larger than 0.100000
B(  0-C ,  1-C ) :   0.9953 B(  0-C ,  8-H ) :   0.9756 B(  0-C ,  9-H ) :   0.9764
B(  0-C , 10-H ) :   0.9767 B(  1-C ,  2-C ) :   0.9641 B(  1-C , 11-H ) :   0.9570
B(  1-C , 12-H ) :   0.9622 B(  2-C ,  3-C ) :   1.3648 B(  2-C ,  7-N ) :   1.4397
B(  3-C ,  4-N ) :   1.5513 B(  3-C ,  6-C ) :   0.1074 B(  3-C , 13-H ) :   0.9659
B(  4-N ,  5-C ) :   1.4291 B(  5-C ,  6-C ) :   1.4605 B(  5-C , 14-H ) :   0.9576
B(  6-C ,  7-N ) :   1.4653 B(  6-C , 15-H ) :   0.9604

FINAL SINGLE POINT ENERGY      -342.971769061006

DIPOLE MOMENT
-------------

Method             : SCF
Type of density    : Electron Density
Multiplicity       :   1
Irrep              :   0
Energy             :  -342.9809521905058887 Eh
Relativity type    :
Basis              : AO
                                X                 Y                 Z
Electronic contribution:      7.588290921       1.353845733      -0.185260895
Nuclear contribution   :     -7.972998371      -1.279623336       0.166624842
                        -----------------------------------------
Total Dipole Moment    :     -0.384707450       0.074222396      -0.018636053
                        -----------------------------------------
Magnitude (a.u.)       :      0.392244935
Magnitude (Debye)      :      0.997007391

Rotational constants in cm-1:             0.171299             0.051468             0.040167
Rotational constants in MHz :          5135.411394          1542.978504          1204.173359

                             ****ORCA TERMINATED NORMALLY****
TOTAL RUN TIME: 0 days 0 hours 2 minutes 23 seconds 628 msec
