                         Program Version 6.0.0  -   RELEASE  -
|  1> ! pbe def2-sv(p) def2/J RI DEFGRID1 loosescf d4 GCP(DFT/SV(P)) printgap
|  2> %output
|  3>     printlevel normal
|  4> end
|  5> * xyz 0 1
|  6> C 1.2531421632 2.7067899885 1.059841634
|  7> C 1.5785453681 1.6864649616 -0.0275468693
|  8> C 2.6086798107 0.630552447 0.4473590553
|  9> C 1.8635146983 -0.660723348 0.3038987143
| 10> C 2.2459582726 -1.9632058326 0.5383612127
| 11> C 1.3263606631 -2.9795617824 0.3117404184
| 12> C 0.049206666 -2.6934425988 -0.1376634138
| 13> C -0.3448363938 -1.3801297547 -0.3728256024
| 14> C 0.5794537365 -0.3655267033 -0.1518395208
| 15> O 0.3516139566 0.9575418938 -0.3249991048
| 16> O -1.6097642808 -1.144549843 -0.9132367567
| 17> C -2.4137813756 -0.1602921639 -0.4431034931
| 18> O -3.3236735419 0.2300351779 -1.1536976709
| 19> N -2.193898307 0.2581960352 0.8073408921
| 20> C -2.9267517632 1.350026239 1.4072415247
| 21> C 2.0254664905 2.3780804896 -1.3132159736
| 22> H 2.1361626782 3.2954834476 1.2879748203
| 23> H 0.4633107905 3.3696798342 0.7162052769
| 24> H 0.916998541 2.2014819657 1.9621126953
| 25> H 3.505166729 0.6454800507 -0.172038141
| 26> H 2.9061534199 0.8020747863 1.4824715106
| 27> H 3.2406707705 -2.1874157215 0.8872901623
| 28> H 1.6061360844 -4.0056084564 0.4850580101
| 29> H -0.6657721428 -3.4777739463 -0.3248372075
| 30> H -1.4209880993 -0.1243545413 1.3308066855
| 31> H -2.2645842858 2.1999478643 1.5733315828
| 32> H -3.3595469997 1.0288464712 2.3530736356
| 33> H -3.7195380046 1.6369926922 0.7198512436
| 34> H 2.9248338719 2.9580462349 -1.1302854856
| 35> H 1.239214086 3.039343098 -1.6683398949
| 36> H 2.2248052822 1.6376126075 -2.0847735928
| 37> *
| 38>
| 39>                          ****END OF INPUT****

CARTESIAN COORDINATES (ANGSTROEM)
---------------------------------
  C      1.253142    2.706790    1.059842
  C      1.578545    1.686465   -0.027547
  C      2.608680    0.630552    0.447359
  C      1.863515   -0.660723    0.303899
  C      2.245958   -1.963206    0.538361
  C      1.326361   -2.979562    0.311740
  C      0.049207   -2.693443   -0.137663
  C     -0.344836   -1.380130   -0.372826
  C      0.579454   -0.365527   -0.151840
  O      0.351614    0.957542   -0.324999
  O     -1.609764   -1.144550   -0.913237
  C     -2.413781   -0.160292   -0.443103
  O     -3.323674    0.230035   -1.153698
  N     -2.193898    0.258196    0.807341
  C     -2.926752    1.350026    1.407242
  C      2.025466    2.378080   -1.313216
  H      2.136163    3.295483    1.287975
  H      0.463311    3.369680    0.716205
  H      0.916999    2.201482    1.962113
  H      3.505167    0.645480   -0.172038
  H      2.906153    0.802075    1.482472
  H      3.240671   -2.187416    0.887290
  H      1.606136   -4.005608    0.485058
  H     -0.665772   -3.477774   -0.324837
  H     -1.420988   -0.124355    1.330807
  H     -2.264584    2.199948    1.573332
  H     -3.359547    1.028846    2.353074
  H     -3.719538    1.636993    0.719851
  H      2.924834    2.958046   -1.130285
  H      1.239214    3.039343   -1.668340
  H      2.224805    1.637613   -2.084774

 Total Charge           Charge          ....    0
 Multiplicity           Mult            ....    1
 Number of Electrons    NEL             ....  118
 Basis Dimension        Dim             ....  254

ORBITAL ENERGIES
----------------

  NO   OCC          E(Eh)            E(eV)
   0   2.0000     -18.798800      -511.5414
   1   2.0000     -18.795702      -511.4571
   2   2.0000     -18.697624      -508.7882
   3   2.0000     -14.017171      -381.4266
   4   2.0000     -10.014564      -272.5101
   5   2.0000      -9.974400      -271.4172
   6   2.0000      -9.958571      -270.9865
   7   2.0000      -9.955788      -270.9108
   8   2.0000      -9.916981      -269.8548
   9   2.0000      -9.910494      -269.6782
  10   2.0000      -9.909482      -269.6507
  11   2.0000      -9.901834      -269.4426
  12   2.0000      -9.899786      -269.3869
  13   2.0000      -9.898280      -269.3459
  14   2.0000      -9.895039      -269.2577
  15   2.0000      -9.890389      -269.1312
  16   2.0000      -1.005513       -27.3614
  17   2.0000      -0.984814       -26.7981
  18   2.0000      -0.902128       -24.5482
  19   2.0000      -0.834953       -22.7202
  20   2.0000      -0.784820       -21.3560
  21   2.0000      -0.748386       -20.3646
  22   2.0000      -0.704257       -19.1638
  23   2.0000      -0.677186       -18.4272
  24   2.0000      -0.641411       -17.4537
  25   2.0000      -0.637520       -17.3478
  26   2.0000      -0.627349       -17.0710
  27   2.0000      -0.580065       -15.7844
  28   2.0000      -0.561501       -15.2792
  29   2.0000      -0.531156       -14.4535
  30   2.0000      -0.525139       -14.2897
  31   2.0000      -0.513792       -13.9810
  32   2.0000      -0.462096       -12.5743
  33   2.0000      -0.447426       -12.1751
  34   2.0000      -0.441053       -12.0017
  35   2.0000      -0.437657       -11.9093
  36   2.0000      -0.429812       -11.6958
  37   2.0000      -0.413999       -11.2655
  38   2.0000      -0.402191       -10.9442
  39   2.0000      -0.384178       -10.4540
  40   2.0000      -0.378314       -10.2944
  41   2.0000      -0.373395       -10.1606
  42   2.0000      -0.369733       -10.0610
  43   2.0000      -0.362689        -9.8693
  44   2.0000      -0.359571        -9.7844
  45   2.0000      -0.349166        -9.5013
  46   2.0000      -0.347772        -9.4634
  47   2.0000      -0.341106        -9.2820
  48   2.0000      -0.332215        -9.0400
  49   2.0000      -0.328478        -8.9383
  50   2.0000      -0.321702        -8.7540
  51   2.0000      -0.311030        -8.4636
  52   2.0000      -0.298395        -8.1197
  53   2.0000      -0.287737        -7.8297
  54   2.0000      -0.266376        -7.2484
  55   2.0000      -0.220085        -5.9888
  56   2.0000      -0.208627        -5.6770
  57   2.0000      -0.205727        -5.5981
  58   2.0000      -0.194435        -5.2909
  59   0.0000      -0.044211        -1.2030
  60   0.0000      -0.028779        -0.7831
  61   0.0000       0.011654         0.3171
  62   0.0000       0.031763         0.8643
  63   0.0000       0.042027         1.1436

MULLIKEN ATOMIC CHARGES
-----------------------
   0 C :   -0.208488
   1 C :   -0.087519
   2 C :   -0.001673
   3 C :   -0.023758
   4 C :   -0.157162
   5 C :   -0.045157
   6 C :   -0.129247
   7 C :    0.093953
   8 C :    0.127598
   9 O :   -0.252382
  10 O :   -0.200709
  11 C :    0.189291
  12 O :   -0.215940
  13 N :   -0.308235
  14 C :   -0.178415
  15 C :   -0.197065
  16 H :    0.108492
  17 H :    0.118669
  18 H :    0.101708
  19 H :    0.096376
  20 H :    0.092361
  21 H :    0.034266
  22 H :    0.054345
  23 H :    0.050446
  24 H :    0.244469
  25 H :    0.109143
  26 H :    0.112108
  27 H :    0.140208
  28 H :    0.104585
  29 H :    0.115678
  30 H :    0.112059
Sum of atomic charges:    0.0000000

LOEWDIN ATOMIC CHARGES
----------------------
   0 C :   -0.328066
   1 C :    0.019889
   2 C :   -0.199069
   3 C :   -0.066738
   4 C :   -0.129557
   5 C :   -0.135587
   6 C :   -0.130925
   7 C :   -0.004765
   8 C :    0.002307
   9 O :   -0.074162
  10 O :   -0.037162
  11 C :    0.026075
  12 O :   -0.202354
  13 N :   -0.176095
  14 C :   -0.255581
  15 C :   -0.326423
  16 H :    0.127802
  17 H :    0.127848
  18 H :    0.120426
  19 H :    0.134591
  20 H :    0.132063
  21 H :    0.125306
  22 H :    0.126237
  23 H :    0.137126
  24 H :    0.234655
  25 H :    0.113529
  26 H :    0.117282
  27 H :    0.139137
  28 H :    0.125544
  29 H :    0.129020
  30 H :    0.127645

  Mayer bond orders larger than 0.100000
B(  0-C ,  1-C ) :   1.1033 B(  0-C , 16-H ) :   0.9396 B(  0-C , 17-H ) :   0.9378
B(  0-C , 18-H ) :   0.9367 B(  1-C ,  2-C ) :   1.0547 B(  1-C ,  9-O ) :   0.9299
B(  1-C , 15-C ) :   1.1030 B(  2-C ,  3-C ) :   1.0640 B(  2-C , 19-H ) :   0.8796
B(  2-C , 20-H ) :   0.8771 B(  3-C ,  4-C ) :   1.3850 B(  3-C ,  8-C ) :   1.3387
B(  4-C ,  5-C ) :   1.3060 B(  4-C , 21-H ) :   0.9847 B(  5-C ,  6-C ) :   1.3384
B(  5-C , 22-H ) :   0.9653 B(  6-C ,  7-C ) :   1.3840 B(  6-C , 23-H ) :   0.9734
B(  7-C ,  8-C ) :   1.2970 B(  7-C , 10-O ) :   1.0480 B(  8-C ,  9-O ) :   1.1306
B( 10-O , 11-C ) :   1.0557 B( 11-C , 12-O ) :   2.0782 B( 11-C , 13-N ) :   1.2125
B( 13-N , 14-C ) :   1.0296 B( 13-N , 24-H ) :   0.8392 B( 14-C , 25-H ) :   0.9527
B( 14-C , 26-H ) :   0.9600 B( 14-C , 27-H ) :   0.9355 B( 15-C , 28-H ) :   0.9392
B( 15-C , 29-H ) :   0.9393 B( 15-C , 30-H ) :   0.9370

Dispersion correction           -0.037581793
FINAL SINGLE POINT ENERGY      -745.169322256340

DIPOLE MOMENT
-------------

Method             : SCF
Type of density    : Electron Density
Multiplicity       :   1
Irrep              :   0
Energy             :  -745.2708876144877195 Eh
Relativity type    :
Basis              : AO
                                X                 Y                 Z
Electronic contribution:     -7.213172018     -11.703288288      -5.401065774
Nuclear contribution   :      9.051312286      12.216874632       6.928246912
                        -----------------------------------------
Total Dipole Moment    :      1.838140268       0.513586343       1.527181138
                        -----------------------------------------
Magnitude (a.u.)       :      2.444343021
Magnitude (Debye)      :      6.213026202

Rotational constants in cm-1:             0.022259             0.016834             0.011430
Rotational constants in MHz :           667.312676           504.667473           342.658768

                             ****ORCA TERMINATED NORMALLY****
TOTAL RUN TIME: 0 days 0 hours 0 minutes 19 seconds 647 msec
