                         Program Version 6.0.0  -   RELEASE  -
|  1> ! r2scan-3c def2/J RI DEFGRID2 scfconv6 printgap
|  2> %output
|  3>     printlevel normal
|  4> end
|  5> * xyz 0 1
|  6> C -2.8374468322 0.7993228097 0.744346904
|  7> C -1.5271287419 0.5216297578 0.0687809741
|  8> C -0.9108391472 1.4210183833 -0.6858973125
|  9> C 0.3908097961 1.2133883595 -1.394161538
| 10> C 1.1382228347 -0.0395957355 -0.928738286
| 11> H 1.8335743967 -0.3406013611 -1.7204276468
| 12> C 0.1230653936 -1.1738547907 -0.7487782044
| 13> C -0.9064814134 -0.8354834304 0.3274866956
| 14> H -0.3988190958 -0.7988358771 1.3086451581
| 15> O -1.8553311365 -1.892145427 0.3381731187
| 16> C 1.9536740561 0.1608703772 0.329019919
| 17> C 1.6878548204 1.0804034738 1.2433468305
| 18> C 3.1171003742 -0.7754495853 0.4720239247
| 19> H -3.6145995475 0.1484578556 0.3451394623
| 20> H -3.1371586794 1.8307936305 0.58087556
| 21> H -2.7567827952 0.6253055767 1.817175774
| 22> H -1.3690161802 2.3902062805 -0.8398132957
| 23> H 0.1821941797 1.1253900759 -2.4656493425
| 24> H 1.0240405305 2.0942575556 -1.2637843619
| 25> H -0.4150937917 -1.336023768 -1.6843907524
| 26> H 0.6164060706 -2.1089583654 -0.4807964519
| 27> H -2.4656959285 -1.7613426907 1.075334199
| 28> H 2.2953563921 1.1832896665 2.127345625
| 29> H 0.8584557718 1.7598858344 1.1577590745
| 30> H 3.6112258268 -0.6407830403 1.4300743145
| 31> H 2.7861336843 -1.8091474653 0.3898976555
| 32> H 3.8406355585 -0.5957451185 -0.32230769
| 33> *
| 34>
| 35>                          ****END OF INPUT****

CARTESIAN COORDINATES (ANGSTROEM)
---------------------------------
  C     -2.837447    0.799323    0.744347
  C     -1.527129    0.521630    0.068781
  C     -0.910839    1.421018   -0.685897
  C      0.390810    1.213388   -1.394162
  C      1.138223   -0.039596   -0.928738
  H      1.833574   -0.340601   -1.720428
  C      0.123065   -1.173855   -0.748778
  C     -0.906481   -0.835483    0.327487
  H     -0.398819   -0.798836    1.308645
  O     -1.855331   -1.892145    0.338173
  C      1.953674    0.160870    0.329020
  C      1.687855    1.080403    1.243347
  C      3.117100   -0.775450    0.472024
  H     -3.614600    0.148458    0.345139
  H     -3.137159    1.830794    0.580876
  H     -2.756783    0.625306    1.817176
  H     -1.369016    2.390206   -0.839813
  H      0.182194    1.125390   -2.465649
  H      1.024041    2.094258   -1.263784
  H     -0.415094   -1.336024   -1.684391
  H      0.616406   -2.108958   -0.480796
  H     -2.465696   -1.761343    1.075334
  H      2.295356    1.183290    2.127346
  H      0.858456    1.759886    1.157759
  H      3.611226   -0.640783    1.430074
  H      2.786134   -1.809147    0.389898
  H      3.840636   -0.595745   -0.322308

 Total Charge           Charge          ....    0
 Multiplicity           Mult            ....    1
 Number of Electrons    NEL             ....   84
 Basis Dimension        Dim             ....  294

ORBITAL ENERGIES
----------------

  NO   OCC          E(Eh)            E(eV)
   0   2.0000     -18.946242      -515.5534
   1   2.0000     -10.078744      -274.2566
   2   2.0000     -10.040541      -273.2170
   3   2.0000     -10.037480      -273.1337
   4   2.0000     -10.029846      -272.9260
   5   2.0000     -10.029808      -272.9250
   6   2.0000     -10.027193      -272.8538
   7   2.0000     -10.026231      -272.8276
   8   2.0000     -10.023789      -272.7612
   9   2.0000     -10.021829      -272.7078
  10   2.0000     -10.008204      -272.3371
  11   2.0000      -0.984058       -26.7776
  12   2.0000      -0.815164       -22.1817
  13   2.0000      -0.766836       -20.8667
  14   2.0000      -0.723004       -19.6739
  15   2.0000      -0.702501       -19.1160
  16   2.0000      -0.653010       -17.7693
  17   2.0000      -0.651001       -17.7146
  18   2.0000      -0.581749       -15.8302
  19   2.0000      -0.570466       -15.5232
  20   2.0000      -0.510207       -13.8834
  21   2.0000      -0.480779       -13.0827
  22   2.0000      -0.465863       -12.6768
  23   2.0000      -0.445566       -12.1245
  24   2.0000      -0.428144       -11.6504
  25   2.0000      -0.416769       -11.3409
  26   2.0000      -0.395632       -10.7657
  27   2.0000      -0.392765       -10.6877
  28   2.0000      -0.386793       -10.5252
  29   2.0000      -0.375070       -10.2062
  30   2.0000      -0.366236        -9.9658
  31   2.0000      -0.358075        -9.7437
  32   2.0000      -0.349468        -9.5095
  33   2.0000      -0.337948        -9.1960
  34   2.0000      -0.328279        -8.9329
  35   2.0000      -0.318212        -8.6590
  36   2.0000      -0.304927        -8.2975
  37   2.0000      -0.287127        -7.8131
  38   2.0000      -0.276824        -7.5328
  39   2.0000      -0.237677        -6.4675
  40   2.0000      -0.220903        -6.0111
  41   2.0000      -0.211678        -5.7601
  42   0.0000      -0.014167        -0.3855
  43   0.0000       0.001574         0.0428
  44   0.0000       0.056458         1.5363
  45   0.0000       0.071021         1.9326
  46   0.0000       0.096903         2.6369

MULLIKEN ATOMIC CHARGES
-----------------------
   0 C :   -0.591228
   1 C :    0.139710
   2 C :   -0.232231
   3 C :   -0.380740
   4 C :    0.021495
   5 H :    0.161475
   6 C :   -0.398001
   7 C :    0.024279
   8 H :    0.169611
   9 O :   -0.429312
  10 C :    0.002296
  11 C :   -0.350432
  12 C :   -0.527269
  13 H :    0.175959
  14 H :    0.154737
  15 H :    0.160965
  16 H :    0.154914
  17 H :    0.164102
  18 H :    0.172801
  19 H :    0.174047
  20 H :    0.171238
  21 H :    0.300211
  22 H :    0.139988
  23 H :    0.155224
  24 H :    0.150945
  25 H :    0.154560
  26 H :    0.160656
Sum of atomic charges:   -0.0000000

LOEWDIN ATOMIC CHARGES
----------------------
   0 C :   -0.393247
   1 C :   -0.110557
   2 C :   -0.198383
   3 C :   -0.275846
   4 C :   -0.198425
   5 H :    0.169399
   6 C :   -0.229796
   7 C :    0.083919
   8 H :    0.181571
   9 O :   -0.601983
  10 C :   -0.120406
  11 C :   -0.321460
  12 C :   -0.391979
  13 H :    0.164822
  14 H :    0.162187
  15 H :    0.158372
  16 H :    0.163665
  17 H :    0.169598
  18 H :    0.169823
  19 H :    0.175689
  20 H :    0.166460
  21 H :    0.269385
  22 H :    0.155950
  23 H :    0.169756
  24 H :    0.158838
  25 H :    0.160757
  26 H :    0.161892

  Mayer bond orders larger than 0.100000
B(  0-C ,  1-C ) :   0.7883 B(  0-C , 13-H ) :   0.9763 B(  0-C , 14-H ) :   0.9849
B(  0-C , 15-H ) :   0.9809 B(  1-C ,  2-C ) :   1.8670 B(  1-C ,  7-C ) :   0.8494
B(  2-C ,  3-C ) :   0.9338 B(  2-C , 16-H ) :   0.9166 B(  3-C ,  4-C ) :   0.9453
B(  3-C , 17-H ) :   0.9546 B(  3-C , 18-H ) :   0.9943 B(  4-C ,  5-H ) :   0.9778
B(  4-C ,  6-C ) :   0.8260 B(  4-C , 10-C ) :   0.9092 B(  6-C ,  7-C ) :   0.9273
B(  6-C , 19-H ) :   1.0030 B(  6-C , 20-H ) :   0.9883 B(  7-C ,  8-H ) :   0.9677
B(  7-C ,  9-O ) :   0.9330 B(  9-O , 21-H ) :   0.8913 B( 10-C , 11-C ) :   1.8579
B( 10-C , 12-C ) :   0.8824 B( 11-C , 22-H ) :   0.9723 B( 11-C , 23-H ) :   0.9665
B( 12-C , 24-H ) :   0.9906 B( 12-C , 25-H ) :   0.9683 B( 12-C , 26-H ) :   0.9733

Dispersion correction           -0.010045595
FINAL SINGLE POINT ENERGY      -465.756045856116

DIPOLE MOMENT
-------------

Method             : SCF
Type of density    : Electron Density
Multiplicity       :   1
Irrep              :   0
Energy             :  -465.7576870703007899 Eh
Relativity type    :
Basis              : AO
                                X                 Y                 Z
Electronic contribution:     -2.621746698      -1.346409825      -1.165456305
Nuclear contribution   :      2.684592466       1.628883507       1.370119522
                        -----------------------------------------
Total Dipole Moment    :      0.062845768       0.282473682       0.204663217
                        -----------------------------------------
Magnitude (a.u.)       :      0.354440410
Magnitude (Debye)      :      0.900915925

Rotational constants in cm-1:             0.056478             0.027871             0.024308
Rotational constants in MHz :          1693.166931           835.540082           728.748124

                             ****ORCA TERMINATED NORMALLY****
TOTAL RUN TIME: 0 days 0 hours 0 minutes 44 seconds 686 msec
