                         Program Version 6.0.0  -   RELEASE  -
|  1> ! r2scan-3c def2/J RI DEFGRID2 scfconv6 printgap
|  2> %output
|  3>     printlevel normal
|  4> end
|  5> * xyz 0 1
|  6> C -2.5652024387 -0.6399774127 -0.3377532294
|  7> C -1.1819965191 -0.293098016 0.2229862219
|  8> H -1.2414089479 -0.2357705758 1.3210981983
|  9> C -0.6993098911 1.0618484036 -0.3098992776
| 10> H -0.6904580499 1.0300004201 -1.4108845034
| 11> C 0.7340189852 1.3277885492 0.1676892216
| 12> H 0.7322847659 1.4374256538 1.264177521
| 13> C 1.6352845991 0.1459209997 -0.1961250002
| 14> H 1.7019751657 0.0635071359 -1.2913410295
| 15> C 1.0157511402 -1.1564011759 0.3352798102
| 16> H 0.989218789 -1.1080185754 1.444961157
| 17> O -0.2942597269 -1.3325061853 -0.1515980603
| 18> O 1.7994754639 -2.2032810383 -0.1054897723
| 19> O 2.9002652734 0.3786941024 0.3670025216
| 20> O 1.1698027919 2.5205428317 -0.4351944533
| 21> O -1.5802372628 2.0527484733 0.145163768
| 22> O -3.1322019821 -1.7642029011 0.2789548833
| 23> H -2.4743003421 -0.789922796 -1.4201406609
| 24> H -3.2341768148 0.1984013008 -0.1398682304
| 25> H 1.3709893832 -3.0510677829 0.0887252099
| 26> H 3.4729140065 -0.3804416752 0.1821153542
| 27> H 2.1032841462 2.6554097836 -0.2144785308
| 28> H -1.2152889297 2.9173424843 -0.1005914942
| 29> H -2.5626269056 -2.5285276364 0.1113298936
| 30> *
| 31>
| 32>                          ****END OF INPUT****

CARTESIAN COORDINATES (ANGSTROEM)
---------------------------------
  C     -2.565202   -0.639977   -0.337753
  C     -1.181997   -0.293098    0.222986
  H     -1.241409   -0.235771    1.321098
  C     -0.699310    1.061848   -0.309899
  H     -0.690458    1.030000   -1.410885
  C      0.734019    1.327789    0.167689
  H      0.732285    1.437426    1.264178
  C      1.635285    0.145921   -0.196125
  H      1.701975    0.063507   -1.291341
  C      1.015751   -1.156401    0.335280
  H      0.989219   -1.108019    1.444961
  O     -0.294260   -1.332506   -0.151598
  O      1.799475   -2.203281   -0.105490
  O      2.900265    0.378694    0.367003
  O      1.169803    2.520543   -0.435194
  O     -1.580237    2.052748    0.145164
  O     -3.132202   -1.764203    0.278955
  H     -2.474300   -0.789923   -1.420141
  H     -3.234177    0.198401   -0.139868
  H      1.370989   -3.051068    0.088725
  H      3.472914   -0.380442    0.182115
  H      2.103284    2.655410   -0.214479
  H     -1.215289    2.917342   -0.100591
  H     -2.562627   -2.528528    0.111330

 Total Charge           Charge          ....    0
 Multiplicity           Mult            ....    1
 Number of Electrons    NEL             ....   96
 Basis Dimension        Dim             ....  318

ORBITAL ENERGIES
----------------

  NO   OCC          E(Eh)            E(eV)
   0   2.0000     -18.981752      -516.5197
   1   2.0000     -18.979439      -516.4568
   2   2.0000     -18.970548      -516.2149
   3   2.0000     -18.965444      -516.0760
   4   2.0000     -18.960491      -515.9412
   5   2.0000     -18.950708      -515.6750
   6   2.0000     -10.147513      -276.1279
   7   2.0000     -10.095531      -274.7134
   8   2.0000     -10.095347      -274.7083
   9   2.0000     -10.094781      -274.6929
  10   2.0000     -10.094588      -274.6877
  11   2.0000     -10.078193      -274.2416
  12   2.0000      -1.061901       -28.8958
  13   2.0000      -1.019574       -27.7440
  14   2.0000      -1.010120       -27.4868
  15   2.0000      -0.996859       -27.1259
  16   2.0000      -0.990103       -26.9421
  17   2.0000      -0.984698       -26.7950
  18   2.0000      -0.757910       -20.6238
  19   2.0000      -0.742183       -20.1958
  20   2.0000      -0.660448       -17.9717
  21   2.0000      -0.620976       -16.8976
  22   2.0000      -0.595550       -16.2057
  23   2.0000      -0.561397       -15.2764
  24   2.0000      -0.544590       -14.8190
  25   2.0000      -0.510786       -13.8992
  26   2.0000      -0.497651       -13.5418
  27   2.0000      -0.488465       -13.2918
  28   2.0000      -0.476574       -12.9682
  29   2.0000      -0.464911       -12.6509
  30   2.0000      -0.437781       -11.9126
  31   2.0000      -0.425885       -11.5889
  32   2.0000      -0.413286       -11.2461
  33   2.0000      -0.395055       -10.7500
  34   2.0000      -0.387542       -10.5456
  35   2.0000      -0.383693       -10.4408
  36   2.0000      -0.355341        -9.6693
  37   2.0000      -0.345025        -9.3886
  38   2.0000      -0.336348        -9.1525
  39   2.0000      -0.321781        -8.7561
  40   2.0000      -0.313536        -8.5318
  41   2.0000      -0.299265        -8.1434
  42   2.0000      -0.281520        -7.6605
  43   2.0000      -0.271231        -7.3806
  44   2.0000      -0.256359        -6.9759
  45   2.0000      -0.247316        -6.7298
  46   2.0000      -0.240339        -6.5400
  47   2.0000      -0.234753        -6.3880
  48   0.0000       0.029209         0.7948
  49   0.0000       0.038910         1.0588
  50   0.0000       0.070001         1.9048
  51   0.0000       0.073497         2.0000
  52   0.0000       0.084717         2.3053

MULLIKEN ATOMIC CHARGES
-----------------------
   0 C :   -0.295128
   1 C :   -0.051466
   2 H :    0.184541
   3 C :    0.031108
   4 H :    0.168427
   5 C :   -0.048932
   6 H :    0.171143
   7 C :    0.045266
   8 H :    0.171018
   9 C :   -0.044422
  10 H :    0.143930
  11 O :   -0.210903
  12 O :   -0.402593
  13 O :   -0.443470
  14 O :   -0.442952
  15 O :   -0.443203
  16 O :   -0.407760
  17 H :    0.143861
  18 H :    0.172283
  19 H :    0.308743
  20 H :    0.313936
  21 H :    0.315164
  22 H :    0.315760
  23 H :    0.305649
Sum of atomic charges:   -0.0000000

LOEWDIN ATOMIC CHARGES
----------------------
   0 C :    0.044324
   1 C :    0.117624
   2 H :    0.189652
   3 C :    0.115166
   4 H :    0.184128
   5 C :    0.108478
   6 H :    0.186485
   7 C :    0.116805
   8 H :    0.189052
   9 C :    0.296537
  10 H :    0.180374
  11 O :   -0.687060
  12 O :   -0.503616
  13 O :   -0.572366
  14 O :   -0.575713
  15 O :   -0.577718
  16 O :   -0.588855
  17 H :    0.168775
  18 H :    0.199362
  19 H :    0.284682
  20 H :    0.283585
  21 H :    0.283978
  22 H :    0.284937
  23 H :    0.271383

  Mayer bond orders larger than 0.100000
B(  0-C ,  1-C ) :   0.9211 B(  0-C , 16-O ) :   1.0122 B(  0-C , 17-H ) :   0.9968
B(  0-C , 18-H ) :   0.9638 B(  1-C ,  2-H ) :   0.9572 B(  1-C ,  3-C ) :   0.8629
B(  1-C , 11-O ) :   0.7949 B(  3-C ,  4-H ) :   0.9598 B(  3-C ,  5-C ) :   0.8726
B(  3-C , 15-O ) :   0.8525 B(  5-C ,  6-H ) :   0.9913 B(  5-C ,  7-C ) :   0.8570
B(  5-C , 14-O ) :   0.9174 B(  7-C ,  8-H ) :   0.9711 B(  7-C ,  9-C ) :   0.8131
B(  7-C , 13-O ) :   0.9054 B(  9-C , 10-H ) :   1.0003 B(  9-C , 11-O ) :   0.9290
B(  9-C , 12-O ) :   1.0460 B( 12-O , 19-H ) :   0.8804 B( 13-O , 20-H ) :   0.8805
B( 14-O , 21-H ) :   0.8777 B( 15-O , 22-H ) :   0.8782 B( 16-O , 23-H ) :   0.8830

Dispersion correction           -0.007940649
FINAL SINGLE POINT ENERGY      -687.080444943161

DIPOLE MOMENT
-------------

Method             : SCF
Type of density    : Electron Density
Multiplicity       :   1
Irrep              :   0
Energy             :  -687.0917921843426939 Eh
Relativity type    :
Basis              : AO
                                X                 Y                 Z
Electronic contribution:      1.901517082      -0.608163649       0.088153134
Nuclear contribution   :     -0.970038533       0.190300726      -0.153237298
                        -----------------------------------------
Total Dipole Moment    :      0.931478548      -0.417862923      -0.065084164
                        -----------------------------------------
Magnitude (a.u.)       :      1.022984681
Magnitude (Debye)      :      2.600220415

Rotational constants in cm-1:             0.039623             0.025874             0.016352
Rotational constants in MHz :          1187.874112           775.686957           490.207480

                             ****ORCA TERMINATED NORMALLY****
TOTAL RUN TIME: 0 days 0 hours 0 minutes 48 seconds 737 msec
