                         Program Version 6.0.0  -   RELEASE  -
|  1> ! r2scan-3c def2/J RI DEFGRID2 scfconv6 printgap
|  2> %output
|  3>     printlevel normal
|  4> end
|  5> %cpcm
|  6>     smd true
|  7>     smdsolvent "water"
|  8> end
|  9> * xyz 0 1
| 10> C -2.5652024387 -0.6399774127 -0.3377532294
| 11> C -1.1819965191 -0.293098016 0.2229862219
| 12> H -1.2414089479 -0.2357705758 1.3210981983
| 13> C -0.6993098911 1.0618484036 -0.3098992776
| 14> H -0.6904580499 1.0300004201 -1.4108845034
| 15> C 0.7340189852 1.3277885492 0.1676892216
| 16> H 0.7322847659 1.4374256538 1.264177521
| 17> C 1.6352845991 0.1459209997 -0.1961250002
| 18> H 1.7019751657 0.0635071359 -1.2913410295
| 19> C 1.0157511402 -1.1564011759 0.3352798102
| 20> H 0.989218789 -1.1080185754 1.444961157
| 21> O -0.2942597269 -1.3325061853 -0.1515980603
| 22> O 1.7994754639 -2.2032810383 -0.1054897723
| 23> O 2.9002652734 0.3786941024 0.3670025216
| 24> O 1.1698027919 2.5205428317 -0.4351944533
| 25> O -1.5802372628 2.0527484733 0.145163768
| 26> O -3.1322019821 -1.7642029011 0.2789548833
| 27> H -2.4743003421 -0.789922796 -1.4201406609
| 28> H -3.2341768148 0.1984013008 -0.1398682304
| 29> H 1.3709893832 -3.0510677829 0.0887252099
| 30> H 3.4729140065 -0.3804416752 0.1821153542
| 31> H 2.1032841462 2.6554097836 -0.2144785308
| 32> H -1.2152889297 2.9173424843 -0.1005914942
| 33> H -2.5626269056 -2.5285276364 0.1113298936
| 34> *
| 35>
| 36>                          ****END OF INPUT****

CARTESIAN COORDINATES (ANGSTROEM)
---------------------------------
  C     -2.565202   -0.639977   -0.337753
  C     -1.181997   -0.293098    0.222986
  H     -1.241409   -0.235771    1.321098
  C     -0.699310    1.061848   -0.309899
  H     -0.690458    1.030000   -1.410885
  C      0.734019    1.327789    0.167689
  H      0.732285    1.437426    1.264178
  C      1.635285    0.145921   -0.196125
  H      1.701975    0.063507   -1.291341
  C      1.015751   -1.156401    0.335280
  H      0.989219   -1.108019    1.444961
  O     -0.294260   -1.332506   -0.151598
  O      1.799475   -2.203281   -0.105490
  O      2.900265    0.378694    0.367003
  O      1.169803    2.520543   -0.435194
  O     -1.580237    2.052748    0.145164
  O     -3.132202   -1.764203    0.278955
  H     -2.474300   -0.789923   -1.420141
  H     -3.234177    0.198401   -0.139868
  H      1.370989   -3.051068    0.088725
  H      3.472914   -0.380442    0.182115
  H      2.103284    2.655410   -0.214479
  H     -1.215289    2.917342   -0.100591
  H     -2.562627   -2.528528    0.111330

 Total Charge           Charge          ....    0
 Multiplicity           Mult            ....    1
 Number of Electrons    NEL             ....   96
 Basis Dimension        Dim             ....  318

ORBITAL ENERGIES
----------------

  NO   OCC          E(Eh)            E(eV)
   0   2.0000     -18.975249      -516.3428
   1   2.0000     -18.970221      -516.2060
   2   2.0000     -18.963916      -516.0344
   3   2.0000     -18.961688      -515.9738
   4   2.0000     -18.961575      -515.9707
   5   2.0000     -18.956850      -515.8421
   6   2.0000     -10.136623      -275.8315
   7   2.0000     -10.089609      -274.5522
   8   2.0000     -10.089211      -274.5414
   9   2.0000     -10.087842      -274.5041
  10   2.0000     -10.086683      -274.4726
  11   2.0000     -10.076396      -274.1927
  12   2.0000      -1.054130       -28.6843
  13   2.0000      -1.015317       -27.6282
  14   2.0000      -1.006107       -27.3776
  15   2.0000      -0.995907       -27.1000
  16   2.0000      -0.987099       -26.8603
  17   2.0000      -0.982305       -26.7299
  18   2.0000      -0.751959       -20.4618
  19   2.0000      -0.735697       -20.0193
  20   2.0000      -0.655183       -17.8284
  21   2.0000      -0.613612       -16.6972
  22   2.0000      -0.591568       -16.0974
  23   2.0000      -0.553463       -15.0605
  24   2.0000      -0.536358       -14.5950
  25   2.0000      -0.503675       -13.7057
  26   2.0000      -0.490345       -13.3430
  27   2.0000      -0.480657       -13.0794
  28   2.0000      -0.475038       -12.9265
  29   2.0000      -0.458517       -12.4769
  30   2.0000      -0.431506       -11.7419
  31   2.0000      -0.424332       -11.5467
  32   2.0000      -0.409973       -11.1559
  33   2.0000      -0.394262       -10.7284
  34   2.0000      -0.383497       -10.4355
  35   2.0000      -0.380640       -10.3578
  36   2.0000      -0.353503        -9.6193
  37   2.0000      -0.340207        -9.2575
  38   2.0000      -0.335593        -9.1320
  39   2.0000      -0.321133        -8.7385
  40   2.0000      -0.311325        -8.4716
  41   2.0000      -0.300894        -8.1877
  42   2.0000      -0.276062        -7.5120
  43   2.0000      -0.267615        -7.2822
  44   2.0000      -0.253050        -6.8858
  45   2.0000      -0.249340        -6.7849
  46   2.0000      -0.244040        -6.6407
  47   2.0000      -0.229592        -6.2475
  48   0.0000       0.039965         1.0875
  49   0.0000       0.059025         1.6062
  50   0.0000       0.081202         2.2096
  51   0.0000       0.089714         2.4413
  52   0.0000       0.099215         2.6998

MULLIKEN ATOMIC CHARGES
-----------------------
   0 C :   -0.292300
   1 C :   -0.041807
   2 H :    0.201140
   3 C :    0.011421
   4 H :    0.187734
   5 C :   -0.029955
   6 H :    0.185197
   7 C :    0.044060
   8 H :    0.185725
   9 C :   -0.055981
  10 H :    0.168023
  11 O :   -0.243818
  12 O :   -0.453716
  13 O :   -0.495054
  14 O :   -0.496497
  15 O :   -0.503458
  16 O :   -0.483998
  17 H :    0.164180
  18 H :    0.176115
  19 H :    0.358688
  20 H :    0.352895
  21 H :    0.352319
  22 H :    0.352859
  23 H :    0.356229
Sum of atomic charges:   -0.0000000

LOEWDIN ATOMIC CHARGES
----------------------
   0 C :    0.040875
   1 C :    0.118371
   2 H :    0.196337
   3 C :    0.115749
   4 H :    0.191939
   5 C :    0.109688
   6 H :    0.193658
   7 C :    0.116811
   8 H :    0.193901
   9 C :    0.299644
  10 H :    0.191396
  11 O :   -0.696943
  12 O :   -0.518060
  13 O :   -0.589330
  14 O :   -0.596012
  15 O :   -0.603378
  16 O :   -0.621515
  17 H :    0.177936
  18 H :    0.198872
  19 H :    0.302144
  20 H :    0.296647
  21 H :    0.296011
  22 H :    0.297061
  23 H :    0.288199

  Mayer bond orders larger than 0.100000
B(  0-C ,  1-C ) :   0.9165 B(  0-C , 16-O ) :   0.9953 B(  0-C , 17-H ) :   0.9840
B(  0-C , 18-H ) :   0.9653 B(  1-C ,  2-H ) :   0.9512 B(  1-C ,  3-C ) :   0.8758
B(  1-C , 11-O ) :   0.7922 B(  3-C ,  4-H ) :   0.9547 B(  3-C ,  5-C ) :   0.8882
B(  3-C , 15-O ) :   0.8348 B(  5-C ,  6-H ) :   0.9704 B(  5-C ,  7-C ) :   0.8837
B(  5-C , 14-O ) :   0.9019 B(  7-C ,  8-H ) :   0.9605 B(  7-C ,  9-C ) :   0.8250
B(  7-C , 13-O ) :   0.8896 B(  9-C , 10-H ) :   0.9974 B(  9-C , 11-O ) :   0.9341
B(  9-C , 12-O ) :   1.0465 B( 12-O , 19-H ) :   0.8550 B( 13-O , 20-H ) :   0.8610
B( 14-O , 21-H ) :   0.8594 B( 15-O , 22-H ) :   0.8601 B( 16-O , 23-H ) :   0.8570

Dispersion correction           -0.007940649
FINAL SINGLE POINT ENERGY      -687.111334170557

DIPOLE MOMENT
-------------

Method             : SCF
Type of density    : Electron Density
Multiplicity       :   1
Irrep              :   0
Energy             :  -687.1226814117392223 Eh
Relativity type    :
Basis              : AO
                                X                 Y                 Z
Electronic contribution:      2.214671775      -0.802894952       0.104721728
Nuclear contribution   :     -0.970038533       0.190300726      -0.153237298
                        -----------------------------------------
Total Dipole Moment    :      1.244633241      -0.612594226      -0.048515571
                        -----------------------------------------
Magnitude (a.u.)       :      1.388069649
Magnitude (Debye)      :      3.528192659

Rotational constants in cm-1:             0.039623             0.025874             0.016352
Rotational constants in MHz :          1187.874112           775.686957           490.207480

                             ****ORCA TERMINATED NORMALLY****
TOTAL RUN TIME: 0 days 0 hours 0 minutes 57 seconds 152 msec
