                         Program Version 6.0.0  -   RELEASE  -
|  1> ! pbe def2-sv(p) def2/J RI DEFGRID1 loosescf d4 GCP(DFT/SV(P)) printgap
|  2> %output
|  3>     printlevel normal
|  4> end
|  5> * xyz 0 1
|  6> C -2.0225839965 -1.3983492467 -0.155837343
|  7> C -1.0127333383 -0.5206094287 0.597333375
|  8> H -1.475028033 -0.1873807577 1.5347218656
|  9> C -0.6700212881 0.7362437347 -0.2253610724
| 10> H -0.6150929036 0.4892508683 -1.2965110517
| 11> C 0.7026726473 1.2627541526 0.202291419
| 12> H 0.6617836392 1.4663900257 1.2845130359
| 13> C 1.7765496281 0.196065457 -0.0837166674
| 14> H 2.0797202267 0.287265004 -1.1321499424
| 15> C 1.2250116025 -1.2345027304 0.111479671
| 16> H 1.9924228916 -1.8318780479 0.6241446706
| 17> O 0.1281131837 -1.2719059926 0.9932631256
| 18> O 0.9208693138 -1.7664927459 -1.1387292003
| 19> O 2.9395301756 0.4173616465 0.6714983819
| 20> O 0.9739504136 2.446347848 -0.5030301705
| 21> O -1.6283890436 1.7377634073 -0.002662159
| 22> O -3.2011383098 -0.6437077983 -0.3303240979
| 23> H -2.2123827279 -2.2985160903 0.4413747911
| 24> H -1.5955438555 -1.6843866549 -1.1245266168
| 25> H 0.8443377239 -2.7317912953 -1.085870766
| 26> H 2.7368149343 0.3525135978 1.6168740126
| 27> H 1.8470210626 2.7748835161 -0.2410778461
| 28> H -2.5002129965 1.3711235513 -0.226418513
| 29> H -3.8608960933 -1.1803987134 -0.7915621183
| 30> *
| 31>
| 32>                          ****END OF INPUT****

CARTESIAN COORDINATES (ANGSTROEM)
---------------------------------
  C     -2.022584   -1.398349   -0.155837
  C     -1.012733   -0.520609    0.597333
  H     -1.475028   -0.187381    1.534722
  C     -0.670021    0.736244   -0.225361
  H     -0.615093    0.489251   -1.296511
  C      0.702673    1.262754    0.202291
  H      0.661784    1.466390    1.284513
  C      1.776550    0.196065   -0.083717
  H      2.079720    0.287265   -1.132150
  C      1.225012   -1.234503    0.111480
  H      1.992423   -1.831878    0.624145
  O      0.128113   -1.271906    0.993263
  O      0.920869   -1.766493   -1.138729
  O      2.939530    0.417362    0.671498
  O      0.973950    2.446348   -0.503030
  O     -1.628389    1.737763   -0.002662
  O     -3.201138   -0.643708   -0.330324
  H     -2.212383   -2.298516    0.441375
  H     -1.595544   -1.684387   -1.124527
  H      0.844338   -2.731791   -1.085871
  H      2.736815    0.352514    1.616874
  H      1.847021    2.774884   -0.241078
  H     -2.500213    1.371124   -0.226419
  H     -3.860896   -1.180399   -0.791562

 Total Charge           Charge          ....    0
 Multiplicity           Mult            ....    1
 Number of Electrons    NEL             ....   96
 Basis Dimension        Dim             ....  192

ORBITAL ENERGIES
----------------

  NO   OCC          E(Eh)            E(eV)
   0   2.0000     -18.770572      -510.7732
   1   2.0000     -18.770538      -510.7723
   2   2.0000     -18.770344      -510.7670
   3   2.0000     -18.756136      -510.3804
   4   2.0000     -18.737480      -509.8727
   5   2.0000     -18.727960      -509.6137
   6   2.0000      -9.986656      -271.7507
   7   2.0000      -9.940515      -270.4952
   8   2.0000      -9.937059      -270.4011
   9   2.0000      -9.935924      -270.3702
  10   2.0000      -9.934537      -270.3325
  11   2.0000      -9.931726      -270.2560
  12   2.0000      -0.983560       -26.7640
  13   2.0000      -0.943543       -25.6751
  14   2.0000      -0.937390       -25.5077
  15   2.0000      -0.920701       -25.0535
  16   2.0000      -0.915491       -24.9118
  17   2.0000      -0.900487       -24.5035
  18   2.0000      -0.698401       -19.0045
  19   2.0000      -0.690089       -18.7783
  20   2.0000      -0.623687       -16.9714
  21   2.0000      -0.577862       -15.7244
  22   2.0000      -0.560010       -15.2387
  23   2.0000      -0.515393       -14.0245
  24   2.0000      -0.504875       -13.7383
  25   2.0000      -0.491480       -13.3739
  26   2.0000      -0.476709       -12.9719
  27   2.0000      -0.457126       -12.4390
  28   2.0000      -0.451424       -12.2839
  29   2.0000      -0.419733       -11.4215
  30   2.0000      -0.406844       -11.0708
  31   2.0000      -0.397113       -10.8060
  32   2.0000      -0.390064       -10.6142
  33   2.0000      -0.372670       -10.1409
  34   2.0000      -0.362884        -9.8746
  35   2.0000      -0.345780        -9.4091
  36   2.0000      -0.318641        -8.6707
  37   2.0000      -0.314299        -8.5525
  38   2.0000      -0.307540        -8.3686
  39   2.0000      -0.284857        -7.7513
  40   2.0000      -0.280856        -7.6425
  41   2.0000      -0.268995        -7.3197
  42   2.0000      -0.253930        -6.9098
  43   2.0000      -0.236827        -6.4444
  44   2.0000      -0.231461        -6.2984
  45   2.0000      -0.224670        -6.1136
  46   2.0000      -0.206219        -5.6115
  47   2.0000      -0.194344        -5.2884
  48   0.0000       0.008233         0.2240
  49   0.0000       0.014245         0.3876
  50   0.0000       0.026758         0.7281
  51   0.0000       0.055523         1.5109
  52   0.0000       0.066275         1.8034

MULLIKEN ATOMIC CHARGES
-----------------------
   0 C :    0.041229
   1 C :    0.040130
   2 H :    0.077877
   3 C :    0.022368
   4 H :    0.064883
   5 C :    0.080223
   6 H :    0.035426
   7 C :    0.066966
   8 H :    0.081046
   9 C :    0.148190
  10 H :    0.060811
  11 O :   -0.318148
  12 O :   -0.390434
  13 O :   -0.423593
  14 O :   -0.401031
  15 O :   -0.411520
  16 O :   -0.445550
  17 H :    0.076592
  18 H :    0.074589
  19 H :    0.307076
  20 H :    0.298482
  21 H :    0.299361
  22 H :    0.302953
  23 H :    0.312076
Sum of atomic charges:   -0.0000000

LOEWDIN ATOMIC CHARGES
----------------------
   0 C :   -0.136913
   1 C :   -0.067634
   2 H :    0.118981
   3 C :   -0.066868
   4 H :    0.107513
   5 C :   -0.065185
   6 H :    0.098936
   7 C :   -0.087775
   8 H :    0.126379
   9 C :   -0.013558
  10 H :    0.097650
  11 O :   -0.149841
  12 O :   -0.303729
  13 O :   -0.313027
  14 O :   -0.311809
  15 O :   -0.317468
  16 O :   -0.337127
  17 H :    0.097760
  18 H :    0.097912
  19 H :    0.288229
  20 H :    0.282955
  21 H :    0.285452
  22 H :    0.275636
  23 H :    0.293532

  Mayer bond orders larger than 0.100000
B(  0-C ,  1-C ) :   1.0785 B(  0-C , 16-O ) :   1.0534 B(  0-C , 17-H ) :   0.9164
B(  0-C , 18-H ) :   0.9028 B(  1-C ,  2-H ) :   0.8830 B(  1-C ,  3-C ) :   0.9719
B(  1-C , 11-O ) :   0.9776 B(  3-C ,  4-H ) :   0.8847 B(  3-C ,  5-C ) :   1.0283
B(  3-C , 15-O ) :   1.1051 B(  5-C ,  6-H ) :   0.8587 B(  5-C ,  7-C ) :   1.0225
B(  5-C , 14-O ) :   1.1065 B(  7-C ,  8-H ) :   0.8624 B(  7-C ,  9-C ) :   0.9814
B(  7-C , 13-O ) :   1.0295 B(  9-C , 10-H ) :   0.8998 B(  9-C , 11-O ) :   1.0738
B(  9-C , 12-O ) :   1.1072 B( 12-O , 19-H ) :   0.8356 B( 13-O , 20-H ) :   0.8484
B( 14-O , 21-H ) :   0.8443 B( 15-O , 22-H ) :   0.8199 B( 16-O , 23-H ) :   0.8434

Dispersion correction           -0.024550465
FINAL SINGLE POINT ENERGY      -685.689391396037

DIPOLE MOMENT
-------------

Method             : SCF
Type of density    : Electron Density
Multiplicity       :   1
Irrep              :   0
Energy             :  -685.8195057538445099 Eh
Relativity type    :
Basis              : AO
                                X                 Y                 Z
Electronic contribution:      1.608849774       1.402127990       0.513068238
Nuclear contribution   :     -1.965426023      -2.963123473      -0.376565900
                        -----------------------------------------
Total Dipole Moment    :     -0.356576249      -1.560995483       0.136502338
                        -----------------------------------------
Magnitude (a.u.)       :      1.607011639
Magnitude (Debye)      :      4.084698970

Rotational constants in cm-1:             0.043710             0.026441             0.018950
Rotational constants in MHz :          1310.393240           792.670603           568.113328

                             ****ORCA TERMINATED NORMALLY****
TOTAL RUN TIME: 0 days 0 hours 0 minutes 11 seconds 942 msec
