                         Program Version 6.0.0  -   RELEASE  -
|  1> ! pbe def2-sv(p) def2/J RI DEFGRID1 loosescf d4 GCP(DFT/SV(P)) printgap
|  2> %output
|  3>     printlevel normal
|  4> end
|  5> * xyz 0 1
|  6> C -2.2322364814 -1.1888475426 0.0983240781
|  7> C -0.8694302056 -0.5704901763 0.4568808417
|  8> H -0.8806094655 -0.2721775373 1.5174439096
|  9> C -0.5649596971 0.6658140346 -0.4052298226
| 10> H -0.5023650922 0.3745971728 -1.4594692558
| 11> C 0.7874042713 1.2688215732 0.0001984087
| 12> H 0.6360584809 1.8722455149 0.9103870622
| 13> C 1.7984603624 0.1668041804 0.3914021863
| 14> H 2.7696595006 0.4082447443 -0.0641641507
| 15> C 1.3744890965 -1.2028759065 -0.1611433201
| 16> H 2.0468629591 -1.9832047091 0.233754797
| 17> O 0.1028473182 -1.5975133906 0.2840253782
| 18> O 1.4617541733 -1.1464501255 -1.5501749441
| 19> O 1.8764318853 0.1581772463 1.793690149
| 20> O 1.2314988964 2.0693952339 -1.0611844446
| 21> O -1.6051837979 1.6081498345 -0.3300113858
| 22> O -3.3174707658 -0.4157903943 0.5323835811
| 23> H -2.3111236067 -2.1547983925 0.6018113102
| 24> H -2.2733839701 -1.3518179456 -0.9862881601
| 25> H 1.2596835844 -2.0153142907 -1.9304531446
| 26> H 2.5261897788 -0.4936496237 2.0943057692
| 27> H 1.9985909923 2.5930716355 -0.7880960913
| 28> H -1.5408190276 2.0995781391 0.502782626
| 29> H -3.258610766 0.4506245071 0.0930321322
| 30> *
| 31>
| 32>                          ****END OF INPUT****

CARTESIAN COORDINATES (ANGSTROEM)
---------------------------------
  C     -2.232236   -1.188848    0.098324
  C     -0.869430   -0.570490    0.456881
  H     -0.880609   -0.272178    1.517444
  C     -0.564960    0.665814   -0.405230
  H     -0.502365    0.374597   -1.459469
  C      0.787404    1.268822    0.000198
  H      0.636058    1.872246    0.910387
  C      1.798460    0.166804    0.391402
  H      2.769660    0.408245   -0.064164
  C      1.374489   -1.202876   -0.161143
  H      2.046863   -1.983205    0.233755
  O      0.102847   -1.597513    0.284025
  O      1.461754   -1.146450   -1.550175
  O      1.876432    0.158177    1.793690
  O      1.231499    2.069395   -1.061184
  O     -1.605184    1.608150   -0.330011
  O     -3.317471   -0.415790    0.532384
  H     -2.311124   -2.154798    0.601811
  H     -2.273384   -1.351818   -0.986288
  H      1.259684   -2.015314   -1.930453
  H      2.526190   -0.493650    2.094306
  H      1.998591    2.593072   -0.788096
  H     -1.540819    2.099578    0.502783
  H     -3.258611    0.450625    0.093032

 Total Charge           Charge          ....    0
 Multiplicity           Mult            ....    1
 Number of Electrons    NEL             ....   96
 Basis Dimension        Dim             ....  192

ORBITAL ENERGIES
----------------

  NO   OCC          E(Eh)            E(eV)
   0   2.0000     -18.768713      -510.7226
   1   2.0000     -18.767909      -510.7008
   2   2.0000     -18.765470      -510.6344
   3   2.0000     -18.765239      -510.6281
   4   2.0000     -18.753377      -510.3053
   5   2.0000     -18.727241      -509.5941
   6   2.0000      -9.991197      -271.8743
   7   2.0000      -9.951260      -270.7876
   8   2.0000      -9.949705      -270.7452
   9   2.0000      -9.942011      -270.5359
  10   2.0000      -9.935117      -270.3483
  11   2.0000      -9.919404      -269.9207
  12   2.0000      -0.982601       -26.7379
  13   2.0000      -0.949039       -25.8247
  14   2.0000      -0.942509       -25.6470
  15   2.0000      -0.927643       -25.2425
  16   2.0000      -0.914574       -24.8868
  17   2.0000      -0.902905       -24.5693
  18   2.0000      -0.706029       -19.2120
  19   2.0000      -0.690202       -18.7813
  20   2.0000      -0.615044       -16.7362
  21   2.0000      -0.593796       -16.1580
  22   2.0000      -0.560522       -15.2526
  23   2.0000      -0.529836       -14.4176
  24   2.0000      -0.511955       -13.9310
  25   2.0000      -0.485428       -13.2092
  26   2.0000      -0.471039       -12.8176
  27   2.0000      -0.459065       -12.4918
  28   2.0000      -0.451677       -12.2908
  29   2.0000      -0.436229       -11.8704
  30   2.0000      -0.415812       -11.3148
  31   2.0000      -0.393445       -10.7062
  32   2.0000      -0.383269       -10.4293
  33   2.0000      -0.368210       -10.0195
  34   2.0000      -0.355620        -9.6769
  35   2.0000      -0.349627        -9.5138
  36   2.0000      -0.337916        -9.1951
  37   2.0000      -0.316847        -8.6218
  38   2.0000      -0.310996        -8.4626
  39   2.0000      -0.286606        -7.7989
  40   2.0000      -0.281000        -7.6464
  41   2.0000      -0.272908        -7.4262
  42   2.0000      -0.253983        -6.9112
  43   2.0000      -0.242698        -6.6042
  44   2.0000      -0.228965        -6.2305
  45   2.0000      -0.220529        -6.0009
  46   2.0000      -0.215985        -5.8773
  47   2.0000      -0.199493        -5.4285
  48   0.0000       0.012342         0.3358
  49   0.0000       0.016587         0.4514
  50   0.0000       0.023237         0.6323
  51   0.0000       0.033077         0.9001
  52   0.0000       0.055459         1.5091

MULLIKEN ATOMIC CHARGES
-----------------------
   0 C :    0.095470
   1 C :    0.009568
   2 H :    0.055000
   3 C :    0.064317
   4 H :    0.079920
   5 C :    0.067392
   6 H :    0.050216
   7 C :    0.045987
   8 H :    0.059356
   9 C :    0.143188
  10 H :    0.046872
  11 O :   -0.309203
  12 O :   -0.379819
  13 O :   -0.416251
  14 O :   -0.396886
  15 O :   -0.414552
  16 O :   -0.449794
  17 H :    0.088171
  18 H :    0.055503
  19 H :    0.305211
  20 H :    0.304098
  21 H :    0.300547
  22 H :    0.303857
  23 H :    0.291831
Sum of atomic charges:   -0.0000000

LOEWDIN ATOMIC CHARGES
----------------------
   0 C :   -0.122258
   1 C :   -0.074543
   2 H :    0.103663
   3 C :   -0.075433
   4 H :    0.126933
   5 C :   -0.065375
   6 H :    0.101567
   7 C :   -0.084473
   8 H :    0.105602
   9 C :   -0.013588
  10 H :    0.088764
  11 O :   -0.145124
  12 O :   -0.306827
  13 O :   -0.312385
  14 O :   -0.307606
  15 O :   -0.296562
  16 O :   -0.346348
  17 H :    0.114536
  18 H :    0.094092
  19 H :    0.288034
  20 H :    0.288362
  21 H :    0.286003
  22 H :    0.285543
  23 H :    0.267420

  Mayer bond orders larger than 0.100000
B(  0-C ,  1-C ) :   1.0238 B(  0-C , 16-O ) :   1.0915 B(  0-C , 17-H ) :   0.9242
B(  0-C , 18-H ) :   0.9080 B(  1-C ,  2-H ) :   0.8783 B(  1-C ,  3-C ) :   1.0286
B(  1-C , 11-O ) :   0.9563 B(  3-C ,  4-H ) :   0.8267 B(  3-C ,  5-C ) :   1.0750
B(  3-C , 15-O ) :   1.0041 B(  5-C ,  6-H ) :   0.8657 B(  5-C ,  7-C ) :   0.9689
B(  5-C , 14-O ) :   1.1124 B(  7-C ,  8-H ) :   0.8736 B(  7-C ,  9-C ) :   1.0434
B(  7-C , 13-O ) :   1.0305 B(  9-C , 10-H ) :   0.8940 B(  9-C , 11-O ) :   1.0822
B(  9-C , 12-O ) :   1.1465 B( 12-O , 19-H ) :   0.8389 B( 13-O , 20-H ) :   0.8436
B( 14-O , 21-H ) :   0.8470 B( 15-O , 22-H ) :   0.8373 B( 16-O , 23-H ) :   0.8167

Dispersion correction           -0.024667115
FINAL SINGLE POINT ENERGY      -685.689824117008

DIPOLE MOMENT
-------------

Method             : SCF
Type of density    : Electron Density
Multiplicity       :   1
Irrep              :   0
Energy             :  -685.8201111785342619 Eh
Relativity type    :
Basis              : AO
                                X                 Y                 Z
Electronic contribution:      1.120341147       0.436573086      -0.380110642
Nuclear contribution   :      0.437359643      -0.433365806       0.675309624
                        -----------------------------------------
Total Dipole Moment    :      1.557700790       0.003207280       0.295198982
                        -----------------------------------------
Magnitude (a.u.)       :      1.585428799
Magnitude (Debye)      :      4.029839751

Rotational constants in cm-1:             0.041957             0.025505             0.021170
Rotational constants in MHz :          1257.827992           764.625424           634.654003

                             ****ORCA TERMINATED NORMALLY****
TOTAL RUN TIME: 0 days 0 hours 0 minutes 12 seconds 52 msec
