                         Program Version 6.0.0  -   RELEASE  -
|  1> ! pbe def2-sv(p) def2/J RI DEFGRID1 loosescf d4 GCP(DFT/SV(P)) printgap
|  2> %output
|  3>     printlevel normal
|  4> end
|  5> * xyz 0 1
|  6> C 4.8156309964 0.1204095053 0.0003477683
|  7> C 4.5281555538 1.4733510061 0.001235976
|  8> C 3.2111282387 1.9068853219 0.0008668933
|  9> C 2.1846545547 0.9794868234 7.6989e-06
| 10> C 2.4737562217 -0.3818912182 -0.0004144595
| 11> C 3.7889807497 -0.8114156607 -0.0003798673
| 12> O 1.4735283071 -1.3398456964 -0.0009235448
| 13> C 0.1952684796 -0.8682177883 -0.0003842654
| 14> C -0.8530053261 -1.7822843462 1.83156e-05
| 15> C -2.1754205169 -1.3630380589 0.0002719654
| 16> C -2.4542468805 -0.0089489733 6.13635e-05
| 17> C -1.4199993566 0.9254485546 -0.0003206945
| 18> C -0.0952318755 0.5004126282 -0.0003964323
| 19> O 0.8798884322 1.4492108135 -0.0004575765
| 20> Cl -1.7421543663 2.6181105635 -0.0005536866
| 21> Cl -4.086641178 0.5326002669 0.0006539384
| 22> Cl -0.4740722505 -3.4616858424 0.0001450862
| 23> H 5.83832532 -0.2186210916 4.21687e-05
| 24> H 5.3244030389 2.1991997114 0.0014348938
| 25> H 2.9575877166 2.9539062069 0.0010902471
| 26> H 3.9831862905 -1.8710920013 -0.0011116531
| 27> H -2.972963916 -2.0858601907 0.0009433343
| 28> *
| 29>
| 30>                          ****END OF INPUT****

CARTESIAN COORDINATES (ANGSTROEM)
---------------------------------
  C      4.815631    0.120410    0.000348
  C      4.528156    1.473351    0.001236
  C      3.211128    1.906885    0.000867
  C      2.184655    0.979487    0.000008
  C      2.473756   -0.381891   -0.000414
  C      3.788981   -0.811416   -0.000380
  O      1.473528   -1.339846   -0.000924
  C      0.195268   -0.868218   -0.000384
  C     -0.853005   -1.782284    0.000018
  C     -2.175421   -1.363038    0.000272
  C     -2.454247   -0.008949    0.000061
  C     -1.419999    0.925449   -0.000321
  C     -0.095232    0.500413   -0.000396
  O      0.879888    1.449211   -0.000458
  Cl    -1.742154    2.618111   -0.000554
  Cl    -4.086641    0.532600    0.000654
  Cl    -0.474072   -3.461686    0.000145
  H      5.838325   -0.218621    0.000042
  H      5.324403    2.199200    0.001435
  H      2.957588    2.953906    0.001090
  H      3.983186   -1.871092   -0.001112
  H     -2.972964   -2.085860    0.000943

 Total Charge           Charge          ....    0
 Multiplicity           Mult            ....    1
 Number of Electrons    NEL             ....  144
 Basis Dimension        Dim             ....  260

ORBITAL ENERGIES
----------------

  NO   OCC          E(Eh)            E(eV)
   0   2.0000    -100.652916     -2738.9051
   1   2.0000    -100.652794     -2738.9018
   2   2.0000    -100.652205     -2738.8857
   3   2.0000     -18.835381      -512.5368
   4   2.0000     -18.834599      -512.5155
   5   2.0000      -9.989058      -271.8161
   6   2.0000      -9.985545      -271.7205
   7   2.0000      -9.977246      -271.4947
   8   2.0000      -9.976974      -271.4873
   9   2.0000      -9.970702      -271.3166
  10   2.0000      -9.969580      -271.2861
  11   2.0000      -9.969009      -271.2705
  12   2.0000      -9.921925      -269.9893
  13   2.0000      -9.912333      -269.7283
  14   2.0000      -9.912222      -269.7253
  15   2.0000      -9.909163      -269.6420
  16   2.0000      -9.908857      -269.6337
  17   2.0000      -9.188474      -250.0311
  18   2.0000      -9.188397      -250.0290
  19   2.0000      -9.188043      -250.0194
  20   2.0000      -7.020217      -191.0298
  21   2.0000      -7.020097      -191.0266
  22   2.0000      -7.019673      -191.0150
  23   2.0000      -7.008399      -190.7082
  24   2.0000      -7.008334      -190.7065
  25   2.0000      -7.007983      -190.6969
  26   2.0000      -7.007629      -190.6873
  27   2.0000      -7.007391      -190.6808
  28   2.0000      -7.007185      -190.6752
  29   2.0000      -1.037984       -28.2450
  30   2.0000      -1.003276       -27.3005
  31   2.0000      -0.853311       -23.2198
  32   2.0000      -0.819339       -22.2954
  33   2.0000      -0.802636       -21.8408
  34   2.0000      -0.788761       -21.4633
  35   2.0000      -0.757890       -20.6232
  36   2.0000      -0.708546       -19.2805
  37   2.0000      -0.706944       -19.2369
  38   2.0000      -0.668017       -18.1777
  39   2.0000      -0.659237       -17.9388
  40   2.0000      -0.616535       -16.7768
  41   2.0000      -0.588494       -16.0137
  42   2.0000      -0.564627       -15.3643
  43   2.0000      -0.546204       -14.8630
  44   2.0000      -0.533935       -14.5291
  45   2.0000      -0.491652       -13.3785
  46   2.0000      -0.475879       -12.9493
  47   2.0000      -0.457784       -12.4569
  48   2.0000      -0.450411       -12.2563
  49   2.0000      -0.447877       -12.1874
  50   2.0000      -0.422310       -11.4916
  51   2.0000      -0.418496       -11.3878
  52   2.0000      -0.408324       -11.1110
  53   2.0000      -0.390785       -10.6338
  54   2.0000      -0.389169       -10.5898
  55   2.0000      -0.385390       -10.4870
  56   2.0000      -0.384509       -10.4630
  57   2.0000      -0.375702       -10.2234
  58   2.0000      -0.348629        -9.4867
  59   2.0000      -0.343563        -9.3488
  60   2.0000      -0.342165        -9.3108
  61   2.0000      -0.330472        -8.9926
  62   2.0000      -0.308936        -8.4066
  63   2.0000      -0.306202        -8.3322
  64   2.0000      -0.291039        -7.9196
  65   2.0000      -0.278943        -7.5904
  66   2.0000      -0.276027        -7.5111
  67   2.0000      -0.266655        -7.2560
  68   2.0000      -0.248245        -6.7551
  69   2.0000      -0.245101        -6.6695
  70   2.0000      -0.213795        -5.8176
  71   2.0000      -0.189756        -5.1635
  72   0.0000      -0.068134        -1.8540
  73   0.0000      -0.057223        -1.5571
  74   0.0000      -0.051322        -1.3966
  75   0.0000      -0.035280        -0.9600
  76   0.0000      -0.023972        -0.6523

MULLIKEN ATOMIC CHARGES
-----------------------
   0 C :   -0.038007
   1 C :   -0.038875
   2 C :   -0.156649
   3 C :    0.206630
   4 C :    0.207955
   5 C :   -0.157241
   6 O :   -0.195967
   7 C :    0.161297
   8 C :    0.041973
   9 C :   -0.190524
  10 C :    0.060848
  11 C :    0.015895
  12 C :    0.097844
  13 O :   -0.194824
  14 Cl:   -0.017324
  15 Cl:   -0.048502
  16 Cl:   -0.041485
  17 H :    0.063492
  18 H :    0.063555
  19 H :    0.058688
  20 H :    0.058393
  21 H :    0.042828
Sum of atomic charges:   -0.0000000

LOEWDIN ATOMIC CHARGES
----------------------
   0 C :   -0.121925
   1 C :   -0.122693
   2 C :   -0.129161
   3 C :    0.020933
   4 C :    0.021351
   5 C :   -0.129726
   6 O :   -0.019534
   7 C :   -0.009549
   8 C :   -0.154914
   9 C :   -0.161317
  10 C :   -0.161049
  11 C :   -0.181075
  12 C :    0.000849
  13 O :   -0.017447
  14 Cl:    0.166461
  15 Cl:    0.156868
  16 Cl:    0.159320
  17 H :    0.130080
  18 H :    0.130109
  19 H :    0.139877
  20 H :    0.139742
  21 H :    0.142799

  Mayer bond orders larger than 0.100000
B(  0-C ,  1-C ) :   1.3713 B(  0-C ,  5-C ) :   1.3234 B(  0-C , 17-H ) :   0.9692
B(  1-C ,  2-C ) :   1.3229 B(  1-C , 18-H ) :   0.9692 B(  2-C ,  3-C ) :   1.3899
B(  2-C ,  5-C ) :   0.1006 B(  2-C , 19-H ) :   0.9678 B(  3-C ,  4-C ) :   1.2950
B(  3-C , 13-O ) :   1.0247 B(  4-C ,  5-C ) :   1.3886 B(  4-C ,  6-O ) :   1.0295
B(  5-C , 20-H ) :   0.9678 B(  6-O ,  7-C ) :   1.1396 B(  7-C ,  8-C ) :   1.3752
B(  7-C , 12-C ) :   1.2517 B(  8-C ,  9-C ) :   1.3165 B(  8-C , 16-Cl) :   1.0055
B(  9-C , 10-C ) :   1.3335 B(  9-C , 21-H ) :   0.9952 B( 10-C , 11-C ) :   1.4219
B( 10-C , 15-Cl) :   1.0186 B( 11-C , 12-C ) :   1.3832 B( 11-C , 14-Cl) :   1.0928
B( 12-C , 13-O ) :   1.1454

Dispersion correction           -0.037653730
FINAL SINGLE POINT ENERGY     -1989.111257240947

DIPOLE MOMENT
-------------

Method             : SCF
Type of density    : Electron Density
Multiplicity       :   1
Irrep              :   0
Energy             : -1989.1542691042084243 Eh
Relativity type    :
Basis              : AO
                                X                 Y                 Z
Electronic contribution:    -21.866374999      -1.329988512      -0.001792134
Nuclear contribution   :     22.689674435       1.336108344       0.001900954
                        -----------------------------------------
Total Dipole Moment    :      0.823299436       0.006119832       0.000108821
                        -----------------------------------------
Magnitude (a.u.)       :      0.823322188
Magnitude (Debye)      :      2.092718691

Rotational constants in cm-1:             0.018014             0.008574             0.005809
Rotational constants in MHz :           540.056174           257.049877           174.156728

                             ****ORCA TERMINATED NORMALLY****
TOTAL RUN TIME: 0 days 0 hours 0 minutes 15 seconds 690 msec
