                         Program Version 6.0.0  -   RELEASE  -
|  1> ! pbe def2-sv(p) def2/J RI DEFGRID1 loosescf d4 GCP(DFT/SV(P)) printgap
|  2> %output
|  3>     printlevel normal
|  4> end
|  5> * xyz 0 1
|  6> C -2.4521603801 -0.2301325312 -0.533514941
|  7> C -1.1947552963 -0.2031323968 0.3424460583
|  8> H -1.4438000629 -0.5324635553 1.3648285669
|  9> C -0.5990974988 1.2241047459 0.4363603055
| 10> H -1.3579025383 1.9362952644 0.0943170058
| 11> C 0.6252612858 1.3383015894 -0.481049525
| 12> H 1.0746345005 2.3311718691 -0.3255962992
| 13> C 1.6806512438 0.2953432318 -0.0541903279
| 14> H 2.3544422454 0.0981288136 -0.8982222838
| 15> C 1.0032478353 -1.0455672191 0.3122490044
| 16> H 0.9268894328 -1.1107845594 1.4201495351
| 17> O -0.2890917657 -1.1371211578 -0.2303028103
| 18> O 1.7766250222 -2.0718598529 -0.1963700166
| 19> O 2.3793747734 0.8363779395 1.0412830339
| 20> O 0.1903454896 1.179484556 -1.8019146871
| 21> O -0.2914347933 1.5774665987 1.7622200452
| 22> O -3.0501595258 -1.4994122894 -0.5721612843
| 23> H -2.1725661914 0.1058335897 -1.5390843134
| 24> H -3.1979296593 0.4462182118 -0.1136250575
| 25> H 1.295350926 -2.9115617274 -0.1395576097
| 26> H 3.1620842845 0.3009820256 1.2360184461
| 27> H 0.9233985154 1.3346357686 -2.4154282188
| 28> H 0.6465198387 1.3945545944 1.9422953313
| 29> H -2.4071513608 -2.1248476572 -0.9355692934
| 30> *
| 31>
| 32>                          ****END OF INPUT****

CARTESIAN COORDINATES (ANGSTROEM)
---------------------------------
  C     -2.452160   -0.230133   -0.533515
  C     -1.194755   -0.203132    0.342446
  H     -1.443800   -0.532464    1.364829
  C     -0.599097    1.224105    0.436360
  H     -1.357903    1.936295    0.094317
  C      0.625261    1.338302   -0.481050
  H      1.074635    2.331172   -0.325596
  C      1.680651    0.295343   -0.054190
  H      2.354442    0.098129   -0.898222
  C      1.003248   -1.045567    0.312249
  H      0.926889   -1.110785    1.420150
  O     -0.289092   -1.137121   -0.230303
  O      1.776625   -2.071860   -0.196370
  O      2.379375    0.836378    1.041283
  O      0.190345    1.179485   -1.801915
  O     -0.291435    1.577467    1.762220
  O     -3.050160   -1.499412   -0.572161
  H     -2.172566    0.105834   -1.539084
  H     -3.197930    0.446218   -0.113625
  H      1.295351   -2.911562   -0.139558
  H      3.162084    0.300982    1.236018
  H      0.923399    1.334636   -2.415428
  H      0.646520    1.394555    1.942295
  H     -2.407151   -2.124848   -0.935569

 Total Charge           Charge          ....    0
 Multiplicity           Mult            ....    1
 Number of Electrons    NEL             ....   96
 Basis Dimension        Dim             ....  192

ORBITAL ENERGIES
----------------

  NO   OCC          E(Eh)            E(eV)
   0   2.0000     -18.782964      -511.1104
   1   2.0000     -18.769889      -510.7547
   2   2.0000     -18.769798      -510.7522
   3   2.0000     -18.764373      -510.6045
   4   2.0000     -18.738657      -509.9048
   5   2.0000     -18.733808      -509.7728
   6   2.0000      -9.992617      -271.9129
   7   2.0000      -9.953250      -270.8417
   8   2.0000      -9.951533      -270.7950
   9   2.0000      -9.939382      -270.4643
  10   2.0000      -9.932883      -270.2875
  11   2.0000      -9.920480      -269.9500
  12   2.0000      -0.989343       -26.9214
  13   2.0000      -0.956875       -26.0379
  14   2.0000      -0.942653       -25.6509
  15   2.0000      -0.926746       -25.2180
  16   2.0000      -0.915227       -24.9046
  17   2.0000      -0.905698       -24.6453
  18   2.0000      -0.700847       -19.0710
  19   2.0000      -0.691541       -18.8178
  20   2.0000      -0.617872       -16.8132
  21   2.0000      -0.591721       -16.1015
  22   2.0000      -0.561264       -15.2728
  23   2.0000      -0.525536       -14.3006
  24   2.0000      -0.512792       -13.9538
  25   2.0000      -0.489728       -13.3262
  26   2.0000      -0.477277       -12.9874
  27   2.0000      -0.460821       -12.5396
  28   2.0000      -0.457239       -12.4421
  29   2.0000      -0.441533       -12.0147
  30   2.0000      -0.412045       -11.2123
  31   2.0000      -0.394942       -10.7469
  32   2.0000      -0.380790       -10.3618
  33   2.0000      -0.373336       -10.1590
  34   2.0000      -0.362334        -9.8596
  35   2.0000      -0.348561        -9.4848
  36   2.0000      -0.325534        -8.8582
  37   2.0000      -0.319584        -8.6963
  38   2.0000      -0.314986        -8.5712
  39   2.0000      -0.306568        -8.3421
  40   2.0000      -0.273117        -7.4319
  41   2.0000      -0.262669        -7.1476
  42   2.0000      -0.259029        -7.0485
  43   2.0000      -0.250976        -6.8294
  44   2.0000      -0.243187        -6.6175
  45   2.0000      -0.220551        -6.0015
  46   2.0000      -0.205626        -5.5954
  47   2.0000      -0.198595        -5.4041
  48   0.0000       0.005596         0.1523
  49   0.0000       0.017331         0.4716
  50   0.0000       0.026319         0.7162
  51   0.0000       0.054409         1.4805
  52   0.0000       0.058706         1.5975

MULLIKEN ATOMIC CHARGES
-----------------------
   0 C :    0.055349
   1 C :    0.053787
   2 H :    0.065628
   3 C :    0.006211
   4 H :    0.079881
   5 C :    0.039954
   6 H :    0.080980
   7 C :    0.003594
   8 H :    0.062460
   9 C :    0.207002
  10 H :    0.031837
  11 O :   -0.320003
  12 O :   -0.388201
  13 O :   -0.418169
  14 O :   -0.397845
  15 O :   -0.426321
  16 O :   -0.437493
  17 H :    0.085684
  18 H :    0.087825
  19 H :    0.306650
  20 H :    0.318156
  21 H :    0.303907
  22 H :    0.304121
  23 H :    0.295007
Sum of atomic charges:   -0.0000000

LOEWDIN ATOMIC CHARGES
----------------------
   0 C :   -0.130316
   1 C :   -0.074801
   2 H :    0.107438
   3 C :   -0.062216
   4 H :    0.118630
   5 C :   -0.072364
   6 H :    0.107827
   7 C :   -0.090870
   8 H :    0.108777
   9 C :   -0.003424
  10 H :    0.076159
  11 O :   -0.159580
  12 O :   -0.301657
  13 O :   -0.308314
  14 O :   -0.305540
  15 O :   -0.322880
  16 O :   -0.337761
  17 H :    0.106056
  18 H :    0.117055
  19 H :    0.289396
  20 H :    0.298059
  21 H :    0.288485
  22 H :    0.272538
  23 H :    0.279304

  Mayer bond orders larger than 0.100000
B(  0-C ,  1-C ) :   1.0525 B(  0-C , 16-O ) :   1.0734 B(  0-C , 17-H ) :   0.9033
B(  0-C , 18-H ) :   0.9179 B(  1-C ,  2-H ) :   0.8826 B(  1-C ,  3-C ) :   0.9415
B(  1-C , 11-O ) :   0.9593 B(  3-C ,  4-H ) :   0.8976 B(  3-C ,  5-C ) :   1.0323
B(  3-C , 15-O ) :   1.0840 B(  5-C ,  6-H ) :   0.8977 B(  5-C ,  7-C ) :   0.9702
B(  5-C , 14-O ) :   1.0739 B(  7-C ,  8-H ) :   0.8804 B(  7-C ,  9-C ) :   0.9786
B(  7-C , 13-O ) :   1.0332 B(  9-C , 10-H ) :   0.8786 B(  9-C , 11-O ) :   1.0741
B(  9-C , 12-O ) :   1.1589 B( 12-O , 19-H ) :   0.8382 B( 13-O , 20-H ) :   0.8389
B( 14-O , 21-H ) :   0.8434 B( 15-O , 22-H ) :   0.8111 B( 16-O , 23-H ) :   0.8479

Dispersion correction           -0.024769052
FINAL SINGLE POINT ENERGY      -685.690020001106

DIPOLE MOMENT
-------------

Method             : SCF
Type of density    : Electron Density
Multiplicity       :   1
Irrep              :   0
Energy             :  -685.8206966547936645 Eh
Relativity type    :
Basis              : AO
                                X                 Y                 Z
Electronic contribution:      1.785556396      -1.538349505      -0.069901473
Nuclear contribution   :     -0.173307426       1.173233183      -0.290298635
                        -----------------------------------------
Total Dipole Moment    :      1.612248970      -0.365116322      -0.360200108
                        -----------------------------------------
Magnitude (a.u.)       :      1.691863111
Magnitude (Debye)      :      4.300374272

Rotational constants in cm-1:             0.041148             0.026017             0.021512
Rotational constants in MHz :          1233.590920           779.979004           644.900292

                             ****ORCA TERMINATED NORMALLY****
TOTAL RUN TIME: 0 days 0 hours 0 minutes 12 seconds 90 msec
