                         Program Version 6.0.0  -   RELEASE  -
|  1> ! pbe def2-sv(p) def2/J RI DEFGRID1 loosescf d4 GCP(DFT/SV(P)) printgap
|  2> %output
|  3>     printlevel normal
|  4> end
|  5> * xyz 0 1
|  6> C -2.5560033379 -0.6978741853 -0.2950308302
|  7> C -1.1669515354 -0.3101614159 0.2265191075
|  8> H -1.1995880396 -0.2375928664 1.325938702
|  9> C -0.7048310128 1.035506842 -0.3662205102
| 10> H -0.680627801 0.9355415103 -1.4581270444
| 11> C 0.7079088775 1.3322898661 0.1529543582
| 12> H 0.6798666782 1.4477801444 1.244682793
| 13> C 1.6544575129 0.162680075 -0.1724985646
| 14> H 1.8012706654 0.0873814117 -1.261218562
| 15> C 1.054823989 -1.1695035966 0.3016068437
| 16> H 1.0717868324 -1.1750776705 1.4112355169
| 17> O -0.2714320186 -1.3425857061 -0.1494837778
| 18> O 1.8120952387 -2.1922918517 -0.2237539035
| 19> O 2.8855682804 0.3286550858 0.4802284365
| 20> O 1.2319493271 2.5455184201 -0.3257809003
| 21> O -1.6033881348 2.0781378469 -0.1074645133
| 22> O -3.1409021865 -1.7354618113 0.4454279785
| 23> H -2.4630921124 -0.9705154856 -1.3524930488
| 24> H -3.2195073341 0.1634937819 -0.2018540825
| 25> H 1.4319483749 -3.0506229301 0.0216172298
| 26> H 3.2052789814 1.2282805137 0.3018787557
| 27> H 1.0803588992 2.6217199346 -1.2789271726
| 28> H -1.5711328078 2.324011986 0.8286820351
| 29> H -2.6005340948 -2.531931724 0.3461698513
| 30> *
| 31>
| 32>                          ****END OF INPUT****

CARTESIAN COORDINATES (ANGSTROEM)
---------------------------------
  C     -2.556003   -0.697874   -0.295031
  C     -1.166952   -0.310161    0.226519
  H     -1.199588   -0.237593    1.325939
  C     -0.704831    1.035507   -0.366221
  H     -0.680628    0.935542   -1.458127
  C      0.707909    1.332290    0.152954
  H      0.679867    1.447780    1.244683
  C      1.654458    0.162680   -0.172499
  H      1.801271    0.087381   -1.261219
  C      1.054824   -1.169504    0.301607
  H      1.071787   -1.175078    1.411236
  O     -0.271432   -1.342586   -0.149484
  O      1.812095   -2.192292   -0.223754
  O      2.885568    0.328655    0.480228
  O      1.231949    2.545518   -0.325781
  O     -1.603388    2.078138   -0.107465
  O     -3.140902   -1.735462    0.445428
  H     -2.463092   -0.970515   -1.352493
  H     -3.219507    0.163494   -0.201854
  H      1.431948   -3.050623    0.021617
  H      3.205279    1.228281    0.301879
  H      1.080359    2.621720   -1.278927
  H     -1.571133    2.324012    0.828682
  H     -2.600534   -2.531932    0.346170

 Total Charge           Charge          ....    0
 Multiplicity           Mult            ....    1
 Number of Electrons    NEL             ....   96
 Basis Dimension        Dim             ....  192

ORBITAL ENERGIES
----------------

  NO   OCC          E(Eh)            E(eV)
   0   2.0000     -18.779344      -511.0119
   1   2.0000     -18.766163      -510.6533
   2   2.0000     -18.764279      -510.6020
   3   2.0000     -18.762721      -510.5596
   4   2.0000     -18.749638      -510.2036
   5   2.0000     -18.747720      -510.1514
   6   2.0000      -9.991181      -271.8738
   7   2.0000      -9.952907      -270.8324
   8   2.0000      -9.951390      -270.7911
   9   2.0000      -9.947839      -270.6945
  10   2.0000      -9.943370      -270.5729
  11   2.0000      -9.931826      -270.2587
  12   2.0000      -0.988345       -26.8942
  13   2.0000      -0.955849       -26.0100
  14   2.0000      -0.939767       -25.5724
  15   2.0000      -0.928249       -25.2589
  16   2.0000      -0.920530       -25.0489
  17   2.0000      -0.914453       -24.8835
  18   2.0000      -0.709891       -19.3171
  19   2.0000      -0.694712       -18.9041
  20   2.0000      -0.623478       -16.9657
  21   2.0000      -0.590655       -16.0725
  22   2.0000      -0.566477       -15.4146
  23   2.0000      -0.542058       -14.7502
  24   2.0000      -0.509416       -13.8619
  25   2.0000      -0.494051       -13.4438
  26   2.0000      -0.475598       -12.9417
  27   2.0000      -0.465135       -12.6570
  28   2.0000      -0.452191       -12.3048
  29   2.0000      -0.431930       -11.7534
  30   2.0000      -0.428862       -11.6699
  31   2.0000      -0.411784       -11.2052
  32   2.0000      -0.388279       -10.5656
  33   2.0000      -0.375469       -10.2170
  34   2.0000      -0.368615       -10.0305
  35   2.0000      -0.356710        -9.7066
  36   2.0000      -0.320375        -8.7178
  37   2.0000      -0.315124        -8.5750
  38   2.0000      -0.311178        -8.4676
  39   2.0000      -0.294796        -8.0218
  40   2.0000      -0.287407        -7.8208
  41   2.0000      -0.279555        -7.6071
  42   2.0000      -0.259636        -7.0651
  43   2.0000      -0.248845        -6.7714
  44   2.0000      -0.241008        -6.5582
  45   2.0000      -0.224013        -6.0957
  46   2.0000      -0.216540        -5.8923
  47   2.0000      -0.207545        -5.6476
  48   0.0000       0.010725         0.2918
  49   0.0000       0.015502         0.4218
  50   0.0000       0.028055         0.7634
  51   0.0000       0.038492         1.0474
  52   0.0000       0.053851         1.4653

MULLIKEN ATOMIC CHARGES
-----------------------
   0 C :    0.103337
   1 C :   -0.032493
   2 H :    0.043925
   3 C :    0.050821
   4 H :    0.055396
   5 C :    0.052351
   6 H :    0.051045
   7 C :    0.047158
   8 H :    0.049023
   9 C :    0.200121
  10 H :    0.041561
  11 O :   -0.320333
  12 O :   -0.366074
  13 O :   -0.409095
  14 O :   -0.409562
  15 O :   -0.401218
  16 O :   -0.431547
  17 H :    0.072371
  18 H :    0.090238
  19 H :    0.304620
  20 H :    0.303066
  21 H :    0.304493
  22 H :    0.304620
  23 H :    0.296174
Sum of atomic charges:   -0.0000000

LOEWDIN ATOMIC CHARGES
----------------------
   0 C :   -0.126643
   1 C :   -0.081772
   2 H :    0.099255
   3 C :   -0.082755
   4 H :    0.113550
   5 C :   -0.090231
   6 H :    0.111394
   7 C :   -0.085349
   8 H :    0.103666
   9 C :    0.007085
  10 H :    0.083496
  11 O :   -0.161758
  12 O :   -0.284974
  13 O :   -0.314943
  14 O :   -0.310633
  15 O :   -0.302601
  16 O :   -0.334381
  17 H :    0.103238
  18 H :    0.119578
  19 H :    0.289332
  20 H :    0.284136
  21 H :    0.289338
  22 H :    0.289792
  23 H :    0.282179

  Mayer bond orders larger than 0.100000
B(  0-C ,  1-C ) :   1.0430 B(  0-C , 16-O ) :   1.0824 B(  0-C , 17-H ) :   0.9080
B(  0-C , 18-H ) :   0.9091 B(  1-C ,  2-H ) :   0.8709 B(  1-C ,  3-C ) :   0.9673
B(  1-C , 11-O ) :   0.9791 B(  3-C ,  4-H ) :   0.8627 B(  3-C ,  5-C ) :   1.0052
B(  3-C , 15-O ) :   1.0502 B(  5-C ,  6-H ) :   0.8613 B(  5-C ,  7-C ) :   0.9986
B(  5-C , 14-O ) :   1.0600 B(  7-C ,  8-H ) :   0.8634 B(  7-C ,  9-C ) :   0.9827
B(  7-C , 13-O ) :   1.0842 B(  9-C , 10-H ) :   0.8866 B(  9-C , 11-O ) :   1.0052
B(  9-C , 12-O ) :   1.2001 B( 12-O , 19-H ) :   0.8408 B( 13-O , 20-H ) :   0.8337
B( 14-O , 21-H ) :   0.8462 B( 15-O , 22-H ) :   0.8456 B( 16-O , 23-H ) :   0.8508

Dispersion correction           -0.023565889
FINAL SINGLE POINT ENERGY      -685.696074298462

DIPOLE MOMENT
-------------

Method             : SCF
Type of density    : Electron Density
Multiplicity       :   1
Irrep              :   0
Energy             :  -685.8250406996681932 Eh
Relativity type    :
Basis              : AO
                                X                 Y                 Z
Electronic contribution:      2.340985347      -0.749577217       0.007365583
Nuclear contribution   :     -2.298085852       0.785667448      -0.066172122
                        -----------------------------------------
Total Dipole Moment    :      0.042899495       0.036090231      -0.058806539
                        -----------------------------------------
Magnitude (a.u.)       :      0.081247034
Magnitude (Debye)      :      0.206513548

Rotational constants in cm-1:             0.039240             0.025662             0.016328
Rotational constants in MHz :          1176.391798           769.341161           489.501736

                             ****ORCA TERMINATED NORMALLY****
TOTAL RUN TIME: 0 days 0 hours 0 minutes 11 seconds 925 msec
