                         Program Version 6.0.0  -   RELEASE  -
|  1> ! wb97x-v def2-tzvp def2/J RIJCOSX DEFGRID2 scfconv7 GCP(DFT/TZ) printgap
|  2> %output
|  3>     printlevel normal
|  4> end
|  5> * xyz 0 1
|  6> C -1.322309684213716 -1.4916904447754313 2.7400656652008347e-05
|  7> C 0.038411288562983814 -1.7664279340209363 -6.460347669185275e-06
|  8> C 0.9662958047402306 -0.730337047501405 7.356009811544628e-06
|  9> C 0.5269973900904269 0.5948027225259599 5.291700417475739e-05
| 10> C -0.8331467525052721 0.8866444876357621 8.271636598775928e-05
| 11> C -1.7368875336929068 -0.166167387303059 7.085542577634651e-05
| 12> Cl -3.4528199474352412 0.19897467346435918 0.00011680295103954511
| 13> Cl 1.6616538439910482 1.9186260697089896 6.875449732088678e-05
| 14> Cl 2.6672535377758275 -1.1146937349145773 -4.115968481472728e-05
| 15> H -2.0400404965027206 -2.30302648311715 2.291452954300935e-05
| 16> H 0.3816887724743828 -2.794418639850326 -3.98933606909497e-05
| 17> H -1.1697396832401998 1.9159949436734403 0.00011422582689208692
| 18> *
| 19>
| 20>                          ****END OF INPUT****

CARTESIAN COORDINATES (ANGSTROEM)
---------------------------------
  C     -1.322310   -1.491690    0.000027
  C      0.038411   -1.766428   -0.000006
  C      0.966296   -0.730337    0.000007
  C      0.526997    0.594803    0.000053
  C     -0.833147    0.886644    0.000083
  C     -1.736888   -0.166167    0.000071
  Cl    -3.452820    0.198975    0.000117
  Cl     1.661654    1.918626    0.000069
  Cl     2.667254   -1.114694   -0.000041
  H     -2.040040   -2.303026    0.000023
  H      0.381689   -2.794419   -0.000040
  H     -1.169740    1.915995    0.000114

 Total Charge           Charge          ....    0
 Multiplicity           Mult            ....    1
 Number of Electrons    NEL             ....   90
 Basis Dimension        Dim             ....  315

ORBITAL ENERGIES
----------------

  NO   OCC          E(Eh)            E(eV)
   0   2.0000    -107.161216     -2916.0049
   1   2.0000    -107.159999     -2915.9718
   2   2.0000    -107.158722     -2915.9371
   3   2.0000     -12.145502      -330.4959
   4   2.0000     -12.140945      -330.3719
   5   2.0000     -12.139640      -330.3364
   6   2.0000     -12.091607      -329.0293
   7   2.0000     -12.091174      -329.0176
   8   2.0000     -12.087226      -328.9101
   9   2.0000     -11.314246      -307.8763
  10   2.0000     -11.313013      -307.8427
  11   2.0000     -11.311820      -307.8103
  12   2.0000      -9.105955      -247.7856
  13   2.0000      -9.104557      -247.7476
  14   2.0000      -9.103367      -247.7152
  15   2.0000      -9.103127      -247.7087
  16   2.0000      -9.103063      -247.7069
  17   2.0000      -9.101854      -247.6740
  18   2.0000      -9.101669      -247.6690
  19   2.0000      -9.100686      -247.6423
  20   2.0000      -9.100633      -247.6408
  21   2.0000      -1.474074       -40.1116
  22   2.0000      -1.442430       -39.2505
  23   2.0000      -1.427748       -38.8510
  24   2.0000      -1.382850       -37.6293
  25   2.0000      -1.310163       -35.6514
  26   2.0000      -1.285244       -34.9733
  27   2.0000      -1.156034       -31.4573
  28   2.0000      -1.132300       -30.8114
  29   2.0000      -1.017291       -27.6819
  30   2.0000      -1.005639       -27.3648
  31   2.0000      -0.968940       -26.3662
  32   2.0000      -0.941436       -25.6178
  33   2.0000      -0.923933       -25.1415
  34   2.0000      -0.889542       -24.2057
  35   2.0000      -0.871241       -23.7077
  36   2.0000      -0.865823       -23.5602
  37   2.0000      -0.833376       -22.6773
  38   2.0000      -0.820899       -22.3378
  39   2.0000      -0.811382       -22.0788
  40   2.0000      -0.805775       -21.9262
  41   2.0000      -0.802988       -21.8504
  42   2.0000      -0.777137       -21.1470
  43   2.0000      -0.680501       -18.5174
  44   2.0000      -0.677950       -18.4479
  45   0.0000      -0.311365        -8.4727
  46   0.0000      -0.298345        -8.1184
  47   0.0000      -0.282311        -7.6821
  48   0.0000      -0.279406        -7.6030
  49   0.0000      -0.242719        -6.6047

MULLIKEN ATOMIC CHARGES
-----------------------
   0 C :   -0.175598
   1 C :   -0.159749
   2 C :    0.073336
   3 C :    0.097178
   4 C :   -0.229351
   5 C :    0.149125
   6 Cl:   -0.082912
   7 Cl:   -0.054979
   8 Cl:   -0.057678
   9 H :    0.143518
  10 H :    0.144151
  11 H :    0.152958
Sum of atomic charges:   -0.0000000

LOEWDIN ATOMIC CHARGES
----------------------
   0 C :   -0.134128
   1 C :   -0.127734
   2 C :   -0.427662
   3 C :   -0.421719
   4 C :   -0.138328
   5 C :   -0.407780
   6 Cl:    0.384173
   7 Cl:    0.409059
   8 Cl:    0.404236
   9 H :    0.151959
  10 H :    0.152998
  11 H :    0.154927

  Mayer bond orders larger than 0.100000
B(  0-C ,  1-C ) :   1.4118 B(  0-C ,  5-C ) :   1.3968 B(  0-C ,  9-H ) :   0.9631
B(  1-C ,  2-C ) :   1.3941 B(  1-C , 10-H ) :   0.9549 B(  2-C ,  3-C ) :   1.3136
B(  2-C ,  8-Cl) :   1.0949 B(  3-C ,  4-C ) :   1.3683 B(  3-C ,  7-Cl) :   1.0903
B(  4-C ,  5-C ) :   1.3820 B(  4-C , 11-H ) :   0.9550 B(  5-C ,  6-Cl) :   0.9898

FINAL SINGLE POINT ENERGY     -1610.891724997407

DIPOLE MOMENT
-------------

Method             : SCF
Type of density    : Electron Density
Multiplicity       :   1
Irrep              :   0
Energy             : -1610.8974700743067388 Eh
Relativity type    :
Basis              : AO
                                X                 Y                 Z
Electronic contribution:      3.541852228       3.889293350       0.000041501
Nuclear contribution   :     -3.830104538      -4.329256555      -0.000048887
                        -----------------------------------------
Total Dipole Moment    :     -0.288252310      -0.439963205      -0.000007386
                        -----------------------------------------
Magnitude (a.u.)       :      0.525981954
Magnitude (Debye)      :      1.336939879

Rotational constants in cm-1:             0.060748             0.019633             0.014837
Rotational constants in MHz :          1821.172313           588.571962           444.815233

                             ****ORCA TERMINATED NORMALLY****
TOTAL RUN TIME: 0 days 0 hours 2 minutes 9 seconds 781 msec
