                         Program Version 6.0.0  -   RELEASE  -
|  1> ! wb97x-v def2-tzvp def2/J RIJCOSX DEFGRID2 scfconv7 GCP(DFT/TZ) printgap
|  2> %output
|  3>     printlevel normal
|  4> end
|  5> %cpcm
|  6>     smd true
|  7>     smdsolvent "water"
|  8> end
|  9> * xyz 0 1
| 10> C -1.322309684213716 -1.4916904447754313 2.7400656652008347e-05
| 11> C 0.038411288562983814 -1.7664279340209363 -6.460347669185275e-06
| 12> C 0.9662958047402306 -0.730337047501405 7.356009811544628e-06
| 13> C 0.5269973900904269 0.5948027225259599 5.291700417475739e-05
| 14> C -0.8331467525052721 0.8866444876357621 8.271636598775928e-05
| 15> C -1.7368875336929068 -0.166167387303059 7.085542577634651e-05
| 16> Cl -3.4528199474352412 0.19897467346435918 0.00011680295103954511
| 17> Cl 1.6616538439910482 1.9186260697089896 6.875449732088678e-05
| 18> Cl 2.6672535377758275 -1.1146937349145773 -4.115968481472728e-05
| 19> H -2.0400404965027206 -2.30302648311715 2.291452954300935e-05
| 20> H 0.3816887724743828 -2.794418639850326 -3.98933606909497e-05
| 21> H -1.1697396832401998 1.9159949436734403 0.00011422582689208692
| 22> *
| 23>
| 24>                          ****END OF INPUT****

CARTESIAN COORDINATES (ANGSTROEM)
---------------------------------
  C     -1.322310   -1.491690    0.000027
  C      0.038411   -1.766428   -0.000006
  C      0.966296   -0.730337    0.000007
  C      0.526997    0.594803    0.000053
  C     -0.833147    0.886644    0.000083
  C     -1.736888   -0.166167    0.000071
  Cl    -3.452820    0.198975    0.000117
  Cl     1.661654    1.918626    0.000069
  Cl     2.667254   -1.114694   -0.000041
  H     -2.040040   -2.303026    0.000023
  H      0.381689   -2.794419   -0.000040
  H     -1.169740    1.915995    0.000114

 Total Charge           Charge          ....    0
 Multiplicity           Mult            ....    1
 Number of Electrons    NEL             ....   90
 Basis Dimension        Dim             ....  315

ORBITAL ENERGIES
----------------

  NO   OCC          E(Eh)            E(eV)
   0   2.0000    -107.159258     -2915.9517
   1   2.0000    -107.158104     -2915.9203
   2   2.0000    -107.154355     -2915.8182
   3   2.0000     -12.138063      -330.2935
   4   2.0000     -12.133602      -330.1721
   5   2.0000     -12.130563      -330.0894
   6   2.0000     -12.081246      -328.7474
   7   2.0000     -12.078321      -328.6678
   8   2.0000     -12.074601      -328.5666
   9   2.0000     -11.312372      -307.8253
  10   2.0000     -11.311203      -307.7935
  11   2.0000     -11.307532      -307.6936
  12   2.0000      -9.104057      -247.7340
  13   2.0000      -9.102730      -247.6979
  14   2.0000      -9.101357      -247.6605
  15   2.0000      -9.101227      -247.6570
  16   2.0000      -9.100069      -247.6255
  17   2.0000      -9.099893      -247.6207
  18   2.0000      -9.099028      -247.5971
  19   2.0000      -9.096433      -247.5265
  20   2.0000      -9.096407      -247.5258
  21   2.0000      -1.468478       -39.9593
  22   2.0000      -1.437424       -39.1143
  23   2.0000      -1.425166       -38.7807
  24   2.0000      -1.376133       -37.4465
  25   2.0000      -1.300145       -35.3787
  26   2.0000      -1.277770       -34.7699
  27   2.0000      -1.145973       -31.1835
  28   2.0000      -1.123441       -30.5704
  29   2.0000      -1.007859       -27.4252
  30   2.0000      -0.997476       -27.1427
  31   2.0000      -0.962598       -26.1936
  32   2.0000      -0.934712       -25.4348
  33   2.0000      -0.910802       -24.7842
  34   2.0000      -0.880296       -23.9541
  35   2.0000      -0.860628       -23.4189
  36   2.0000      -0.858676       -23.3658
  37   2.0000      -0.829456       -22.5706
  38   2.0000      -0.819452       -22.2984
  39   2.0000      -0.808870       -22.0105
  40   2.0000      -0.803046       -21.8520
  41   2.0000      -0.799751       -21.7623
  42   2.0000      -0.771410       -20.9911
  43   2.0000      -0.671256       -18.2658
  44   2.0000      -0.669994       -18.2315
  45   0.0000      -0.306060        -8.3283
  46   0.0000      -0.290200        -7.8968
  47   0.0000      -0.274041        -7.4570
  48   0.0000      -0.271486        -7.3875
  49   0.0000      -0.237779        -6.4703

MULLIKEN ATOMIC CHARGES
-----------------------
   0 C :   -0.202615
   1 C :   -0.188544
   2 C :    0.085033
   3 C :    0.094270
   4 C :   -0.237575
   5 C :    0.155668
   6 Cl:   -0.099880
   7 Cl:   -0.075194
   8 Cl:   -0.077956
   9 H :    0.180837
  10 H :    0.182075
  11 H :    0.183881
Sum of atomic charges:   -0.0000000

LOEWDIN ATOMIC CHARGES
----------------------
   0 C :   -0.125597
   1 C :   -0.120120
   2 C :   -0.430619
   3 C :   -0.425828
   4 C :   -0.133825
   5 C :   -0.410717
   6 Cl:    0.370951
   7 Cl:    0.393717
   8 Cl:    0.389291
   9 H :    0.163395
  10 H :    0.164669
  11 H :    0.164684

  Mayer bond orders larger than 0.100000
B(  0-C ,  1-C ) :   1.4194 B(  0-C ,  5-C ) :   1.3656 B(  0-C ,  9-H ) :   0.9643
B(  1-C ,  2-C ) :   1.3682 B(  1-C , 10-H ) :   0.9555 B(  2-C ,  3-C ) :   1.3053
B(  2-C ,  8-Cl) :   1.0753 B(  3-C ,  4-C ) :   1.3666 B(  3-C ,  7-Cl) :   1.0761
B(  4-C ,  5-C ) :   1.3695 B(  4-C , 11-H ) :   0.9520 B(  5-C ,  6-Cl) :   0.9836

FINAL SINGLE POINT ENERGY     -1610.893266773769

DIPOLE MOMENT
-------------

Method             : SCF
Type of density    : Electron Density
Multiplicity       :   1
Irrep              :   0
Energy             : -1610.8990118506694671 Eh
Relativity type    :
Basis              : AO
                                X                 Y                 Z
Electronic contribution:      3.364273912       3.676406378       0.000038674
Nuclear contribution   :     -3.830104538      -4.329256555      -0.000048887
                        -----------------------------------------
Total Dipole Moment    :     -0.465830627      -0.652850177      -0.000010212
                        -----------------------------------------
Magnitude (a.u.)       :      0.802004692
Magnitude (Debye)      :      2.038533922

Rotational constants in cm-1:             0.060748             0.019633             0.014837
Rotational constants in MHz :          1821.172313           588.571962           444.815233

                             ****ORCA TERMINATED NORMALLY****
TOTAL RUN TIME: 0 days 0 hours 2 minutes 9 seconds 287 msec
