                         Program Version 6.0.0  -   RELEASE  -
|  1> ! pbe def2-sv(p) def2/J RI DEFGRID1 loosescf d4 GCP(DFT/SV(P)) printgap
|  2> %output
|  3>     printlevel normal
|  4> end
|  5> * xyz 0 1
|  6> C -2.3829015732 -0.9089399793 0.429632644
|  7> C -0.9331152077 -0.4379527603 0.6204131948
|  8> H -0.6516592813 -0.5525734677 1.6780657049
|  9> C -0.7469800511 1.0401776518 0.204018633
| 10> H -1.5204983117 1.2987924704 -0.5318195575
| 11> C 0.6417931817 1.243423071 -0.4448537324
| 12> H 0.9230469016 2.2951941026 -0.2900883649
| 13> C 1.6556853534 0.3523613604 0.2784572444
| 14> H 2.649441774 0.4818770941 -0.1694737223
| 15> C 1.2631848761 -1.1327716636 0.045787902
| 16> H 1.5690853011 -1.7133615913 0.9319665473
| 17> O -0.1236980791 -1.2883402209 -0.174408585
| 18> O 1.9212206578 -1.6804863287 -1.03598689
| 19> O 1.7634379599 0.6583635132 1.6458943064
| 20> O 0.6743905695 0.9001713386 -1.8039224669
| 21> O -0.7938726836 1.9038962029 1.319040656
| 22> O -2.8327423483 -0.72304259 -0.8865979488
| 23> H -3.0489714939 -0.3244624559 1.0663733521
| 24> H -2.4435347983 -1.9640313054 0.7194610745
| 25> H 1.6394898845 -1.2047782673 -1.8368006282
| 26> H 1.0141325019 1.2169962091 1.9165632578
| 27> H 0.1726251674 1.5449353271 -2.3229763768
| 28> H -1.6961703352 1.9644439494 1.6617643824
| 29> H -2.2838255462 -1.2635100261 -1.4725101992
| 30> *
| 31>
| 32>                          ****END OF INPUT****

CARTESIAN COORDINATES (ANGSTROEM)
---------------------------------
  C     -2.382902   -0.908940    0.429633
  C     -0.933115   -0.437953    0.620413
  H     -0.651659   -0.552573    1.678066
  C     -0.746980    1.040178    0.204019
  H     -1.520498    1.298792   -0.531820
  C      0.641793    1.243423   -0.444854
  H      0.923047    2.295194   -0.290088
  C      1.655685    0.352361    0.278457
  H      2.649442    0.481877   -0.169474
  C      1.263185   -1.132772    0.045788
  H      1.569085   -1.713362    0.931967
  O     -0.123698   -1.288340   -0.174409
  O      1.921221   -1.680486   -1.035987
  O      1.763438    0.658364    1.645894
  O      0.674391    0.900171   -1.803922
  O     -0.793873    1.903896    1.319041
  O     -2.832742   -0.723043   -0.886598
  H     -3.048971   -0.324462    1.066373
  H     -2.443535   -1.964031    0.719461
  H      1.639490   -1.204778   -1.836801
  H      1.014133    1.216996    1.916563
  H      0.172625    1.544935   -2.322976
  H     -1.696170    1.964444    1.661764
  H     -2.283826   -1.263510   -1.472510

 Total Charge           Charge          ....    0
 Multiplicity           Mult            ....    1
 Number of Electrons    NEL             ....   96
 Basis Dimension        Dim             ....  192

ORBITAL ENERGIES
----------------

  NO   OCC          E(Eh)            E(eV)
   0   2.0000     -18.783636      -511.1287
   1   2.0000     -18.775251      -510.9006
   2   2.0000     -18.764119      -510.5976
   3   2.0000     -18.757045      -510.4052
   4   2.0000     -18.743300      -510.0311
   5   2.0000     -18.742889      -510.0200
   6   2.0000      -9.973408      -271.3902
   7   2.0000      -9.954510      -270.8760
   8   2.0000      -9.952925      -270.8329
   9   2.0000      -9.946629      -270.6615
  10   2.0000      -9.942745      -270.5559
  11   2.0000      -9.934909      -270.3426
  12   2.0000      -0.979684       -26.6586
  13   2.0000      -0.957105       -26.0442
  14   2.0000      -0.947105       -25.7720
  15   2.0000      -0.934657       -25.4333
  16   2.0000      -0.918801       -25.0018
  17   2.0000      -0.903091       -24.5744
  18   2.0000      -0.706011       -19.2115
  19   2.0000      -0.685976       -18.6664
  20   2.0000      -0.627486       -17.0748
  21   2.0000      -0.586751       -15.9663
  22   2.0000      -0.571231       -15.5440
  23   2.0000      -0.522199       -14.2097
  24   2.0000      -0.512100       -13.9349
  25   2.0000      -0.499234       -13.5849
  26   2.0000      -0.468450       -12.7472
  27   2.0000      -0.464211       -12.6318
  28   2.0000      -0.451394       -12.2831
  29   2.0000      -0.448587       -12.2067
  30   2.0000      -0.417682       -11.3657
  31   2.0000      -0.393413       -10.7053
  32   2.0000      -0.387559       -10.5460
  33   2.0000      -0.380384       -10.3508
  34   2.0000      -0.365791        -9.9537
  35   2.0000      -0.359993        -9.7959
  36   2.0000      -0.331961        -9.0331
  37   2.0000      -0.322708        -8.7813
  38   2.0000      -0.311256        -8.4697
  39   2.0000      -0.290117        -7.8945
  40   2.0000      -0.287926        -7.8349
  41   2.0000      -0.269437        -7.3318
  42   2.0000      -0.260627        -7.0920
  43   2.0000      -0.246876        -6.7178
  44   2.0000      -0.239789        -6.5250
  45   2.0000      -0.228640        -6.2216
  46   2.0000      -0.218361        -5.9419
  47   2.0000      -0.193675        -5.2702
  48   0.0000      -0.005385        -0.1465
  49   0.0000       0.008488         0.2310
  50   0.0000       0.038785         1.0554
  51   0.0000       0.051443         1.3998
  52   0.0000       0.060761         1.6534

MULLIKEN ATOMIC CHARGES
-----------------------
   0 C :    0.079434
   1 C :    0.005689
   2 H :    0.053420
   3 C :    0.014322
   4 H :    0.058480
   5 C :    0.034264
   6 H :    0.082141
   7 C :   -0.008372
   8 H :    0.082320
   9 C :    0.230484
  10 H :    0.067463
  11 O :   -0.311889
  12 O :   -0.394937
  13 O :   -0.424940
  14 O :   -0.415879
  15 O :   -0.416219
  16 O :   -0.436195
  17 H :    0.071179
  18 H :    0.090939
  19 H :    0.300488
  20 H :    0.307500
  21 H :    0.310542
  22 H :    0.314101
  23 H :    0.305664
Sum of atomic charges:    0.0000000

LOEWDIN ATOMIC CHARGES
----------------------
   0 C :   -0.124042
   1 C :   -0.086011
   2 H :    0.104261
   3 C :   -0.084888
   4 H :    0.105012
   5 C :   -0.073862
   6 H :    0.108471
   7 C :   -0.085881
   8 H :    0.116802
   9 C :    0.003263
  10 H :    0.101204
  11 O :   -0.160337
  12 O :   -0.294666
  13 O :   -0.320620
  14 O :   -0.310595
  15 O :   -0.310884
  16 O :   -0.331529
  17 H :    0.108353
  18 H :    0.108977
  19 H :    0.278329
  20 H :    0.274528
  21 H :    0.292528
  22 H :    0.294278
  23 H :    0.287311

  Mayer bond orders larger than 0.100000
B(  0-C ,  1-C ) :   1.0313 B(  0-C , 16-O ) :   1.0675 B(  0-C , 17-H ) :   0.9239
B(  0-C , 18-H ) :   0.9124 B(  1-C ,  2-H ) :   0.8633 B(  1-C ,  3-C ) :   0.9899
B(  1-C , 11-O ) :   1.0438 B(  3-C ,  4-H ) :   0.8714 B(  3-C ,  5-C ) :   0.9777
B(  3-C , 15-O ) :   1.0312 B(  5-C ,  6-H ) :   0.8978 B(  5-C ,  7-C ) :   1.0384
B(  5-C , 14-O ) :   1.0518 B(  7-C ,  8-H ) :   0.8981 B(  7-C ,  9-C ) :   0.9355
B(  7-C , 13-O ) :   1.0789 B(  9-C , 10-H ) :   0.9024 B(  9-C , 11-O ) :   0.9926
B(  9-C , 12-O ) :   1.1470 B( 12-O , 19-H ) :   0.8308 B( 13-O , 20-H ) :   0.8089
B( 14-O , 21-H ) :   0.8413 B( 15-O , 22-H ) :   0.8392 B( 16-O , 23-H ) :   0.8415

Dispersion correction           -0.025275735
FINAL SINGLE POINT ENERGY      -685.693571405674

DIPOLE MOMENT
-------------

Method             : SCF
Type of density    : Electron Density
Multiplicity       :   1
Irrep              :   0
Energy             :  -685.8255173721062192 Eh
Relativity type    :
Basis              : AO
                                X                 Y                 Z
Electronic contribution:      2.244076828      -0.677884831      -1.465833914
Nuclear contribution   :     -3.440481647       1.666095393       1.253156558
                        -----------------------------------------
Total Dipole Moment    :     -1.196404819       0.988210561      -0.212677356
                        -----------------------------------------
Magnitude (a.u.)       :      1.566261875
Magnitude (Debye)      :      3.981121302

Rotational constants in cm-1:             0.039144             0.028787             0.023345
Rotational constants in MHz :          1173.508244           863.006380           699.861673

                             ****ORCA TERMINATED NORMALLY****
TOTAL RUN TIME: 0 days 0 hours 0 minutes 12 seconds 5 msec
