                         Program Version 6.0.0  -   RELEASE  -
|  1> ! wb97x-v def2-tzvp def2/J RIJCOSX DEFGRID2 scfconv7 GCP(DFT/TZ) printgap
|  2> %output
|  3>     printlevel normal
|  4> end
|  5> * xyz 0 1
|  6> C -2.2542704285458304 0.9284166882079193 0.04545730029474952
|  7> O -0.8141296443663542 0.7681517599703547 0.06893843090856251
|  8> C -0.35929017571653504 -0.4853974087402064 -0.12295492369666942
|  9> O -1.1035804358150627 -1.4407843138773606 -0.3048032149829185
| 10> C 1.1071412542922852 -0.5863213150588028 -0.09301923912368157
| 11> C 1.9582302148690975 0.5341015551607211 -0.6723143880294853
| 12> C 1.923914518930296 0.33369755406988083 0.799540621696754
| 13> H -2.7142213201603025 0.3314711417720349 0.8369573661212825
| 14> H -2.6524662591016757 0.6326046972566544 -0.9284590021379978
| 15> H -2.4281742797256736 1.989795706747609 0.2199367496864694
| 16> H 1.4640704634589299 -1.6003933144036653 -0.2250901165585449
| 17> H 2.839967392312647 0.21566866462793957 -1.217143022786986
| 18> H 1.4271075249645764 1.3842029971938306 -1.0847319992463136
| 19> H 2.7829547667860046 -0.12266425555255042 1.2785826505172695
| 20> H 1.3712830295255023 1.047497864652078 1.3993977074724129
| 21> *
| 22>
| 23>                          ****END OF INPUT****

CARTESIAN COORDINATES (ANGSTROEM)
---------------------------------
  C     -2.254270    0.928417    0.045457
  O     -0.814130    0.768152    0.068938
  C     -0.359290   -0.485397   -0.122955
  O     -1.103580   -1.440784   -0.304803
  C      1.107141   -0.586321   -0.093019
  C      1.958230    0.534102   -0.672314
  C      1.923915    0.333698    0.799541
  H     -2.714221    0.331471    0.836957
  H     -2.652466    0.632605   -0.928459
  H     -2.428174    1.989796    0.219937
  H      1.464070   -1.600393   -0.225090
  H      2.839967    0.215669   -1.217143
  H      1.427108    1.384203   -1.084732
  H      2.782955   -0.122664    1.278583
  H      1.371283    1.047498    1.399398

 Total Charge           Charge          ....    0
 Multiplicity           Mult            ....    1
 Number of Electrons    NEL             ....   54
 Basis Dimension        Dim             ....  265

ORBITAL ENERGIES
----------------

  NO   OCC          E(Eh)            E(eV)
   0   2.0000     -21.718972      -591.0033
   1   2.0000     -21.649782      -589.1205
   2   2.0000     -12.175233      -331.3049
   3   2.0000     -12.103888      -329.3635
   4   2.0000     -12.070721      -328.4610
   5   2.0000     -12.065523      -328.3196
   6   2.0000     -12.064407      -328.2892
   7   2.0000      -1.756342       -47.7925
   8   2.0000      -1.685367       -45.8612
   9   2.0000      -1.410359       -38.3778
  10   2.0000      -1.285100       -34.9693
  11   2.0000      -1.169846       -31.8331
  12   2.0000      -1.107473       -30.1359
  13   2.0000      -1.090248       -29.6672
  14   2.0000      -1.053871       -28.6773
  15   2.0000      -1.008618       -27.4459
  16   2.0000      -0.995850       -27.0985
  17   2.0000      -0.953810       -25.9545
  18   2.0000      -0.940247       -25.5854
  19   2.0000      -0.893182       -24.3047
  20   2.0000      -0.885118       -24.0853
  21   2.0000      -0.846813       -23.0429
  22   2.0000      -0.831144       -22.6166
  23   2.0000      -0.825473       -22.4623
  24   2.0000      -0.808604       -22.0032
  25   2.0000      -0.763919       -20.7873
  26   2.0000      -0.748521       -20.3683
  27   0.0000      -0.309927        -8.4335
  28   0.0000      -0.181917        -4.9502
  29   0.0000      -0.102727        -2.7954
  30   0.0000      -0.081076        -2.2062
  31   0.0000      -0.056289        -1.5317

MULLIKEN ATOMIC CHARGES
-----------------------
   0 C :   -0.187328
   1 O :   -0.251573
   2 C :    0.289371
   3 O :   -0.361994
   4 C :   -0.086541
   5 C :   -0.209806
   6 C :   -0.206784
   7 H :    0.131437
   8 H :    0.130889
   9 H :    0.125801
  10 H :    0.126610
  11 H :    0.119658
  12 H :    0.130151
  13 H :    0.119447
  14 H :    0.130660
Sum of atomic charges:   -0.0000000

LOEWDIN ATOMIC CHARGES
----------------------
   0 C :   -0.286655
   1 O :    0.227608
   2 C :   -0.456179
   3 O :    0.076237
   4 C :   -0.179852
   5 C :   -0.199084
   6 C :   -0.200078
   7 H :    0.112118
   8 H :    0.111969
   9 H :    0.109127
  10 H :    0.155779
  11 H :    0.130302
  12 H :    0.134108
  13 H :    0.130383
  14 H :    0.134218

  Mayer bond orders larger than 0.100000
B(  0-C ,  1-O ) :   0.9108 B(  0-C ,  7-H ) :   0.9785 B(  0-C ,  8-H ) :   0.9783
B(  0-C ,  9-H ) :   0.9719 B(  1-O ,  2-C ) :   1.1814 B(  2-C ,  3-O ) :   2.0318
B(  2-C ,  4-C ) :   1.0368 B(  4-C ,  5-C ) :   0.9044 B(  4-C ,  6-C ) :   0.9048
B(  4-C , 10-H ) :   0.9722 B(  5-C ,  6-C ) :   0.9844 B(  5-C , 11-H ) :   0.9705
B(  5-C , 12-H ) :   0.9633 B(  6-C , 13-H ) :   0.9704 B(  6-C , 14-H ) :   0.9625

FINAL SINGLE POINT ENERGY      -345.799887566179

DIPOLE MOMENT
-------------

Method             : SCF
Type of density    : Electron Density
Multiplicity       :   1
Irrep              :   0
Energy             :  -345.8094599618790994 Eh
Relativity type    :
Basis              : AO
                                X                 Y                 Z
Electronic contribution:     -1.549036284      -2.645868496      -0.416465659
Nuclear contribution   :      1.935878557       3.489261075       0.560626806
                        -----------------------------------------
Total Dipole Moment    :      0.386842273       0.843392580       0.144161147
                        -----------------------------------------
Magnitude (a.u.)       :      0.939010343
Magnitude (Debye)      :      2.386774611

Rotational constants in cm-1:             0.172804             0.064394             0.053203
Rotational constants in MHz :          5180.543349          1930.495162          1594.993577

                             ****ORCA TERMINATED NORMALLY****
TOTAL RUN TIME: 0 days 0 hours 1 minutes 46 seconds 129 msec
