                         Program Version 6.0.0  -   RELEASE  -
|  1> ! wb97x-v def2-tzvp def2/J RIJCOSX DEFGRID2 scfconv7 GCP(DFT/TZ) printgap
|  2> %output
|  3>     printlevel normal
|  4> end
|  5> %cpcm
|  6>     smd true
|  7>     smdsolvent "water"
|  8> end
|  9> * xyz 0 1
| 10> C -2.2542704285458304 0.9284166882079193 0.04545730029474952
| 11> O -0.8141296443663542 0.7681517599703547 0.06893843090856251
| 12> C -0.35929017571653504 -0.4853974087402064 -0.12295492369666942
| 13> O -1.1035804358150627 -1.4407843138773606 -0.3048032149829185
| 14> C 1.1071412542922852 -0.5863213150588028 -0.09301923912368157
| 15> C 1.9582302148690975 0.5341015551607211 -0.6723143880294853
| 16> C 1.923914518930296 0.33369755406988083 0.799540621696754
| 17> H -2.7142213201603025 0.3314711417720349 0.8369573661212825
| 18> H -2.6524662591016757 0.6326046972566544 -0.9284590021379978
| 19> H -2.4281742797256736 1.989795706747609 0.2199367496864694
| 20> H 1.4640704634589299 -1.6003933144036653 -0.2250901165585449
| 21> H 2.839967392312647 0.21566866462793957 -1.217143022786986
| 22> H 1.4271075249645764 1.3842029971938306 -1.0847319992463136
| 23> H 2.7829547667860046 -0.12266425555255042 1.2785826505172695
| 24> H 1.3712830295255023 1.047497864652078 1.3993977074724129
| 25> *
| 26>
| 27>                          ****END OF INPUT****

CARTESIAN COORDINATES (ANGSTROEM)
---------------------------------
  C     -2.254270    0.928417    0.045457
  O     -0.814130    0.768152    0.068938
  C     -0.359290   -0.485397   -0.122955
  O     -1.103580   -1.440784   -0.304803
  C      1.107141   -0.586321   -0.093019
  C      1.958230    0.534102   -0.672314
  C      1.923915    0.333698    0.799541
  H     -2.714221    0.331471    0.836957
  H     -2.652466    0.632605   -0.928459
  H     -2.428174    1.989796    0.219937
  H      1.464070   -1.600393   -0.225090
  H      2.839967    0.215669   -1.217143
  H      1.427108    1.384203   -1.084732
  H      2.782955   -0.122664    1.278583
  H      1.371283    1.047498    1.399398

 Total Charge           Charge          ....    0
 Multiplicity           Mult            ....    1
 Number of Electrons    NEL             ....   54
 Basis Dimension        Dim             ....  265

ORBITAL ENERGIES
----------------

  NO   OCC          E(Eh)            E(eV)
   0   2.0000     -21.722887      -591.1098
   1   2.0000     -21.665762      -589.5554
   2   2.0000     -12.186788      -331.6194
   3   2.0000     -12.092957      -329.0661
   4   2.0000     -12.065816      -328.3275
   5   2.0000     -12.056396      -328.0712
   6   2.0000     -12.055252      -328.0401
   7   2.0000      -1.763416       -47.9850
   8   2.0000      -1.699618       -46.2490
   9   2.0000      -1.403914       -38.2024
  10   2.0000      -1.283719       -34.9318
  11   2.0000      -1.170104       -31.8402
  12   2.0000      -1.111486       -30.2451
  13   2.0000      -1.080596       -29.4045
  14   2.0000      -1.067166       -29.0391
  15   2.0000      -1.005664       -27.3655
  16   2.0000      -0.998419       -27.1684
  17   2.0000      -0.953284       -25.9402
  18   2.0000      -0.931736       -25.3538
  19   2.0000      -0.911846       -24.8126
  20   2.0000      -0.895911       -24.3790
  21   2.0000      -0.839536       -22.8449
  22   2.0000      -0.825915       -22.4743
  23   2.0000      -0.817841       -22.2546
  24   2.0000      -0.797609       -21.7040
  25   2.0000      -0.756703       -20.5909
  26   2.0000      -0.743228       -20.2243
  27   0.0000      -0.315991        -8.5986
  28   0.0000      -0.175964        -4.7882
  29   0.0000      -0.106146        -2.8884
  30   0.0000      -0.074863        -2.0371
  31   0.0000      -0.053533        -1.4567

MULLIKEN ATOMIC CHARGES
-----------------------
   0 C :   -0.227628
   1 O :   -0.261999
   2 C :    0.380187
   3 O :   -0.487400
   4 C :   -0.118963
   5 C :   -0.253951
   6 C :   -0.252308
   7 H :    0.149581
   8 H :    0.149461
   9 H :    0.156025
  10 H :    0.154861
  11 H :    0.152071
  12 H :    0.154174
  13 H :    0.151968
  14 H :    0.153920
Sum of atomic charges:    0.0000000

LOEWDIN ATOMIC CHARGES
----------------------
   0 C :   -0.283480
   1 O :    0.229006
   2 C :   -0.442529
   3 O :    0.008169
   4 C :   -0.183133
   5 C :   -0.196812
   6 C :   -0.198011
   7 H :    0.116185
   8 H :    0.116128
   9 H :    0.119478
  10 H :    0.161435
  11 H :    0.138776
  12 H :    0.138041
  13 H :    0.138874
  14 H :    0.137874

  Mayer bond orders larger than 0.100000
B(  0-C ,  1-O ) :   0.8855 B(  0-C ,  7-H ) :   0.9731 B(  0-C ,  8-H ) :   0.9728
B(  0-C ,  9-H ) :   0.9671 B(  1-O ,  2-C ) :   1.2110 B(  2-C ,  3-O ) :   1.8973
B(  2-C ,  4-C ) :   1.0335 B(  4-C ,  5-C ) :   0.9072 B(  4-C ,  6-C ) :   0.9089
B(  4-C , 10-H ) :   0.9621 B(  5-C ,  6-C ) :   0.9813 B(  5-C , 11-H ) :   0.9637
B(  5-C , 12-H ) :   0.9612 B(  6-C , 13-H ) :   0.9636 B(  6-C , 14-H ) :   0.9609

FINAL SINGLE POINT ENERGY      -345.807014083920

DIPOLE MOMENT
-------------

Method             : SCF
Type of density    : Electron Density
Multiplicity       :   1
Irrep              :   0
Energy             :  -345.8165864796202982 Eh
Relativity type    :
Basis              : AO
                                X                 Y                 Z
Electronic contribution:     -1.332603246      -2.316070396      -0.358778643
Nuclear contribution   :      1.935878557       3.489261075       0.560626806
                        -----------------------------------------
Total Dipole Moment    :      0.603275310       1.173190680       0.201848163
                        -----------------------------------------
Magnitude (a.u.)       :      1.334563656
Magnitude (Debye)      :      3.392191232

Rotational constants in cm-1:             0.172804             0.064394             0.053203
Rotational constants in MHz :          5180.543349          1930.495162          1594.993577

                             ****ORCA TERMINATED NORMALLY****
TOTAL RUN TIME: 0 days 0 hours 1 minutes 49 seconds 994 msec
