                         Program Version 6.0.0  -   RELEASE  -
|  1> ! r2scan-3c def2/J RI DEFGRID2 scfconv6 printgap
|  2> %output
|  3>     printlevel normal
|  4> end
|  5> * xyz 0 1
|  6> C -2.553029599 -0.7018711257 -0.3180088123
|  7> C -1.1686846743 -0.3161033269 0.2189996619
|  8> H -1.2066149064 -0.2640706385 1.320448882
|  9> C -0.7099975031 1.0387439969 -0.3401823274
| 10> H -0.6986737543 0.9873040884 -1.4343234103
| 11> C 0.7108763583 1.3357286523 0.1583914445
| 12> H 0.6882605956 1.4640691471 1.2553112013
| 13> C 1.6599522974 0.1731976923 -0.1592163087
| 14> H 1.8143457778 0.1204027137 -1.2461022011
| 15> C 1.0560834215 -1.1638936746 0.2949231275
| 16> H 1.0638535948 -1.1805178419 1.4049816012
| 17> O -0.2658510257 -1.3373829452 -0.1675652023
| 18> O 1.8209899242 -2.1791298039 -0.2329572381
| 19> O 2.8808556815 0.3262396299 0.5141901382
| 20> O 1.238732522 2.4941534381 -0.441789935
| 21> O -1.5839912182 2.0887573351 -0.0181641474
| 22> O -3.1445430704 -1.7429248105 0.4122411171
| 23> H -2.4481416587 -0.9686428821 -1.3756495384
| 24> H -3.2204509896 0.1568553624 -0.2281316668
| 25> H 1.4345802154 -3.0403881113 -0.0078061832
| 26> H 3.2888579937 1.1550441079 0.2193352494
| 27> H 0.5443987706 3.1705164237 -0.4767022141
| 28> H -1.6974952992 2.1423282468 0.9430229225
| 29> H -2.6087265819 -2.5416565109 0.3077053005
| 30> *
| 31>
| 32>                          ****END OF INPUT****

CARTESIAN COORDINATES (ANGSTROEM)
---------------------------------
  C     -2.553030   -0.701871   -0.318009
  C     -1.168685   -0.316103    0.219000
  H     -1.206615   -0.264071    1.320449
  C     -0.709998    1.038744   -0.340182
  H     -0.698674    0.987304   -1.434323
  C      0.710876    1.335729    0.158391
  H      0.688261    1.464069    1.255311
  C      1.659952    0.173198   -0.159216
  H      1.814346    0.120403   -1.246102
  C      1.056083   -1.163894    0.294923
  H      1.063854   -1.180518    1.404982
  O     -0.265851   -1.337383   -0.167565
  O      1.820990   -2.179130   -0.232957
  O      2.880856    0.326240    0.514190
  O      1.238733    2.494153   -0.441790
  O     -1.583991    2.088757   -0.018164
  O     -3.144543   -1.742925    0.412241
  H     -2.448142   -0.968643   -1.375650
  H     -3.220451    0.156855   -0.228132
  H      1.434580   -3.040388   -0.007806
  H      3.288858    1.155044    0.219335
  H      0.544399    3.170516   -0.476702
  H     -1.697495    2.142328    0.943023
  H     -2.608727   -2.541657    0.307705

 Total Charge           Charge          ....    0
 Multiplicity           Mult            ....    1
 Number of Electrons    NEL             ....   96
 Basis Dimension        Dim             ....  318

ORBITAL ENERGIES
----------------

  NO   OCC          E(Eh)            E(eV)
   0   2.0000     -18.981074      -516.5013
   1   2.0000     -18.978002      -516.4177
   2   2.0000     -18.968215      -516.1514
   3   2.0000     -18.965228      -516.0701
   4   2.0000     -18.957116      -515.8494
   5   2.0000     -18.956248      -515.8257
   6   2.0000     -10.144049      -276.0336
   7   2.0000     -10.101419      -274.8736
   8   2.0000     -10.100652      -274.8527
   9   2.0000     -10.096722      -274.7458
  10   2.0000     -10.092178      -274.6221
  11   2.0000     -10.085512      -274.4407
  12   2.0000      -1.056437       -28.7471
  13   2.0000      -1.026516       -27.9329
  14   2.0000      -1.007827       -27.4244
  15   2.0000      -0.998665       -27.1750
  16   2.0000      -0.989206       -26.9177
  17   2.0000      -0.983241       -26.7553
  18   2.0000      -0.758592       -20.6424
  19   2.0000      -0.741818       -20.1859
  20   2.0000      -0.664948       -18.0942
  21   2.0000      -0.624876       -17.0037
  22   2.0000      -0.599257       -16.3066
  23   2.0000      -0.569655       -15.5011
  24   2.0000      -0.522149       -14.2084
  25   2.0000      -0.517933       -14.0937
  26   2.0000      -0.509186       -13.8557
  27   2.0000      -0.490167       -13.3381
  28   2.0000      -0.478017       -13.0075
  29   2.0000      -0.459701       -12.5091
  30   2.0000      -0.446897       -12.1607
  31   2.0000      -0.422742       -11.5034
  32   2.0000      -0.413104       -11.2411
  33   2.0000      -0.400009       -10.8848
  34   2.0000      -0.392675       -10.6852
  35   2.0000      -0.380816       -10.3625
  36   2.0000      -0.349796        -9.5184
  37   2.0000      -0.342874        -9.3301
  38   2.0000      -0.330790        -9.0013
  39   2.0000      -0.324218        -8.8224
  40   2.0000      -0.313882        -8.5412
  41   2.0000      -0.305720        -8.3191
  42   2.0000      -0.284662        -7.7460
  43   2.0000      -0.272414        -7.4128
  44   2.0000      -0.260082        -7.0772
  45   2.0000      -0.249500        -6.7892
  46   2.0000      -0.239680        -6.5220
  47   2.0000      -0.231272        -6.2932
  48   0.0000       0.023052         0.6273
  49   0.0000       0.045607         1.2410
  50   0.0000       0.051707         1.4070
  51   0.0000       0.068292         1.8583
  52   0.0000       0.081935         2.2296

MULLIKEN ATOMIC CHARGES
-----------------------
   0 C :   -0.291191
   1 C :   -0.033219
   2 H :    0.186186
   3 C :   -0.082940
   4 H :    0.175579
   5 C :    0.018891
   6 H :    0.165708
   7 C :    0.025905
   8 H :    0.173877
   9 C :   -0.082028
  10 H :    0.142194
  11 O :   -0.201128
  12 O :   -0.376052
  13 O :   -0.421765
  14 O :   -0.435090
  15 O :   -0.422964
  16 O :   -0.407364
  17 H :    0.151077
  18 H :    0.164776
  19 H :    0.306269
  20 H :    0.314313
  21 H :    0.312618
  22 H :    0.306766
  23 H :    0.309580
Sum of atomic charges:   -0.0000000

LOEWDIN ATOMIC CHARGES
----------------------
   0 C :    0.042687
   1 C :    0.102754
   2 H :    0.182897
   3 C :    0.098074
   4 H :    0.202418
   5 C :    0.097459
   6 H :    0.179841
   7 C :    0.128243
   8 H :    0.192741
   9 C :    0.307513
  10 H :    0.181288
  11 O :   -0.686777
  12 O :   -0.479602
  13 O :   -0.556157
  14 O :   -0.580629
  15 O :   -0.583023
  16 O :   -0.591603
  17 H :    0.173013
  18 H :    0.193910
  19 H :    0.282675
  20 H :    0.282841
  21 H :    0.282852
  22 H :    0.274762
  23 H :    0.271825

  Mayer bond orders larger than 0.100000
B(  0-C ,  1-C ) :   0.9037 B(  0-C , 16-O ) :   1.0115 B(  0-C , 17-H ) :   0.9998
B(  0-C , 18-H ) :   0.9707 B(  1-C ,  2-H ) :   0.9633 B(  1-C ,  3-C ) :   0.8507
B(  1-C , 11-O ) :   0.7928 B(  3-C ,  4-H ) :   0.9491 B(  3-C ,  5-C ) :   0.8891
B(  3-C , 15-O ) :   0.9812 B(  5-C ,  6-H ) :   0.9798 B(  5-C ,  7-C ) :   0.8423
B(  5-C , 14-O ) :   0.8943 B(  7-C ,  8-H ) :   0.9732 B(  7-C ,  9-C ) :   0.8721
B(  7-C , 13-O ) :   0.9036 B(  9-C , 10-H ) :   1.0070 B(  9-C , 11-O ) :   0.9077
B(  9-C , 12-O ) :   1.0888 B( 12-O , 19-H ) :   0.8814 B( 13-O , 20-H ) :   0.8816
B( 14-O , 21-H ) :   0.8713 B( 15-O , 22-H ) :   0.8829 B( 16-O , 23-H ) :   0.8831

Dispersion correction           -0.007951098
FINAL SINGLE POINT ENERGY      -687.073781332125

DIPOLE MOMENT
-------------

Method             : SCF
Type of density    : Electron Density
Multiplicity       :   1
Irrep              :   0
Energy             :  -687.0850481911448924 Eh
Relativity type    :
Basis              : AO
                                X                 Y                 Z
Electronic contribution:      2.503302300      -0.909908863      -0.280926389
Nuclear contribution   :     -2.843467036       1.121781998       0.640893488
                        -----------------------------------------
Total Dipole Moment    :     -0.340164736       0.211873135       0.359967099
                        -----------------------------------------
Magnitude (a.u.)       :      0.538682268
Magnitude (Debye)      :      1.369221511

Rotational constants in cm-1:             0.039335             0.025670             0.016358
Rotational constants in MHz :          1179.237443           769.556010           490.390283

                             ****ORCA TERMINATED NORMALLY****
TOTAL RUN TIME: 0 days 0 hours 0 minutes 43 seconds 315 msec
