                         Program Version 6.0.0  -   RELEASE  -
|  1> ! r2scan-3c def2/J RI DEFGRID2 scfconv6 printgap
|  2> %output
|  3>     printlevel normal
|  4> end
|  5> %cpcm
|  6>     smd true
|  7>     smdsolvent "water"
|  8> end
|  9> * xyz 0 1
| 10> C -2.553029599 -0.7018711257 -0.3180088123
| 11> C -1.1686846743 -0.3161033269 0.2189996619
| 12> H -1.2066149064 -0.2640706385 1.320448882
| 13> C -0.7099975031 1.0387439969 -0.3401823274
| 14> H -0.6986737543 0.9873040884 -1.4343234103
| 15> C 0.7108763583 1.3357286523 0.1583914445
| 16> H 0.6882605956 1.4640691471 1.2553112013
| 17> C 1.6599522974 0.1731976923 -0.1592163087
| 18> H 1.8143457778 0.1204027137 -1.2461022011
| 19> C 1.0560834215 -1.1638936746 0.2949231275
| 20> H 1.0638535948 -1.1805178419 1.4049816012
| 21> O -0.2658510257 -1.3373829452 -0.1675652023
| 22> O 1.8209899242 -2.1791298039 -0.2329572381
| 23> O 2.8808556815 0.3262396299 0.5141901382
| 24> O 1.238732522 2.4941534381 -0.441789935
| 25> O -1.5839912182 2.0887573351 -0.0181641474
| 26> O -3.1445430704 -1.7429248105 0.4122411171
| 27> H -2.4481416587 -0.9686428821 -1.3756495384
| 28> H -3.2204509896 0.1568553624 -0.2281316668
| 29> H 1.4345802154 -3.0403881113 -0.0078061832
| 30> H 3.2888579937 1.1550441079 0.2193352494
| 31> H 0.5443987706 3.1705164237 -0.4767022141
| 32> H -1.6974952992 2.1423282468 0.9430229225
| 33> H -2.6087265819 -2.5416565109 0.3077053005
| 34> *
| 35>
| 36>                          ****END OF INPUT****

CARTESIAN COORDINATES (ANGSTROEM)
---------------------------------
  C     -2.553030   -0.701871   -0.318009
  C     -1.168685   -0.316103    0.219000
  H     -1.206615   -0.264071    1.320449
  C     -0.709998    1.038744   -0.340182
  H     -0.698674    0.987304   -1.434323
  C      0.710876    1.335729    0.158391
  H      0.688261    1.464069    1.255311
  C      1.659952    0.173198   -0.159216
  H      1.814346    0.120403   -1.246102
  C      1.056083   -1.163894    0.294923
  H      1.063854   -1.180518    1.404982
  O     -0.265851   -1.337383   -0.167565
  O      1.820990   -2.179130   -0.232957
  O      2.880856    0.326240    0.514190
  O      1.238733    2.494153   -0.441790
  O     -1.583991    2.088757   -0.018164
  O     -3.144543   -1.742925    0.412241
  H     -2.448142   -0.968643   -1.375650
  H     -3.220451    0.156855   -0.228132
  H      1.434580   -3.040388   -0.007806
  H      3.288858    1.155044    0.219335
  H      0.544399    3.170516   -0.476702
  H     -1.697495    2.142328    0.943023
  H     -2.608727   -2.541657    0.307705

 Total Charge           Charge          ....    0
 Multiplicity           Mult            ....    1
 Number of Electrons    NEL             ....   96
 Basis Dimension        Dim             ....  318

ORBITAL ENERGIES
----------------

  NO   OCC          E(Eh)            E(eV)
   0   2.0000     -18.973230      -516.2878
   1   2.0000     -18.969144      -516.1766
   2   2.0000     -18.964182      -516.0416
   3   2.0000     -18.961547      -515.9699
   4   2.0000     -18.959183      -515.9056
   5   2.0000     -18.956314      -515.8275
   6   2.0000     -10.138537      -275.8836
   7   2.0000     -10.087987      -274.5081
   8   2.0000     -10.087434      -274.4930
   9   2.0000     -10.087286      -274.4890
  10   2.0000     -10.085241      -274.4333
  11   2.0000     -10.075742      -274.1749
  12   2.0000      -1.053159       -28.6579
  13   2.0000      -1.014361       -27.6022
  14   2.0000      -1.004854       -27.3435
  15   2.0000      -0.995492       -27.0887
  16   2.0000      -0.985211       -26.8090
  17   2.0000      -0.981516       -26.7084
  18   2.0000      -0.747399       -20.3378
  19   2.0000      -0.734843       -19.9961
  20   2.0000      -0.657090       -17.8803
  21   2.0000      -0.614739       -16.7279
  22   2.0000      -0.591570       -16.0974
  23   2.0000      -0.558938       -15.2095
  24   2.0000      -0.517415       -14.0796
  25   2.0000      -0.510713       -13.8972
  26   2.0000      -0.499016       -13.5789
  27   2.0000      -0.481189       -13.0938
  28   2.0000      -0.471014       -12.8169
  29   2.0000      -0.451392       -12.2830
  30   2.0000      -0.439292       -11.9537
  31   2.0000      -0.417795       -11.3688
  32   2.0000      -0.408012       -11.1026
  33   2.0000      -0.396047       -10.7770
  34   2.0000      -0.384483       -10.4623
  35   2.0000      -0.374425       -10.1886
  36   2.0000      -0.349811        -9.5188
  37   2.0000      -0.343201        -9.3390
  38   2.0000      -0.325981        -8.8704
  39   2.0000      -0.318956        -8.6792
  40   2.0000      -0.309825        -8.4308
  41   2.0000      -0.304202        -8.2777
  42   2.0000      -0.282362        -7.6834
  43   2.0000      -0.270503        -7.3608
  44   2.0000      -0.255067        -6.9407
  45   2.0000      -0.249216        -6.7815
  46   2.0000      -0.240311        -6.5392
  47   2.0000      -0.224480        -6.1084
  48   0.0000       0.041150         1.1197
  49   0.0000       0.063036         1.7153
  50   0.0000       0.076154         2.0723
  51   0.0000       0.085650         2.3307
  52   0.0000       0.097537         2.6541

MULLIKEN ATOMIC CHARGES
-----------------------
   0 C :   -0.295866
   1 C :   -0.008276
   2 H :    0.203403
   3 C :   -0.081005
   4 H :    0.194830
   5 C :    0.009312
   6 H :    0.186041
   7 C :    0.041697
   8 H :    0.183153
   9 C :   -0.076345
  10 H :    0.165892
  11 O :   -0.241730
  12 O :   -0.449353
  13 O :   -0.492270
  14 O :   -0.496793
  15 O :   -0.480396
  16 O :   -0.483630
  17 H :    0.165481
  18 H :    0.174607
  19 H :    0.360390
  20 H :    0.355145
  21 H :    0.349653
  22 H :    0.358912
  23 H :    0.357150
Sum of atomic charges:   -0.0000000

LOEWDIN ATOMIC CHARGES
----------------------
   0 C :    0.040997
   1 C :    0.111505
   2 H :    0.195993
   3 C :    0.103759
   4 H :    0.206660
   5 C :    0.103696
   6 H :    0.191921
   7 C :    0.123400
   8 H :    0.196333
   9 C :    0.306344
  10 H :    0.192566
  11 O :   -0.698942
  12 O :   -0.512418
  13 O :   -0.589727
  14 O :   -0.603821
  15 O :   -0.595797
  16 O :   -0.624749
  17 H :    0.179280
  18 H :    0.196942
  19 H :    0.302261
  20 H :    0.297003
  21 H :    0.295052
  22 H :    0.294136
  23 H :    0.287605

  Mayer bond orders larger than 0.100000
B(  0-C ,  1-C ) :   0.9022 B(  0-C , 16-O ) :   0.9947 B(  0-C , 17-H ) :   0.9872
B(  0-C , 18-H ) :   0.9696 B(  1-C ,  2-H ) :   0.9441 B(  1-C ,  3-C ) :   0.8601
B(  1-C , 11-O ) :   0.7839 B(  3-C ,  4-H ) :   0.9612 B(  3-C ,  5-C ) :   0.8894
B(  3-C , 15-O ) :   0.9676 B(  5-C ,  6-H ) :   0.9683 B(  5-C ,  7-C ) :   0.8830
B(  5-C , 14-O ) :   0.8841 B(  7-C ,  8-H ) :   0.9485 B(  7-C ,  9-C ) :   0.8728
B(  7-C , 13-O ) :   0.8792 B(  9-C , 10-H ) :   1.0003 B(  9-C , 11-O ) :   0.9364
B(  9-C , 12-O ) :   1.0676 B( 12-O , 19-H ) :   0.8546 B( 13-O , 20-H ) :   0.8614
B( 14-O , 21-H ) :   0.8545 B( 15-O , 22-H ) :   0.8571 B( 16-O , 23-H ) :   0.8581

Dispersion correction           -0.007951098
FINAL SINGLE POINT ENERGY      -687.110523846349

DIPOLE MOMENT
-------------

Method             : SCF
Type of density    : Electron Density
Multiplicity       :   1
Irrep              :   0
Energy             :  -687.1217907053688805 Eh
Relativity type    :
Basis              : AO
                                X                 Y                 Z
Electronic contribution:      2.261534882      -0.776214548       0.009369207
Nuclear contribution   :     -2.843467036       1.121781998       0.640893488
                        -----------------------------------------
Total Dipole Moment    :     -0.581932155       0.345567450       0.650262695
                        -----------------------------------------
Magnitude (a.u.)       :      0.938564578
Magnitude (Debye)      :      2.385641568

Rotational constants in cm-1:             0.039335             0.025670             0.016358
Rotational constants in MHz :          1179.237443           769.556010           490.390283

                             ****ORCA TERMINATED NORMALLY****
TOTAL RUN TIME: 0 days 0 hours 0 minutes 51 seconds 956 msec
