                         Program Version 6.0.0  -   RELEASE  -
|  1> ! wb97x-v def2-tzvp def2/J RIJCOSX DEFGRID2 scfconv7 GCP(DFT/TZ) printgap
|  2> %output
|  3>     printlevel normal
|  4> end
|  5> * xyz 0 1
|  6> C 3.3755484680728745 -0.08619119940785559 -0.03983378452117921
|  7> N 1.9568250428806824 -0.4040811539013148 0.11919192030094868
|  8> C 1.6723724480372046 -1.7023317586517965 0.730842704245066
|  9> C 1.047266257629053 0.5736258870039953 -0.0692130364516352
| 10> O 1.3850266425160767 1.7494170919335825 -0.32692695966704366
| 11> C -0.4075917104005286 0.23321069543754103 -0.006880851466171984
| 12> C -0.9474064391104561 -0.8281652010967476 -0.7389739587342726
| 13> C -2.321086162032814 -1.0502221372671814 -0.7343482320784631
| 14> C -3.1606294335772094 -0.22724195624773524 0.01299939628951709
| 15> C -2.62516520248077 0.8321068862639437 0.7435524124330295
| 16> C -1.2554052228801411 1.0712587746369213 0.7227422066145847
| 17> H 3.5169280078228113 0.6091696175986216 -0.868346665759932
| 18> H 3.91587588262341 -1.01122778683463 -0.2535124429513006
| 19> H 3.7884697784338095 0.3609890331686657 0.8728408500874797
| 20> H 1.8513712742976023 -2.5184962111547042 0.022425814262187243
| 21> H 0.6425672354905051 -1.7499850650032143 1.0812258776478598
| 22> H 2.3354500508180176 -1.8387758907328364 1.5924151269696278
| 23> H -0.2970560259965604 -1.472306036360135 -1.3221882752764795
| 24> H -2.735630630089178 -1.8678671145198555 -1.3153952002526637
| 25> H -4.230867426992216 -0.40806657797325296 0.022632979254630346
| 26> H -3.276489821085736 1.4758534900045068 1.326070746093875
| 27> H -0.8348334744390327 1.903532109558394 1.2784433428941842
| 28> *
| 29>
| 30>                          ****END OF INPUT****

CARTESIAN COORDINATES (ANGSTROEM)
---------------------------------
  C      3.375548   -0.086191   -0.039834
  N      1.956825   -0.404081    0.119192
  C      1.672372   -1.702332    0.730843
  C      1.047266    0.573626   -0.069213
  O      1.385027    1.749417   -0.326927
  C     -0.407592    0.233211   -0.006881
  C     -0.947406   -0.828165   -0.738974
  C     -2.321086   -1.050222   -0.734348
  C     -3.160629   -0.227242    0.012999
  C     -2.625165    0.832107    0.743552
  C     -1.255405    1.071259    0.722742
  H      3.516928    0.609170   -0.868347
  H      3.915876   -1.011228   -0.253512
  H      3.788470    0.360989    0.872841
  H      1.851371   -2.518496    0.022426
  H      0.642567   -1.749985    1.081226
  H      2.335450   -1.838776    1.592415
  H     -0.297056   -1.472306   -1.322188
  H     -2.735631   -1.867867   -1.315395
  H     -4.230867   -0.408067    0.022633
  H     -3.276490    1.475853    1.326071
  H     -0.834833    1.903532    1.278443

 Total Charge           Charge          ....    0
 Multiplicity           Mult            ....    1
 Number of Electrons    NEL             ....   80
 Basis Dimension        Dim             ....  407

ORBITAL ENERGIES
----------------

  NO   OCC          E(Eh)            E(eV)
   0   2.0000     -21.624871      -588.4427
   1   2.0000     -16.562706      -450.6941
   2   2.0000     -12.145780      -330.5035
   3   2.0000     -12.089278      -328.9660
   4   2.0000     -12.077631      -328.6490
   5   2.0000     -12.066923      -328.3577
   6   2.0000     -12.063016      -328.2513
   7   2.0000     -12.060904      -328.1939
   8   2.0000     -12.059226      -328.1482
   9   2.0000     -12.058511      -328.1288
  10   2.0000     -12.056683      -328.0790
  11   2.0000      -1.671393       -45.4809
  12   2.0000      -1.530478       -41.6464
  13   2.0000      -1.393164       -37.9099
  14   2.0000      -1.299481       -35.3607
  15   2.0000      -1.281875       -34.8816
  16   2.0000      -1.243549       -33.8387
  17   2.0000      -1.234117       -33.5820
  18   2.0000      -1.134438       -30.8696
  19   2.0000      -1.114631       -30.3307
  20   2.0000      -1.063112       -28.9287
  21   2.0000      -1.018378       -27.7115
  22   2.0000      -1.008023       -27.4297
  23   2.0000      -0.960857       -26.1462
  24   2.0000      -0.958452       -26.0808
  25   2.0000      -0.934990       -25.4424
  26   2.0000      -0.926219       -25.2037
  27   2.0000      -0.902104       -24.5475
  28   2.0000      -0.882773       -24.0215
  29   2.0000      -0.868012       -23.6198
  30   2.0000      -0.857403       -23.3311
  31   2.0000      -0.846083       -23.0231
  32   2.0000      -0.840635       -22.8749
  33   2.0000      -0.829186       -22.5633
  34   2.0000      -0.815150       -22.1814
  35   2.0000      -0.813656       -22.1407
  36   2.0000      -0.779497       -21.2112
  37   2.0000      -0.739012       -20.1095
  38   2.0000      -0.653089       -17.7715
  39   2.0000      -0.646277       -17.5861
  40   0.0000      -0.306119        -8.3299
  41   0.0000      -0.243646        -6.6299
  42   0.0000      -0.229299        -6.2396
  43   0.0000      -0.128975        -3.5096
  44   0.0000      -0.099256        -2.7009

MULLIKEN ATOMIC CHARGES
-----------------------
   0 C :   -0.285564
   1 N :   -0.071140
   2 C :   -0.318691
   3 C :    0.235054
   4 O :   -0.404928
   5 C :    0.139005
   6 C :   -0.215807
   7 C :   -0.100367
   8 C :   -0.118474
   9 C :   -0.110697
  10 C :   -0.209563
  11 H :    0.154663
  12 H :    0.120694
  13 H :    0.127411
  14 H :    0.130893
  15 H :    0.162870
  16 H :    0.132978
  17 H :    0.132131
  18 H :    0.120068
  19 H :    0.121500
  20 H :    0.121494
  21 H :    0.136470
Sum of atomic charges:    0.0000000

LOEWDIN ATOMIC CHARGES
----------------------
   0 C :   -0.270892
   1 N :    0.158739
   2 C :   -0.278437
   3 C :   -0.376882
   4 O :    0.031193
   5 C :   -0.116687
   6 C :   -0.105902
   7 C :   -0.138988
   8 C :   -0.132943
   9 C :   -0.133221
  10 C :   -0.083734
  11 H :    0.127273
  12 H :    0.115336
  13 H :    0.115488
  14 H :    0.112040
  15 H :    0.129530
  16 H :    0.117363
  17 H :    0.148455
  18 H :    0.142621
  19 H :    0.142490
  20 H :    0.143336
  21 H :    0.153821

  Mayer bond orders larger than 0.100000
B(  0-C ,  1-N ) :   0.9290 B(  0-C , 11-H ) :   0.9690 B(  0-C , 12-H ) :   0.9694
B(  0-C , 13-H ) :   0.9783 B(  1-N ,  2-C ) :   0.9218 B(  1-N ,  3-C ) :   1.2834
B(  2-C , 14-H ) :   0.9789 B(  2-C , 15-H ) :   0.9694 B(  2-C , 16-H ) :   0.9700
B(  3-C ,  4-O ) :   2.0227 B(  3-C ,  5-C ) :   0.8773 B(  5-C ,  6-C ) :   1.3571
B(  5-C , 10-C ) :   1.4183 B(  6-C ,  7-C ) :   1.4410 B(  6-C , 17-H ) :   0.9690
B(  7-C ,  8-C ) :   1.4253 B(  7-C , 18-H ) :   0.9738 B(  8-C ,  9-C ) :   1.4125
B(  8-C , 19-H ) :   0.9716 B(  9-C , 10-C ) :   1.4438 B(  9-C , 20-H ) :   0.9755
B( 10-C , 21-H ) :   0.9650

FINAL SINGLE POINT ENERGY      -479.587177388048

DIPOLE MOMENT
-------------

Method             : SCF
Type of density    : Electron Density
Multiplicity       :   1
Irrep              :   0
Energy             :  -479.6001681614483232 Eh
Relativity type    :
Basis              : AO
                                X                 Y                 Z
Electronic contribution:     -4.585710743       4.687357190      -1.403461281
Nuclear contribution   :      4.503532486      -6.197297251       1.841509168
                        -----------------------------------------
Total Dipole Moment    :     -0.082178257      -1.509940062       0.438047887
                        -----------------------------------------
Magnitude (a.u.)       :      1.574343739
Magnitude (Debye)      :      4.001663766

Rotational constants in cm-1:             0.081344             0.024038             0.020597
Rotational constants in MHz :          2438.630398           720.626403           617.484228

                             ****ORCA TERMINATED NORMALLY****
TOTAL RUN TIME: 0 days 0 hours 5 minutes 30 seconds 501 msec
