                         Program Version 6.0.0  -   RELEASE  -
|  1> ! wb97x-v def2-tzvp def2/J RIJCOSX DEFGRID2 scfconv7 GCP(DFT/TZ) printgap
|  2> %output
|  3>     printlevel normal
|  4> end
|  5> %cpcm
|  6>     smd true
|  7>     smdsolvent "water"
|  8> end
|  9> * xyz 0 1
| 10> C 3.3755484680728745 -0.08619119940785559 -0.03983378452117921
| 11> N 1.9568250428806824 -0.4040811539013148 0.11919192030094868
| 12> C 1.6723724480372046 -1.7023317586517965 0.730842704245066
| 13> C 1.047266257629053 0.5736258870039953 -0.0692130364516352
| 14> O 1.3850266425160767 1.7494170919335825 -0.32692695966704366
| 15> C -0.4075917104005286 0.23321069543754103 -0.006880851466171984
| 16> C -0.9474064391104561 -0.8281652010967476 -0.7389739587342726
| 17> C -2.321086162032814 -1.0502221372671814 -0.7343482320784631
| 18> C -3.1606294335772094 -0.22724195624773524 0.01299939628951709
| 19> C -2.62516520248077 0.8321068862639437 0.7435524124330295
| 20> C -1.2554052228801411 1.0712587746369213 0.7227422066145847
| 21> H 3.5169280078228113 0.6091696175986216 -0.868346665759932
| 22> H 3.91587588262341 -1.01122778683463 -0.2535124429513006
| 23> H 3.7884697784338095 0.3609890331686657 0.8728408500874797
| 24> H 1.8513712742976023 -2.5184962111547042 0.022425814262187243
| 25> H 0.6425672354905051 -1.7499850650032143 1.0812258776478598
| 26> H 2.3354500508180176 -1.8387758907328364 1.5924151269696278
| 27> H -0.2970560259965604 -1.472306036360135 -1.3221882752764795
| 28> H -2.735630630089178 -1.8678671145198555 -1.3153952002526637
| 29> H -4.230867426992216 -0.40806657797325296 0.022632979254630346
| 30> H -3.276489821085736 1.4758534900045068 1.326070746093875
| 31> H -0.8348334744390327 1.903532109558394 1.2784433428941842
| 32> *
| 33>
| 34>                          ****END OF INPUT****

CARTESIAN COORDINATES (ANGSTROEM)
---------------------------------
  C      3.375548   -0.086191   -0.039834
  N      1.956825   -0.404081    0.119192
  C      1.672372   -1.702332    0.730843
  C      1.047266    0.573626   -0.069213
  O      1.385027    1.749417   -0.326927
  C     -0.407592    0.233211   -0.006881
  C     -0.947406   -0.828165   -0.738974
  C     -2.321086   -1.050222   -0.734348
  C     -3.160629   -0.227242    0.012999
  C     -2.625165    0.832107    0.743552
  C     -1.255405    1.071259    0.722742
  H      3.516928    0.609170   -0.868347
  H      3.915876   -1.011228   -0.253512
  H      3.788470    0.360989    0.872841
  H      1.851371   -2.518496    0.022426
  H      0.642567   -1.749985    1.081226
  H      2.335450   -1.838776    1.592415
  H     -0.297056   -1.472306   -1.322188
  H     -2.735631   -1.867867   -1.315395
  H     -4.230867   -0.408067    0.022633
  H     -3.276490    1.475853    1.326071
  H     -0.834833    1.903532    1.278443

 Total Charge           Charge          ....    0
 Multiplicity           Mult            ....    1
 Number of Electrons    NEL             ....   80
 Basis Dimension        Dim             ....  407

ORBITAL ENERGIES
----------------

  NO   OCC          E(Eh)            E(eV)
   0   2.0000     -21.644230      -588.9694
   1   2.0000     -16.564861      -450.7528
   2   2.0000     -12.158210      -330.8417
   3   2.0000     -12.071073      -328.4706
   4   2.0000     -12.067872      -328.3835
   5   2.0000     -12.067270      -328.3671
   6   2.0000     -12.058838      -328.1377
   7   2.0000     -12.057629      -328.1048
   8   2.0000     -12.055945      -328.0589
   9   2.0000     -12.053704      -327.9980
  10   2.0000     -12.052663      -327.9696
  11   2.0000      -1.693347       -46.0783
  12   2.0000      -1.530358       -41.6431
  13   2.0000      -1.391865       -37.8746
  14   2.0000      -1.298745       -35.3407
  15   2.0000      -1.279078       -34.8055
  16   2.0000      -1.235474       -33.6190
  17   2.0000      -1.229043       -33.4440
  18   2.0000      -1.133906       -30.8552
  19   2.0000      -1.111481       -30.2449
  20   2.0000      -1.070907       -29.1409
  21   2.0000      -1.019629       -27.7455
  22   2.0000      -1.013396       -27.5759
  23   2.0000      -0.959340       -26.1050
  24   2.0000      -0.953305       -25.9407
  25   2.0000      -0.933583       -25.4041
  26   2.0000      -0.922722       -25.1085
  27   2.0000      -0.899512       -24.4770
  28   2.0000      -0.882551       -24.0154
  29   2.0000      -0.877649       -23.8821
  30   2.0000      -0.860623       -23.4188
  31   2.0000      -0.839805       -22.8523
  32   2.0000      -0.826632       -22.4938
  33   2.0000      -0.819244       -22.2928
  34   2.0000      -0.814931       -22.1754
  35   2.0000      -0.809918       -22.0390
  36   2.0000      -0.779420       -21.2091
  37   2.0000      -0.735588       -20.0164
  38   2.0000      -0.652434       -17.7536
  39   2.0000      -0.644698       -17.5431
  40   0.0000      -0.310565        -8.4509
  41   0.0000      -0.241491        -6.5713
  42   0.0000      -0.230768        -6.2795
  43   0.0000      -0.121274        -3.3000
  44   0.0000      -0.094811        -2.5800

MULLIKEN ATOMIC CHARGES
-----------------------
   0 C :   -0.325332
   1 N :   -0.052349
   2 C :   -0.328426
   3 C :    0.319501
   4 O :   -0.565957
   5 C :    0.127178
   6 C :   -0.235821
   7 C :   -0.142559
   8 C :   -0.154222
   9 C :   -0.159642
  10 C :   -0.259084
  11 H :    0.148626
  12 H :    0.157275
  13 H :    0.151623
  14 H :    0.155156
  15 H :    0.172074
  16 H :    0.157799
  17 H :    0.176981
  18 H :    0.164211
  19 H :    0.165086
  20 H :    0.163459
  21 H :    0.164425
Sum of atomic charges:    0.0000000

LOEWDIN ATOMIC CHARGES
----------------------
   0 C :   -0.268681
   1 N :    0.175627
   2 C :   -0.264576
   3 C :   -0.369182
   4 O :   -0.063409
   5 C :   -0.128121
   6 C :   -0.100448
   7 C :   -0.139994
   8 C :   -0.134712
   9 C :   -0.139587
  10 C :   -0.099359
  11 H :    0.123298
  12 H :    0.128078
  13 H :    0.121629
  14 H :    0.122109
  15 H :    0.132512
  16 H :    0.126536
  17 H :    0.160670
  18 H :    0.153572
  19 H :    0.153075
  20 H :    0.153301
  21 H :    0.157662

  Mayer bond orders larger than 0.100000
B(  0-C ,  1-N ) :   0.9161 B(  0-C , 11-H ) :   0.9672 B(  0-C , 12-H ) :   0.9647
B(  0-C , 13-H ) :   0.9720 B(  1-N ,  2-C ) :   0.9097 B(  1-N ,  3-C ) :   1.3591
B(  2-C , 14-H ) :   0.9727 B(  2-C , 15-H ) :   0.9636 B(  2-C , 16-H ) :   0.9643
B(  3-C ,  4-O ) :   1.8375 B(  3-C ,  5-C ) :   0.8988 B(  5-C ,  6-C ) :   1.3467
B(  5-C , 10-C ) :   1.3632 B(  6-C ,  7-C ) :   1.4269 B(  6-C , 17-H ) :   0.9701
B(  7-C ,  8-C ) :   1.4008 B(  7-C , 18-H ) :   0.9752 B(  8-C ,  9-C ) :   1.3963
B(  8-C , 19-H ) :   0.9723 B(  9-C , 10-C ) :   1.4421 B(  9-C , 20-H ) :   0.9773
B( 10-C , 21-H ) :   0.9717

FINAL SINGLE POINT ENERGY      -479.601529670893

DIPOLE MOMENT
-------------

Method             : SCF
Type of density    : Electron Density
Multiplicity       :   1
Irrep              :   0
Energy             :  -479.6145204442933050 Eh
Relativity type    :
Basis              : AO
                                X                 Y                 Z
Electronic contribution:     -4.629898651       3.810120867      -1.215023208
Nuclear contribution   :      4.503532486      -6.197297251       1.841509168
                        -----------------------------------------
Total Dipole Moment    :     -0.126366165      -2.387176385       0.626485960
                        -----------------------------------------
Magnitude (a.u.)       :      2.471247490
Magnitude (Debye)      :      6.281411928

Rotational constants in cm-1:             0.081344             0.024038             0.020597
Rotational constants in MHz :          2438.630398           720.626403           617.484228

                             ****ORCA TERMINATED NORMALLY****
TOTAL RUN TIME: 0 days 0 hours 5 minutes 47 seconds 891 msec
