                         Program Version 6.0.0  -   RELEASE  -
|  1> ! wb97x-v def2-tzvp def2/J RIJCOSX DEFGRID2 scfconv7 GCP(DFT/TZ) printgap
|  2> %output
|  3>     printlevel normal
|  4> end
|  5> * xyz 0 1
|  6> C -2.622098872131161 0.4991664674793166 -0.0007144400596159981
|  7> O -1.239611841274688 0.9389765763858506 -0.0024236534399715635
|  8> C -0.3138409652220926 -0.04504589399591262 0.00015656015398968058
|  9> O -0.6049518096871398 -1.2326937745864301 0.0036629642687365563
| 10> C 1.0523430058789274 0.4977319969190955 -0.0016818955704811357
| 11> C 2.1138180619194196 -0.2947139293377296 0.7432174640038456
| 12> C 2.113810952067061 -0.2991878589463134 -0.7417536940604048
| 13> H -3.215034484423163 1.412923522686566 -0.0039027839252173094
| 14> H -2.8309912246703965 -0.08736524063674132 0.8970567342515637
| 15> H -2.83120589961354 -0.09380132764143541 -0.8941874657638053
| 16> H 1.1359575916926197 1.5772645159028502 -0.004930693085466334
| 17> H 2.8630391761648957 0.294000619314065 1.2601225185832157
| 18> H 1.7723328015463595 -1.1890437917378756 1.2531236056978121
| 19> H 2.8630263345394327 0.2864406824898817 -1.2621630924234992
| 20> H 1.7723810178470885 -1.196564876574281 -1.2463127878530138
| 21> *
| 22>
| 23>                          ****END OF INPUT****

CARTESIAN COORDINATES (ANGSTROEM)
---------------------------------
  C     -2.622099    0.499166   -0.000714
  O     -1.239612    0.938977   -0.002424
  C     -0.313841   -0.045046    0.000157
  O     -0.604952   -1.232694    0.003663
  C      1.052343    0.497732   -0.001682
  C      2.113818   -0.294714    0.743217
  C      2.113811   -0.299188   -0.741754
  H     -3.215034    1.412924   -0.003903
  H     -2.830991   -0.087365    0.897057
  H     -2.831206   -0.093801   -0.894187
  H      1.135958    1.577265   -0.004931
  H      2.863039    0.294001    1.260123
  H      1.772333   -1.189044    1.253124
  H      2.863026    0.286441   -1.262163
  H      1.772381   -1.196565   -1.246313

 Total Charge           Charge          ....    0
 Multiplicity           Mult            ....    1
 Number of Electrons    NEL             ....   54
 Basis Dimension        Dim             ....  265

ORBITAL ENERGIES
----------------

  NO   OCC          E(Eh)            E(eV)
   0   2.0000     -21.717687      -590.9683
   1   2.0000     -21.651562      -589.1690
   2   2.0000     -12.175463      -331.3112
   3   2.0000     -12.101421      -329.2964
   4   2.0000     -12.069539      -328.4288
   5   2.0000     -12.062740      -328.2439
   6   2.0000     -12.061650      -328.2142
   7   2.0000      -1.754026       -47.7295
   8   2.0000      -1.687416       -45.9169
   9   2.0000      -1.408576       -38.3293
  10   2.0000      -1.285743       -34.9869
  11   2.0000      -1.163508       -31.6607
  12   2.0000      -1.102847       -30.0100
  13   2.0000      -1.087109       -29.5817
  14   2.0000      -1.059119       -28.8201
  15   2.0000      -1.003502       -27.3067
  16   2.0000      -0.992028       -26.9945
  17   2.0000      -0.961658       -26.1680
  18   2.0000      -0.933966       -25.4145
  19   2.0000      -0.897291       -24.4165
  20   2.0000      -0.886289       -24.1171
  21   2.0000      -0.842827       -22.9345
  22   2.0000      -0.829733       -22.5782
  23   2.0000      -0.823319       -22.4036
  24   2.0000      -0.805439       -21.9171
  25   2.0000      -0.762358       -20.7448
  26   2.0000      -0.747023       -20.3275
  27   0.0000      -0.308671        -8.3994
  28   0.0000      -0.182293        -4.9604
  29   0.0000      -0.108488        -2.9521
  30   0.0000      -0.079202        -2.1552
  31   0.0000      -0.033529        -0.9124

MULLIKEN ATOMIC CHARGES
-----------------------
   0 C :   -0.183924
   1 O :   -0.242986
   2 C :    0.284214
   3 O :   -0.378381
   4 C :   -0.065768
   5 C :   -0.214816
   6 C :   -0.214806
   7 H :    0.128269
   8 H :    0.129417
   9 H :    0.129466
  10 H :    0.117771
  11 H :    0.118413
  12 H :    0.137360
  13 H :    0.118411
  14 H :    0.137360
Sum of atomic charges:    0.0000000

LOEWDIN ATOMIC CHARGES
----------------------
   0 C :   -0.288452
   1 O :    0.223439
   2 C :   -0.453493
   3 O :    0.076534
   4 C :   -0.187462
   5 C :   -0.194152
   6 C :   -0.194163
   7 H :    0.109313
   8 H :    0.110951
   9 H :    0.110961
  10 H :    0.150029
  11 H :    0.129634
  12 H :    0.138612
  13 H :    0.129639
  14 H :    0.138610

  Mayer bond orders larger than 0.100000
B(  0-C ,  1-O ) :   0.9064 B(  0-C ,  7-H ) :   0.9720 B(  0-C ,  8-H ) :   0.9780
B(  0-C ,  9-H ) :   0.9780 B(  1-O ,  2-C ) :   1.1960 B(  2-C ,  3-O ) :   2.0004
B(  2-C ,  4-C ) :   1.0222 B(  4-C ,  5-C ) :   0.9031 B(  4-C ,  6-C ) :   0.9031
B(  4-C , 10-H ) :   0.9707 B(  5-C ,  6-C ) :   0.9983 B(  5-C , 11-H ) :   0.9713
B(  5-C , 12-H ) :   0.9609 B(  6-C , 13-H ) :   0.9713 B(  6-C , 14-H ) :   0.9608

FINAL SINGLE POINT ENERGY      -345.801898961331

DIPOLE MOMENT
-------------

Method             : SCF
Type of density    : Electron Density
Multiplicity       :   1
Irrep              :   0
Energy             :  -345.8114472917309286 Eh
Relativity type    :
Basis              : AO
                                X                 Y                 Z
Electronic contribution:     -1.292058496      -0.215140305      -0.000062343
Nuclear contribution   :      1.393762286       0.891384339      -0.001802028
                        -----------------------------------------
Total Dipole Moment    :      0.101703790       0.676244034      -0.001864371
                        -----------------------------------------
Magnitude (a.u.)       :      0.683851687
Magnitude (Debye)      :      1.738212851

Rotational constants in cm-1:             0.241229             0.053992             0.049629
Rotational constants in MHz :          7231.860816          1618.648049          1487.832296

                             ****ORCA TERMINATED NORMALLY****
TOTAL RUN TIME: 0 days 0 hours 1 minutes 45 seconds 89 msec
