                         Program Version 6.0.0  -   RELEASE  -
|  1> ! wb97x-v def2-tzvp def2/J RIJCOSX DEFGRID2 scfconv7 GCP(DFT/TZ) printgap
|  2> %output
|  3>     printlevel normal
|  4> end
|  5> %cpcm
|  6>     smd true
|  7>     smdsolvent "water"
|  8> end
|  9> * xyz 0 1
| 10> C -2.622098872131161 0.4991664674793166 -0.0007144400596159981
| 11> O -1.239611841274688 0.9389765763858506 -0.0024236534399715635
| 12> C -0.3138409652220926 -0.04504589399591262 0.00015656015398968058
| 13> O -0.6049518096871398 -1.2326937745864301 0.0036629642687365563
| 14> C 1.0523430058789274 0.4977319969190955 -0.0016818955704811357
| 15> C 2.1138180619194196 -0.2947139293377296 0.7432174640038456
| 16> C 2.113810952067061 -0.2991878589463134 -0.7417536940604048
| 17> H -3.215034484423163 1.412923522686566 -0.0039027839252173094
| 18> H -2.8309912246703965 -0.08736524063674132 0.8970567342515637
| 19> H -2.83120589961354 -0.09380132764143541 -0.8941874657638053
| 20> H 1.1359575916926197 1.5772645159028502 -0.004930693085466334
| 21> H 2.8630391761648957 0.294000619314065 1.2601225185832157
| 22> H 1.7723328015463595 -1.1890437917378756 1.2531236056978121
| 23> H 2.8630263345394327 0.2864406824898817 -1.2621630924234992
| 24> H 1.7723810178470885 -1.196564876574281 -1.2463127878530138
| 25> *
| 26>
| 27>                          ****END OF INPUT****

CARTESIAN COORDINATES (ANGSTROEM)
---------------------------------
  C     -2.622099    0.499166   -0.000714
  O     -1.239612    0.938977   -0.002424
  C     -0.313841   -0.045046    0.000157
  O     -0.604952   -1.232694    0.003663
  C      1.052343    0.497732   -0.001682
  C      2.113818   -0.294714    0.743217
  C      2.113811   -0.299188   -0.741754
  H     -3.215034    1.412924   -0.003903
  H     -2.830991   -0.087365    0.897057
  H     -2.831206   -0.093801   -0.894187
  H      1.135958    1.577265   -0.004931
  H      2.863039    0.294001    1.260123
  H      1.772333   -1.189044    1.253124
  H      2.863026    0.286441   -1.262163
  H      1.772381   -1.196565   -1.246313

 Total Charge           Charge          ....    0
 Multiplicity           Mult            ....    1
 Number of Electrons    NEL             ....   54
 Basis Dimension        Dim             ....  265

ORBITAL ENERGIES
----------------

  NO   OCC          E(Eh)            E(eV)
   0   2.0000     -21.723920      -591.1379
   1   2.0000     -21.666411      -589.5730
   2   2.0000     -12.186701      -331.6170
   3   2.0000     -12.092278      -329.0476
   4   2.0000     -12.065437      -328.3172
   5   2.0000     -12.056273      -328.0679
   6   2.0000     -12.055167      -328.0378
   7   2.0000      -1.762785       -47.9678
   8   2.0000      -1.700796       -46.2810
   9   2.0000      -1.404317       -38.2134
  10   2.0000      -1.286395       -35.0046
  11   2.0000      -1.163445       -31.6590
  12   2.0000      -1.109434       -30.1892
  13   2.0000      -1.080428       -29.3999
  14   2.0000      -1.071501       -29.1570
  15   2.0000      -1.002034       -27.2667
  16   2.0000      -0.997123       -27.1331
  17   2.0000      -0.963818       -26.2268
  18   2.0000      -0.927231       -25.2312
  19   2.0000      -0.914242       -24.8778
  20   2.0000      -0.895680       -24.3727
  21   2.0000      -0.836988       -22.7756
  22   2.0000      -0.827917       -22.5288
  23   2.0000      -0.817412       -22.2429
  24   2.0000      -0.797889       -21.7117
  25   2.0000      -0.756772       -20.5928
  26   2.0000      -0.743293       -20.2260
  27   0.0000      -0.315039        -8.5726
  28   0.0000      -0.178490        -4.8570
  29   0.0000      -0.112256        -3.0547
  30   0.0000      -0.074903        -2.0382
  31   0.0000      -0.031239        -0.8501

MULLIKEN ATOMIC CHARGES
-----------------------
   0 C :   -0.223650
   1 O :   -0.268634
   2 C :    0.373516
   3 O :   -0.489040
   4 C :   -0.095300
   5 C :   -0.257789
   6 C :   -0.257804
   7 H :    0.157521
   8 H :    0.149772
   9 H :    0.149767
  10 H :    0.153585
  11 H :    0.153183
  12 H :    0.150845
  13 H :    0.153179
  14 H :    0.150849
Sum of atomic charges:    0.0000000

LOEWDIN ATOMIC CHARGES
----------------------
   0 C :   -0.285392
   1 O :    0.217699
   2 C :   -0.439405
   3 O :    0.017518
   4 C :   -0.186287
   5 C :   -0.194861
   6 C :   -0.194876
   7 H :    0.119283
   8 H :    0.115663
   9 H :    0.115658
  10 H :    0.159234
  11 H :    0.139080
  12 H :    0.138803
  13 H :    0.139085
  14 H :    0.138800

  Mayer bond orders larger than 0.100000
B(  0-C ,  1-O ) :   0.8775 B(  0-C ,  7-H ) :   0.9667 B(  0-C ,  8-H ) :   0.9725
B(  0-C ,  9-H ) :   0.9725 B(  1-O ,  2-C ) :   1.2116 B(  2-C ,  3-O ) :   1.8867
B(  2-C ,  4-C ) :   1.0201 B(  4-C ,  5-C ) :   0.9005 B(  4-C ,  6-C ) :   0.9005
B(  4-C , 10-H ) :   0.9656 B(  5-C ,  6-C ) :   0.9862 B(  5-C , 11-H ) :   0.9647
B(  5-C , 12-H ) :   0.9617 B(  6-C , 13-H ) :   0.9647 B(  6-C , 14-H ) :   0.9617

FINAL SINGLE POINT ENERGY      -345.808408454984

DIPOLE MOMENT
-------------

Method             : SCF
Type of density    : Electron Density
Multiplicity       :   1
Irrep              :   0
Energy             :  -345.8179567853841263 Eh
Relativity type    :
Basis              : AO
                                X                 Y                 Z
Electronic contribution:     -1.205207227       0.112006859      -0.000957072
Nuclear contribution   :      1.393762286       0.891384339      -0.001802028
                        -----------------------------------------
Total Dipole Moment    :      0.188555060       1.003391198      -0.002759100
                        -----------------------------------------
Magnitude (a.u.)       :      1.020957649
Magnitude (Debye)      :      2.595068109

Rotational constants in cm-1:             0.241229             0.053992             0.049629
Rotational constants in MHz :          7231.860816          1618.648049          1487.832296

                             ****ORCA TERMINATED NORMALLY****
TOTAL RUN TIME: 0 days 0 hours 1 minutes 49 seconds 498 msec
