                         Program Version 6.0.0  -   RELEASE  -
|  1> ! pbe def2-sv(p) def2/J RI DEFGRID1 loosescf d4 GCP(DFT/SV(P)) printgap
|  2> %output
|  3>     printlevel normal
|  4> end
|  5> * xyz 0 1
|  6> C -2.4811734165 0.0318084672 -1.4635514383
|  7> C -2.0408329419 0.4634844486 -0.055922908
|  8> H -2.9458473021 0.6835609502 0.5195028757
|  9> C -1.1206237931 1.7002632704 -0.0931731064
| 10> C 0.3063744778 1.3859489267 0.3475436788
| 11> C 0.7896194846 0.1242041492 -0.3754877848
| 12> H 0.5383807979 0.2341141286 -1.4345173941
| 13> C 0.0210411958 -1.0664041318 0.2062108682
| 14> C -1.398246556 -0.7430848657 0.5864164478
| 15> O -2.024058657 -1.4583820593 1.3488868477
| 16> C 2.2868828708 -0.0554802815 -0.2871940083
| 17> C 3.0353263402 -0.0253927734 -1.3796958556
| 18> C 2.8930011074 -0.2464327926 1.0705971112
| 19> H -3.12346736 -0.8445900114 -1.4034754461
| 20> H -3.0397416967 0.8376000654 -1.9321823155
| 21> H -1.6225370677 -0.2084443985 -2.0837141697
| 22> H -1.0984269812 2.0950965392 -1.1098039955
| 23> H -1.5315595805 2.4769517524 0.5525193091
| 24> H 0.9563074977 2.2300440159 0.1133919278
| 25> H 0.3308765902 1.2218595597 1.4267817949
| 26> H -0.0120830208 -1.8947788686 -0.5061680107
| 27> H 0.5078326784 -1.4500257718 1.1047159419
| 28> H 4.1060983982 -0.1316501488 -1.3384089141
| 29> H 2.6120973071 0.1054695245 -2.361281532
| 30> H 3.9714797711 -0.124249572 1.0238540011
| 31> H 2.4891029018 0.4704395798 1.7811519376
| 32> H 2.6854713813 -1.2475756802 1.4464141661
| 33> *
| 34>
| 35>                          ****END OF INPUT****

CARTESIAN COORDINATES (ANGSTROEM)
---------------------------------
  C     -2.481173    0.031808   -1.463551
  C     -2.040833    0.463484   -0.055923
  H     -2.945847    0.683561    0.519503
  C     -1.120624    1.700263   -0.093173
  C      0.306374    1.385949    0.347544
  C      0.789619    0.124204   -0.375488
  H      0.538381    0.234114   -1.434517
  C      0.021041   -1.066404    0.206211
  C     -1.398247   -0.743085    0.586416
  O     -2.024059   -1.458382    1.348887
  C      2.286883   -0.055480   -0.287194
  C      3.035326   -0.025393   -1.379696
  C      2.893001   -0.246433    1.070597
  H     -3.123467   -0.844590   -1.403475
  H     -3.039742    0.837600   -1.932182
  H     -1.622537   -0.208444   -2.083714
  H     -1.098427    2.095097   -1.109804
  H     -1.531560    2.476952    0.552519
  H      0.956307    2.230044    0.113392
  H      0.330877    1.221860    1.426782
  H     -0.012083   -1.894779   -0.506168
  H      0.507833   -1.450026    1.104716
  H      4.106098   -0.131650   -1.338409
  H      2.612097    0.105470   -2.361282
  H      3.971480   -0.124250    1.023854
  H      2.489103    0.470440    1.781152
  H      2.685471   -1.247576    1.446414

 Total Charge           Charge          ....    0
 Multiplicity           Mult            ....    1
 Number of Electrons    NEL             ....   84
 Basis Dimension        Dim             ....  186

ORBITAL ENERGIES
----------------

  NO   OCC          E(Eh)            E(eV)
   0   2.0000     -18.735524      -509.8195
   1   2.0000      -9.969907      -271.2950
   2   2.0000      -9.905871      -269.5524
   3   2.0000      -9.903912      -269.4992
   4   2.0000      -9.901622      -269.4368
   5   2.0000      -9.895242      -269.2632
   6   2.0000      -9.895083      -269.2589
   7   2.0000      -9.894578      -269.2451
   8   2.0000      -9.891407      -269.1589
   9   2.0000      -9.886208      -269.0174
  10   2.0000      -9.876554      -268.7547
  11   2.0000      -0.931319       -25.3425
  12   2.0000      -0.774180       -21.0665
  13   2.0000      -0.730201       -19.8698
  14   2.0000      -0.684784       -18.6339
  15   2.0000      -0.665704       -18.1147
  16   2.0000      -0.621260       -16.9053
  17   2.0000      -0.602502       -16.3949
  18   2.0000      -0.555603       -15.1187
  19   2.0000      -0.540431       -14.7059
  20   2.0000      -0.481706       -13.1079
  21   2.0000      -0.461944       -12.5701
  22   2.0000      -0.438350       -11.9281
  23   2.0000      -0.419175       -11.4063
  24   2.0000      -0.417443       -11.3592
  25   2.0000      -0.400555       -10.8997
  26   2.0000      -0.393932       -10.7194
  27   2.0000      -0.384999       -10.4764
  28   2.0000      -0.366734        -9.9793
  29   2.0000      -0.363888        -9.9019
  30   2.0000      -0.351932        -9.5766
  31   2.0000      -0.350576        -9.5396
  32   2.0000      -0.346177        -9.4200
  33   2.0000      -0.329492        -8.9659
  34   2.0000      -0.317430        -8.6377
  35   2.0000      -0.311753        -8.4832
  36   2.0000      -0.307935        -8.3793
  37   2.0000      -0.292110        -7.9487
  38   2.0000      -0.280580        -7.6350
  39   2.0000      -0.277530        -7.5520
  40   2.0000      -0.222314        -6.0495
  41   2.0000      -0.189259        -5.1500
  42   0.0000      -0.051993        -1.4148
  43   0.0000      -0.016411        -0.4466
  44   0.0000       0.026925         0.7327
  45   0.0000       0.041330         1.1246
  46   0.0000       0.050654         1.3784

MULLIKEN ATOMIC CHARGES
-----------------------
   0 C :   -0.278033
   1 C :   -0.135647
   2 H :    0.074108
   3 C :   -0.079881
   4 C :   -0.147371
   5 C :   -0.147998
   6 H :    0.055840
   7 C :   -0.104087
   8 C :   -0.011368
   9 O :   -0.164145
  10 C :   -0.013811
  11 C :   -0.235979
  12 C :   -0.234732
  13 H :    0.118149
  14 H :    0.117269
  15 H :    0.113377
  16 H :    0.075245
  17 H :    0.089568
  18 H :    0.094356
  19 H :    0.093578
  20 H :    0.118000
  21 H :    0.100931
  22 H :    0.080185
  23 H :    0.083646
  24 H :    0.100616
  25 H :    0.113420
  26 H :    0.124763
Sum of atomic charges:    0.0000000

LOEWDIN ATOMIC CHARGES
----------------------
   0 C :   -0.319321
   1 C :   -0.170237
   2 H :    0.130144
   3 C :   -0.212196
   4 C :   -0.214422
   5 C :   -0.132580
   6 H :    0.118310
   7 C :   -0.235834
   8 C :    0.051199
   9 O :   -0.135887
  10 C :   -0.047785
  11 C :   -0.266522
  12 C :   -0.325219
  13 H :    0.126495
  14 H :    0.125356
  15 H :    0.118046
  16 H :    0.117714
  17 H :    0.123927
  18 H :    0.123183
  19 H :    0.118772
  20 H :    0.147686
  21 H :    0.139176
  22 H :    0.116552
  23 H :    0.115825
  24 H :    0.128088
  25 H :    0.126940
  26 H :    0.132590

  Mayer bond orders larger than 0.100000
B(  0-C ,  1-C ) :   1.0840 B(  0-C , 13-H ) :   0.9437 B(  0-C , 14-H ) :   0.9427
B(  0-C , 15-H ) :   0.9451 B(  1-C ,  2-H ) :   0.8744 B(  1-C ,  3-C ) :   1.0237
B(  1-C ,  8-C ) :   1.0222 B(  3-C ,  4-C ) :   1.1848 B(  3-C , 16-H ) :   0.9066
B(  3-C , 17-H ) :   0.9100 B(  4-C ,  5-C ) :   1.1045 B(  4-C , 18-H ) :   0.9205
B(  4-C , 19-H ) :   0.8843 B(  5-C ,  6-H ) :   0.8596 B(  5-C ,  7-C ) :   1.0404
B(  5-C , 10-C ) :   1.0199 B(  7-C ,  8-C ) :   1.0014 B(  7-C , 20-H ) :   0.8814
B(  7-C , 21-H ) :   0.8776 B(  8-C ,  9-O ) :   2.1841 B( 10-C , 11-C ) :   2.0394
B( 10-C , 12-C ) :   1.1087 B( 11-C , 22-H ) :   0.9035 B( 11-C , 23-H ) :   0.9085
B( 12-C , 24-H ) :   0.9340 B( 12-C , 25-H ) :   0.9307 B( 12-C , 26-H ) :   0.9201

Dispersion correction           -0.028605602
FINAL SINGLE POINT ENERGY      -464.821848284851

DIPOLE MOMENT
-------------

Method             : SCF
Type of density    : Electron Density
Multiplicity       :   1
Irrep              :   0
Energy             :  -464.9075079505790882 Eh
Relativity type    :
Basis              : AO
                                X                 Y                 Z
Electronic contribution:     -4.058090821      -3.533382720       3.395377716
Nuclear contribution   :      4.495686389       4.156800467      -3.921441550
                        -----------------------------------------
Total Dipole Moment    :      0.437595569       0.623417746      -0.526063834
                        -----------------------------------------
Magnitude (a.u.)       :      0.925679602
Magnitude (Debye)      :      2.352890561

Rotational constants in cm-1:             0.061709             0.024184             0.021685
Rotational constants in MHz :          1849.985904           725.004619           650.109233

                             ****ORCA TERMINATED NORMALLY****
TOTAL RUN TIME: 0 days 0 hours 0 minutes 17 seconds 192 msec
