                         Program Version 6.0.0  -   RELEASE  -
|  1> ! wb97x-v def2-tzvp def2/J RIJCOSX DEFGRID2 scfconv7 GCP(DFT/TZ) printgap
|  2> %output
|  3>     printlevel normal
|  4> end
|  5> * xyz 0 1
|  6> C -3.1855679832196513 -0.35014566416532633 0.0014902112954901015
|  7> O -2.0948219655947082 0.5849879501052175 -0.0005022066585495693
|  8> C -0.8247177623880715 0.0679369436011245 -0.0002509701603056892
|  9> C -0.5339511049531911 -1.2979117477842455 0.00011912097103248921
| 10> C 0.8048923558549457 -1.6926456691058864 0.0003652172203116434
| 11> C 1.8408057937486244 -0.7695203962912308 0.00026381016682468754
| 12> C 1.5234398329817693 0.5913882881386666 -0.0001448292459753622
| 13> C 0.2012577221735126 1.0183471652633749 -0.0004313795572480125
| 14> O 2.574697178328167 1.481261770526058 -0.0001750500884353584
| 15> H -4.091770997850168 0.25644693157391335 0.0019798192909269235
| 16> H -3.1634033305622657 -0.9774140463636191 0.8994531434577141
| 17> H -3.1654567542686354 -0.9789831738061746 -0.8954294979046487
| 18> H -1.3178364000278757 -2.043646755610547 0.00018575703641444613
| 19> H 1.0391921537946398 -2.752666825052795 0.0006458032539738175
| 20> H 2.8788403921078065 -1.082735822662516 0.0005172776216623325
| 21> H -0.04221064025086957 2.0768182241571878 -0.0006940009528059347
| 22> H 2.230894743218128 2.385752837009461 -0.0003420514119173747
| 23> *
| 24>
| 25>                          ****END OF INPUT****

CARTESIAN COORDINATES (ANGSTROEM)
---------------------------------
  C     -3.185568   -0.350146    0.001490
  O     -2.094822    0.584988   -0.000502
  C     -0.824718    0.067937   -0.000251
  C     -0.533951   -1.297912    0.000119
  C      0.804892   -1.692646    0.000365
  C      1.840806   -0.769520    0.000264
  C      1.523440    0.591388   -0.000145
  C      0.201258    1.018347   -0.000431
  O      2.574697    1.481262   -0.000175
  H     -4.091771    0.256447    0.001980
  H     -3.163403   -0.977414    0.899453
  H     -3.165457   -0.978983   -0.895429
  H     -1.317836   -2.043647    0.000186
  H      1.039192   -2.752667    0.000646
  H      2.878840   -1.082736    0.000517
  H     -0.042211    2.076818   -0.000694
  H      2.230895    2.385753   -0.000342

 Total Charge           Charge          ....    0
 Multiplicity           Mult            ....    1
 Number of Electrons    NEL             ....   66
 Basis Dimension        Dim             ....  327

ORBITAL ENERGIES
----------------

  NO   OCC          E(Eh)            E(eV)
   0   2.0000     -21.704882      -590.6199
   1   2.0000     -21.702621      -590.5584
   2   2.0000     -12.116319      -329.7018
   3   2.0000     -12.115612      -329.6826
   4   2.0000     -12.103404      -329.3504
   5   2.0000     -12.056926      -328.0856
   6   2.0000     -12.045362      -327.7710
   7   2.0000     -12.042970      -327.7059
   8   2.0000     -12.039156      -327.6021
   9   2.0000      -1.717725       -46.7417
  10   2.0000      -1.715129       -46.6710
  11   2.0000      -1.386686       -37.7336
  12   2.0000      -1.299362       -35.3574
  13   2.0000      -1.281377       -34.8680
  14   2.0000      -1.228199       -33.4210
  15   2.0000      -1.160212       -31.5710
  16   2.0000      -1.117649       -30.4128
  17   2.0000      -1.070696       -29.1351
  18   2.0000      -1.044126       -28.4121
  19   2.0000      -0.994395       -27.0589
  20   2.0000      -0.978669       -26.6309
  21   2.0000      -0.976310       -26.5667
  22   2.0000      -0.948919       -25.8214
  23   2.0000      -0.946161       -25.7464
  24   2.0000      -0.925314       -25.1791
  25   2.0000      -0.885979       -24.1087
  26   2.0000      -0.846813       -23.0430
  27   2.0000      -0.836691       -22.7675
  28   2.0000      -0.826713       -22.4960
  29   2.0000      -0.821337       -22.3497
  30   2.0000      -0.763644       -20.7798
  31   2.0000      -0.642656       -17.4876
  32   2.0000      -0.633976       -17.2514
  33   0.0000      -0.249484        -6.7888
  34   0.0000      -0.243492        -6.6258
  35   0.0000      -0.190446        -5.1823
  36   0.0000      -0.139333        -3.7914
  37   0.0000      -0.102553        -2.7906

MULLIKEN ATOMIC CHARGES
-----------------------
   0 C :   -0.211883
   1 O :   -0.249981
   2 C :    0.286970
   3 C :   -0.282723
   4 C :   -0.095394
   5 C :   -0.234553
   6 C :    0.298156
   7 C :   -0.293195
   8 O :   -0.389863
   9 H :    0.136764
  10 H :    0.123608
  11 H :    0.123565
  12 H :    0.124469
  13 H :    0.118359
  14 H :    0.120867
  15 H :    0.111174
  16 H :    0.313661
Sum of atomic charges:   -0.0000000

LOEWDIN ATOMIC CHARGES
----------------------
   0 C :   -0.310148
   1 O :    0.214274
   2 C :   -0.238390
   3 C :   -0.165164
   4 C :   -0.131445
   5 C :   -0.140652
   6 C :   -0.257268
   7 C :   -0.125906
   8 O :    0.066063
   9 H :    0.112315
  10 H :    0.106400
  11 H :    0.106378
  12 H :    0.143378
  13 H :    0.144147
  14 H :    0.145977
  15 H :    0.145066
  16 H :    0.184975

  Mayer bond orders larger than 0.100000
B(  0-C ,  1-O ) :   0.9459 B(  0-C ,  9-H ) :   0.9783 B(  0-C , 10-H ) :   0.9724
B(  0-C , 11-H ) :   0.9723 B(  1-O ,  2-C ) :   1.1362 B(  2-C ,  3-C ) :   1.3454
B(  2-C ,  7-C ) :   1.3878 B(  3-C ,  4-C ) :   1.3991 B(  3-C , 12-H ) :   0.9610
B(  4-C ,  5-C ) :   1.4820 B(  4-C , 13-H ) :   0.9661 B(  5-C ,  6-C ) :   1.3863
B(  5-C , 14-H ) :   0.9745 B(  6-C ,  7-C ) :   1.3894 B(  6-C ,  8-O ) :   1.1492
B(  7-C , 15-H ) :   0.9483 B(  8-O , 16-H ) :   0.8905

FINAL SINGLE POINT ENERGY      -422.018343460905

DIPOLE MOMENT
-------------

Method             : SCF
Type of density    : Electron Density
Multiplicity       :   1
Irrep              :   0
Energy             :  -422.0281790950048730 Eh
Relativity type    :
Basis              : AO
                                X                 Y                 Z
Electronic contribution:      4.556708739       2.876091368      -0.004313746
Nuclear contribution   :     -5.271180631      -2.935641399       0.005158167
                        -----------------------------------------
Total Dipole Moment    :     -0.714471893      -0.059550031       0.000844420
                        -----------------------------------------
Magnitude (a.u.)       :      0.716949793
Magnitude (Debye)      :      1.822341549

Rotational constants in cm-1:             0.121154             0.037495             0.028792
Rotational constants in MHz :          3632.098116          1124.070353           863.169328

                             ****ORCA TERMINATED NORMALLY****
TOTAL RUN TIME: 0 days 0 hours 2 minutes 48 seconds 951 msec
