                         Program Version 6.0.0  -   RELEASE  -
|  1> ! wb97x-v def2-tzvp def2/J RIJCOSX DEFGRID2 scfconv7 GCP(DFT/TZ) printgap
|  2> %output
|  3>     printlevel normal
|  4> end
|  5> %cpcm
|  6>     smd true
|  7>     smdsolvent "water"
|  8> end
|  9> * xyz 0 1
| 10> C -3.1855679832196513 -0.35014566416532633 0.0014902112954901015
| 11> O -2.0948219655947082 0.5849879501052175 -0.0005022066585495693
| 12> C -0.8247177623880715 0.0679369436011245 -0.0002509701603056892
| 13> C -0.5339511049531911 -1.2979117477842455 0.00011912097103248921
| 14> C 0.8048923558549457 -1.6926456691058864 0.0003652172203116434
| 15> C 1.8408057937486244 -0.7695203962912308 0.00026381016682468754
| 16> C 1.5234398329817693 0.5913882881386666 -0.0001448292459753622
| 17> C 0.2012577221735126 1.0183471652633749 -0.0004313795572480125
| 18> O 2.574697178328167 1.481261770526058 -0.0001750500884353584
| 19> H -4.091770997850168 0.25644693157391335 0.0019798192909269235
| 20> H -3.1634033305622657 -0.9774140463636191 0.8994531434577141
| 21> H -3.1654567542686354 -0.9789831738061746 -0.8954294979046487
| 22> H -1.3178364000278757 -2.043646755610547 0.00018575703641444613
| 23> H 1.0391921537946398 -2.752666825052795 0.0006458032539738175
| 24> H 2.8788403921078065 -1.082735822662516 0.0005172776216623325
| 25> H -0.04221064025086957 2.0768182241571878 -0.0006940009528059347
| 26> H 2.230894743218128 2.385752837009461 -0.0003420514119173747
| 27> *
| 28>
| 29>                          ****END OF INPUT****

CARTESIAN COORDINATES (ANGSTROEM)
---------------------------------
  C     -3.185568   -0.350146    0.001490
  O     -2.094822    0.584988   -0.000502
  C     -0.824718    0.067937   -0.000251
  C     -0.533951   -1.297912    0.000119
  C      0.804892   -1.692646    0.000365
  C      1.840806   -0.769520    0.000264
  C      1.523440    0.591388   -0.000145
  C      0.201258    1.018347   -0.000431
  O      2.574697    1.481262   -0.000175
  H     -4.091771    0.256447    0.001980
  H     -3.163403   -0.977414    0.899453
  H     -3.165457   -0.978983   -0.895429
  H     -1.317836   -2.043647    0.000186
  H      1.039192   -2.752667    0.000646
  H      2.878840   -1.082736    0.000517
  H     -0.042211    2.076818   -0.000694
  H      2.230895    2.385753   -0.000342

 Total Charge           Charge          ....    0
 Multiplicity           Mult            ....    1
 Number of Electrons    NEL             ....   66
 Basis Dimension        Dim             ....  327

ORBITAL ENERGIES
----------------

  NO   OCC          E(Eh)            E(eV)
   0   2.0000     -21.705928      -590.6483
   1   2.0000     -21.702670      -590.5597
   2   2.0000     -12.117701      -329.7394
   3   2.0000     -12.117240      -329.7269
   4   2.0000     -12.088053      -328.9327
   5   2.0000     -12.056444      -328.0725
   6   2.0000     -12.044798      -327.7556
   7   2.0000     -12.042005      -327.6796
   8   2.0000     -12.040749      -327.6454
   9   2.0000      -1.718992       -46.7761
  10   2.0000      -1.715635       -46.6848
  11   2.0000      -1.388611       -37.7860
  12   2.0000      -1.299467       -35.3603
  13   2.0000      -1.282057       -34.8865
  14   2.0000      -1.224151       -33.3108
  15   2.0000      -1.160429       -31.5769
  16   2.0000      -1.115930       -30.3660
  17   2.0000      -1.068318       -29.0704
  18   2.0000      -1.045552       -28.4509
  19   2.0000      -0.993208       -27.0266
  20   2.0000      -0.978915       -26.6376
  21   2.0000      -0.978104       -26.6156
  22   2.0000      -0.949106       -25.8265
  23   2.0000      -0.946962       -25.7682
  24   2.0000      -0.926263       -25.2049
  25   2.0000      -0.883441       -24.0396
  26   2.0000      -0.842007       -22.9122
  27   2.0000      -0.829618       -22.5751
  28   2.0000      -0.816237       -22.2109
  29   2.0000      -0.814570       -22.1656
  30   2.0000      -0.766468       -20.8567
  31   2.0000      -0.644724       -17.5438
  32   2.0000      -0.637605       -17.3501
  33   0.0000      -0.252604        -6.8737
  34   0.0000      -0.245479        -6.6798
  35   0.0000      -0.186182        -5.0663
  36   0.0000      -0.135045        -3.6748
  37   0.0000      -0.098611        -2.6833

MULLIKEN ATOMIC CHARGES
-----------------------
   0 C :   -0.225695
   1 O :   -0.302707
   2 C :    0.330743
   3 C :   -0.331443
   4 C :   -0.138281
   5 C :   -0.296743
   6 C :    0.302933
   7 C :   -0.357363
   8 O :   -0.466919
   9 H :    0.158317
  10 H :    0.145016
  11 H :    0.145001
  12 H :    0.174287
  13 H :    0.164880
  14 H :    0.156276
  15 H :    0.162984
  16 H :    0.378713
Sum of atomic charges:   -0.0000000

LOEWDIN ATOMIC CHARGES
----------------------
   0 C :   -0.304693
   1 O :    0.191612
   2 C :   -0.249341
   3 C :   -0.165693
   4 C :   -0.140120
   5 C :   -0.157574
   6 C :   -0.269285
   7 C :   -0.126143
   8 O :    0.041813
   9 H :    0.117897
  10 H :    0.114316
  11 H :    0.114302
  12 H :    0.156222
  13 H :    0.154755
  14 H :    0.152383
  15 H :    0.159119
  16 H :    0.210429

  Mayer bond orders larger than 0.100000
B(  0-C ,  1-O ) :   0.9087 B(  0-C ,  9-H ) :   0.9700 B(  0-C , 10-H ) :   0.9695
B(  0-C , 11-H ) :   0.9695 B(  1-O ,  2-C ) :   1.1130 B(  2-C ,  3-C ) :   1.3251
B(  2-C ,  7-C ) :   1.3146 B(  3-C ,  4-C ) :   1.3767 B(  3-C , 12-H ) :   0.9649
B(  4-C ,  5-C ) :   1.4631 B(  4-C , 13-H ) :   0.9661 B(  5-C ,  6-C ) :   1.3546
B(  5-C , 14-H ) :   0.9800 B(  6-C ,  7-C ) :   1.4073 B(  6-C ,  8-O ) :   1.1098
B(  7-C , 15-H ) :   0.9674 B(  8-O , 16-H ) :   0.8489

FINAL SINGLE POINT ENERGY      -422.029402975862

DIPOLE MOMENT
-------------

Method             : SCF
Type of density    : Electron Density
Multiplicity       :   1
Irrep              :   0
Energy             :  -422.0392386099620694 Eh
Relativity type    :
Basis              : AO
                                X                 Y                 Z
Electronic contribution:      4.307822613       2.806297943      -0.004017290
Nuclear contribution   :     -5.271180631      -2.935641399       0.005158167
                        -----------------------------------------
Total Dipole Moment    :     -0.963358019      -0.129343457       0.001140876
                        -----------------------------------------
Magnitude (a.u.)       :      0.972002934
Magnitude (Debye)      :      2.470635114

Rotational constants in cm-1:             0.121154             0.037495             0.028792
Rotational constants in MHz :          3632.098116          1124.070353           863.169328

                             ****ORCA TERMINATED NORMALLY****
TOTAL RUN TIME: 0 days 0 hours 2 minutes 51 seconds 444 msec
