                         Program Version 6.0.0  -   RELEASE  -
|  1> ! wb97x-v def2-tzvp def2/J RIJCOSX DEFGRID2 scfconv7 GCP(DFT/TZ) printgap
|  2> %output
|  3>     printlevel normal
|  4> end
|  5> * xyz 0 1
|  6> C -3.5502122160504728 0.0005454052093555611 -0.0002322759638747427
|  7> C -2.8481699688450504 1.1417543730061586 0.3816939719904543
|  8> C -1.4572261281946457 1.1425346985728027 0.38222797347412196
|  9> C -0.7393056087166521 4.6511128435982175e-05 0.0007811643116921829
| 10> C -1.4573692091890327 -1.1422390326115912 -0.3810156617634634
| 11> C -2.8483115175783387 -1.1409635042110584 -0.38150005496050843
| 12> C 0.7393064537085313 -0.00011348652566680405 0.0007879582051125267
| 13> C 1.4573497599582554 1.1421991607646316 -0.3809733592588131
| 14> C 2.8482897727642005 1.1409546448892633 -0.38144919340816213
| 15> C 3.550213183087974 -0.0005230458656968268 -0.00013968312690075614
| 16> C 2.8481937174870917 -1.1417638819804317 0.3817318974387214
| 17> C 1.457247851403018 -1.1426002837999 0.382199056049473
| 18> H -4.635559558439147 0.0007706514863666681 -0.0007256257542069955
| 19> H -3.385471087253247 2.0335035961540324 0.6894490618922203
| 20> H -0.9219415023379376 2.03126551157072 0.7021090957742222
| 21> H -0.9221707964873292 -2.031146548404581 -0.7005308456726698
| 22> H -3.3857069884348974 -2.0325127134785514 -0.6896812847616606
| 23> H 0.9221308941961855 2.031091459424322 -0.7004955238158405
| 24> H 3.3856667470885955 2.032538978343291 -0.6895706488429826
| 25> H 4.63556073354264 -0.0007169776730221939 -0.0006102603690683515
| 26> H 3.3855147401584267 -2.0335106573019788 0.6894652213952608
| 27> H 0.9219854777133798 -2.0313454749795623 0.7020665500196512
| 28> *
| 29>
| 30>                          ****END OF INPUT****

CARTESIAN COORDINATES (ANGSTROEM)
---------------------------------
  C     -3.550212    0.000545   -0.000232
  C     -2.848170    1.141754    0.381694
  C     -1.457226    1.142535    0.382228
  C     -0.739306    0.000047    0.000781
  C     -1.457369   -1.142239   -0.381016
  C     -2.848312   -1.140964   -0.381500
  C      0.739306   -0.000113    0.000788
  C      1.457350    1.142199   -0.380973
  C      2.848290    1.140955   -0.381449
  C      3.550213   -0.000523   -0.000140
  C      2.848194   -1.141764    0.381732
  C      1.457248   -1.142600    0.382199
  H     -4.635560    0.000771   -0.000726
  H     -3.385471    2.033504    0.689449
  H     -0.921942    2.031266    0.702109
  H     -0.922171   -2.031147   -0.700531
  H     -3.385707   -2.032513   -0.689681
  H      0.922131    2.031091   -0.700496
  H      3.385667    2.032539   -0.689571
  H      4.635561   -0.000717   -0.000610
  H      3.385515   -2.033511    0.689465
  H      0.921985   -2.031345    0.702067

 Total Charge           Charge          ....    0
 Multiplicity           Mult            ....    1
 Number of Electrons    NEL             ....   82
 Basis Dimension        Dim             ....  432

ORBITAL ENERGIES
----------------

  NO   OCC          E(Eh)            E(eV)
   0   2.0000     -12.065104      -328.3082
   1   2.0000     -12.063669      -328.2691
   2   2.0000     -12.054677      -328.0244
   3   2.0000     -12.054616      -328.0228
   4   2.0000     -12.054615      -328.0227
   5   2.0000     -12.054570      -328.0215
   6   2.0000     -12.052816      -327.9738
   7   2.0000     -12.052683      -327.9702
   8   2.0000     -12.052405      -327.9626
   9   2.0000     -12.052065      -327.9534
  10   2.0000     -12.051120      -327.9277
  11   2.0000     -12.051102      -327.9272
  12   2.0000      -1.397814       -38.0364
  13   2.0000      -1.376218       -37.4488
  14   2.0000      -1.306487       -35.5513
  15   2.0000      -1.277591       -34.7650
  16   2.0000      -1.272520       -34.6270
  17   2.0000      -1.252554       -34.0837
  18   2.0000      -1.136158       -30.9164
  19   2.0000      -1.118327       -30.4312
  20   2.0000      -1.096803       -29.8455
  21   2.0000      -1.081530       -29.4299
  22   2.0000      -0.989605       -26.9285
  23   2.0000      -0.963868       -26.2282
  24   2.0000      -0.952600       -25.9216
  25   2.0000      -0.940000       -25.5787
  26   2.0000      -0.936372       -25.4800
  27   2.0000      -0.901309       -24.5259
  28   2.0000      -0.886798       -24.1310
  29   2.0000      -0.878870       -23.9153
  30   2.0000      -0.873752       -23.7760
  31   2.0000      -0.833201       -22.6726
  32   2.0000      -0.815484       -22.1905
  33   2.0000      -0.814404       -22.1611
  34   2.0000      -0.803896       -21.8751
  35   2.0000      -0.785184       -21.3659
  36   2.0000      -0.763493       -20.7757
  37   2.0000      -0.669512       -18.2184
  38   2.0000      -0.640940       -17.4409
  39   2.0000      -0.640209       -17.4210
  40   2.0000      -0.614620       -16.7247
  41   0.0000      -0.274528        -7.4703
  42   0.0000      -0.238323        -6.4851
  43   0.0000      -0.237008        -6.4493
  44   0.0000      -0.211828        -5.7641
  45   0.0000      -0.081621        -2.2210

MULLIKEN ATOMIC CHARGES
-----------------------
   0 C :   -0.122115
   1 C :   -0.117318
   2 C :   -0.223385
   3 C :    0.190821
   4 C :   -0.223188
   5 C :   -0.117503
   6 C :    0.191078
   7 C :   -0.223263
   8 C :   -0.117362
   9 C :   -0.122282
  10 C :   -0.117432
  11 C :   -0.223181
  12 H :    0.117985
  13 H :    0.116967
  14 H :    0.130329
  15 H :    0.130338
  16 H :    0.116934
  17 H :    0.130328
  18 H :    0.116988
  19 H :    0.117956
  20 H :    0.116953
  21 H :    0.130353
Sum of atomic charges:    0.0000000

LOEWDIN ATOMIC CHARGES
----------------------
   0 C :   -0.141092
   1 C :   -0.138029
   2 C :   -0.101097
   3 C :   -0.099799
   4 C :   -0.101087
   5 C :   -0.138030
   6 C :   -0.099796
   7 C :   -0.101086
   8 C :   -0.138031
   9 C :   -0.141094
  10 C :   -0.138029
  11 C :   -0.101096
  12 H :    0.141066
  13 H :    0.142079
  14 H :    0.146954
  15 H :    0.146953
  16 H :    0.142081
  17 H :    0.146954
  18 H :    0.142081
  19 H :    0.141066
  20 H :    0.142080
  21 H :    0.146952

  Mayer bond orders larger than 0.100000
B(  0-C ,  1-C ) :   1.4216 B(  0-C ,  5-C ) :   1.4215 B(  0-C , 12-H ) :   0.9732
B(  1-C ,  2-C ) :   1.4599 B(  1-C , 13-H ) :   0.9739 B(  2-C ,  3-C ) :   1.3890
B(  2-C , 14-H ) :   0.9571 B(  3-C ,  4-C ) :   1.3892 B(  3-C ,  6-C ) :   0.8480
B(  4-C ,  5-C ) :   1.4600 B(  4-C , 15-H ) :   0.9570 B(  5-C , 16-H ) :   0.9739
B(  6-C ,  7-C ) :   1.3891 B(  6-C , 11-C ) :   1.3890 B(  7-C ,  8-C ) :   1.4600
B(  7-C , 17-H ) :   0.9570 B(  8-C ,  9-C ) :   1.4217 B(  8-C , 18-H ) :   0.9738
B(  9-C , 10-C ) :   1.4215 B(  9-C , 19-H ) :   0.9733 B( 10-C , 11-C ) :   1.4599
B( 10-C , 20-H ) :   0.9739 B( 11-C , 21-H ) :   0.9570

FINAL SINGLE POINT ENERGY      -463.321992431541

DIPOLE MOMENT
-------------

Method             : SCF
Type of density    : Electron Density
Multiplicity       :   1
Irrep              :   0
Energy             :  -463.3328269557410408 Eh
Relativity type    :
Basis              : AO
                                X                 Y                 Z
Electronic contribution:     -0.000004842      -0.000061242       0.001429147
Nuclear contribution   :      0.000003143       0.000068564      -0.001710525
                        -----------------------------------------
Total Dipole Moment    :     -0.000001699       0.000007322      -0.000281377
                        -----------------------------------------
Magnitude (a.u.)       :      0.000281478
Magnitude (Debye)      :      0.000715460

Rotational constants in cm-1:             0.095522             0.018352             0.015915
Rotational constants in MHz :          2863.667249           550.194059           477.113822

                             ****ORCA TERMINATED NORMALLY****
TOTAL RUN TIME: 0 days 0 hours 5 minutes 46 seconds 419 msec
