                         Program Version 6.0.0  -   RELEASE  -
|  1> ! wb97x-v def2-tzvp def2/J RIJCOSX DEFGRID2 scfconv7 GCP(DFT/TZ) printgap
|  2> %output
|  3>     printlevel normal
|  4> end
|  5> %cpcm
|  6>     smd true
|  7>     smdsolvent "water"
|  8> end
|  9> * xyz 0 1
| 10> C -3.5502122160504728 0.0005454052093555611 -0.0002322759638747427
| 11> C -2.8481699688450504 1.1417543730061586 0.3816939719904543
| 12> C -1.4572261281946457 1.1425346985728027 0.38222797347412196
| 13> C -0.7393056087166521 4.6511128435982175e-05 0.0007811643116921829
| 14> C -1.4573692091890327 -1.1422390326115912 -0.3810156617634634
| 15> C -2.8483115175783387 -1.1409635042110584 -0.38150005496050843
| 16> C 0.7393064537085313 -0.00011348652566680405 0.0007879582051125267
| 17> C 1.4573497599582554 1.1421991607646316 -0.3809733592588131
| 18> C 2.8482897727642005 1.1409546448892633 -0.38144919340816213
| 19> C 3.550213183087974 -0.0005230458656968268 -0.00013968312690075614
| 20> C 2.8481937174870917 -1.1417638819804317 0.3817318974387214
| 21> C 1.457247851403018 -1.1426002837999 0.382199056049473
| 22> H -4.635559558439147 0.0007706514863666681 -0.0007256257542069955
| 23> H -3.385471087253247 2.0335035961540324 0.6894490618922203
| 24> H -0.9219415023379376 2.03126551157072 0.7021090957742222
| 25> H -0.9221707964873292 -2.031146548404581 -0.7005308456726698
| 26> H -3.3857069884348974 -2.0325127134785514 -0.6896812847616606
| 27> H 0.9221308941961855 2.031091459424322 -0.7004955238158405
| 28> H 3.3856667470885955 2.032538978343291 -0.6895706488429826
| 29> H 4.63556073354264 -0.0007169776730221939 -0.0006102603690683515
| 30> H 3.3855147401584267 -2.0335106573019788 0.6894652213952608
| 31> H 0.9219854777133798 -2.0313454749795623 0.7020665500196512
| 32> *
| 33>
| 34>                          ****END OF INPUT****

CARTESIAN COORDINATES (ANGSTROEM)
---------------------------------
  C     -3.550212    0.000545   -0.000232
  C     -2.848170    1.141754    0.381694
  C     -1.457226    1.142535    0.382228
  C     -0.739306    0.000047    0.000781
  C     -1.457369   -1.142239   -0.381016
  C     -2.848312   -1.140964   -0.381500
  C      0.739306   -0.000113    0.000788
  C      1.457350    1.142199   -0.380973
  C      2.848290    1.140955   -0.381449
  C      3.550213   -0.000523   -0.000140
  C      2.848194   -1.141764    0.381732
  C      1.457248   -1.142600    0.382199
  H     -4.635560    0.000771   -0.000726
  H     -3.385471    2.033504    0.689449
  H     -0.921942    2.031266    0.702109
  H     -0.922171   -2.031147   -0.700531
  H     -3.385707   -2.032513   -0.689681
  H      0.922131    2.031091   -0.700496
  H      3.385667    2.032539   -0.689571
  H      4.635561   -0.000717   -0.000610
  H      3.385515   -2.033511    0.689465
  H      0.921985   -2.031345    0.702067

 Total Charge           Charge          ....    0
 Multiplicity           Mult            ....    1
 Number of Electrons    NEL             ....   82
 Basis Dimension        Dim             ....  432

ORBITAL ENERGIES
----------------

  NO   OCC          E(Eh)            E(eV)
   0   2.0000     -12.064390      -328.2887
   1   2.0000     -12.062933      -328.2491
   2   2.0000     -12.051556      -327.9395
   3   2.0000     -12.051466      -327.9371
   4   2.0000     -12.051408      -327.9355
   5   2.0000     -12.051349      -327.9339
   6   2.0000     -12.050009      -327.8974
   7   2.0000     -12.049883      -327.8940
   8   2.0000     -12.049395      -327.8807
   9   2.0000     -12.049103      -327.8728
  10   2.0000     -12.047927      -327.8408
  11   2.0000     -12.047923      -327.8407
  12   2.0000      -1.397212       -38.0201
  13   2.0000      -1.375285       -37.4234
  14   2.0000      -1.305282       -35.5185
  15   2.0000      -1.275684       -34.7131
  16   2.0000      -1.270617       -34.5752
  17   2.0000      -1.251203       -34.0470
  18   2.0000      -1.134023       -30.8583
  19   2.0000      -1.115698       -30.3597
  20   2.0000      -1.094056       -29.7708
  21   2.0000      -1.078990       -29.3608
  22   2.0000      -0.986716       -26.8499
  23   2.0000      -0.961820       -26.1725
  24   2.0000      -0.948349       -25.8059
  25   2.0000      -0.938108       -25.5272
  26   2.0000      -0.931722       -25.3534
  27   2.0000      -0.896164       -24.3859
  28   2.0000      -0.883051       -24.0290
  29   2.0000      -0.874485       -23.7959
  30   2.0000      -0.869428       -23.6583
  31   2.0000      -0.828747       -22.5514
  32   2.0000      -0.811593       -22.0846
  33   2.0000      -0.809731       -22.0339
  34   2.0000      -0.799929       -21.7672
  35   2.0000      -0.785385       -21.3714
  36   2.0000      -0.763853       -20.7855
  37   2.0000      -0.669783       -18.2257
  38   2.0000      -0.640494       -17.4287
  39   2.0000      -0.639796       -17.4097
  40   2.0000      -0.614800       -16.7296
  41   0.0000      -0.274391        -7.4666
  42   0.0000      -0.237418        -6.4605
  43   0.0000      -0.236071        -6.4238
  44   0.0000      -0.211695        -5.7605
  45   0.0000      -0.080307        -2.1853

MULLIKEN ATOMIC CHARGES
-----------------------
   0 C :   -0.165614
   1 C :   -0.160340
   2 C :   -0.253475
   3 C :    0.176314
   4 C :   -0.253280
   5 C :   -0.160531
   6 C :    0.176609
   7 C :   -0.253379
   8 C :   -0.160365
   9 C :   -0.165796
  10 C :   -0.160441
  11 C :   -0.253287
  12 H :    0.161645
  13 H :    0.160077
  14 H :    0.167503
  15 H :    0.167514
  16 H :    0.160045
  17 H :    0.167499
  18 H :    0.160096
  19 H :    0.161620
  20 H :    0.160064
  21 H :    0.167523
Sum of atomic charges:    0.0000000

LOEWDIN ATOMIC CHARGES
----------------------
   0 C :   -0.149471
   1 C :   -0.146584
   2 C :   -0.106815
   3 C :   -0.111101
   4 C :   -0.106809
   5 C :   -0.146586
   6 C :   -0.111098
   7 C :   -0.106809
   8 C :   -0.146587
   9 C :   -0.149473
  10 C :   -0.146584
  11 C :   -0.106814
  12 H :    0.150652
  13 H :    0.151795
  14 H :    0.156561
  15 H :    0.156560
  16 H :    0.151797
  17 H :    0.156560
  18 H :    0.151797
  19 H :    0.150652
  20 H :    0.151796
  21 H :    0.156560

  Mayer bond orders larger than 0.100000
B(  0-C ,  1-C ) :   1.3987 B(  0-C ,  5-C ) :   1.3987 B(  0-C , 12-H ) :   0.9747
B(  1-C ,  2-C ) :   1.4429 B(  1-C , 13-H ) :   0.9771 B(  2-C ,  3-C ) :   1.3625
B(  2-C , 14-H ) :   0.9662 B(  3-C ,  4-C ) :   1.3627 B(  3-C ,  6-C ) :   0.8709
B(  4-C ,  5-C ) :   1.4429 B(  4-C , 15-H ) :   0.9662 B(  5-C , 16-H ) :   0.9771
B(  6-C ,  7-C ) :   1.3626 B(  6-C , 11-C ) :   1.3625 B(  7-C ,  8-C ) :   1.4429
B(  7-C , 17-H ) :   0.9662 B(  8-C ,  9-C ) :   1.3988 B(  8-C , 18-H ) :   0.9770
B(  9-C , 10-C ) :   1.3986 B(  9-C , 19-H ) :   0.9748 B( 10-C , 11-C ) :   1.4429
B( 10-C , 20-H ) :   0.9771 B( 11-C , 21-H ) :   0.9662

FINAL SINGLE POINT ENERGY      -463.326118365164

DIPOLE MOMENT
-------------

Method             : SCF
Type of density    : Electron Density
Multiplicity       :   1
Irrep              :   0
Energy             :  -463.3369528893642837 Eh
Relativity type    :
Basis              : AO
                                X                 Y                 Z
Electronic contribution:     -0.000004981      -0.000055730       0.001334351
Nuclear contribution   :      0.000003143       0.000068564      -0.001710525
                        -----------------------------------------
Total Dipole Moment    :     -0.000001838       0.000012833      -0.000376174
                        -----------------------------------------
Magnitude (a.u.)       :      0.000376397
Magnitude (Debye)      :      0.000956726

Rotational constants in cm-1:             0.095522             0.018352             0.015915
Rotational constants in MHz :          2863.667249           550.194059           477.113822

                             ****ORCA TERMINATED NORMALLY****
TOTAL RUN TIME: 0 days 0 hours 5 minutes 39 seconds 784 msec
