                         Program Version 6.0.0  -   RELEASE  -
|  1> ! wb97x-v def2-tzvp def2/J RIJCOSX DEFGRID2 scfconv7 GCP(DFT/TZ) printgap
|  2> %output
|  3>     printlevel normal
|  4> end
|  5> * xyz 0 1
|  6> C -2.174485759132927 0.35921760123136365 0.4033942846558809
|  7> C -1.0336744917352692 0.11175677401059086 -0.5912615120203695
|  8> C -0.0008956056531207486 -0.8161041172434945 -0.027922579631303058
|  9> C 1.2881401674186799 -0.5566952784761597 0.21954951469645584
| 10> C 2.0256398808636806 0.7211852227793544 -0.023759029638092368
| 11> H -1.8004106518509984 0.8442855073894331 1.3109858107009205
| 12> H -2.6488575839153246 -0.5834249621237848 0.6970688500095019
| 13> H -2.9443709957949618 1.0022673575386454 -0.035040397703554806
| 14> H -1.454985481027028 -0.3367096529759861 -1.501388951944405
| 15> H -0.5886523345960719 1.0659324311873584 -0.8879144053933676
| 16> H -0.37020094796131986 -1.8119132288051716 0.22235943569530614
| 17> H 1.887664862828953 -1.3609927127608237 0.646524927847538
| 18> H 2.8452372598643256 0.564283390898316 -0.7363045722228024
| 19> H 2.490385168976553 1.0784218988946286 0.9033038980989385
| 20> H 1.3867388763153508 1.5168221946556917 -0.41256894911175784
| 21> *
| 22>
| 23>                          ****END OF INPUT****

CARTESIAN COORDINATES (ANGSTROEM)
---------------------------------
  C     -2.174486    0.359218    0.403394
  C     -1.033674    0.111757   -0.591262
  C     -0.000896   -0.816104   -0.027923
  C      1.288140   -0.556695    0.219550
  C      2.025640    0.721185   -0.023759
  H     -1.800411    0.844286    1.310986
  H     -2.648858   -0.583425    0.697069
  H     -2.944371    1.002267   -0.035040
  H     -1.454985   -0.336710   -1.501389
  H     -0.588652    1.065932   -0.887914
  H     -0.370201   -1.811913    0.222359
  H      1.887665   -1.360993    0.646525
  H      2.845237    0.564283   -0.736305
  H      2.490385    1.078422    0.903304
  H      1.386739    1.516822   -0.412569

 Total Charge           Charge          ....    0
 Multiplicity           Mult            ....    1
 Number of Electrons    NEL             ....   40
 Basis Dimension        Dim             ....  215

ORBITAL ENERGIES
----------------

  NO   OCC          E(Eh)            E(eV)
   0   2.0000     -12.043815      -327.7289
   1   2.0000     -12.042742      -327.6997
   2   2.0000     -12.038970      -327.5970
   3   2.0000     -12.038250      -327.5774
   4   2.0000     -12.034799      -327.4835
   5   2.0000      -1.318813       -35.8867
   6   2.0000      -1.256223       -34.1836
   7   2.0000      -1.182897       -32.1883
   8   2.0000      -1.104304       -30.0496
   9   2.0000      -0.989127       -26.9155
  10   2.0000      -0.918095       -24.9826
  11   2.0000      -0.885387       -24.0926
  12   2.0000      -0.855664       -23.2838
  13   2.0000      -0.830206       -22.5910
  14   2.0000      -0.822198       -22.3731
  15   2.0000      -0.811440       -22.0804
  16   2.0000      -0.799307       -21.7502
  17   2.0000      -0.769948       -20.9514
  18   2.0000      -0.759075       -20.6555
  19   2.0000      -0.637108       -17.3366
  20   0.0000      -0.192715        -5.2440
  21   0.0000      -0.031166        -0.8481
  22   0.0000      -0.004241        -0.1154
  23   0.0000       0.004264         0.1160
  24   0.0000       0.009938         0.2704

MULLIKEN ATOMIC CHARGES
-----------------------
   0 C :   -0.334897
   1 C :   -0.113963
   2 C :   -0.165583
   3 C :   -0.133541
   4 C :   -0.300919
   5 H :    0.109582
   6 H :    0.104912
   7 H :    0.110545
   8 H :    0.095372
   9 H :    0.082325
  10 H :    0.106413
  11 H :    0.106216
  12 H :    0.116809
  13 H :    0.115754
  14 H :    0.100974
Sum of atomic charges:   -0.0000000

LOEWDIN ATOMIC CHARGES
----------------------
   0 C :   -0.300722
   1 C :   -0.275820
   2 C :   -0.186092
   3 C :   -0.206073
   4 C :   -0.291214
   5 H :    0.117280
   6 H :    0.116125
   7 H :    0.114557
   8 H :    0.137363
   9 H :    0.131049
  10 H :    0.139740
  11 H :    0.137448
  12 H :    0.124618
  13 H :    0.124039
  14 H :    0.117702

  Mayer bond orders larger than 0.100000
B(  0-C ,  1-C ) :   0.9702 B(  0-C ,  5-H ) :   0.9786 B(  0-C ,  6-H ) :   0.9829
B(  0-C ,  7-H ) :   0.9796 B(  1-C ,  2-C ) :   0.9600 B(  1-C ,  8-H ) :   0.9720
B(  1-C ,  9-H ) :   0.9840 B(  2-C ,  3-C ) :   1.9744 B(  2-C , 10-H ) :   0.9578
B(  3-C ,  4-C ) :   0.9565 B(  3-C , 11-H ) :   0.9639 B(  4-C , 12-H ) :   0.9709
B(  4-C , 13-H ) :   0.9720 B(  4-C , 14-H ) :   0.9897

FINAL SINGLE POINT ENERGY      -196.536611356697

DIPOLE MOMENT
-------------

Method             : SCF
Type of density    : Electron Density
Multiplicity       :   1
Irrep              :   0
Energy             :  -196.5462306701965076 Eh
Relativity type    :
Basis              : AO
                                X                 Y                 Z
Electronic contribution:      1.133068338      -1.784809050      -0.233127302
Nuclear contribution   :     -1.130217887       1.880015687       0.198444260
                        -----------------------------------------
Total Dipole Moment    :      0.002850452       0.095206637      -0.034683042
                        -----------------------------------------
Magnitude (a.u.)       :      0.101367362
Magnitude (Debye)      :      0.257655359

Rotational constants in cm-1:             0.366200             0.086719             0.079286
Rotational constants in MHz :         10978.395712          2599.775619          2376.919868

                             ****ORCA TERMINATED NORMALLY****
TOTAL RUN TIME: 0 days 0 hours 1 minutes 6 seconds 447 msec
