                         Program Version 6.0.0  -   RELEASE  -
|  1> ! wb97x-v def2-tzvp def2/J RIJCOSX DEFGRID2 scfconv7 GCP(DFT/TZ) printgap
|  2> %output
|  3>     printlevel normal
|  4> end
|  5> %cpcm
|  6>     smd true
|  7>     smdsolvent "water"
|  8> end
|  9> * xyz 0 1
| 10> C -2.174485759132927 0.35921760123136365 0.4033942846558809
| 11> C -1.0336744917352692 0.11175677401059086 -0.5912615120203695
| 12> C -0.0008956056531207486 -0.8161041172434945 -0.027922579631303058
| 13> C 1.2881401674186799 -0.5566952784761597 0.21954951469645584
| 14> C 2.0256398808636806 0.7211852227793544 -0.023759029638092368
| 15> H -1.8004106518509984 0.8442855073894331 1.3109858107009205
| 16> H -2.6488575839153246 -0.5834249621237848 0.6970688500095019
| 17> H -2.9443709957949618 1.0022673575386454 -0.035040397703554806
| 18> H -1.454985481027028 -0.3367096529759861 -1.501388951944405
| 19> H -0.5886523345960719 1.0659324311873584 -0.8879144053933676
| 20> H -0.37020094796131986 -1.8119132288051716 0.22235943569530614
| 21> H 1.887664862828953 -1.3609927127608237 0.646524927847538
| 22> H 2.8452372598643256 0.564283390898316 -0.7363045722228024
| 23> H 2.490385168976553 1.0784218988946286 0.9033038980989385
| 24> H 1.3867388763153508 1.5168221946556917 -0.41256894911175784
| 25> *
| 26>
| 27>                          ****END OF INPUT****

CARTESIAN COORDINATES (ANGSTROEM)
---------------------------------
  C     -2.174486    0.359218    0.403394
  C     -1.033674    0.111757   -0.591262
  C     -0.000896   -0.816104   -0.027923
  C      1.288140   -0.556695    0.219550
  C      2.025640    0.721185   -0.023759
  H     -1.800411    0.844286    1.310986
  H     -2.648858   -0.583425    0.697069
  H     -2.944371    1.002267   -0.035040
  H     -1.454985   -0.336710   -1.501389
  H     -0.588652    1.065932   -0.887914
  H     -0.370201   -1.811913    0.222359
  H      1.887665   -1.360993    0.646525
  H      2.845237    0.564283   -0.736305
  H      2.490385    1.078422    0.903304
  H      1.386739    1.516822   -0.412569

 Total Charge           Charge          ....    0
 Multiplicity           Mult            ....    1
 Number of Electrons    NEL             ....   40
 Basis Dimension        Dim             ....  215

ORBITAL ENERGIES
----------------

  NO   OCC          E(Eh)            E(eV)
   0   2.0000     -12.040080      -327.6272
   1   2.0000     -12.036866      -327.5398
   2   2.0000     -12.035426      -327.5006
   3   2.0000     -12.030640      -327.3704
   4   2.0000     -12.027720      -327.2909
   5   2.0000      -1.315510       -35.7968
   6   2.0000      -1.250455       -34.0266
   7   2.0000      -1.177585       -32.0437
   8   2.0000      -1.098652       -29.8958
   9   2.0000      -0.983888       -26.7730
  10   2.0000      -0.913535       -24.8586
  11   2.0000      -0.880200       -23.9514
  12   2.0000      -0.849199       -23.1079
  13   2.0000      -0.823798       -22.4167
  14   2.0000      -0.815367       -22.1873
  15   2.0000      -0.805317       -21.9138
  16   2.0000      -0.792349       -21.5609
  17   2.0000      -0.763677       -20.7807
  18   2.0000      -0.752606       -20.4795
  19   2.0000      -0.636098       -17.3091
  20   0.0000      -0.191270        -5.2047
  21   0.0000      -0.024672        -0.6714
  22   0.0000       0.006569         0.1787
  23   0.0000       0.010529         0.2865
  24   0.0000       0.016878         0.4593

MULLIKEN ATOMIC CHARGES
-----------------------
   0 C :   -0.385029
   1 C :   -0.125318
   2 C :   -0.230710
   3 C :   -0.182165
   4 C :   -0.345700
   5 H :    0.119819
   6 H :    0.122685
   7 H :    0.128231
   8 H :    0.109562
   9 H :    0.108192
  10 H :    0.142560
  11 H :    0.141227
  12 H :    0.134455
  13 H :    0.134189
  14 H :    0.128003
Sum of atomic charges:   -0.0000000

LOEWDIN ATOMIC CHARGES
----------------------
   0 C :   -0.307081
   1 C :   -0.277840
   2 C :   -0.199904
   3 C :   -0.219151
   4 C :   -0.296521
   5 H :    0.117963
   6 H :    0.119074
   7 H :    0.118083
   8 H :    0.140805
   9 H :    0.136385
  10 H :    0.145202
  11 H :    0.142928
  12 H :    0.128693
  13 H :    0.128296
  14 H :    0.123068

  Mayer bond orders larger than 0.100000
B(  0-C ,  1-C ) :   0.9631 B(  0-C ,  5-H ) :   0.9765 B(  0-C ,  6-H ) :   0.9804
B(  0-C ,  7-H ) :   0.9769 B(  1-C ,  2-C ) :   0.9566 B(  1-C ,  8-H ) :   0.9661
B(  1-C ,  9-H ) :   0.9834 B(  2-C ,  3-C ) :   1.9470 B(  2-C , 10-H ) :   0.9593
B(  3-C ,  4-C ) :   0.9560 B(  3-C , 11-H ) :   0.9650 B(  4-C , 12-H ) :   0.9657
B(  4-C , 13-H ) :   0.9668 B(  4-C , 14-H ) :   0.9868

FINAL SINGLE POINT ENERGY      -196.535240988572

DIPOLE MOMENT
-------------

Method             : SCF
Type of density    : Electron Density
Multiplicity       :   1
Irrep              :   0
Energy             :  -196.5448603020719247 Eh
Relativity type    :
Basis              : AO
                                X                 Y                 Z
Electronic contribution:      1.126033219      -1.735090054      -0.259914548
Nuclear contribution   :     -1.130217887       1.880015687       0.198444260
                        -----------------------------------------
Total Dipole Moment    :     -0.004184668       0.144925633      -0.061470288
                        -----------------------------------------
Magnitude (a.u.)       :      0.157478719
Magnitude (Debye)      :      0.400279092

Rotational constants in cm-1:             0.366200             0.086719             0.079286
Rotational constants in MHz :         10978.395712          2599.775619          2376.919868

                             ****ORCA TERMINATED NORMALLY****
TOTAL RUN TIME: 0 days 0 hours 1 minutes 3 seconds 435 msec
