                         Program Version 6.0.0  -   RELEASE  -
|  1> ! wb97x-v def2-tzvp def2/J RIJCOSX DEFGRID2 scfconv7 GCP(DFT/TZ) printgap
|  2> %output
|  3>     printlevel normal
|  4> end
|  5> * xyz 0 1
|  6> C 2.304949172783844 0.14408264097962603 0.00014758312130147024
|  7> C 0.818454374080656 0.2581768492849245 -0.0001487027872104587
|  8> C 0.04567847864520956 1.3892306938687273 -0.00018075419964215482
|  9> C -1.3546827066576528 1.1304697077705528 1.2040643637970266e-05
| 10> C -1.6519397220215735 -0.20243274049845744 0.0002512161367801306
| 11> S -0.2029220510841255 -1.1619426300296982 0.00010790798836556101
| 12> H 2.743782102630845 1.1451760122345644 -0.0033969309006641316
| 13> H 2.672746506881785 -0.38611563518207453 0.8850370998982062
| 14> H 2.6727507283752345 -0.39241645750827553 -0.8809092650165087
| 15> H 0.47713707363471164 2.384298586162421 -0.0003810526368764381
| 16> H -2.1124677597615595 1.9057197870195066 -1.3865819812197302e-05
| 17> H -2.6230510725135283 -0.6798319633795632 0.00032874743173669685
| 18> *
| 19>
| 20>                          ****END OF INPUT****

CARTESIAN COORDINATES (ANGSTROEM)
---------------------------------
  C      2.304949    0.144083    0.000148
  C      0.818454    0.258177   -0.000149
  C      0.045678    1.389231   -0.000181
  C     -1.354683    1.130470    0.000012
  C     -1.651940   -0.202433    0.000251
  S     -0.202922   -1.161943    0.000108
  H      2.743782    1.145176   -0.003397
  H      2.672747   -0.386116    0.885037
  H      2.672751   -0.392416   -0.880909
  H      0.477137    2.384299   -0.000381
  H     -2.112468    1.905720   -0.000014
  H     -2.623051   -0.679832    0.000329

 Total Charge           Charge          ....    0
 Multiplicity           Mult            ....    1
 Number of Electrons    NEL             ....   52
 Basis Dimension        Dim             ....  228

ORBITAL ENERGIES
----------------

  NO   OCC          E(Eh)            E(eV)
   0   2.0000     -94.148633     -2561.9145
   1   2.0000     -12.083697      -328.8141
   2   2.0000     -12.073025      -328.5237
   3   2.0000     -12.055313      -328.0417
   4   2.0000     -12.050904      -327.9218
   5   2.0000     -12.046882      -327.8123
   6   2.0000      -9.658697      -262.8265
   7   2.0000      -7.636553      -207.8012
   8   2.0000      -7.635382      -207.7693
   9   2.0000      -7.635144      -207.7628
  10   2.0000      -1.399479       -38.0818
  11   2.0000      -1.278656       -34.7940
  12   2.0000      -1.245933       -33.9036
  13   2.0000      -1.187224       -32.3060
  14   2.0000      -1.040571       -28.3154
  15   2.0000      -1.009590       -27.4723
  16   2.0000      -0.949789       -25.8451
  17   2.0000      -0.873079       -23.7577
  18   2.0000      -0.867497       -23.6058
  19   2.0000      -0.851342       -23.1662
  20   2.0000      -0.849201       -23.1079
  21   2.0000      -0.811114       -22.0715
  22   2.0000      -0.778231       -21.1767
  23   2.0000      -0.773701       -21.0535
  24   2.0000      -0.644258       -17.5312
  25   2.0000      -0.620780       -16.8923
  26   0.0000      -0.255571        -6.9545
  27   0.0000      -0.203739        -5.5440
  28   0.0000      -0.157478        -4.2852
  29   0.0000      -0.146895        -3.9972
  30   0.0000      -0.040405        -1.0995

MULLIKEN ATOMIC CHARGES
-----------------------
   0 C :   -0.342589
   1 C :    0.055931
   2 C :   -0.214575
   3 C :   -0.143315
   4 C :   -0.181122
   5 S :    0.054819
   6 H :    0.123774
   7 H :    0.129015
   8 H :    0.129006
   9 H :    0.120609
  10 H :    0.122578
  11 H :    0.145867
Sum of atomic charges:   -0.0000000

LOEWDIN ATOMIC CHARGES
----------------------
   0 C :   -0.286832
   1 C :   -0.394114
   2 C :   -0.190994
   3 C :   -0.210671
   4 C :   -0.393903
   5 S :    0.688532
   6 H :    0.131054
   7 H :    0.127284
   8 H :    0.127262
   9 H :    0.139660
  10 H :    0.138830
  11 H :    0.123892

  Mayer bond orders larger than 0.100000
B(  0-C ,  1-C ) :   0.9077 B(  0-C ,  6-H ) :   0.9897 B(  0-C ,  7-H ) :   0.9699
B(  0-C ,  8-H ) :   0.9702 B(  1-C ,  2-C ) :   1.6622 B(  1-C ,  5-S ) :   1.2549
B(  2-C ,  3-C ) :   1.2565 B(  2-C ,  9-H ) :   0.9517 B(  3-C ,  4-C ) :   1.7181
B(  3-C , 10-H ) :   0.9588 B(  4-C ,  5-S ) :   1.2456 B(  4-C , 11-H ) :   0.9445

FINAL SINGLE POINT ENERGY      -592.285732356321

DIPOLE MOMENT
-------------

Method             : SCF
Type of density    : Electron Density
Multiplicity       :   1
Irrep              :   0
Energy             :  -592.2922047726209485 Eh
Relativity type    :
Basis              : AO
                                X                 Y                 Z
Electronic contribution:     -3.476722329      -3.563655225      -0.000230650
Nuclear contribution   :      3.639457750       3.797636952       0.000329159
                        -----------------------------------------
Total Dipole Moment    :      0.162735421       0.233981727       0.000098509
                        -----------------------------------------
Magnitude (a.u.)       :      0.285009256
Magnitude (Debye)      :      0.724435956

Rotational constants in cm-1:             0.174859             0.103266             0.065720
Rotational constants in MHz :          5242.133082          3095.840017          1970.226123

                             ****ORCA TERMINATED NORMALLY****
TOTAL RUN TIME: 0 days 0 hours 1 minutes 27 seconds 180 msec
