                         Program Version 6.0.0  -   RELEASE  -
|  1> ! wb97x-v def2-tzvp def2/J RIJCOSX DEFGRID2 scfconv7 GCP(DFT/TZ) printgap
|  2> %output
|  3>     printlevel normal
|  4> end
|  5> %cpcm
|  6>     smd true
|  7>     smdsolvent "water"
|  8> end
|  9> * xyz 0 1
| 10> C 2.304949172783844 0.14408264097962603 0.00014758312130147024
| 11> C 0.818454374080656 0.2581768492849245 -0.0001487027872104587
| 12> C 0.04567847864520956 1.3892306938687273 -0.00018075419964215482
| 13> C -1.3546827066576528 1.1304697077705528 1.2040643637970266e-05
| 14> C -1.6519397220215735 -0.20243274049845744 0.0002512161367801306
| 15> S -0.2029220510841255 -1.1619426300296982 0.00010790798836556101
| 16> H 2.743782102630845 1.1451760122345644 -0.0033969309006641316
| 17> H 2.672746506881785 -0.38611563518207453 0.8850370998982062
| 18> H 2.6727507283752345 -0.39241645750827553 -0.8809092650165087
| 19> H 0.47713707363471164 2.384298586162421 -0.0003810526368764381
| 20> H -2.1124677597615595 1.9057197870195066 -1.3865819812197302e-05
| 21> H -2.6230510725135283 -0.6798319633795632 0.00032874743173669685
| 22> *
| 23>
| 24>                          ****END OF INPUT****

CARTESIAN COORDINATES (ANGSTROEM)
---------------------------------
  C      2.304949    0.144083    0.000148
  C      0.818454    0.258177   -0.000149
  C      0.045678    1.389231   -0.000181
  C     -1.354683    1.130470    0.000012
  C     -1.651940   -0.202433    0.000251
  S     -0.202922   -1.161943    0.000108
  H      2.743782    1.145176   -0.003397
  H      2.672747   -0.386116    0.885037
  H      2.672751   -0.392416   -0.880909
  H      0.477137    2.384299   -0.000381
  H     -2.112468    1.905720   -0.000014
  H     -2.623051   -0.679832    0.000329

 Total Charge           Charge          ....    0
 Multiplicity           Mult            ....    1
 Number of Electrons    NEL             ....   52
 Basis Dimension        Dim             ....  228

ORBITAL ENERGIES
----------------

  NO   OCC          E(Eh)            E(eV)
   0   2.0000     -94.149361     -2561.9344
   1   2.0000     -12.082697      -328.7869
   2   2.0000     -12.070867      -328.4650
   3   2.0000     -12.048745      -327.8630
   4   2.0000     -12.043795      -327.7283
   5   2.0000     -12.043153      -327.7109
   6   2.0000      -9.659562      -262.8500
   7   2.0000      -7.637419      -207.8247
   8   2.0000      -7.636296      -207.7942
   9   2.0000      -7.635994      -207.7860
  10   2.0000      -1.399393       -38.0794
  11   2.0000      -1.274402       -34.6782
  12   2.0000      -1.245785       -33.8995
  13   2.0000      -1.181251       -32.1435
  14   2.0000      -1.037954       -28.2442
  15   2.0000      -1.006230       -27.3809
  16   2.0000      -0.945404       -25.7258
  17   2.0000      -0.867952       -23.6182
  18   2.0000      -0.862308       -23.4646
  19   2.0000      -0.845681       -23.0122
  20   2.0000      -0.839753       -22.8508
  21   2.0000      -0.803832       -21.8734
  22   2.0000      -0.777049       -21.1446
  23   2.0000      -0.773389       -21.0450
  24   2.0000      -0.645964       -17.5776
  25   2.0000      -0.620296       -16.8791
  26   0.0000      -0.255326        -6.9478
  27   0.0000      -0.203617        -5.5407
  28   0.0000      -0.157074        -4.2742
  29   0.0000      -0.145172        -3.9503
  30   0.0000      -0.032332        -0.8798

MULLIKEN ATOMIC CHARGES
-----------------------
   0 C :   -0.370131
   1 C :    0.038334
   2 C :   -0.270722
   3 C :   -0.193159
   4 C :   -0.224741
   5 S :    0.039240
   6 H :    0.151274
   7 H :    0.147431
   8 H :    0.147447
   9 H :    0.167776
  10 H :    0.169376
  11 H :    0.197873
Sum of atomic charges:   -0.0000000

LOEWDIN ATOMIC CHARGES
----------------------
   0 C :   -0.287177
   1 C :   -0.399379
   2 C :   -0.199747
   3 C :   -0.221324
   4 C :   -0.403548
   5 S :    0.673221
   6 H :    0.137995
   7 H :    0.132664
   8 H :    0.132641
   9 H :    0.150337
  10 H :    0.148841
  11 H :    0.135475

  Mayer bond orders larger than 0.100000
B(  0-C ,  1-C ) :   0.9100 B(  0-C ,  6-H ) :   0.9839 B(  0-C ,  7-H ) :   0.9631
B(  0-C ,  8-H ) :   0.9633 B(  1-C ,  2-C ) :   1.6476 B(  1-C ,  5-S ) :   1.2551
B(  2-C ,  3-C ) :   1.2313 B(  2-C ,  9-H ) :   0.9530 B(  3-C ,  4-C ) :   1.7072
B(  3-C , 10-H ) :   0.9544 B(  4-C ,  5-S ) :   1.2507 B(  4-C , 11-H ) :   0.9320

FINAL SINGLE POINT ENERGY      -592.287456585938

DIPOLE MOMENT
-------------

Method             : SCF
Type of density    : Electron Density
Multiplicity       :   1
Irrep              :   0
Energy             :  -592.2939290022377463 Eh
Relativity type    :
Basis              : AO
                                X                 Y                 Z
Electronic contribution:     -3.410992675      -3.457400323      -0.000207441
Nuclear contribution   :      3.639457750       3.797636952       0.000329159
                        -----------------------------------------
Total Dipole Moment    :      0.228465075       0.340236630       0.000121718
                        -----------------------------------------
Magnitude (a.u.)       :      0.409825902
Magnitude (Debye)      :      1.041694657

Rotational constants in cm-1:             0.174859             0.103266             0.065720
Rotational constants in MHz :          5242.133082          3095.840017          1970.226123

                             ****ORCA TERMINATED NORMALLY****
TOTAL RUN TIME: 0 days 0 hours 1 minutes 28 seconds 304 msec
