                         Program Version 6.0.0  -   RELEASE  -
|  1> ! wb97x-v def2-tzvp def2/J RIJCOSX DEFGRID2 scfconv7 GCP(DFT/TZ) printgap
|  2> %output
|  3>     printlevel normal
|  4> end
|  5> * xyz 0 1
|  6> C 1.4632795005135146 -0.3447823442475025 -0.4956923405757319
|  7> C 0.676440375687655 0.4636843336858098 0.5272964794139462
|  8> C -0.8144165035668579 0.3339474447092165 0.4475617331127301
|  9> C -1.4982254297607969 -0.41154763804165634 -0.42062070095850423
| 10> H 1.2654179833461137 -1.417151110021929 -0.3943492565479592
| 11> H 2.5374715863768693 -0.18769623642060163 -0.36095261209940976
| 12> H 1.2068853760491796 -0.05108884542225403 -1.5191077985568462
| 13> H 0.9310860412906778 1.5295974165530293 0.43866400512221704
| 14> H 0.9888945781768066 0.18672834761136645 1.5443662072976398
| 15> H -1.367881933694638 0.9174697415435195 1.1844432352990983
| 16> H -2.5841336977655005 -0.43965863648818 -0.39750789780929746
| 17> H -1.006767999812382 -1.0162563991093256 -1.1783502378231174
| 18> *
| 19>
| 20>                          ****END OF INPUT****

CARTESIAN COORDINATES (ANGSTROEM)
---------------------------------
  C      1.463280   -0.344782   -0.495692
  C      0.676440    0.463684    0.527296
  C     -0.814417    0.333947    0.447562
  C     -1.498225   -0.411548   -0.420621
  H      1.265418   -1.417151   -0.394349
  H      2.537472   -0.187696   -0.360953
  H      1.206885   -0.051089   -1.519108
  H      0.931086    1.529597    0.438664
  H      0.988895    0.186728    1.544366
  H     -1.367882    0.917470    1.184443
  H     -2.584134   -0.439659   -0.397508
  H     -1.006768   -1.016256   -1.178350

 Total Charge           Charge          ....    0
 Multiplicity           Mult            ....    1
 Number of Electrons    NEL             ....   32
 Basis Dimension        Dim             ....  172

ORBITAL ENERGIES
----------------

  NO   OCC          E(Eh)            E(eV)
   0   2.0000     -12.049765      -327.8908
   1   2.0000     -12.048177      -327.8476
   2   2.0000     -12.035883      -327.5130
   3   2.0000     -12.034383      -327.4722
   4   2.0000      -1.315022       -35.7836
   5   2.0000      -1.235882       -33.6301
   6   2.0000      -1.125713       -30.6322
   7   2.0000      -1.002866       -27.2894
   8   2.0000      -0.910429       -24.7740
   9   2.0000      -0.885714       -24.1015
  10   2.0000      -0.869123       -23.6500
  11   2.0000      -0.825596       -22.4656
  12   2.0000      -0.792926       -21.5766
  13   2.0000      -0.776010       -21.1163
  14   2.0000      -0.772204       -21.0127
  15   2.0000      -0.644329       -17.5331
  16   0.0000      -0.187584        -5.1044
  17   0.0000      -0.017887        -0.4867
  18   0.0000      -0.009499        -0.2585
  19   0.0000       0.006198         0.1687
  20   0.0000       0.015305         0.4165

MULLIKEN ATOMIC CHARGES
-----------------------
   0 C :   -0.372307
   1 C :   -0.094886
   2 C :   -0.140078
   3 C :   -0.282918
   4 H :    0.116679
   5 H :    0.116423
   6 H :    0.116796
   7 H :    0.097511
   8 H :    0.097603
   9 H :    0.106836
  10 H :    0.118153
  11 H :    0.120188
Sum of atomic charges:    0.0000000

LOEWDIN ATOMIC CHARGES
----------------------
   0 C :   -0.303587
   1 C :   -0.282287
   2 C :   -0.202397
   3 C :   -0.222293
   4 H :    0.118802
   5 H :    0.117484
   6 H :    0.118825
   7 H :    0.140434
   8 H :    0.140445
   9 H :    0.137373
  10 H :    0.118341
  11 H :    0.118859

  Mayer bond orders larger than 0.100000
B(  0-C ,  1-C ) :   0.9881 B(  0-C ,  4-H ) :   0.9792 B(  0-C ,  5-H ) :   0.9802
B(  0-C ,  6-H ) :   0.9792 B(  1-C ,  2-C ) :   0.9864 B(  1-C ,  7-H ) :   0.9594
B(  1-C ,  8-H ) :   0.9593 B(  2-C ,  3-C ) :   1.9579 B(  2-C ,  9-H ) :   0.9662
B(  3-C , 10-H ) :   0.9712 B(  3-C , 11-H ) :   0.9673

FINAL SINGLE POINT ENERGY      -157.219652538324

DIPOLE MOMENT
-------------

Method             : SCF
Type of density    : Electron Density
Multiplicity       :   1
Irrep              :   0
Energy             :  -157.2271122392237146 Eh
Relativity type    :
Basis              : AO
                                X                 Y                 Z
Electronic contribution:     -1.708033504       0.526638825       0.727680886
Nuclear contribution   :      1.861188817      -0.450399524      -0.642578617
                        -----------------------------------------
Total Dipole Moment    :      0.153155313       0.076239301       0.085102268
                        -----------------------------------------
Magnitude (a.u.)       :      0.191079504
Magnitude (Debye)      :      0.485685502

Rotational constants in cm-1:             0.513381             0.186450             0.144037
Rotational constants in MHz :         15390.784083          5589.633311          4318.115678

                             ****ORCA TERMINATED NORMALLY****
TOTAL RUN TIME: 0 days 0 hours 0 minutes 45 seconds 785 msec
