                         Program Version 6.0.0  -   RELEASE  -
|  1> ! wb97x-v def2-tzvp def2/J RIJCOSX DEFGRID2 scfconv7 GCP(DFT/TZ) printgap
|  2> %output
|  3>     printlevel normal
|  4> end
|  5> %cpcm
|  6>     smd true
|  7>     smdsolvent "water"
|  8> end
|  9> * xyz 0 1
| 10> C 1.4632795005135146 -0.3447823442475025 -0.4956923405757319
| 11> C 0.676440375687655 0.4636843336858098 0.5272964794139462
| 12> C -0.8144165035668579 0.3339474447092165 0.4475617331127301
| 13> C -1.4982254297607969 -0.41154763804165634 -0.42062070095850423
| 14> H 1.2654179833461137 -1.417151110021929 -0.3943492565479592
| 15> H 2.5374715863768693 -0.18769623642060163 -0.36095261209940976
| 16> H 1.2068853760491796 -0.05108884542225403 -1.5191077985568462
| 17> H 0.9310860412906778 1.5295974165530293 0.43866400512221704
| 18> H 0.9888945781768066 0.18672834761136645 1.5443662072976398
| 19> H -1.367881933694638 0.9174697415435195 1.1844432352990983
| 20> H -2.5841336977655005 -0.43965863648818 -0.39750789780929746
| 21> H -1.006767999812382 -1.0162563991093256 -1.1783502378231174
| 22> *
| 23>
| 24>                          ****END OF INPUT****

CARTESIAN COORDINATES (ANGSTROEM)
---------------------------------
  C      1.463280   -0.344782   -0.495692
  C      0.676440    0.463684    0.527296
  C     -0.814417    0.333947    0.447562
  C     -1.498225   -0.411548   -0.420621
  H      1.265418   -1.417151   -0.394349
  H      2.537472   -0.187696   -0.360953
  H      1.206885   -0.051089   -1.519108
  H      0.931086    1.529597    0.438664
  H      0.988895    0.186728    1.544366
  H     -1.367882    0.917470    1.184443
  H     -2.584134   -0.439659   -0.397508
  H     -1.006768   -1.016256   -1.178350

 Total Charge           Charge          ....    0
 Multiplicity           Mult            ....    1
 Number of Electrons    NEL             ....   32
 Basis Dimension        Dim             ....  172

ORBITAL ENERGIES
----------------

  NO   OCC          E(Eh)            E(eV)
   0   2.0000     -12.046924      -327.8135
   1   2.0000     -12.039746      -327.6181
   2   2.0000     -12.030711      -327.3723
   3   2.0000     -12.026629      -327.2612
   4   2.0000      -1.310726       -35.6667
   5   2.0000      -1.230304       -33.4783
   6   2.0000      -1.118803       -30.4442
   7   2.0000      -0.997791       -27.1513
   8   2.0000      -0.905667       -24.6445
   9   2.0000      -0.880741       -23.9662
  10   2.0000      -0.860803       -23.4236
  11   2.0000      -0.818517       -22.2730
  12   2.0000      -0.784962       -21.3599
  13   2.0000      -0.767524       -20.8854
  14   2.0000      -0.766297       -20.8520
  15   2.0000      -0.643364       -17.5068
  16   0.0000      -0.186484        -5.0745
  17   0.0000      -0.009356        -0.2546
  18   0.0000      -0.002510        -0.0683
  19   0.0000       0.015638         0.4255
  20   0.0000       0.024282         0.6608

MULLIKEN ATOMIC CHARGES
-----------------------
   0 C :   -0.402408
   1 C :   -0.113845
   2 C :   -0.182781
   3 C :   -0.375678
   4 H :    0.125944
   5 H :    0.133792
   6 H :    0.125981
   7 H :    0.116704
   8 H :    0.116729
   9 H :    0.143773
  10 H :    0.155836
  11 H :    0.155953
Sum of atomic charges:    0.0000000

LOEWDIN ATOMIC CHARGES
----------------------
   0 C :   -0.308337
   1 C :   -0.282870
   2 C :   -0.209042
   3 C :   -0.244898
   4 H :    0.120336
   5 H :    0.120549
   6 H :    0.120326
   7 H :    0.145619
   8 H :    0.145614
   9 H :    0.144593
  10 H :    0.123530
  11 H :    0.124580

  Mayer bond orders larger than 0.100000
B(  0-C ,  1-C ) :   0.9862 B(  0-C ,  4-H ) :   0.9759 B(  0-C ,  5-H ) :   0.9771
B(  0-C ,  6-H ) :   0.9759 B(  1-C ,  2-C ) :   0.9821 B(  1-C ,  7-H ) :   0.9567
B(  1-C ,  8-H ) :   0.9566 B(  2-C ,  3-C ) :   1.9310 B(  2-C ,  9-H ) :   0.9647
B(  3-C , 10-H ) :   0.9693 B(  3-C , 11-H ) :   0.9655

FINAL SINGLE POINT ENERGY      -157.218200412413

DIPOLE MOMENT
-------------

Method             : SCF
Type of density    : Electron Density
Multiplicity       :   1
Irrep              :   0
Energy             :  -157.2256601133130403 Eh
Relativity type    :
Basis              : AO
                                X                 Y                 Z
Electronic contribution:     -1.644809940       0.570271387       0.777858856
Nuclear contribution   :      1.861188817      -0.450399524      -0.642578617
                        -----------------------------------------
Total Dipole Moment    :      0.216378877       0.119871863       0.135280238
                        -----------------------------------------
Magnitude (a.u.)       :      0.281939399
Magnitude (Debye)      :      0.716633001

Rotational constants in cm-1:             0.513381             0.186450             0.144037
Rotational constants in MHz :         15390.784083          5589.633311          4318.115678

                             ****ORCA TERMINATED NORMALLY****
TOTAL RUN TIME: 0 days 0 hours 0 minutes 47 seconds 503 msec
