                         Program Version 6.0.0  -   RELEASE  -
|  1> ! r2scan-3c def2/J RI DEFGRID2 scfconv6 printgap
|  2> %output
|  3>     printlevel normal
|  4> end
|  5> * xyz 0 1
|  6> C -3.3521237228 0.2580173647 0.2988224845
|  7> O -2.1715542736 0.3701540894 -0.4999275767
|  8> C -1.0516764147 -0.1715595532 -0.0210708889
|  9> O -1.0156226674 -0.7558659272 1.0400360916
| 10> C 0.1002892254 0.0833808085 -0.9655607747
| 11> C 1.0826356185 -1.0901151682 -1.0462812884
| 12> C 1.8968834223 -1.2589989374 0.2337393528
| 13> C 2.6225324538 0.0351754648 0.5859297946
| 14> C 1.6119850518 1.1649107896 0.7572484262
| 15> C 0.8274318485 1.3699176759 -0.534236015
| 16> H -3.1995701147 0.7478387265 1.2612575753
| 17> H -3.5873450216 -0.7931895231 0.4694999894
| 18> H -4.1372220583 0.7472097673 -0.2685976007
| 19> H -0.3487332251 0.2549805959 -1.9487770821
| 20> H 0.5337833444 -2.0101570179 -1.2574083532
| 21> H 1.7607055548 -0.9005025651 -1.8807967294
| 22> H 1.2283977791 -1.5325553445 1.0512383681
| 23> H 2.6158777464 -2.0690082545 0.0987684487
| 24> H 3.1907121357 -0.0985475277 1.5076849295
| 25> H 3.324232041 0.2915582076 -0.2110596855
| 26> H 0.9263050111 0.9115358941 1.5691267504
| 27> H 2.123133167 2.0918725282 1.0230895718
| 28> H 0.1008637067 2.1764467619 -0.415740198
| 29> H 1.5173879855 1.6490507695 -1.3325451054
| 30> *
| 31>
| 32>                          ****END OF INPUT****

CARTESIAN COORDINATES (ANGSTROEM)
---------------------------------
  C     -3.352124    0.258017    0.298822
  O     -2.171554    0.370154   -0.499928
  C     -1.051676   -0.171560   -0.021071
  O     -1.015623   -0.755866    1.040036
  C      0.100289    0.083381   -0.965561
  C      1.082636   -1.090115   -1.046281
  C      1.896883   -1.258999    0.233739
  C      2.622532    0.035175    0.585930
  C      1.611985    1.164911    0.757248
  C      0.827432    1.369918   -0.534236
  H     -3.199570    0.747839    1.261258
  H     -3.587345   -0.793190    0.469500
  H     -4.137222    0.747210   -0.268598
  H     -0.348733    0.254981   -1.948777
  H      0.533783   -2.010157   -1.257408
  H      1.760706   -0.900503   -1.880797
  H      1.228398   -1.532555    1.051238
  H      2.615878   -2.069008    0.098768
  H      3.190712   -0.098548    1.507685
  H      3.324232    0.291558   -0.211060
  H      0.926305    0.911536    1.569127
  H      2.123133    2.091873    1.023090
  H      0.100864    2.176447   -0.415740
  H      1.517388    1.649051   -1.332545

 Total Charge           Charge          ....    0
 Multiplicity           Mult            ....    1
 Number of Electrons    NEL             ....   78
 Basis Dimension        Dim             ....  270

ORBITAL ENERGIES
----------------

  NO   OCC          E(Eh)            E(eV)
   0   2.0000     -18.997910      -516.9594
   1   2.0000     -18.931297      -515.1468
   2   2.0000     -10.150897      -276.2199
   3   2.0000     -10.085979      -274.4535
   4   2.0000     -10.045933      -273.3637
   5   2.0000     -10.033322      -273.0206
   6   2.0000     -10.027928      -272.8738
   7   2.0000     -10.019840      -272.6537
   8   2.0000     -10.017908      -272.6011
   9   2.0000     -10.013219      -272.4735
  10   2.0000      -1.072784       -29.1919
  11   2.0000      -0.977632       -26.6027
  12   2.0000      -0.805821       -21.9275
  13   2.0000      -0.733441       -19.9580
  14   2.0000      -0.709008       -19.2931
  15   2.0000      -0.689378       -18.7589
  16   2.0000      -0.593562       -16.1516
  17   2.0000      -0.574675       -15.6377
  18   2.0000      -0.540813       -14.7163
  19   2.0000      -0.517190       -14.0735
  20   2.0000      -0.460525       -12.5315
  21   2.0000      -0.452533       -12.3140
  22   2.0000      -0.450665       -12.2632
  23   2.0000      -0.433223       -11.7886
  24   2.0000      -0.411514       -11.1979
  25   2.0000      -0.408509       -11.1161
  26   2.0000      -0.394180       -10.7262
  27   2.0000      -0.365679        -9.9506
  28   2.0000      -0.347948        -9.4681
  29   2.0000      -0.346377        -9.4254
  30   2.0000      -0.344500        -9.3743
  31   2.0000      -0.336754        -9.1635
  32   2.0000      -0.316077        -8.6009
  33   2.0000      -0.310037        -8.4365
  34   2.0000      -0.294248        -8.0069
  35   2.0000      -0.276136        -7.5140
  36   2.0000      -0.268086        -7.2950
  37   2.0000      -0.266726        -7.2580
  38   2.0000      -0.230617        -6.2754
  39   0.0000      -0.016780        -0.4566
  40   0.0000       0.062138         1.6909
  41   0.0000       0.084479         2.2988
  42   0.0000       0.100357         2.7309
  43   0.0000       0.112847         3.0707

MULLIKEN ATOMIC CHARGES
-----------------------
   0 C :   -0.301556
   1 O :   -0.180464
   2 C :    0.248765
   3 O :   -0.417166
   4 C :    0.074104
   5 C :   -0.362840
   6 C :   -0.293692
   7 C :   -0.327066
   8 C :   -0.266293
   9 C :   -0.380719
  10 H :    0.160033
  11 H :    0.161958
  12 H :    0.150992
  13 H :    0.168162
  14 H :    0.144808
  15 H :    0.160520
  16 H :    0.194641
  17 H :    0.143540
  18 H :    0.149583
  19 H :    0.143500
  20 H :    0.171331
  21 H :    0.148359
  22 H :    0.150123
  23 H :    0.159377
Sum of atomic charges:    0.0000000

LOEWDIN ATOMIC CHARGES
----------------------
   0 C :   -0.045834
   1 O :   -0.607263
   2 C :    0.360732
   3 O :   -0.435299
   4 C :   -0.156654
   5 C :   -0.274726
   6 C :   -0.299382
   7 C :   -0.299987
   8 C :   -0.297638
   9 C :   -0.268029
  10 H :    0.175745
  11 H :    0.176990
  12 H :    0.176006
  13 H :    0.185168
  14 H :    0.164402
  15 H :    0.159699
  16 H :    0.178384
  17 H :    0.152572
  18 H :    0.155796
  19 H :    0.151600
  20 H :    0.168625
  21 H :    0.154341
  22 H :    0.163815
  23 H :    0.160937

  Mayer bond orders larger than 0.100000
B(  0-C ,  1-O ) :   0.8499 B(  0-C , 10-H ) :   0.9621 B(  0-C , 11-H ) :   0.9636
B(  0-C , 12-H ) :   0.9696 B(  1-O ,  2-C ) :   1.0755 B(  2-C ,  3-O ) :   1.8201
B(  2-C ,  4-C ) :   0.9083 B(  4-C ,  5-C ) :   0.9125 B(  4-C ,  9-C ) :   0.9027
B(  4-C , 13-H ) :   0.9290 B(  5-C ,  6-C ) :   0.8966 B(  5-C , 14-H ) :   0.9487
B(  5-C , 15-H ) :   0.9906 B(  6-C ,  7-C ) :   0.9045 B(  6-C , 16-H ) :   0.9836
B(  6-C , 17-H ) :   0.9400 B(  7-C ,  8-C ) :   0.9054 B(  7-C , 18-H ) :   0.9455
B(  7-C , 19-H ) :   1.0093 B(  8-C ,  9-C ) :   0.9192 B(  8-C , 20-H ) :   0.9781
B(  8-C , 21-H ) :   0.9389 B(  9-C , 22-H ) :   0.9405 B(  9-C , 23-H ) :   0.9822

Dispersion correction           -0.007846603
FINAL SINGLE POINT ENERGY      -463.634697606759

DIPOLE MOMENT
-------------

Method             : SCF
Type of density    : Electron Density
Multiplicity       :   1
Irrep              :   0
Energy             :  -463.6401707669523375 Eh
Relativity type    :
Basis              : AO
                                X                 Y                 Z
Electronic contribution:     -5.881045948      -0.979177758      -0.160468936
Nuclear contribution   :      5.627276247       1.370134425      -0.305583104
                        -----------------------------------------
Total Dipole Moment    :     -0.253769702       0.390956666      -0.466052040
                        -----------------------------------------
Magnitude (a.u.)       :      0.659128728
Magnitude (Debye)      :      1.675372084

Rotational constants in cm-1:             0.087933             0.028875             0.027527
Rotational constants in MHz :          2636.177982           865.647648           825.252159

                             ****ORCA TERMINATED NORMALLY****
TOTAL RUN TIME: 0 days 0 hours 0 minutes 33 seconds 126 msec
