                         Program Version 6.0.0  -   RELEASE  -
|  1> ! r2scan-3c def2/J RI DEFGRID2 scfconv6 printgap
|  2> %output
|  3>     printlevel normal
|  4> end
|  5> %cpcm
|  6>     smd true
|  7>     smdsolvent "water"
|  8> end
|  9> * xyz 0 1
| 10> C -3.3521237228 0.2580173647 0.2988224845
| 11> O -2.1715542736 0.3701540894 -0.4999275767
| 12> C -1.0516764147 -0.1715595532 -0.0210708889
| 13> O -1.0156226674 -0.7558659272 1.0400360916
| 14> C 0.1002892254 0.0833808085 -0.9655607747
| 15> C 1.0826356185 -1.0901151682 -1.0462812884
| 16> C 1.8968834223 -1.2589989374 0.2337393528
| 17> C 2.6225324538 0.0351754648 0.5859297946
| 18> C 1.6119850518 1.1649107896 0.7572484262
| 19> C 0.8274318485 1.3699176759 -0.534236015
| 20> H -3.1995701147 0.7478387265 1.2612575753
| 21> H -3.5873450216 -0.7931895231 0.4694999894
| 22> H -4.1372220583 0.7472097673 -0.2685976007
| 23> H -0.3487332251 0.2549805959 -1.9487770821
| 24> H 0.5337833444 -2.0101570179 -1.2574083532
| 25> H 1.7607055548 -0.9005025651 -1.8807967294
| 26> H 1.2283977791 -1.5325553445 1.0512383681
| 27> H 2.6158777464 -2.0690082545 0.0987684487
| 28> H 3.1907121357 -0.0985475277 1.5076849295
| 29> H 3.324232041 0.2915582076 -0.2110596855
| 30> H 0.9263050111 0.9115358941 1.5691267504
| 31> H 2.123133167 2.0918725282 1.0230895718
| 32> H 0.1008637067 2.1764467619 -0.415740198
| 33> H 1.5173879855 1.6490507695 -1.3325451054
| 34> *
| 35>
| 36>                          ****END OF INPUT****

CARTESIAN COORDINATES (ANGSTROEM)
---------------------------------
  C     -3.352124    0.258017    0.298822
  O     -2.171554    0.370154   -0.499928
  C     -1.051676   -0.171560   -0.021071
  O     -1.015623   -0.755866    1.040036
  C      0.100289    0.083381   -0.965561
  C      1.082636   -1.090115   -1.046281
  C      1.896883   -1.258999    0.233739
  C      2.622532    0.035175    0.585930
  C      1.611985    1.164911    0.757248
  C      0.827432    1.369918   -0.534236
  H     -3.199570    0.747839    1.261258
  H     -3.587345   -0.793190    0.469500
  H     -4.137222    0.747210   -0.268598
  H     -0.348733    0.254981   -1.948777
  H      0.533783   -2.010157   -1.257408
  H      1.760706   -0.900503   -1.880797
  H      1.228398   -1.532555    1.051238
  H      2.615878   -2.069008    0.098768
  H      3.190712   -0.098548    1.507685
  H      3.324232    0.291558   -0.211060
  H      0.926305    0.911536    1.569127
  H      2.123133    2.091873    1.023090
  H      0.100864    2.176447   -0.415740
  H      1.517388    1.649051   -1.332545

 Total Charge           Charge          ....    0
 Multiplicity           Mult            ....    1
 Number of Electrons    NEL             ....   78
 Basis Dimension        Dim             ....  270

ORBITAL ENERGIES
----------------

  NO   OCC          E(Eh)            E(eV)
   0   2.0000     -19.001964      -517.0697
   1   2.0000     -18.943499      -515.4788
   2   2.0000     -10.158988      -276.4401
   3   2.0000     -10.075479      -274.1677
   4   2.0000     -10.041730      -273.2494
   5   2.0000     -10.025852      -272.8173
   6   2.0000     -10.022029      -272.7133
   7   2.0000     -10.015495      -272.5355
   8   2.0000     -10.013314      -272.4761
   9   2.0000     -10.012108      -272.4433
  10   2.0000      -1.078152       -29.3380
  11   2.0000      -0.987895       -26.8820
  12   2.0000      -0.801736       -21.8163
  13   2.0000      -0.730461       -19.8769
  14   2.0000      -0.704291       -19.1647
  15   2.0000      -0.683944       -18.6111
  16   2.0000      -0.588678       -16.0187
  17   2.0000      -0.570137       -15.5142
  18   2.0000      -0.537528       -14.6269
  19   2.0000      -0.516526       -14.0554
  20   2.0000      -0.463439       -12.6108
  21   2.0000      -0.453669       -12.3450
  22   2.0000      -0.449279       -12.2255
  23   2.0000      -0.433213       -11.7883
  24   2.0000      -0.406223       -11.0539
  25   2.0000      -0.405616       -11.0374
  26   2.0000      -0.391787       -10.6611
  27   2.0000      -0.363975        -9.9043
  28   2.0000      -0.343104        -9.3363
  29   2.0000      -0.341885        -9.3032
  30   2.0000      -0.340003        -9.2520
  31   2.0000      -0.335584        -9.1317
  32   2.0000      -0.316890        -8.6230
  33   2.0000      -0.306239        -8.3332
  34   2.0000      -0.293845        -7.9959
  35   2.0000      -0.280403        -7.6302
  36   2.0000      -0.263651        -7.1743
  37   2.0000      -0.262234        -7.1357
  38   2.0000      -0.240412        -6.5419
  39   0.0000      -0.022972        -0.6251
  40   0.0000       0.067013         1.8235
  41   0.0000       0.092840         2.5263
  42   0.0000       0.107829         2.9342
  43   0.0000       0.117883         3.2077

MULLIKEN ATOMIC CHARGES
-----------------------
   0 C :   -0.335919
   1 O :   -0.197610
   2 C :    0.280345
   3 O :   -0.487831
   4 C :    0.081909
   5 C :   -0.388848
   6 C :   -0.307023
   7 C :   -0.335301
   8 C :   -0.287962
   9 C :   -0.380999
  10 H :    0.177728
  11 H :    0.177383
  12 H :    0.178118
  13 H :    0.183479
  14 H :    0.158812
  15 H :    0.177726
  16 H :    0.174834
  17 H :    0.154636
  18 H :    0.157686
  19 H :    0.156270
  20 H :    0.164854
  21 H :    0.160199
  22 H :    0.160382
  23 H :    0.177131
Sum of atomic charges:    0.0000000

LOEWDIN ATOMIC CHARGES
----------------------
   0 C :   -0.044041
   1 O :   -0.611720
   2 C :    0.369733
   3 O :   -0.487513
   4 C :   -0.153234
   5 C :   -0.275728
   6 C :   -0.303092
   7 C :   -0.303164
   8 C :   -0.299521
   9 C :   -0.266579
  10 H :    0.181548
  11 H :    0.181941
  12 H :    0.187796
  13 H :    0.192298
  14 H :    0.167008
  15 H :    0.167154
  16 H :    0.169230
  17 H :    0.155923
  18 H :    0.156806
  19 H :    0.156952
  20 H :    0.164088
  21 H :    0.158566
  22 H :    0.167409
  23 H :    0.168139

  Mayer bond orders larger than 0.100000
B(  0-C ,  1-O ) :   0.8313 B(  0-C , 10-H ) :   0.9569 B(  0-C , 11-H ) :   0.9582
B(  0-C , 12-H ) :   0.9595 B(  1-O ,  2-C ) :   1.0897 B(  2-C ,  3-O ) :   1.7686
B(  2-C ,  4-C ) :   0.9147 B(  4-C ,  5-C ) :   0.8974 B(  4-C ,  9-C ) :   0.9018
B(  4-C , 13-H ) :   0.9202 B(  5-C ,  6-C ) :   0.8952 B(  5-C , 14-H ) :   0.9533
B(  5-C , 15-H ) :   0.9823 B(  6-C ,  7-C ) :   0.9016 B(  6-C , 16-H ) :   0.9908
B(  6-C , 17-H ) :   0.9380 B(  7-C ,  8-C ) :   0.9021 B(  7-C , 18-H ) :   0.9474
B(  7-C , 19-H ) :   1.0026 B(  8-C ,  9-C ) :   0.9115 B(  8-C , 20-H ) :   0.9845
B(  8-C , 21-H ) :   0.9360 B(  9-C , 22-H ) :   0.9369 B(  9-C , 23-H ) :   0.9769

Dispersion correction           -0.007846603
FINAL SINGLE POINT ENERGY      -463.638555137797

DIPOLE MOMENT
-------------

Method             : SCF
Type of density    : Electron Density
Multiplicity       :   1
Irrep              :   0
Energy             :  -463.6440282979896210 Eh
Relativity type    :
Basis              : AO
                                X                 Y                 Z
Electronic contribution:     -5.889096967      -0.760793324      -0.492070388
Nuclear contribution   :      5.627276247       1.370134425      -0.305583104
                        -----------------------------------------
Total Dipole Moment    :     -0.261820721       0.609341101      -0.797653492
                        -----------------------------------------
Magnitude (a.u.)       :      1.037351320
Magnitude (Debye)      :      2.636737509

Rotational constants in cm-1:             0.087933             0.028875             0.027527
Rotational constants in MHz :          2636.177982           865.647648           825.252159

                             ****ORCA TERMINATED NORMALLY****
TOTAL RUN TIME: 0 days 0 hours 0 minutes 44 seconds 359 msec
