                         Program Version 6.0.0  -   RELEASE  -
|  1> ! pbe def2-sv(p) def2/J RI DEFGRID1 loosescf d4 GCP(DFT/SV(P)) printgap
|  2> %output
|  3>     printlevel normal
|  4> end
|  5> * xyz 0 1
|  6> C 1.2808069845 -1.2134937182 0.2446234318
|  7> C 0.4816370143 -0.0975783521 -0.4379873576
|  8> C 0.9109106516 1.2657030923 0.095122087
|  9> C -0.9859890814 -0.3768558573 -0.2767980116
| 10> C -1.8847905223 0.3948525011 0.3049878487
| 11> H 2.3466479871 -1.0648396571 0.0897645989
| 12> H 1.0052299024 -2.1858047166 -0.1570096786
| 13> H 1.0826656555 -1.2137634538 1.3143284679
| 14> H 0.7023445722 -0.1347297477 -1.5130710295
| 15> H 0.3638208578 2.0627609293 -0.4020651189
| 16> H 0.7320889409 1.3299602568 1.165822965
| 17> H 1.9730791064 1.4151330783 -0.0839746983
| 18> H -1.2939133727 -1.3316548351 -0.6868167535
| 19> H -2.9175602676 0.0970984903 0.3756957485
| 20> H -1.6418653224 1.3520114818 0.7320730692
| 21> *
| 22>
| 23>                          ****END OF INPUT****

CARTESIAN COORDINATES (ANGSTROEM)
---------------------------------
  C      1.280807   -1.213494    0.244623
  C      0.481637   -0.097578   -0.437987
  C      0.910911    1.265703    0.095122
  C     -0.985989   -0.376856   -0.276798
  C     -1.884791    0.394853    0.304988
  H      2.346648   -1.064840    0.089765
  H      1.005230   -2.185805   -0.157010
  H      1.082666   -1.213763    1.314328
  H      0.702345   -0.134730   -1.513071
  H      0.363821    2.062761   -0.402065
  H      0.732089    1.329960    1.165823
  H      1.973079    1.415133   -0.083975
  H     -1.293913   -1.331655   -0.686817
  H     -2.917560    0.097098    0.375696
  H     -1.641865    1.352011    0.732073

 Total Charge           Charge          ....    0
 Multiplicity           Mult            ....    1
 Number of Electrons    NEL             ....   40
 Basis Dimension        Dim             ....   90

ORBITAL ENERGIES
----------------

  NO   OCC          E(Eh)            E(eV)
   0   2.0000      -9.899143      -269.3694
   1   2.0000      -9.887757      -269.0595
   2   2.0000      -9.875885      -268.7365
   3   2.0000      -9.872985      -268.6576
   4   2.0000      -9.871849      -268.6267
   5   2.0000      -0.735125       -20.0038
   6   2.0000      -0.657041       -17.8790
   7   2.0000      -0.612408       -16.6645
   8   2.0000      -0.546902       -14.8820
   9   2.0000      -0.471114       -12.8197
  10   2.0000      -0.430295       -11.7089
  11   2.0000      -0.398683       -10.8487
  12   2.0000      -0.390011       -10.6127
  13   2.0000      -0.351114        -9.5543
  14   2.0000      -0.336618        -9.1598
  15   2.0000      -0.332934        -9.0596
  16   2.0000      -0.303840        -8.2679
  17   2.0000      -0.290543        -7.9061
  18   2.0000      -0.283372        -7.7109
  19   2.0000      -0.225808        -6.1445
  20   0.0000      -0.011434        -0.3111
  21   0.0000       0.041781         1.1369
  22   0.0000       0.068539         1.8650
  23   0.0000       0.084537         2.3004
  24   0.0000       0.087604         2.3838

MULLIKEN ATOMIC CHARGES
-----------------------
   0 C :   -0.262095
   1 C :   -0.131625
   2 C :   -0.251038
   3 C :   -0.103984
   4 C :   -0.201115
   5 H :    0.100275
   6 H :    0.100961
   7 H :    0.103391
   8 H :    0.083432
   9 H :    0.108947
  10 H :    0.102789
  11 H :    0.097851
  12 H :    0.065316
  13 H :    0.093728
  14 H :    0.093169
Sum of atomic charges:   -0.0000000

LOEWDIN ATOMIC CHARGES
----------------------
   0 C :   -0.324774
   1 C :   -0.156015
   2 C :   -0.330183
   3 C :   -0.124569
   4 C :   -0.263553
   5 H :    0.117616
   6 H :    0.117387
   7 H :    0.120322
   8 H :    0.125245
   9 H :    0.120743
  10 H :    0.119591
  11 H :    0.119581
  12 H :    0.117709
  13 H :    0.121497
  14 H :    0.119404

  Mayer bond orders larger than 0.100000
B(  0-C ,  1-C ) :   1.0872 B(  0-C ,  5-H ) :   0.9493 B(  0-C ,  6-H ) :   0.9525
B(  0-C ,  7-H ) :   0.9517 B(  1-C ,  2-C ) :   1.1452 B(  1-C ,  3-C ) :   1.0347
B(  1-C ,  8-H ) :   0.8851 B(  2-C ,  9-H ) :   0.9419 B(  2-C , 10-H ) :   0.9409
B(  2-C , 11-H ) :   0.9476 B(  3-C ,  4-C ) :   2.0836 B(  3-C , 12-H ) :   0.9322
B(  4-C , 13-H ) :   0.9190 B(  4-C , 14-H ) :   0.9024

Dispersion correction           -0.010529279
FINAL SINGLE POINT ENERGY      -196.027130386854

DIPOLE MOMENT
-------------

Method             : SCF
Type of density    : Electron Density
Multiplicity       :   1
Irrep              :   0
Energy             :  -196.0752024039904029 Eh
Relativity type    :
Basis              : AO
                                X                 Y                 Z
Electronic contribution:     -2.066658731      -0.350099056      -0.849506360
Nuclear contribution   :      2.207084055       0.306005097       0.783136343
                        -----------------------------------------
Total Dipole Moment    :      0.140425324      -0.044093958      -0.066370017
                        -----------------------------------------
Magnitude (a.u.)       :      0.161457511
Magnitude (Debye)      :      0.410392379

Rotational constants in cm-1:             0.244281             0.132539             0.097674
Rotational constants in MHz :          7323.355316          3973.414626          2928.192807

                             ****ORCA TERMINATED NORMALLY****
TOTAL RUN TIME: 0 days 0 hours 0 minutes 5 seconds 717 msec
