                         Program Version 6.0.0  -   RELEASE  -
|  1> ! wb97x-v def2-tzvp def2/J RIJCOSX DEFGRID2 scfconv7 GCP(DFT/TZ) printgap
|  2> %output
|  3>     printlevel normal
|  4> end
|  5> * xyz 0 1
|  6> C -2.58899726040584 -0.597101475639593 -0.3524382655325802
|  7> C -1.208457218537027 -0.27318095344456333 0.18589622091774885
|  8> H -1.2361454457156102 -0.24314370940340468 1.28844670621593
|  9> C -0.6873833728621319 1.06534757677615 -0.3409941769207923
| 10> H -0.7062888348066052 1.0469043448676922 -1.4425479859138906
| 11> C 0.7456131181465924 1.2835245519180014 0.12694437322959234
| 12> H 0.7398524291535499 1.4026456913522054 1.2220926937289824
| 13> C 1.6261300268844046 0.0938448295461784 -0.2267874488541721
| 14> H 1.7124385084334521 0.005550829111715156 -1.320159223113558
| 15> C 0.9876825811135045 -1.184102821736385 0.30840884773235683
| 16> H 0.9161028600151846 -1.1553050923912684 1.408211551243692
| 17> O -0.3252909986582699 -1.3197532893582713 -0.248147780109015
| 18> O 1.7548505495168354 -2.2760987054957598 -0.12363524383009539
| 19> O 2.9067014843746897 0.3215169723530549 0.36742886898613986
| 20> O 1.2112175140238963 2.4886634257271436 -0.49279475511847765
| 21> O -1.541360225902884 2.1003352604744547 0.15501094693616602
| 22> O -3.1159471562141 -1.8131887534700888 0.19268753012750578
| 23> H -2.528755373346868 -0.7427416780682926 -1.4359387735014706
| 24> H -3.26106538110234 0.24468686134018783 -0.15006751239632404
| 25> H 1.5558124221933616 -3.0330295922814705 0.44370020149193923
| 26> H 3.516448278846085 -0.33384780544038095 0.00433496744780693
| 27> H 2.0420866819796046 2.7352424854850113 -0.0659538450733407
| 28> H -1.1432507530563496 2.9423489361358013 -0.10596503834501744
| 29> H -3.2829720790272363 -1.6605185451956948 1.13200271437875
| 30> *
| 31>
| 32>                          ****END OF INPUT****

CARTESIAN COORDINATES (ANGSTROEM)
---------------------------------
  C     -2.588997   -0.597101   -0.352438
  C     -1.208457   -0.273181    0.185896
  H     -1.236145   -0.243144    1.288447
  C     -0.687383    1.065348   -0.340994
  H     -0.706289    1.046904   -1.442548
  C      0.745613    1.283525    0.126944
  H      0.739852    1.402646    1.222093
  C      1.626130    0.093845   -0.226787
  H      1.712439    0.005551   -1.320159
  C      0.987683   -1.184103    0.308409
  H      0.916103   -1.155305    1.408212
  O     -0.325291   -1.319753   -0.248148
  O      1.754851   -2.276099   -0.123635
  O      2.906701    0.321517    0.367429
  O      1.211218    2.488663   -0.492795
  O     -1.541360    2.100335    0.155011
  O     -3.115947   -1.813189    0.192688
  H     -2.528755   -0.742742   -1.435939
  H     -3.261065    0.244687   -0.150068
  H      1.555812   -3.033030    0.443700
  H      3.516448   -0.333848    0.004335
  H      2.042087    2.735242   -0.065954
  H     -1.143251    2.942349   -0.105965
  H     -3.282972   -1.660519    1.132003

 Total Charge           Charge          ....    0
 Multiplicity           Mult            ....    1
 Number of Electrons    NEL             ....   96
 Basis Dimension        Dim             ....  444

ORBITAL ENERGIES
----------------

  NO   OCC          E(Eh)            E(eV)
   0   2.0000     -21.698298      -590.4407
   1   2.0000     -21.689065      -590.1895
   2   2.0000     -21.688064      -590.1622
   3   2.0000     -21.687343      -590.1426
   4   2.0000     -21.681748      -589.9904
   5   2.0000     -21.670857      -589.6940
   6   2.0000     -12.159347      -330.8726
   7   2.0000     -12.112621      -329.6012
   8   2.0000     -12.110986      -329.5567
   9   2.0000     -12.109783      -329.5240
  10   2.0000     -12.109336      -329.5118
  11   2.0000     -12.093119      -329.0705
  12   2.0000      -1.725238       -46.9461
  13   2.0000      -1.695561       -46.1386
  14   2.0000      -1.689440       -45.9720
  15   2.0000      -1.683214       -45.8026
  16   2.0000      -1.680559       -45.7303
  17   2.0000      -1.670020       -45.4436
  18   2.0000      -1.340730       -36.4831
  19   2.0000      -1.324868       -36.0515
  20   2.0000      -1.236430       -33.6450
  21   2.0000      -1.202429       -32.7198
  22   2.0000      -1.167734       -31.7757
  23   2.0000      -1.122098       -30.5338
  24   2.0000      -1.091562       -29.7029
  25   2.0000      -1.071470       -29.1562
  26   2.0000      -1.052021       -28.6269
  27   2.0000      -1.045663       -28.4539
  28   2.0000      -1.040454       -28.3122
  29   2.0000      -1.014714       -27.6118
  30   2.0000      -0.997655       -27.1476
  31   2.0000      -0.992609       -27.0103
  32   2.0000      -0.974403       -26.5149
  33   2.0000      -0.973580       -26.4925
  34   2.0000      -0.955427       -25.9985
  35   2.0000      -0.946924       -25.7671
  36   2.0000      -0.944466       -25.7002
  37   2.0000      -0.929017       -25.2798
  38   2.0000      -0.928289       -25.2600
  39   2.0000      -0.916175       -24.9304
  40   2.0000      -0.902496       -24.5582
  41   2.0000      -0.883193       -24.0329
  42   2.0000      -0.846558       -23.0360
  43   2.0000      -0.830604       -22.6019
  44   2.0000      -0.819425       -22.2977
  45   2.0000      -0.809151       -22.0181
  46   2.0000      -0.800595       -21.7853
  47   2.0000      -0.773923       -21.0595
  48   0.0000      -0.239690        -6.5223
  49   0.0000      -0.197350        -5.3702
  50   0.0000      -0.179849        -4.8939
  51   0.0000      -0.151231        -4.1152
  52   0.0000      -0.125820        -3.4237

MULLIKEN ATOMIC CHARGES
-----------------------
   0 C :   -0.027024
   1 C :    0.016182
   2 H :    0.060251
   3 C :    0.086962
   4 H :    0.084887
   5 C :    0.035885
   6 H :    0.091328
   7 C :    0.070352
   8 H :    0.089275
   9 C :    0.071023
  10 H :    0.066744
  11 O :   -0.230753
  12 O :   -0.412519
  13 O :   -0.454409
  14 O :   -0.460041
  15 O :   -0.449741
  16 O :   -0.431862
  17 H :    0.098239
  18 H :    0.124696
  19 H :    0.318288
  20 H :    0.318916
  21 H :    0.320914
  22 H :    0.318006
  23 H :    0.294401
Sum of atomic charges:    0.0000000

LOEWDIN ATOMIC CHARGES
----------------------
   0 C :   -0.307481
   1 C :   -0.303724
   2 H :    0.137591
   3 C :   -0.298742
   4 H :    0.145807
   5 C :   -0.312209
   6 H :    0.144938
   7 C :   -0.314035
   8 H :    0.146739
   9 C :   -0.412437
  10 H :    0.121692
  11 O :    0.196195
  12 O :    0.013380
  13 O :   -0.016949
  14 O :   -0.018067
  15 O :   -0.013828
  16 O :   -0.047233
  17 H :    0.133198
  18 H :    0.126160
  19 H :    0.180219
  20 H :    0.177308
  21 H :    0.177669
  22 H :    0.177399
  23 H :    0.166411

  Mayer bond orders larger than 0.100000
B(  0-C ,  1-C ) :   0.9661 B(  0-C , 16-O ) :   1.0175 B(  0-C , 17-H ) :   0.9517
B(  0-C , 18-H ) :   0.9899 B(  1-C ,  2-H ) :   0.9562 B(  1-C ,  3-C ) :   0.9444
B(  1-C , 11-O ) :   0.9957 B(  3-C ,  4-H ) :   0.9585 B(  3-C ,  5-C ) :   0.9516
B(  3-C , 15-O ) :   1.0743 B(  5-C ,  6-H ) :   0.9736 B(  5-C ,  7-C ) :   0.9461
B(  5-C , 14-O ) :   1.0748 B(  7-C ,  8-H ) :   0.9653 B(  7-C ,  9-C ) :   0.9259
B(  7-C , 13-O ) :   1.1103 B(  9-C , 10-H ) :   0.9829 B(  9-C , 11-O ) :   1.0281
B(  9-C , 12-O ) :   1.2031 B( 12-O , 19-H ) :   0.8914 B( 13-O , 20-H ) :   0.8886
B( 14-O , 21-H ) :   0.8877 B( 15-O , 22-H ) :   0.8828 B( 16-O , 23-H ) :   0.9071

FINAL SINGLE POINT ENERGY      -687.247984601195

DIPOLE MOMENT
-------------

Method             : SCF
Type of density    : Electron Density
Multiplicity       :   1
Irrep              :   0
Energy             :  -687.2666539312945133 Eh
Relativity type    :
Basis              : AO
                                X                 Y                 Z
Electronic contribution:      2.157519626      -1.031084369      -0.413105237
Nuclear contribution   :     -1.498216559       1.258524248       1.230139164
                        -----------------------------------------
Total Dipole Moment    :      0.659303068       0.227439880       0.817033927
                        -----------------------------------------
Magnitude (a.u.)       :      1.074222450
Magnitude (Debye)      :      2.730456475

Rotational constants in cm-1:             0.039011             0.025760             0.016267
Rotational constants in MHz :          1169.520109           772.254578           487.675952

                             ****ORCA TERMINATED NORMALLY****
TOTAL RUN TIME: 0 days 0 hours 4 minutes 45 seconds 377 msec
