                         Program Version 6.0.0  -   RELEASE  -
|  1> ! wb97x-v def2-tzvp def2/J RIJCOSX DEFGRID2 scfconv7 GCP(DFT/TZ) printgap
|  2> %output
|  3>     printlevel normal
|  4> end
|  5> %cpcm
|  6>     smd true
|  7>     smdsolvent "water"
|  8> end
|  9> * xyz 0 1
| 10> C -2.58899726040584 -0.597101475639593 -0.3524382655325802
| 11> C -1.208457218537027 -0.27318095344456333 0.18589622091774885
| 12> H -1.2361454457156102 -0.24314370940340468 1.28844670621593
| 13> C -0.6873833728621319 1.06534757677615 -0.3409941769207923
| 14> H -0.7062888348066052 1.0469043448676922 -1.4425479859138906
| 15> C 0.7456131181465924 1.2835245519180014 0.12694437322959234
| 16> H 0.7398524291535499 1.4026456913522054 1.2220926937289824
| 17> C 1.6261300268844046 0.0938448295461784 -0.2267874488541721
| 18> H 1.7124385084334521 0.005550829111715156 -1.320159223113558
| 19> C 0.9876825811135045 -1.184102821736385 0.30840884773235683
| 20> H 0.9161028600151846 -1.1553050923912684 1.408211551243692
| 21> O -0.3252909986582699 -1.3197532893582713 -0.248147780109015
| 22> O 1.7548505495168354 -2.2760987054957598 -0.12363524383009539
| 23> O 2.9067014843746897 0.3215169723530549 0.36742886898613986
| 24> O 1.2112175140238963 2.4886634257271436 -0.49279475511847765
| 25> O -1.541360225902884 2.1003352604744547 0.15501094693616602
| 26> O -3.1159471562141 -1.8131887534700888 0.19268753012750578
| 27> H -2.528755373346868 -0.7427416780682926 -1.4359387735014706
| 28> H -3.26106538110234 0.24468686134018783 -0.15006751239632404
| 29> H 1.5558124221933616 -3.0330295922814705 0.44370020149193923
| 30> H 3.516448278846085 -0.33384780544038095 0.00433496744780693
| 31> H 2.0420866819796046 2.7352424854850113 -0.0659538450733407
| 32> H -1.1432507530563496 2.9423489361358013 -0.10596503834501744
| 33> H -3.2829720790272363 -1.6605185451956948 1.13200271437875
| 34> *
| 35>
| 36>                          ****END OF INPUT****

CARTESIAN COORDINATES (ANGSTROEM)
---------------------------------
  C     -2.588997   -0.597101   -0.352438
  C     -1.208457   -0.273181    0.185896
  H     -1.236145   -0.243144    1.288447
  C     -0.687383    1.065348   -0.340994
  H     -0.706289    1.046904   -1.442548
  C      0.745613    1.283525    0.126944
  H      0.739852    1.402646    1.222093
  C      1.626130    0.093845   -0.226787
  H      1.712439    0.005551   -1.320159
  C      0.987683   -1.184103    0.308409
  H      0.916103   -1.155305    1.408212
  O     -0.325291   -1.319753   -0.248148
  O      1.754851   -2.276099   -0.123635
  O      2.906701    0.321517    0.367429
  O      1.211218    2.488663   -0.492795
  O     -1.541360    2.100335    0.155011
  O     -3.115947   -1.813189    0.192688
  H     -2.528755   -0.742742   -1.435939
  H     -3.261065    0.244687   -0.150068
  H      1.555812   -3.033030    0.443700
  H      3.516448   -0.333848    0.004335
  H      2.042087    2.735242   -0.065954
  H     -1.143251    2.942349   -0.105965
  H     -3.282972   -1.660519    1.132003

 Total Charge           Charge          ....    0
 Multiplicity           Mult            ....    1
 Number of Electrons    NEL             ....   96
 Basis Dimension        Dim             ....  444

ORBITAL ENERGIES
----------------

  NO   OCC          E(Eh)            E(eV)
   0   2.0000     -21.691797      -590.2638
   1   2.0000     -21.690115      -590.2180
   2   2.0000     -21.683677      -590.0429
   3   2.0000     -21.682359      -590.0070
   4   2.0000     -21.681611      -589.9866
   5   2.0000     -21.676987      -589.8608
   6   2.0000     -12.150721      -330.6379
   7   2.0000     -12.104432      -329.3783
   8   2.0000     -12.103523      -329.3536
   9   2.0000     -12.102611      -329.3288
  10   2.0000     -12.101134      -329.2886
  11   2.0000     -12.090935      -329.0111
  12   2.0000      -1.722617       -46.8748
  13   2.0000      -1.690976       -46.0138
  14   2.0000      -1.686632       -45.8956
  15   2.0000      -1.681209       -45.7480
  16   2.0000      -1.678733       -45.6806
  17   2.0000      -1.675500       -45.5927
  18   2.0000      -1.334117       -36.3032
  19   2.0000      -1.320066       -35.9208
  20   2.0000      -1.232435       -33.5363
  21   2.0000      -1.197754       -32.5926
  22   2.0000      -1.165686       -31.7199
  23   2.0000      -1.118886       -30.4464
  24   2.0000      -1.087191       -29.5840
  25   2.0000      -1.067233       -29.0409
  26   2.0000      -1.048034       -28.5185
  27   2.0000      -1.043733       -28.4014
  28   2.0000      -1.037722       -28.2378
  29   2.0000      -1.013888       -27.5893
  30   2.0000      -0.995474       -27.0882
  31   2.0000      -0.990438       -26.9512
  32   2.0000      -0.973509       -26.4905
  33   2.0000      -0.972615       -26.4662
  34   2.0000      -0.959299       -26.1039
  35   2.0000      -0.948862       -25.8199
  36   2.0000      -0.945243       -25.7214
  37   2.0000      -0.927171       -25.2296
  38   2.0000      -0.925782       -25.1918
  39   2.0000      -0.917370       -24.9629
  40   2.0000      -0.900050       -24.4916
  41   2.0000      -0.879372       -23.9289
  42   2.0000      -0.842100       -22.9147
  43   2.0000      -0.828142       -22.5349
  44   2.0000      -0.817276       -22.2392
  45   2.0000      -0.804764       -21.8987
  46   2.0000      -0.792751       -21.5719
  47   2.0000      -0.766344       -20.8533
  48   0.0000      -0.234174        -6.3722
  49   0.0000      -0.190817        -5.1924
  50   0.0000      -0.174609        -4.7514
  51   0.0000      -0.148496        -4.0408
  52   0.0000      -0.119948        -3.2639

MULLIKEN ATOMIC CHARGES
-----------------------
   0 C :   -0.027022
   1 C :    0.046652
   2 H :    0.110171
   3 C :    0.071101
   4 H :    0.104725
   5 C :    0.089300
   6 H :    0.109338
   7 C :    0.070625
   8 H :    0.102920
   9 C :    0.079121
  10 H :    0.107431
  11 O :   -0.322247
  12 O :   -0.489387
  13 O :   -0.526005
  14 O :   -0.533187
  15 O :   -0.527273
  16 O :   -0.549016
  17 H :    0.125612
  18 H :    0.127507
  19 H :    0.377322
  20 H :    0.364881
  21 H :    0.365025
  22 H :    0.359738
  23 H :    0.362665
Sum of atomic charges:    0.0000000

LOEWDIN ATOMIC CHARGES
----------------------
   0 C :   -0.307870
   1 C :   -0.297658
   2 H :    0.153679
   3 C :   -0.295357
   4 H :    0.152176
   5 C :   -0.305984
   6 H :    0.154144
   7 C :   -0.311336
   8 H :    0.151080
   9 C :   -0.404341
  10 H :    0.137748
  11 O :    0.161553
  12 O :   -0.011880
  13 O :   -0.039347
  14 O :   -0.042642
  15 O :   -0.040703
  16 O :   -0.089472
  17 H :    0.136197
  18 H :    0.129951
  19 H :    0.201216
  20 H :    0.193270
  21 H :    0.192603
  22 H :    0.191078
  23 H :    0.191896

  Mayer bond orders larger than 0.100000
B(  0-C ,  1-C ) :   0.9596 B(  0-C , 16-O ) :   0.9869 B(  0-C , 17-H ) :   0.9562
B(  0-C , 18-H ) :   0.9902 B(  1-C ,  2-H ) :   0.9550 B(  1-C ,  3-C ) :   0.9588
B(  1-C , 11-O ) :   0.9488 B(  3-C ,  4-H ) :   0.9544 B(  3-C ,  5-C ) :   0.9711
B(  3-C , 15-O ) :   1.0397 B(  5-C ,  6-H ) :   0.9566 B(  5-C ,  7-C ) :   0.9669
B(  5-C , 14-O ) :   1.0434 B(  7-C ,  8-H ) :   0.9555 B(  7-C ,  9-C ) :   0.9512
B(  7-C , 13-O ) :   1.0868 B(  9-C , 10-H ) :   0.9818 B(  9-C , 11-O ) :   1.0082
B(  9-C , 12-O ) :   1.1974 B( 12-O , 19-H ) :   0.8532 B( 13-O , 20-H ) :   0.8586
B( 14-O , 21-H ) :   0.8595 B( 15-O , 22-H ) :   0.8563 B( 16-O , 23-H ) :   0.8666

FINAL SINGLE POINT ENERGY      -687.287587567356

DIPOLE MOMENT
-------------

Method             : SCF
Type of density    : Electron Density
Multiplicity       :   1
Irrep              :   0
Energy             :  -687.3062568974561373 Eh
Relativity type    :
Basis              : AO
                                X                 Y                 Z
Electronic contribution:      2.330308886      -0.888085306       0.016600978
Nuclear contribution   :     -1.498216559       1.258524248       1.230139164
                        -----------------------------------------
Total Dipole Moment    :      0.832092327       0.370438943       1.246740142
                        -----------------------------------------
Magnitude (a.u.)       :      1.544008948
Magnitude (Debye)      :      3.924558857

Rotational constants in cm-1:             0.039011             0.025760             0.016267
Rotational constants in MHz :          1169.520109           772.254578           487.675952

                             ****ORCA TERMINATED NORMALLY****
TOTAL RUN TIME: 0 days 0 hours 5 minutes 23 seconds 793 msec
