                         Program Version 6.0.0  -   RELEASE  -
|  1> ! wb97x-v def2-tzvp def2/J RIJCOSX DEFGRID2 scfconv7 GCP(DFT/TZ) printgap
|  2> %output
|  3>     printlevel normal
|  4> end
|  5> * xyz 0 1
|  6> C -0.7267484564382068 -1.168695040107385 -0.07743150129268053
|  7> N -5.2151226790138016e-05 -0.00011114852829751352 0.43277184001879365
|  8> C -0.6487882790905038 1.2135939254447585 -0.07696811932751463
|  9> C 1.3753536711222025 -0.04497689755343691 -0.07713374679451818
| 10> H -0.7461555711047699 -1.2010028172732263 -1.1826589331529644
| 11> H -1.760931681576586 -1.1524053957076963 0.2806306375236937
| 12> H -0.255580658006423 -2.0891657657248723 0.281529200598837
| 13> H -0.11728501867387456 2.1009537725443175 0.28107111585738265
| 14> H -1.6813573619601767 1.265853362136202 0.28236360707846275
| 15> H -0.6675477310840786 1.2469230565162523 -1.182198327840965
| 16> H 1.9364059635884003 0.8237347518556696 0.2816010692013241
| 17> H 1.4139599326992156 -0.046129430656932174 -1.1823985179078447
| 18> H 1.878675139127761 -0.9483952824527248 0.2814998219089613
| 19> *
| 20>
| 21>                          ****END OF INPUT****

CARTESIAN COORDINATES (ANGSTROEM)
---------------------------------
  C     -0.726748   -1.168695   -0.077432
  N     -0.000052   -0.000111    0.432772
  C     -0.648788    1.213594   -0.076968
  C      1.375354   -0.044977   -0.077134
  H     -0.746156   -1.201003   -1.182659
  H     -1.760932   -1.152405    0.280631
  H     -0.255581   -2.089166    0.281529
  H     -0.117285    2.100954    0.281071
  H     -1.681357    1.265853    0.282364
  H     -0.667548    1.246923   -1.182198
  H      1.936406    0.823735    0.281601
  H      1.413960   -0.046129   -1.182399
  H      1.878675   -0.948395    0.281500

 Total Charge           Charge          ....    0
 Multiplicity           Mult            ....    1
 Number of Electrons    NEL             ....   34
 Basis Dimension        Dim             ....  178

ORBITAL ENERGIES
----------------

  NO   OCC          E(Eh)            E(eV)
   0   2.0000     -16.520963      -449.5583
   1   2.0000     -12.060054      -328.1708
   2   2.0000     -12.060048      -328.1706
   3   2.0000     -12.059586      -328.1580
   4   2.0000      -1.482216       -40.3331
   5   2.0000      -1.205262       -32.7968
   6   2.0000      -1.205258       -32.7967
   7   2.0000      -1.077662       -29.3247
   8   2.0000      -0.927095       -25.2275
   9   2.0000      -0.927080       -25.2271
  10   2.0000      -0.905425       -24.6379
  11   2.0000      -0.822864       -22.3913
  12   2.0000      -0.822862       -22.3912
  13   2.0000      -0.801153       -21.8005
  14   2.0000      -0.797222       -21.6935
  15   2.0000      -0.797208       -21.6931
  16   2.0000      -0.690744       -18.7961
  17   0.0000      -0.091366        -2.4862
  18   0.0000      -0.043471        -1.1829
  19   0.0000      -0.043435        -1.1819
  20   0.0000      -0.018632        -0.5070
  21   0.0000       0.020242         0.5508

MULLIKEN ATOMIC CHARGES
-----------------------
   0 C :   -0.271516
   1 N :   -0.148273
   2 C :   -0.271495
   3 C :   -0.271938
   4 H :    0.089911
   5 H :    0.115524
   6 H :    0.115586
   7 H :    0.115548
   8 H :    0.115562
   9 H :    0.089917
  10 H :    0.115568
  11 H :    0.090050
  12 H :    0.115557
Sum of atomic charges:   -0.0000000

LOEWDIN ATOMIC CHARGES
----------------------
   0 C :   -0.324027
   1 N :    0.008754
   2 C :   -0.324080
   3 C :   -0.324134
   4 H :    0.097722
   5 H :    0.111713
   6 H :    0.111716
   7 H :    0.111729
   8 H :    0.111705
   9 H :    0.097729
  10 H :    0.111719
  11 H :    0.097736
  12 H :    0.111717

  Mayer bond orders larger than 0.100000
B(  0-C ,  1-N ) :   0.9845 B(  0-C ,  4-H ) :   0.9742 B(  0-C ,  5-H ) :   0.9817
B(  0-C ,  6-H ) :   0.9818 B(  1-N ,  2-C ) :   0.9845 B(  1-N ,  3-C ) :   0.9845
B(  2-C ,  7-H ) :   0.9817 B(  2-C ,  8-H ) :   0.9817 B(  2-C ,  9-H ) :   0.9742
B(  3-C , 10-H ) :   0.9817 B(  3-C , 11-H ) :   0.9742 B(  3-C , 12-H ) :   0.9817

FINAL SINGLE POINT ENERGY      -174.472663212471

DIPOLE MOMENT
-------------

Method             : SCF
Type of density    : Electron Density
Multiplicity       :   1
Irrep              :   0
Energy             :  -174.4820651708714649 Eh
Relativity type    :
Basis              : AO
                                X                 Y                 Z
Electronic contribution:     -0.000663531      -0.000584399       1.635602163
Nuclear contribution   :      0.000563734       0.000646685      -1.942447617
                        -----------------------------------------
Total Dipole Moment    :     -0.000099797       0.000062285      -0.306845454
                        -----------------------------------------
Magnitude (a.u.)       :      0.306845477
Magnitude (Debye)      :      0.779939219

Rotational constants in cm-1:             0.290417             0.290397             0.166786
Rotational constants in MHz :          8706.490575          8705.897181          5000.115601

                             ****ORCA TERMINATED NORMALLY****
TOTAL RUN TIME: 0 days 0 hours 0 minutes 54 seconds 356 msec
