                         Program Version 6.0.0  -   RELEASE  -
|  1> ! wb97x-v def2-tzvp def2/J RIJCOSX DEFGRID2 scfconv7 GCP(DFT/TZ) printgap
|  2> %output
|  3>     printlevel normal
|  4> end
|  5> %cpcm
|  6>     smd true
|  7>     smdsolvent "water"
|  8> end
|  9> * xyz 0 1
| 10> C -0.7267484564382068 -1.168695040107385 -0.07743150129268053
| 11> N -5.2151226790138016e-05 -0.00011114852829751352 0.43277184001879365
| 12> C -0.6487882790905038 1.2135939254447585 -0.07696811932751463
| 13> C 1.3753536711222025 -0.04497689755343691 -0.07713374679451818
| 14> H -0.7461555711047699 -1.2010028172732263 -1.1826589331529644
| 15> H -1.760931681576586 -1.1524053957076963 0.2806306375236937
| 16> H -0.255580658006423 -2.0891657657248723 0.281529200598837
| 17> H -0.11728501867387456 2.1009537725443175 0.28107111585738265
| 18> H -1.6813573619601767 1.265853362136202 0.28236360707846275
| 19> H -0.6675477310840786 1.2469230565162523 -1.182198327840965
| 20> H 1.9364059635884003 0.8237347518556696 0.2816010692013241
| 21> H 1.4139599326992156 -0.046129430656932174 -1.1823985179078447
| 22> H 1.878675139127761 -0.9483952824527248 0.2814998219089613
| 23> *
| 24>
| 25>                          ****END OF INPUT****

CARTESIAN COORDINATES (ANGSTROEM)
---------------------------------
  C     -0.726748   -1.168695   -0.077432
  N     -0.000052   -0.000111    0.432772
  C     -0.648788    1.213594   -0.076968
  C      1.375354   -0.044977   -0.077134
  H     -0.746156   -1.201003   -1.182659
  H     -1.760932   -1.152405    0.280631
  H     -0.255581   -2.089166    0.281529
  H     -0.117285    2.100954    0.281071
  H     -1.681357    1.265853    0.282364
  H     -0.667548    1.246923   -1.182198
  H      1.936406    0.823735    0.281601
  H      1.413960   -0.046129   -1.182399
  H      1.878675   -0.948395    0.281500

 Total Charge           Charge          ....    0
 Multiplicity           Mult            ....    1
 Number of Electrons    NEL             ....   34
 Basis Dimension        Dim             ....  178

ORBITAL ENERGIES
----------------

  NO   OCC          E(Eh)            E(eV)
   0   2.0000     -16.518358      -449.4874
   1   2.0000     -12.051281      -327.9320
   2   2.0000     -12.051249      -327.9312
   3   2.0000     -12.050806      -327.9191
   4   2.0000      -1.477815       -40.2134
   5   2.0000      -1.198309       -32.6076
   6   2.0000      -1.198281       -32.6069
   7   2.0000      -1.070014       -29.1166
   8   2.0000      -0.920728       -25.0543
   9   2.0000      -0.920714       -25.0539
  10   2.0000      -0.899469       -24.4758
  11   2.0000      -0.814784       -22.1714
  12   2.0000      -0.814783       -22.1714
  13   2.0000      -0.792406       -21.5625
  14   2.0000      -0.788953       -21.4685
  15   2.0000      -0.788941       -21.4682
  16   2.0000      -0.688017       -18.7219
  17   0.0000      -0.084862        -2.3092
  18   0.0000      -0.037198        -1.0122
  19   0.0000      -0.037151        -1.0109
  20   0.0000      -0.007227        -0.1967
  21   0.0000       0.032403         0.8817

MULLIKEN ATOMIC CHARGES
-----------------------
   0 C :   -0.310889
   1 N :   -0.202869
   2 C :   -0.310648
   3 C :   -0.311023
   4 H :    0.107198
   5 H :    0.135606
   6 H :    0.135699
   7 H :    0.135669
   8 H :    0.135610
   9 H :    0.107104
  10 H :    0.135645
  11 H :    0.107292
  12 H :    0.135606
Sum of atomic charges:   -0.0000000

LOEWDIN ATOMIC CHARGES
----------------------
   0 C :   -0.329173
   1 N :   -0.012285
   2 C :   -0.329157
   3 C :   -0.329158
   4 H :    0.102997
   5 H :    0.115111
   6 H :    0.115133
   7 H :    0.115179
   8 H :    0.115093
   9 H :    0.102984
  10 H :    0.115151
  11 H :    0.103012
  12 H :    0.115112

  Mayer bond orders larger than 0.100000
B(  0-C ,  1-N ) :   0.9741 B(  0-C ,  4-H ) :   0.9760 B(  0-C ,  5-H ) :   0.9766
B(  0-C ,  6-H ) :   0.9767 B(  1-N ,  2-C ) :   0.9741 B(  1-N ,  3-C ) :   0.9739
B(  2-C ,  7-H ) :   0.9767 B(  2-C ,  8-H ) :   0.9766 B(  2-C ,  9-H ) :   0.9760
B(  3-C , 10-H ) :   0.9767 B(  3-C , 11-H ) :   0.9760 B(  3-C , 12-H ) :   0.9766

FINAL SINGLE POINT ENERGY      -174.478892244936

DIPOLE MOMENT
-------------

Method             : SCF
Type of density    : Electron Density
Multiplicity       :   1
Irrep              :   0
Energy             :  -174.4882942033359825 Eh
Relativity type    :
Basis              : AO
                                X                 Y                 Z
Electronic contribution:      0.000140763       0.000043979       1.463902438
Nuclear contribution   :      0.000563734       0.000646685      -1.942447617
                        -----------------------------------------
Total Dipole Moment    :      0.000704497       0.000690664      -0.478545179
                        -----------------------------------------
Magnitude (a.u.)       :      0.478546196
Magnitude (Debye)      :      1.216367765

Rotational constants in cm-1:             0.290417             0.290397             0.166786
Rotational constants in MHz :          8706.490575          8705.897181          5000.115601

                             ****ORCA TERMINATED NORMALLY****
TOTAL RUN TIME: 0 days 0 hours 0 minutes 51 seconds 743 msec
