                         Program Version 6.0.0  -   RELEASE  -
|  1> ! r2scan-3c def2/J RI DEFGRID2 scfconv6 printgap
|  2> %output
|  3>     printlevel normal
|  4> end
|  5> * xyz 0 1
|  6> C -2.4768647304 0.4624428955 1.3930971572
|  7> O -1.2379540256 0.381448554 0.6819633266
|  8> C -1.1914072973 -0.3143775105 -0.4421686328
|  9> O -2.1533358172 -0.9048531616 -0.8982443317
| 10> C 0.1682999666 -0.3484509653 -1.104792039
| 11> C 1.0672705117 -1.379984864 -0.3990572506
| 12> C 1.6067264686 -0.8638547824 0.9299662895
| 13> C 2.3794451693 0.4335228543 0.717480894
| 14> C 1.4595841373 1.493715937 0.1220228294
| 15> C 0.8656712523 1.0148225328 -1.2000215094
| 16> H -2.9160303089 1.4435023069 1.2152625063
| 17> H -2.2450888471 0.3368143555 2.4479534936
| 18> H -3.1559166793 -0.3174649886 1.0469359701
| 19> H -0.0325228075 -0.713211522 -2.118547241
| 20> H 0.5059807198 -2.3056282107 -0.2516587264
| 21> H 1.9057576399 -1.5983993325 -1.0629232387
| 22> H 0.7819334784 -0.6832064054 1.6206728626
| 23> H 2.2566772305 -1.6217173891 1.3707341874
| 24> H 2.7844475317 0.7856969113 1.6672768732
| 25> H 3.2165487661 0.2508795962 0.040103266
| 26> H 0.6595684073 1.7138423874 0.8280603904
| 27> H 2.0171461165 2.4152009407 -0.0552077511
| 28> H 0.1610194323 1.7560926168 -1.5823772199
| 29> H 1.6715825977 0.9134795897 -1.9300003776
| 30> *
| 31>
| 32>                          ****END OF INPUT****

CARTESIAN COORDINATES (ANGSTROEM)
---------------------------------
  C     -2.476865    0.462443    1.393097
  O     -1.237954    0.381449    0.681963
  C     -1.191407   -0.314378   -0.442169
  O     -2.153336   -0.904853   -0.898244
  C      0.168300   -0.348451   -1.104792
  C      1.067271   -1.379985   -0.399057
  C      1.606726   -0.863855    0.929966
  C      2.379445    0.433523    0.717481
  C      1.459584    1.493716    0.122023
  C      0.865671    1.014823   -1.200022
  H     -2.916030    1.443502    1.215263
  H     -2.245089    0.336814    2.447953
  H     -3.155917   -0.317465    1.046936
  H     -0.032523   -0.713212   -2.118547
  H      0.505981   -2.305628   -0.251659
  H      1.905758   -1.598399   -1.062923
  H      0.781933   -0.683206    1.620673
  H      2.256677   -1.621717    1.370734
  H      2.784448    0.785697    1.667277
  H      3.216549    0.250880    0.040103
  H      0.659568    1.713842    0.828060
  H      2.017146    2.415201   -0.055208
  H      0.161019    1.756093   -1.582377
  H      1.671583    0.913480   -1.930000

 Total Charge           Charge          ....    0
 Multiplicity           Mult            ....    1
 Number of Electrons    NEL             ....   78
 Basis Dimension        Dim             ....  270

ORBITAL ENERGIES
----------------

  NO   OCC          E(Eh)            E(eV)
   0   2.0000     -19.001814      -517.0656
   1   2.0000     -18.925441      -514.9874
   2   2.0000     -10.150435      -276.2074
   3   2.0000     -10.087102      -274.4840
   4   2.0000     -10.046110      -273.3685
   5   2.0000     -10.033643      -273.0293
   6   2.0000     -10.031681      -272.9759
   7   2.0000     -10.023297      -272.7478
   8   2.0000     -10.022750      -272.7329
   9   2.0000     -10.020343      -272.6674
  10   2.0000      -1.075577       -29.2679
  11   2.0000      -0.973645       -26.4942
  12   2.0000      -0.808370       -21.9969
  13   2.0000      -0.733154       -19.9501
  14   2.0000      -0.712855       -19.3978
  15   2.0000      -0.694667       -18.9029
  16   2.0000      -0.596703       -16.2371
  17   2.0000      -0.579045       -15.7566
  18   2.0000      -0.545733       -14.8502
  19   2.0000      -0.522493       -14.2178
  20   2.0000      -0.462855       -12.5949
  21   2.0000      -0.456132       -12.4120
  22   2.0000      -0.449605       -12.2344
  23   2.0000      -0.430686       -11.7196
  24   2.0000      -0.413591       -11.2544
  25   2.0000      -0.408913       -11.1271
  26   2.0000      -0.396983       -10.8025
  27   2.0000      -0.372136       -10.1263
  28   2.0000      -0.356718        -9.7068
  29   2.0000      -0.349595        -9.5130
  30   2.0000      -0.341155        -9.2833
  31   2.0000      -0.338124        -9.2008
  32   2.0000      -0.322995        -8.7891
  33   2.0000      -0.314422        -8.5558
  34   2.0000      -0.282671        -7.6919
  35   2.0000      -0.276248        -7.5171
  36   2.0000      -0.272903        -7.4261
  37   2.0000      -0.268207        -7.2983
  38   2.0000      -0.230782        -6.2799
  39   0.0000      -0.014023        -0.3816
  40   0.0000       0.057654         1.5688
  41   0.0000       0.085370         2.3230
  42   0.0000       0.091862         2.4997
  43   0.0000       0.108228         2.9450

MULLIKEN ATOMIC CHARGES
-----------------------
   0 C :   -0.307760
   1 O :   -0.158296
   2 C :    0.221983
   3 O :   -0.417937
   4 C :    0.109447
   5 C :   -0.392218
   6 C :   -0.261007
   7 C :   -0.338328
   8 C :   -0.263363
   9 C :   -0.403526
  10 H :    0.150866
  11 H :    0.148209
  12 H :    0.189920
  13 H :    0.173020
  14 H :    0.156481
  15 H :    0.161932
  16 H :    0.160788
  17 H :    0.149485
  18 H :    0.151431
  19 H :    0.145505
  20 H :    0.168691
  21 H :    0.146403
  22 H :    0.148826
  23 H :    0.159446
Sum of atomic charges:    0.0000000

LOEWDIN ATOMIC CHARGES
----------------------
   0 C :   -0.045869
   1 O :   -0.615040
   2 C :    0.362509
   3 O :   -0.441504
   4 C :   -0.153879
   5 C :   -0.268532
   6 C :   -0.298167
   7 C :   -0.299634
   8 C :   -0.299095
   9 C :   -0.275519
  10 H :    0.173214
  11 H :    0.173971
  12 H :    0.193959
  13 H :    0.185590
  14 H :    0.166729
  15 H :    0.161252
  16 H :    0.166041
  17 H :    0.154809
  18 H :    0.155372
  19 H :    0.153290
  20 H :    0.171807
  21 H :    0.153425
  22 H :    0.164113
  23 H :    0.161161

  Mayer bond orders larger than 0.100000
B(  0-C ,  1-O ) :   0.8360 B(  0-C , 10-H ) :   0.9605 B(  0-C , 11-H ) :   0.9674
B(  0-C , 12-H ) :   0.9679 B(  1-O ,  2-C ) :   1.0536 B(  2-C ,  3-O ) :   1.8538
B(  2-C ,  4-C ) :   0.9833 B(  4-C ,  5-C ) :   0.8801 B(  4-C ,  9-C ) :   0.9001
B(  4-C , 13-H ) :   0.9340 B(  5-C ,  6-C ) :   0.9061 B(  5-C , 14-H ) :   0.9435
B(  5-C , 15-H ) :   0.9833 B(  6-C ,  7-C ) :   0.8965 B(  6-C , 16-H ) :   0.9886
B(  6-C , 17-H ) :   0.9390 B(  7-C ,  8-C ) :   0.9007 B(  7-C , 18-H ) :   0.9492
B(  7-C , 19-H ) :   1.0053 B(  8-C ,  9-C ) :   0.8933 B(  8-C , 20-H ) :   0.9878
B(  8-C , 21-H ) :   0.9401 B(  9-C , 22-H ) :   0.9525 B(  9-C , 23-H ) :   0.9878

Dispersion correction           -0.008017622
FINAL SINGLE POINT ENERGY      -463.630066268349

DIPOLE MOMENT
-------------

Method             : SCF
Type of density    : Electron Density
Multiplicity       :   1
Irrep              :   0
Energy             :  -463.6355639778680597 Eh
Relativity type    :
Basis              : AO
                                X                 Y                 Z
Electronic contribution:     -6.630028355      -1.766246862      -2.457097953
Nuclear contribution   :      7.090206761       2.221213224       3.032969646
                        -----------------------------------------
Total Dipole Moment    :      0.460178406       0.454966362       0.575871692
                        -----------------------------------------
Magnitude (a.u.)       :      0.866248672
Magnitude (Debye)      :      2.201829142

Rotational constants in cm-1:             0.069110             0.033733             0.031127
Rotational constants in MHz :          2071.861915          1011.288346           933.173691

                             ****ORCA TERMINATED NORMALLY****
TOTAL RUN TIME: 0 days 0 hours 0 minutes 33 seconds 476 msec
