                         Program Version 6.0.0  -   RELEASE  -
|  1> ! r2scan-3c def2/J RI DEFGRID2 scfconv6 printgap
|  2> %output
|  3>     printlevel normal
|  4> end
|  5> %cpcm
|  6>     smd true
|  7>     smdsolvent "water"
|  8> end
|  9> * xyz 0 1
| 10> C -2.4768647304 0.4624428955 1.3930971572
| 11> O -1.2379540256 0.381448554 0.6819633266
| 12> C -1.1914072973 -0.3143775105 -0.4421686328
| 13> O -2.1533358172 -0.9048531616 -0.8982443317
| 14> C 0.1682999666 -0.3484509653 -1.104792039
| 15> C 1.0672705117 -1.379984864 -0.3990572506
| 16> C 1.6067264686 -0.8638547824 0.9299662895
| 17> C 2.3794451693 0.4335228543 0.717480894
| 18> C 1.4595841373 1.493715937 0.1220228294
| 19> C 0.8656712523 1.0148225328 -1.2000215094
| 20> H -2.9160303089 1.4435023069 1.2152625063
| 21> H -2.2450888471 0.3368143555 2.4479534936
| 22> H -3.1559166793 -0.3174649886 1.0469359701
| 23> H -0.0325228075 -0.713211522 -2.118547241
| 24> H 0.5059807198 -2.3056282107 -0.2516587264
| 25> H 1.9057576399 -1.5983993325 -1.0629232387
| 26> H 0.7819334784 -0.6832064054 1.6206728626
| 27> H 2.2566772305 -1.6217173891 1.3707341874
| 28> H 2.7844475317 0.7856969113 1.6672768732
| 29> H 3.2165487661 0.2508795962 0.040103266
| 30> H 0.6595684073 1.7138423874 0.8280603904
| 31> H 2.0171461165 2.4152009407 -0.0552077511
| 32> H 0.1610194323 1.7560926168 -1.5823772199
| 33> H 1.6715825977 0.9134795897 -1.9300003776
| 34> *
| 35>
| 36>                          ****END OF INPUT****

CARTESIAN COORDINATES (ANGSTROEM)
---------------------------------
  C     -2.476865    0.462443    1.393097
  O     -1.237954    0.381449    0.681963
  C     -1.191407   -0.314378   -0.442169
  O     -2.153336   -0.904853   -0.898244
  C      0.168300   -0.348451   -1.104792
  C      1.067271   -1.379985   -0.399057
  C      1.606726   -0.863855    0.929966
  C      2.379445    0.433523    0.717481
  C      1.459584    1.493716    0.122023
  C      0.865671    1.014823   -1.200022
  H     -2.916030    1.443502    1.215263
  H     -2.245089    0.336814    2.447953
  H     -3.155917   -0.317465    1.046936
  H     -0.032523   -0.713212   -2.118547
  H      0.505981   -2.305628   -0.251659
  H      1.905758   -1.598399   -1.062923
  H      0.781933   -0.683206    1.620673
  H      2.256677   -1.621717    1.370734
  H      2.784448    0.785697    1.667277
  H      3.216549    0.250880    0.040103
  H      0.659568    1.713842    0.828060
  H      2.017146    2.415201   -0.055208
  H      0.161019    1.756093   -1.582377
  H      1.671583    0.913480   -1.930000

 Total Charge           Charge          ....    0
 Multiplicity           Mult            ....    1
 Number of Electrons    NEL             ....   78
 Basis Dimension        Dim             ....  270

ORBITAL ENERGIES
----------------

  NO   OCC          E(Eh)            E(eV)
   0   2.0000     -19.003920      -517.1230
   1   2.0000     -18.939761      -515.3771
   2   2.0000     -10.159373      -276.4506
   3   2.0000     -10.075109      -274.1576
   4   2.0000     -10.041859      -273.2529
   5   2.0000     -10.025383      -272.8045
   6   2.0000     -10.022645      -272.7300
   7   2.0000     -10.014555      -272.5099
   8   2.0000     -10.013254      -272.4745
   9   2.0000     -10.012408      -272.4515
  10   2.0000      -1.079498       -29.3746
  11   2.0000      -0.985803       -26.8251
  12   2.0000      -0.801387       -21.8069
  13   2.0000      -0.727410       -19.7938
  14   2.0000      -0.704467       -19.1695
  15   2.0000      -0.687056       -18.6958
  16   2.0000      -0.590767       -16.0756
  17   2.0000      -0.570902       -15.5350
  18   2.0000      -0.538805       -14.6616
  19   2.0000      -0.518830       -14.1181
  20   2.0000      -0.461540       -12.5591
  21   2.0000      -0.454557       -12.3691
  22   2.0000      -0.445887       -12.1332
  23   2.0000      -0.433288       -11.7904
  24   2.0000      -0.405041       -11.0217
  25   2.0000      -0.402719       -10.9585
  26   2.0000      -0.392385       -10.6773
  27   2.0000      -0.369998       -10.0682
  28   2.0000      -0.350768        -9.5449
  29   2.0000      -0.340939        -9.2774
  30   2.0000      -0.336611        -9.1596
  31   2.0000      -0.331257        -9.0140
  32   2.0000      -0.320891        -8.7319
  33   2.0000      -0.305553        -8.3145
  34   2.0000      -0.279986        -7.6188
  35   2.0000      -0.273926        -7.4539
  36   2.0000      -0.267368        -7.2755
  37   2.0000      -0.263131        -7.1602
  38   2.0000      -0.243545        -6.6272
  39   0.0000      -0.020866        -0.5678
  40   0.0000       0.064464         1.7542
  41   0.0000       0.094279         2.5655
  42   0.0000       0.103068         2.8046
  43   0.0000       0.115725         3.1490

MULLIKEN ATOMIC CHARGES
-----------------------
   0 C :   -0.325872
   1 O :   -0.163362
   2 C :    0.259111
   3 O :   -0.507369
   4 C :    0.101084
   5 C :   -0.390396
   6 C :   -0.282542
   7 C :   -0.348307
   8 C :   -0.282075
   9 C :   -0.416482
  10 H :    0.178434
  11 H :    0.175925
  12 H :    0.184090
  13 H :    0.179994
  14 H :    0.160651
  15 H :    0.179187
  16 H :    0.165215
  17 H :    0.159236
  18 H :    0.159296
  19 H :    0.155720
  20 H :    0.166963
  21 H :    0.155484
  22 H :    0.161127
  23 H :    0.174890
Sum of atomic charges:    0.0000000

LOEWDIN ATOMIC CHARGES
----------------------
   0 C :   -0.040719
   1 O :   -0.608563
   2 C :    0.371024
   3 O :   -0.507126
   4 C :   -0.152754
   5 C :   -0.267544
   6 C :   -0.300059
   7 C :   -0.302552
   8 C :   -0.301550
   9 C :   -0.274823
  10 H :    0.183747
  11 H :    0.186022
  12 H :    0.191799
  13 H :    0.188109
  14 H :    0.167733
  15 H :    0.168029
  16 H :    0.166129
  17 H :    0.158021
  18 H :    0.156952
  19 H :    0.157034
  20 H :    0.169773
  21 H :    0.156295
  22 H :    0.167512
  23 H :    0.167512

  Mayer bond orders larger than 0.100000
B(  0-C ,  1-O ) :   0.8219 B(  0-C , 10-H ) :   0.9520 B(  0-C , 11-H ) :   0.9581
B(  0-C , 12-H ) :   0.9650 B(  1-O ,  2-C ) :   1.0894 B(  2-C ,  3-O ) :   1.7826
B(  2-C ,  4-C ) :   0.9820 B(  4-C ,  5-C ) :   0.8779 B(  4-C ,  9-C ) :   0.8954
B(  4-C , 13-H ) :   0.9288 B(  5-C ,  6-C ) :   0.9037 B(  5-C , 14-H ) :   0.9397
B(  5-C , 15-H ) :   0.9791 B(  6-C ,  7-C ) :   0.8954 B(  6-C , 16-H ) :   0.9905
B(  6-C , 17-H ) :   0.9368 B(  7-C ,  8-C ) :   0.8986 B(  7-C , 18-H ) :   0.9493
B(  7-C , 19-H ) :   1.0006 B(  8-C ,  9-C ) :   0.8971 B(  8-C , 20-H ) :   0.9893
B(  8-C , 21-H ) :   0.9385 B(  9-C , 22-H ) :   0.9513 B(  9-C , 23-H ) :   0.9817

Dispersion correction           -0.008017622
FINAL SINGLE POINT ENERGY      -463.634518839529

DIPOLE MOMENT
-------------

Method             : SCF
Type of density    : Electron Density
Multiplicity       :   1
Irrep              :   0
Energy             :  -463.6400165490486529 Eh
Relativity type    :
Basis              : AO
                                X                 Y                 Z
Electronic contribution:     -6.357286159      -1.574898899      -2.265719445
Nuclear contribution   :      7.090206761       2.221213224       3.032969646
                        -----------------------------------------
Total Dipole Moment    :      0.732920603       0.646314324       0.767250201
                        -----------------------------------------
Magnitude (a.u.)       :      1.242403995
Magnitude (Debye)      :      3.157939990

Rotational constants in cm-1:             0.069110             0.033733             0.031127
Rotational constants in MHz :          2071.861915          1011.288346           933.173691

                             ****ORCA TERMINATED NORMALLY****
TOTAL RUN TIME: 0 days 0 hours 0 minutes 44 seconds 901 msec
