                         Program Version 6.0.0  -   RELEASE  -
|  1> ! r2scan-3c def2/J RI DEFGRID2 scfconv6 printgap
|  2> %output
|  3>     printlevel normal
|  4> end
|  5> * xyz 0 1
|  6> C -1.6285894441 -0.1452821114 0.4581159424
|  7> C -0.6585134041 0.5170043997 -0.5154948968
|  8> C 0.6790445208 -0.2207759063 -0.6133241282
|  9> O 1.4846998615 -0.0892511111 0.5399101757
| 10> H -1.7960960804 -1.1838436349 0.1805711455
| 11> H -1.2474665276 -0.1126909761 1.4760832066
| 12> H -2.5839347986 0.3725785457 0.4427002388
| 13> H -0.4662739092 1.5458249711 -0.2057089554
| 14> H -1.101325419 0.5389401558 -1.5120190554
| 15> H 0.5036596114 -1.2836523084 -0.8304529749
| 16> H 1.2772947742 0.2017015415 -1.42434248
| 17> H 1.0087738921 -0.4608375553 1.2951548109
| 18> *
| 19>
| 20>                          ****END OF INPUT****

CARTESIAN COORDINATES (ANGSTROEM)
---------------------------------
  C     -1.628589   -0.145282    0.458116
  C     -0.658513    0.517004   -0.515495
  C      0.679045   -0.220776   -0.613324
  O      1.484700   -0.089251    0.539910
  H     -1.796096   -1.183844    0.180571
  H     -1.247467   -0.112691    1.476083
  H     -2.583935    0.372579    0.442700
  H     -0.466274    1.545825   -0.205709
  H     -1.101325    0.538940   -1.512019
  H      0.503660   -1.283652   -0.830453
  H      1.277295    0.201702   -1.424342
  H      1.008774   -0.460838    1.295155

 Total Charge           Charge          ....    0
 Multiplicity           Mult            ....    1
 Number of Electrons    NEL             ....   34
 Basis Dimension        Dim             ....  121

ORBITAL ENERGIES
----------------

  NO   OCC          E(Eh)            E(eV)
   0   2.0000     -18.945696      -515.5386
   1   2.0000     -10.072616      -274.0898
   2   2.0000     -10.028820      -272.8981
   3   2.0000     -10.025628      -272.8112
   4   2.0000      -0.982514       -26.7356
   5   2.0000      -0.746023       -20.3003
   6   2.0000      -0.648306       -17.6413
   7   2.0000      -0.560411       -15.2496
   8   2.0000      -0.474667       -12.9163
   9   2.0000      -0.431104       -11.7309
  10   2.0000      -0.405266       -11.0278
  11   2.0000      -0.389922       -10.6103
  12   2.0000      -0.348571        -9.4851
  13   2.0000      -0.326762        -8.8917
  14   2.0000      -0.316555        -8.6139
  15   2.0000      -0.287937        -7.8352
  16   2.0000      -0.234518        -6.3816
  17   0.0000       0.056809         1.5459
  18   0.0000       0.110006         2.9934
  19   0.0000       0.121340         3.3018
  20   0.0000       0.137053         3.7294
  21   0.0000       0.142326         3.8729

MULLIKEN ATOMIC CHARGES
-----------------------
   0 C :   -0.473771
   1 C :   -0.222772
   2 C :   -0.148580
   3 O :   -0.422917
   4 H :    0.146666
   5 H :    0.132397
   6 H :    0.151680
   7 H :    0.148615
   8 H :    0.132284
   9 H :    0.123818
  10 H :    0.140522
  11 H :    0.292057
Sum of atomic charges:   -0.0000000

LOEWDIN ATOMIC CHARGES
----------------------
   0 C :   -0.429058
   1 C :   -0.310494
   2 C :   -0.002015
   3 O :   -0.620532
   4 H :    0.151454
   5 H :    0.144785
   6 H :    0.154833
   7 H :    0.160531
   8 H :    0.156529
   9 H :    0.154151
  10 H :    0.175714
  11 H :    0.264101

  Mayer bond orders larger than 0.100000
B(  0-C ,  1-C ) :   0.8999 B(  0-C ,  4-H ) :   0.9803 B(  0-C ,  5-H ) :   0.9791
B(  0-C ,  6-H ) :   0.9698 B(  1-C ,  2-C ) :   0.9218 B(  1-C ,  7-H ) :   0.9663
B(  1-C ,  8-H ) :   0.9604 B(  2-C ,  3-O ) :   0.9277 B(  2-C ,  9-H ) :   0.9802
B(  2-C , 10-H ) :   0.9759 B(  3-O , 11-H ) :   0.8967

Dispersion correction           -0.002126339
FINAL SINGLE POINT ENERGY      -194.298640446352

DIPOLE MOMENT
-------------

Method             : SCF
Type of density    : Electron Density
Multiplicity       :   1
Irrep              :   0
Energy             :  -194.3035499739265788 Eh
Relativity type    :
Basis              : AO
                                X                 Y                 Z
Electronic contribution:      3.476662710       0.167841039       0.499105361
Nuclear contribution   :     -4.110894086      -0.359690574      -0.534240462
                        -----------------------------------------
Total Dipole Moment    :     -0.634231376      -0.191849535      -0.035135101
                        -----------------------------------------
Magnitude (a.u.)       :      0.663543637
Magnitude (Debye)      :      1.686593889

Rotational constants in cm-1:             0.495578             0.163722             0.141051
Rotational constants in MHz :         14857.058449          4908.250327          4228.603302

                             ****ORCA TERMINATED NORMALLY****
TOTAL RUN TIME: 0 days 0 hours 0 minutes 12 seconds 339 msec
