                         Program Version 6.0.0  -   RELEASE  -
|  1> ! r2scan-3c def2/J RI DEFGRID2 scfconv6 printgap
|  2> %output
|  3>     printlevel normal
|  4> end
|  5> * xyz 0 1
|  6> C -4.0536573436 -0.3905969144 -0.0031451688
|  7> C -3.9192072596 0.9899890665 -0.00243664
|  8> C -2.6587240071 1.5588778045 -0.0005260749
|  9> C -1.5171958245 0.759681378 0.0006194948
| 10> C -1.653110937 -0.6354995801 0.000142829
| 11> C -2.9274755305 -1.194662039 -0.001732155
| 12> C -0.4752604345 -1.5317698219 0.0015869783
| 13> O -0.6129197819 -2.7586938699 0.0032996637
| 14> C 0.8281073666 -0.8921311174 0.0008409922
| 15> C 1.9862655551 -1.6812912763 7.64915e-05
| 16> C 3.2380343451 -1.1222422355 -0.0012004958
| 17> C 3.3983902149 0.27667237 -0.0016016317
| 18> C 2.2389584163 1.071913005 -0.0003473655
| 19> C 0.9764430087 0.5086234781 0.0007920591
| 20> C -0.1928292173 1.4057685554 0.0020803091
| 21> O -0.0724017219 2.6270326473 0.0039945177
| 22> N 4.6184857039 0.8386827573 -0.0026293928
| 23> H -5.0342512118 -0.8400796841 -0.0047736336
| 24> H -4.7943822207 1.6203811045 -0.0033855912
| 25> H -2.5273693009 2.6309163866 6.30417e-05
| 26> H -3.0071024167 -2.271898558 -0.0021226156
| 27> H 1.8581879072 -2.7538275763 0.0001980921
| 28> H 4.1126937248 -1.7537056383 -0.0020228865
| 29> H 2.316233715 2.1495036858 -0.0003418274
| 30> H 4.7130170547 1.838287748 -0.004244978
| 31> H 5.4408304768 0.2624287356 -0.0048157014
| 32> *
| 33>
| 34>                          ****END OF INPUT****

CARTESIAN COORDINATES (ANGSTROEM)
---------------------------------
  C     -4.053657   -0.390597   -0.003145
  C     -3.919207    0.989989   -0.002437
  C     -2.658724    1.558878   -0.000526
  C     -1.517196    0.759681    0.000619
  C     -1.653111   -0.635500    0.000143
  C     -2.927476   -1.194662   -0.001732
  C     -0.475260   -1.531770    0.001587
  O     -0.612920   -2.758694    0.003300
  C      0.828107   -0.892131    0.000841
  C      1.986266   -1.681291    0.000076
  C      3.238034   -1.122242   -0.001200
  C      3.398390    0.276672   -0.001602
  C      2.238958    1.071913   -0.000347
  C      0.976443    0.508623    0.000792
  C     -0.192829    1.405769    0.002080
  O     -0.072402    2.627033    0.003995
  N      4.618486    0.838683   -0.002629
  H     -5.034251   -0.840080   -0.004774
  H     -4.794382    1.620381   -0.003386
  H     -2.527369    2.630916    0.000063
  H     -3.007102   -2.271899   -0.002123
  H      1.858188   -2.753828    0.000198
  H      4.112694   -1.753706   -0.002023
  H      2.316234    2.149504   -0.000342
  H      4.713017    1.838288   -0.004245
  H      5.440830    0.262429   -0.004816

 Total Charge           Charge          ....    0
 Multiplicity           Mult            ....    1
 Number of Electrons    NEL             ....  116
 Basis Dimension        Dim             ....  383

ORBITAL ENERGIES
----------------

  NO   OCC          E(Eh)            E(eV)
   0   2.0000     -18.941444      -515.4229
   1   2.0000     -18.929504      -515.0980
   2   2.0000     -14.200455      -386.4140
   3   2.0000     -10.124576      -275.5037
   4   2.0000     -10.114750      -275.2364
   5   2.0000     -10.105129      -274.9745
   6   2.0000     -10.060067      -273.7483
   7   2.0000     -10.056751      -273.6581
   8   2.0000     -10.056138      -273.6414
   9   2.0000     -10.052091      -273.5313
  10   2.0000     -10.051654      -273.5194
  11   2.0000     -10.051281      -273.5093
  12   2.0000     -10.051126      -273.5050
  13   2.0000     -10.049026      -273.4479
  14   2.0000     -10.048133      -273.4236
  15   2.0000     -10.046992      -273.3926
  16   2.0000     -10.046969      -273.3919
  17   2.0000      -1.006284       -27.3824
  18   2.0000      -0.992135       -26.9974
  19   2.0000      -0.926859       -25.2211
  20   2.0000      -0.848466       -23.0879
  21   2.0000      -0.832396       -22.6506
  22   2.0000      -0.767210       -20.8768
  23   2.0000      -0.738212       -20.0878
  24   2.0000      -0.734631       -19.9903
  25   2.0000      -0.720518       -19.6063
  26   2.0000      -0.650467       -17.7001
  27   2.0000      -0.631129       -17.1739
  28   2.0000      -0.605501       -16.4765
  29   2.0000      -0.583819       -15.8865
  30   2.0000      -0.548301       -14.9200
  31   2.0000      -0.534200       -14.5363
  32   2.0000      -0.525791       -14.3075
  33   2.0000      -0.507358       -13.8059
  34   2.0000      -0.476322       -12.9614
  35   2.0000      -0.454183       -12.3590
  36   2.0000      -0.446171       -12.1409
  37   2.0000      -0.436352       -11.8737
  38   2.0000      -0.414452       -11.2778
  39   2.0000      -0.408596       -11.1185
  40   2.0000      -0.405037       -11.0216
  41   2.0000      -0.401373       -10.9219
  42   2.0000      -0.397958       -10.8290
  43   2.0000      -0.389086       -10.5876
  44   2.0000      -0.380570       -10.3558
  45   2.0000      -0.372180       -10.1275
  46   2.0000      -0.368531       -10.0282
  47   2.0000      -0.344022        -9.3613
  48   2.0000      -0.338234        -9.2038
  49   2.0000      -0.331295        -9.0150
  50   2.0000      -0.318711        -8.6726
  51   2.0000      -0.300243        -8.1700
  52   2.0000      -0.257011        -6.9936
  53   2.0000      -0.252744        -6.8775
  54   2.0000      -0.247217        -6.7271
  55   2.0000      -0.230684        -6.2772
  56   2.0000      -0.217182        -5.9098
  57   2.0000      -0.206930        -5.6308
  58   0.0000      -0.125359        -3.4112
  59   0.0000      -0.081094        -2.2067
  60   0.0000      -0.043230        -1.1764
  61   0.0000      -0.033920        -0.9230
  62   0.0000       0.029935         0.8146

MULLIKEN ATOMIC CHARGES
-----------------------
   0 C :   -0.128665
   1 C :   -0.130768
   2 C :   -0.217051
   3 C :    0.138551
   4 C :    0.162664
   5 C :   -0.206726
   6 C :    0.033248
   7 O :   -0.362910
   8 C :    0.123976
   9 C :   -0.242832
  10 C :   -0.364031
  11 C :    0.669652
  12 C :   -0.513348
  13 C :    0.177316
  14 C :    0.014492
  15 O :   -0.355084
  16 N :   -0.474430
  17 H :    0.148889
  18 H :    0.148684
  19 H :    0.180937
  20 H :    0.184158
  21 H :    0.181612
  22 H :    0.141297
  23 H :    0.172502
  24 H :    0.261974
  25 H :    0.255894
Sum of atomic charges:   -0.0000000

LOEWDIN ATOMIC CHARGES
----------------------
   0 C :   -0.139141
   1 C :   -0.144372
   2 C :   -0.098523
   3 C :   -0.038244
   4 C :   -0.028418
   5 C :   -0.100857
   6 C :    0.260013
   7 O :   -0.492091
   8 C :   -0.067931
   9 C :   -0.082514
  10 C :   -0.141530
  11 C :    0.149640
  12 C :   -0.096793
  13 C :   -0.021901
  14 C :    0.273320
  15 O :   -0.474942
  16 N :   -0.555853
  17 H :    0.170495
  18 H :    0.170388
  19 H :    0.191281
  20 H :    0.192692
  21 H :    0.193050
  22 H :    0.171283
  23 H :    0.192931
  24 H :    0.259791
  25 H :    0.258226

  Mayer bond orders larger than 0.100000
B(  0-C ,  1-C ) :   1.3282 B(  0-C ,  5-C ) :   1.3447 B(  0-C , 17-H ) :   0.9558
B(  1-C ,  2-C ) :   1.3544 B(  1-C , 18-H ) :   0.9552 B(  2-C ,  3-C ) :   1.3629
B(  2-C , 15-O ) :   0.1034 B(  2-C , 19-H ) :   0.9630 B(  3-C ,  4-C ) :   1.5014
B(  3-C , 14-C ) :   0.8289 B(  3-C , 15-O ) :  -0.1982 B(  4-C ,  5-C ) :   1.3691
B(  4-C ,  6-C ) :   0.8468 B(  4-C ,  7-O ) :  -0.2114 B(  4-C , 14-C ) :  -0.1034
B(  5-C ,  7-O ) :   0.1045 B(  5-C , 20-H ) :   0.9592 B(  6-C ,  7-O ) :   2.0729
B(  6-C ,  8-C ) :   0.8983 B(  6-C , 13-C ) :  -0.1180 B(  7-O ,  8-C ) :  -0.2179
B(  7-O ,  9-C ) :   0.1076 B(  8-C ,  9-C ) :   1.3639 B(  8-C , 13-C ) :   1.4438
B(  8-C , 14-C ) :  -0.1100 B(  9-C , 10-C ) :   1.4067 B(  9-C , 21-H ) :   0.9651
B( 10-C , 11-C ) :   1.1560 B( 10-C , 22-H ) :   0.9410 B( 11-C , 12-C ) :   1.1066
B( 11-C , 16-N ) :   0.9688 B( 12-C , 13-C ) :   1.4520 B( 12-C , 15-O ) :   0.1222
B( 12-C , 16-N ) :   0.1181 B( 12-C , 23-H ) :   0.9653 B( 13-C , 14-C ) :   0.8408
B( 13-C , 15-O ) :  -0.2129 B( 14-C , 15-O ) :   2.0793 B( 16-N , 24-H ) :   0.9296
B( 16-N , 25-H ) :   0.9298

Dispersion correction           -0.012353447
FINAL SINGLE POINT ENERGY      -743.982458403611

DIPOLE MOMENT
-------------

Method             : SCF
Type of density    : Electron Density
Multiplicity       :   1
Irrep              :   0
Energy             :  -743.9787829586441603 Eh
Relativity type    :
Basis              : AO
                                X                 Y                 Z
Electronic contribution:     -1.572369470      -0.363979943       0.012913573
Nuclear contribution   :      2.902795783       0.830133671      -0.020026606
                        -----------------------------------------
Total Dipole Moment    :      1.330426313       0.466153728      -0.007113033
                        -----------------------------------------
Magnitude (a.u.)       :      1.409746101
Magnitude (Debye)      :      3.583289819

Rotational constants in cm-1:             0.035375             0.011448             0.008649
Rotational constants in MHz :          1060.515100           343.195496           259.287333

                             ****ORCA TERMINATED NORMALLY****
TOTAL RUN TIME: 0 days 0 hours 1 minutes 6 seconds 966 msec
