                         Program Version 6.0.0  -   RELEASE  -
|  1> ! r2scan-3c def2/J RI DEFGRID2 scfconv6 printgap
|  2> %output
|  3>     printlevel normal
|  4> end
|  5> %cpcm
|  6>     smd true
|  7>     smdsolvent "water"
|  8> end
|  9> * xyz 0 1
| 10> C -4.0536573436 -0.3905969144 -0.0031451688
| 11> C -3.9192072596 0.9899890665 -0.00243664
| 12> C -2.6587240071 1.5588778045 -0.0005260749
| 13> C -1.5171958245 0.759681378 0.0006194948
| 14> C -1.653110937 -0.6354995801 0.000142829
| 15> C -2.9274755305 -1.194662039 -0.001732155
| 16> C -0.4752604345 -1.5317698219 0.0015869783
| 17> O -0.6129197819 -2.7586938699 0.0032996637
| 18> C 0.8281073666 -0.8921311174 0.0008409922
| 19> C 1.9862655551 -1.6812912763 7.64915e-05
| 20> C 3.2380343451 -1.1222422355 -0.0012004958
| 21> C 3.3983902149 0.27667237 -0.0016016317
| 22> C 2.2389584163 1.071913005 -0.0003473655
| 23> C 0.9764430087 0.5086234781 0.0007920591
| 24> C -0.1928292173 1.4057685554 0.0020803091
| 25> O -0.0724017219 2.6270326473 0.0039945177
| 26> N 4.6184857039 0.8386827573 -0.0026293928
| 27> H -5.0342512118 -0.8400796841 -0.0047736336
| 28> H -4.7943822207 1.6203811045 -0.0033855912
| 29> H -2.5273693009 2.6309163866 6.30417e-05
| 30> H -3.0071024167 -2.271898558 -0.0021226156
| 31> H 1.8581879072 -2.7538275763 0.0001980921
| 32> H 4.1126937248 -1.7537056383 -0.0020228865
| 33> H 2.316233715 2.1495036858 -0.0003418274
| 34> H 4.7130170547 1.838287748 -0.004244978
| 35> H 5.4408304768 0.2624287356 -0.0048157014
| 36> *
| 37>
| 38>                          ****END OF INPUT****

CARTESIAN COORDINATES (ANGSTROEM)
---------------------------------
  C     -4.053657   -0.390597   -0.003145
  C     -3.919207    0.989989   -0.002437
  C     -2.658724    1.558878   -0.000526
  C     -1.517196    0.759681    0.000619
  C     -1.653111   -0.635500    0.000143
  C     -2.927476   -1.194662   -0.001732
  C     -0.475260   -1.531770    0.001587
  O     -0.612920   -2.758694    0.003300
  C      0.828107   -0.892131    0.000841
  C      1.986266   -1.681291    0.000076
  C      3.238034   -1.122242   -0.001200
  C      3.398390    0.276672   -0.001602
  C      2.238958    1.071913   -0.000347
  C      0.976443    0.508623    0.000792
  C     -0.192829    1.405769    0.002080
  O     -0.072402    2.627033    0.003995
  N      4.618486    0.838683   -0.002629
  H     -5.034251   -0.840080   -0.004774
  H     -4.794382    1.620381   -0.003386
  H     -2.527369    2.630916    0.000063
  H     -3.007102   -2.271899   -0.002123
  H      1.858188   -2.753828    0.000198
  H      4.112694   -1.753706   -0.002023
  H      2.316234    2.149504   -0.000342
  H      4.713017    1.838288   -0.004245
  H      5.440830    0.262429   -0.004816

 Total Charge           Charge          ....    0
 Multiplicity           Mult            ....    1
 Number of Electrons    NEL             ....  116
 Basis Dimension        Dim             ....  383

ORBITAL ENERGIES
----------------

  NO   OCC          E(Eh)            E(eV)
   0   2.0000     -18.953638      -515.7547
   1   2.0000     -18.942044      -515.4392
   2   2.0000     -14.181037      -385.8856
   3   2.0000     -10.135640      -275.8048
   4   2.0000     -10.125056      -275.5168
   5   2.0000     -10.098579      -274.7963
   6   2.0000     -10.061381      -273.7841
   7   2.0000     -10.060782      -273.7678
   8   2.0000     -10.060386      -273.7570
   9   2.0000     -10.050799      -273.4961
  10   2.0000     -10.050440      -273.4864
  11   2.0000     -10.049426      -273.4588
  12   2.0000     -10.049033      -273.4481
  13   2.0000     -10.048912      -273.4448
  14   2.0000     -10.047256      -273.3997
  15   2.0000     -10.046021      -273.3661
  16   2.0000     -10.043346      -273.2933
  17   2.0000      -1.020152       -27.7597
  18   2.0000      -1.007244       -27.4085
  19   2.0000      -0.910064       -24.7641
  20   2.0000      -0.851251       -23.1637
  21   2.0000      -0.830773       -22.6065
  22   2.0000      -0.766524       -20.8582
  23   2.0000      -0.739006       -20.1094
  24   2.0000      -0.735867       -20.0240
  25   2.0000      -0.717388       -19.5211
  26   2.0000      -0.652348       -17.7513
  27   2.0000      -0.627752       -17.0820
  28   2.0000      -0.602966       -16.4075
  29   2.0000      -0.580066       -15.7844
  30   2.0000      -0.548431       -14.9236
  31   2.0000      -0.528767       -14.3885
  32   2.0000      -0.521938       -14.2027
  33   2.0000      -0.494291       -13.4503
  34   2.0000      -0.473705       -12.8902
  35   2.0000      -0.458825       -12.4853
  36   2.0000      -0.443150       -12.0587
  37   2.0000      -0.430723       -11.7206
  38   2.0000      -0.420816       -11.4510
  39   2.0000      -0.416898       -11.3444
  40   2.0000      -0.408273       -11.1097
  41   2.0000      -0.405430       -11.0323
  42   2.0000      -0.403495       -10.9797
  43   2.0000      -0.390707       -10.6317
  44   2.0000      -0.381599       -10.3839
  45   2.0000      -0.376090       -10.2339
  46   2.0000      -0.369810       -10.0630
  47   2.0000      -0.346743        -9.4354
  48   2.0000      -0.337388        -9.1808
  49   2.0000      -0.328976        -8.9519
  50   2.0000      -0.319808        -8.7024
  51   2.0000      -0.300457        -8.1759
  52   2.0000      -0.261338        -7.1114
  53   2.0000      -0.254321        -6.9204
  54   2.0000      -0.251236        -6.8365
  55   2.0000      -0.245897        -6.6912
  56   2.0000      -0.232042        -6.3142
  57   2.0000      -0.201377        -5.4797
  58   0.0000      -0.132729        -3.6117
  59   0.0000      -0.083545        -2.2734
  60   0.0000      -0.043245        -1.1768
  61   0.0000      -0.033680        -0.9165
  62   0.0000       0.025498         0.6938

MULLIKEN ATOMIC CHARGES
-----------------------
   0 C :   -0.160967
   1 C :   -0.166690
   2 C :   -0.224892
   3 C :    0.141111
   4 C :    0.170786
   5 C :   -0.221580
   6 C :    0.069713
   7 O :   -0.459175
   8 C :    0.111529
   9 C :   -0.249107
  10 C :   -0.388157
  11 C :    0.558775
  12 C :   -0.469254
  13 C :    0.191043
  14 C :    0.061491
  15 O :   -0.432618
  16 N :   -0.513367
  17 H :    0.186001
  18 H :    0.185922
  19 H :    0.196527
  20 H :    0.196971
  21 H :    0.193960
  22 H :    0.186101
  23 H :    0.198177
  24 H :    0.320229
  25 H :    0.317471
Sum of atomic charges:   -0.0000000

LOEWDIN ATOMIC CHARGES
----------------------
   0 C :   -0.130533
   1 C :   -0.137727
   2 C :   -0.100490
   3 C :   -0.041908
   4 C :   -0.032081
   5 C :   -0.108115
   6 C :    0.260744
   7 O :   -0.571840
   8 C :   -0.082419
   9 C :   -0.094193
  10 C :   -0.131342
  11 C :    0.153254
  12 C :   -0.088989
  13 C :   -0.029215
  14 C :    0.283239
  15 O :   -0.532974
  16 N :   -0.513341
  17 H :    0.184737
  18 H :    0.184668
  19 H :    0.195581
  20 H :    0.195357
  21 H :    0.195217
  22 H :    0.189859
  23 H :    0.201688
  24 H :    0.275509
  25 H :    0.275314

  Mayer bond orders larger than 0.100000
B(  0-C ,  1-C ) :   1.3195 B(  0-C ,  5-C ) :   1.3374 B(  0-C , 17-H ) :   0.9596
B(  1-C ,  2-C ) :   1.3450 B(  1-C , 18-H ) :   0.9599 B(  2-C ,  3-C ) :   1.3081
B(  2-C , 15-O ) :   0.1002 B(  2-C , 19-H ) :   0.9732 B(  3-C ,  4-C ) :   1.4904
B(  3-C , 14-C ) :   0.8325 B(  3-C , 15-O ) :  -0.1973 B(  4-C ,  5-C ) :   1.3084
B(  4-C ,  6-C ) :   0.8518 B(  4-C ,  7-O ) :  -0.2145 B(  4-C , 14-C ) :  -0.1002
B(  5-C ,  7-O ) :   0.1011 B(  5-C , 20-H ) :   0.9711 B(  6-C ,  7-O ) :   2.0238
B(  6-C ,  8-C ) :   0.9264 B(  6-C , 13-C ) :  -0.1171 B(  7-O ,  8-C ) :  -0.2146
B(  7-O ,  9-C ) :   0.1015 B(  8-C ,  9-C ) :   1.2685 B(  8-C , 13-C ) :   1.4034
B(  8-C , 14-C ) :  -0.1039 B(  9-C , 10-C ) :   1.4094 B(  9-C , 21-H ) :   0.9802
B( 10-C , 11-C ) :   1.1527 B( 10-C , 22-H ) :   0.9634 B( 11-C , 12-C ) :   1.1833
B( 11-C , 16-N ) :   0.9995 B( 12-C , 13-C ) :   1.3851 B( 12-C , 15-O ) :   0.1177
B( 12-C , 16-N ) :   0.1076 B( 12-C , 23-H ) :   0.9718 B( 13-C , 14-C ) :   0.8604
B( 13-C , 15-O ) :  -0.2078 B( 14-C , 15-O ) :   2.0464 B( 16-N , 24-H ) :   0.9016
B( 16-N , 25-H ) :   0.9017

Dispersion correction           -0.012353447
FINAL SINGLE POINT ENERGY      -744.002839160630

DIPOLE MOMENT
-------------

Method             : SCF
Type of density    : Electron Density
Multiplicity       :   1
Irrep              :   0
Energy             :  -743.9991637156633715 Eh
Relativity type    :
Basis              : AO
                                X                 Y                 Z
Electronic contribution:     -0.840388925       0.023474423       0.009459796
Nuclear contribution   :      2.902795783       0.830133671      -0.020026606
                        -----------------------------------------
Total Dipole Moment    :      2.062406858       0.853608094      -0.010566811
                        -----------------------------------------
Magnitude (a.u.)       :      2.232102256
Magnitude (Debye)      :      5.673553051

Rotational constants in cm-1:             0.035375             0.011448             0.008649
Rotational constants in MHz :          1060.515100           343.195496           259.287333

                             ****ORCA TERMINATED NORMALLY****
TOTAL RUN TIME: 0 days 0 hours 1 minutes 25 seconds 378 msec
