                         Program Version 6.0.0  -   RELEASE  -
|  1> ! pbe def2-sv(p) def2/J RI DEFGRID1 loosescf d4 GCP(DFT/SV(P)) printgap
|  2> %output
|  3>     printlevel normal
|  4> end
|  5> * xyz 0 1
|  6> C -2.365317205 -0.9694430792 0.3812577614
|  7> C -1.0729409281 -0.2584017253 0.8026158045
|  8> H -1.2606399955 0.2095212542 1.7773658881
|  9> C -0.6824170267 0.849615235 -0.1796888188
| 10> H -0.7381958165 0.4735781256 -1.2123868341
| 11> C 0.7568507789 1.3029730992 0.1233754882
| 12> H 0.7889773363 1.6526196981 1.1629322309
| 13> C 1.7473808057 0.1346275065 -0.0445343779
| 14> H 2.1997242524 0.1728842402 -1.041146839
| 15> C 1.000349388 -1.2186943226 0.0512684788
| 16> H 1.7035478903 -1.9800111445 0.4303437658
| 17> O -0.0177771811 -1.1981347774 1.0102937368
| 18> O 0.5679703201 -1.5717505426 -1.227585824
| 19> O 2.8226828167 0.204750208 0.8535392331
| 20> O 1.0848508128 2.4346471319 -0.6444973233
| 21> O -1.586022439 1.9144355905 -0.007949087
| 22> O -2.1691499131 -1.6416687843 -0.844558937
| 23> H -3.1415213674 -0.2025319993 0.2913561972
| 24> H -2.6337355587 -1.6840834165 1.1680227037
| 25> H -0.3168361966 -1.9831189701 -1.1726269835
| 26> H 2.5014345526 0.1088852332 1.7620108552
| 27> H 1.246483598 2.175749449 -1.5634790627
| 28> H -1.1533663883 2.7259309821 -0.3214066437
| 29> H -3.0063116829 -2.029324094 -1.1345367235
| 30> *
| 31>
| 32>                          ****END OF INPUT****

CARTESIAN COORDINATES (ANGSTROEM)
---------------------------------
  C     -2.365317   -0.969443    0.381258
  C     -1.072941   -0.258402    0.802616
  H     -1.260640    0.209521    1.777366
  C     -0.682417    0.849615   -0.179689
  H     -0.738196    0.473578   -1.212387
  C      0.756851    1.302973    0.123375
  H      0.788977    1.652620    1.162932
  C      1.747381    0.134628   -0.044534
  H      2.199724    0.172884   -1.041147
  C      1.000349   -1.218694    0.051268
  H      1.703548   -1.980011    0.430344
  O     -0.017777   -1.198135    1.010294
  O      0.567970   -1.571751   -1.227586
  O      2.822683    0.204750    0.853539
  O      1.084851    2.434647   -0.644497
  O     -1.586022    1.914436   -0.007949
  O     -2.169150   -1.641669   -0.844559
  H     -3.141521   -0.202532    0.291356
  H     -2.633736   -1.684083    1.168023
  H     -0.316836   -1.983119   -1.172627
  H      2.501435    0.108885    1.762011
  H      1.246484    2.175749   -1.563479
  H     -1.153366    2.725931   -0.321407
  H     -3.006312   -2.029324   -1.134537

 Total Charge           Charge          ....    0
 Multiplicity           Mult            ....    1
 Number of Electrons    NEL             ....   96
 Basis Dimension        Dim             ....  192

ORBITAL ENERGIES
----------------

  NO   OCC          E(Eh)            E(eV)
   0   2.0000     -18.780040      -511.0309
   1   2.0000     -18.772513      -510.8260
   2   2.0000     -18.762069      -510.5419
   3   2.0000     -18.747456      -510.1442
   4   2.0000     -18.746638      -510.1219
   5   2.0000     -18.740151      -509.9454
   6   2.0000      -9.977262      -271.4951
   7   2.0000      -9.950895      -270.7776
   8   2.0000      -9.944076      -270.5921
   9   2.0000      -9.943722      -270.5824
  10   2.0000      -9.937987      -270.4264
  11   2.0000      -9.937048      -270.4008
  12   2.0000      -0.980135       -26.6708
  13   2.0000      -0.948387       -25.8069
  14   2.0000      -0.946163       -25.7464
  15   2.0000      -0.925129       -25.1741
  16   2.0000      -0.915798       -24.9201
  17   2.0000      -0.898500       -24.4494
  18   2.0000      -0.708580       -19.2814
  19   2.0000      -0.688568       -18.7369
  20   2.0000      -0.625549       -17.0220
  21   2.0000      -0.583758       -15.8849
  22   2.0000      -0.572455       -15.5773
  23   2.0000      -0.525873       -14.3097
  24   2.0000      -0.503314       -13.6959
  25   2.0000      -0.485693       -13.2164
  26   2.0000      -0.476107       -12.9555
  27   2.0000      -0.447903       -12.1881
  28   2.0000      -0.445535       -12.1236
  29   2.0000      -0.431631       -11.7453
  30   2.0000      -0.420106       -11.4317
  31   2.0000      -0.407004       -11.0752
  32   2.0000      -0.396846       -10.7987
  33   2.0000      -0.372230       -10.1289
  34   2.0000      -0.361562        -9.8386
  35   2.0000      -0.352133        -9.5820
  36   2.0000      -0.326307        -8.8793
  37   2.0000      -0.322039        -8.7631
  38   2.0000      -0.304138        -8.2760
  39   2.0000      -0.300264        -8.1706
  40   2.0000      -0.287957        -7.8357
  41   2.0000      -0.268449        -7.3049
  42   2.0000      -0.252023        -6.8579
  43   2.0000      -0.243724        -6.6321
  44   2.0000      -0.236484        -6.4351
  45   2.0000      -0.226127        -6.1532
  46   2.0000      -0.207802        -5.6546
  47   2.0000      -0.198889        -5.4121
  48   0.0000       0.009064         0.2467
  49   0.0000       0.020310         0.5527
  50   0.0000       0.037962         1.0330
  51   0.0000       0.053957         1.4682
  52   0.0000       0.063018         1.7148

MULLIKEN ATOMIC CHARGES
-----------------------
   0 C :    0.072136
   1 C :    0.029797
   2 H :    0.074800
   3 C :    0.042531
   4 H :    0.055661
   5 C :    0.042738
   6 H :    0.048070
   7 C :    0.108697
   8 H :    0.064928
   9 C :    0.141511
  10 H :    0.061577
  11 O :   -0.315859
  12 O :   -0.425530
  13 O :   -0.417474
  14 O :   -0.419630
  15 O :   -0.423083
  16 O :   -0.446095
  17 H :    0.093795
  18 H :    0.083816
  19 H :    0.306570
  20 H :    0.297541
  21 H :    0.303984
  22 H :    0.301300
  23 H :    0.318220
Sum of atomic charges:    0.0000000

LOEWDIN ATOMIC CHARGES
----------------------
   0 C :   -0.127895
   1 C :   -0.058258
   2 H :    0.121426
   3 C :   -0.091110
   4 H :    0.103460
   5 C :   -0.076337
   6 H :    0.115086
   7 C :   -0.084377
   8 H :    0.120837
   9 C :   -0.006217
  10 H :    0.095598
  11 O :   -0.145308
  12 O :   -0.333471
  13 O :   -0.310755
  14 O :   -0.308564
  15 O :   -0.327358
  16 O :   -0.325743
  17 H :    0.115512
  18 H :    0.104664
  19 H :    0.271093
  20 H :    0.282690
  21 H :    0.286792
  22 H :    0.280819
  23 H :    0.297416

  Mayer bond orders larger than 0.100000
B(  0-C ,  1-C ) :   1.0810 B(  0-C , 16-O ) :   1.0385 B(  0-C , 17-H ) :   0.9073
B(  0-C , 18-H ) :   0.9122 B(  1-C ,  2-H ) :   0.8781 B(  1-C ,  3-C ) :   0.9788
B(  1-C , 11-O ) :   0.9821 B(  3-C ,  4-H ) :   0.8580 B(  3-C ,  5-C ) :   1.0443
B(  3-C , 15-O ) :   1.0643 B(  5-C ,  6-H ) :   0.8521 B(  5-C ,  7-C ) :   0.9804
B(  5-C , 14-O ) :   1.0245 B(  7-C ,  8-H ) :   0.8664 B(  7-C ,  9-C ) :   0.9833
B(  7-C , 13-O ) :   1.0440 B(  9-C , 10-H ) :   0.8976 B(  9-C , 11-O ) :   1.0675
B(  9-C , 12-O ) :   1.0784 B( 12-O , 19-H ) :   0.7824 B( 13-O , 20-H ) :   0.8489
B( 14-O , 21-H ) :   0.8466 B( 15-O , 22-H ) :   0.8232 B( 16-O , 19-H ) :   0.1129
B( 16-O , 23-H ) :   0.8403

Dispersion correction           -0.025032171
FINAL SINGLE POINT ENERGY      -685.694684277340

DIPOLE MOMENT
-------------

Method             : SCF
Type of density    : Electron Density
Multiplicity       :   1
Irrep              :   0
Energy             :  -685.8271884705956154 Eh
Relativity type    :
Basis              : AO
                                X                 Y                 Z
Electronic contribution:      2.349052666       0.047148715      -0.198627879
Nuclear contribution   :     -3.564432373      -0.335540239       0.124641963
                        -----------------------------------------
Total Dipole Moment    :     -1.215379707      -0.288391525      -0.073985917
                        -----------------------------------------
Magnitude (a.u.)       :      1.251315875
Magnitude (Debye)      :      3.180592188

Rotational constants in cm-1:             0.041865             0.028359             0.020903
Rotational constants in MHz :          1255.069029           850.170306           626.645573

                             ****ORCA TERMINATED NORMALLY****
TOTAL RUN TIME: 0 days 0 hours 0 minutes 12 seconds 342 msec
