                         Program Version 6.0.0  -   RELEASE  -
|  1> ! pbe def2-sv(p) def2/J RI DEFGRID1 loosescf d4 GCP(DFT/SV(P)) printgap
|  2> %output
|  3>     printlevel normal
|  4> end
|  5> * xyz 0 1
|  6> C -2.4782851096 -0.795523635 -0.0247833767
|  7> C -1.1021960969 -0.5308592446 0.5856178936
|  8> H -1.099077016 -0.8754251959 1.6323666253
|  9> C -0.74105149 0.9809338953 0.58933274
| 10> H -1.6236059306 1.5562319752 0.2887424387
| 11> C 0.3875240996 1.2523845397 -0.4139970845
| 12> H 0.7191021458 2.2926765366 -0.2921572866
| 13> C 1.6051719054 0.3562974078 -0.0839721368
| 14> H 2.2541107258 0.3452574283 -0.9689515675
| 15> C 1.1546063752 -1.0980842938 0.2245696071
| 16> H 1.2566753065 -1.2692615993 1.3119669427
| 17> O -0.1788651857 -1.3038557724 -0.1637119329
| 18> O 1.9410306304 -2.0489838057 -0.4012732968
| 19> O 2.2645458911 0.9271653625 1.0238142678
| 20> O -0.0131705184 1.1019669123 -1.748604944
| 21> O -0.4078876027 1.4255608081 1.8818682581
| 22> O -2.5250656911 -0.198728016 -1.3015079551
| 23> H -3.241484225 -0.3690973838 0.6360603859
| 24> H -2.6123962079 -1.8799509078 -0.0979775238
| 25> H 1.6330673984 -2.1635159155 -1.3137343534
| 26> H 3.1407596846 0.5306049789 1.1308881877
| 27> H -0.7780459043 0.4995333051 -1.7968023075
| 28> H 0.5494686358 1.3277161464 2.0196728287
| 29> H -3.3586814668 -0.4250368713 -1.7371287994
| 30> *
| 31>
| 32>                          ****END OF INPUT****

CARTESIAN COORDINATES (ANGSTROEM)
---------------------------------
  C     -2.478285   -0.795524   -0.024783
  C     -1.102196   -0.530859    0.585618
  H     -1.099077   -0.875425    1.632367
  C     -0.741051    0.980934    0.589333
  H     -1.623606    1.556232    0.288742
  C      0.387524    1.252385   -0.413997
  H      0.719102    2.292677   -0.292157
  C      1.605172    0.356297   -0.083972
  H      2.254111    0.345257   -0.968952
  C      1.154606   -1.098084    0.224570
  H      1.256675   -1.269262    1.311967
  O     -0.178865   -1.303856   -0.163712
  O      1.941031   -2.048984   -0.401273
  O      2.264546    0.927165    1.023814
  O     -0.013171    1.101967   -1.748605
  O     -0.407888    1.425561    1.881868
  O     -2.525066   -0.198728   -1.301508
  H     -3.241484   -0.369097    0.636060
  H     -2.612396   -1.879951   -0.097978
  H      1.633067   -2.163516   -1.313734
  H      3.140760    0.530605    1.130888
  H     -0.778046    0.499533   -1.796802
  H      0.549469    1.327716    2.019673
  H     -3.358681   -0.425037   -1.737129

 Total Charge           Charge          ....    0
 Multiplicity           Mult            ....    1
 Number of Electrons    NEL             ....   96
 Basis Dimension        Dim             ....  192

ORBITAL ENERGIES
----------------

  NO   OCC          E(Eh)            E(eV)
   0   2.0000     -18.779209      -511.0083
   1   2.0000     -18.771492      -510.7983
   2   2.0000     -18.771485      -510.7981
   3   2.0000     -18.757794      -510.4255
   4   2.0000     -18.735041      -509.8064
   5   2.0000     -18.730545      -509.6840
   6   2.0000      -9.985263      -271.7128
   7   2.0000      -9.948747      -270.7192
   8   2.0000      -9.947563      -270.6869
   9   2.0000      -9.936205      -270.3779
  10   2.0000      -9.935627      -270.3622
  11   2.0000      -9.933537      -270.3053
  12   2.0000      -0.986945       -26.8561
  13   2.0000      -0.951453       -25.8903
  14   2.0000      -0.944602       -25.7039
  15   2.0000      -0.923299       -25.1242
  16   2.0000      -0.909232       -24.7415
  17   2.0000      -0.905307       -24.6347
  18   2.0000      -0.702276       -19.1099
  19   2.0000      -0.683029       -18.5862
  20   2.0000      -0.618043       -16.8178
  21   2.0000      -0.592259       -16.1162
  22   2.0000      -0.560787       -15.2598
  23   2.0000      -0.525273       -14.2934
  24   2.0000      -0.505033       -13.7426
  25   2.0000      -0.495450       -13.4819
  26   2.0000      -0.486819       -13.2470
  27   2.0000      -0.466173       -12.6852
  28   2.0000      -0.448702       -12.2098
  29   2.0000      -0.423964       -11.5366
  30   2.0000      -0.411303       -11.1921
  31   2.0000      -0.403585       -10.9821
  32   2.0000      -0.387104       -10.5336
  33   2.0000      -0.375127       -10.2077
  34   2.0000      -0.351702        -9.5703
  35   2.0000      -0.346670        -9.4334
  36   2.0000      -0.330353        -8.9894
  37   2.0000      -0.318775        -8.6743
  38   2.0000      -0.312855        -8.5132
  39   2.0000      -0.302366        -8.2278
  40   2.0000      -0.292209        -7.9514
  41   2.0000      -0.254857        -6.9350
  42   2.0000      -0.251955        -6.8560
  43   2.0000      -0.247187        -6.7263
  44   2.0000      -0.241561        -6.5732
  45   2.0000      -0.228490        -6.2175
  46   2.0000      -0.201787        -5.4909
  47   2.0000      -0.193016        -5.2522
  48   0.0000       0.005971         0.1625
  49   0.0000       0.017817         0.4848
  50   0.0000       0.041903         1.1403
  51   0.0000       0.053781         1.4635
  52   0.0000       0.061768         1.6808

MULLIKEN ATOMIC CHARGES
-----------------------
   0 C :    0.056973
   1 C :    0.022862
   2 H :    0.070262
   3 C :   -0.004988
   4 H :    0.085818
   5 C :    0.053836
   6 H :    0.078577
   7 C :    0.021497
   8 H :    0.063670
   9 C :    0.210367
  10 H :    0.040033
  11 O :   -0.303997
  12 O :   -0.393127
  13 O :   -0.425189
  14 O :   -0.433104
  15 O :   -0.429677
  16 O :   -0.440820
  17 H :    0.090970
  18 H :    0.088238
  19 H :    0.304477
  20 H :    0.315056
  21 H :    0.305446
  22 H :    0.305001
  23 H :    0.317823
Sum of atomic charges:   -0.0000000

LOEWDIN ATOMIC CHARGES
----------------------
   0 C :   -0.122498
   1 C :   -0.070807
   2 H :    0.113088
   3 C :   -0.075429
   4 H :    0.117362
   5 C :   -0.067703
   6 H :    0.114847
   7 C :   -0.099113
   8 H :    0.110480
   9 C :   -0.002078
  10 H :    0.089928
  11 O :   -0.154101
  12 O :   -0.302089
  13 O :   -0.312984
  14 O :   -0.326712
  15 O :   -0.325960
  16 O :   -0.325533
  17 H :    0.108274
  18 H :    0.108252
  19 H :    0.288880
  20 H :    0.295805
  21 H :    0.267270
  22 H :    0.273346
  23 H :    0.297476

  Mayer bond orders larger than 0.100000
B(  0-C ,  1-C ) :   1.0650 B(  0-C , 16-O ) :   1.0450 B(  0-C , 17-H ) :   0.9164
B(  0-C , 18-H ) :   0.9126 B(  1-C ,  2-H ) :   0.8776 B(  1-C ,  3-C ) :   0.9370
B(  1-C , 11-O ) :   0.9973 B(  3-C ,  4-H ) :   0.9004 B(  3-C ,  5-C ) :   1.0319
B(  3-C , 15-O ) :   1.0750 B(  5-C ,  6-H ) :   0.8938 B(  5-C ,  7-C ) :   0.9523
B(  5-C , 14-O ) :   1.0950 B(  7-C ,  8-H ) :   0.8875 B(  7-C ,  9-C ) :   0.9602
B(  7-C , 13-O ) :   1.0182 B(  9-C , 10-H ) :   0.8742 B(  9-C , 11-O ) :   1.0494
B(  9-C , 12-O ) :   1.1268 B( 12-O , 19-H ) :   0.8417 B( 13-O , 20-H ) :   0.8406
B( 14-O , 21-H ) :   0.7983 B( 15-O , 22-H ) :   0.8115 B( 16-O , 21-H ) :   0.1109
B( 16-O , 23-H ) :   0.8396

Dispersion correction           -0.025315578
FINAL SINGLE POINT ENERGY      -685.692418868835

DIPOLE MOMENT
-------------

Method             : SCF
Type of density    : Electron Density
Multiplicity       :   1
Irrep              :   0
Energy             :  -685.8253317168782814 Eh
Relativity type    :
Basis              : AO
                                X                 Y                 Z
Electronic contribution:      2.433171782      -0.400064154      -0.976704235
Nuclear contribution   :     -2.948709465      -0.405099261       0.752171611
                        -----------------------------------------
Total Dipole Moment    :     -0.515537683      -0.805163414      -0.224532624
                        -----------------------------------------
Magnitude (a.u.)       :      0.982080509
Magnitude (Debye)      :      2.496250273

Rotational constants in cm-1:             0.041149             0.027799             0.023490
Rotational constants in MHz :          1233.614540           833.379269           704.214330

                             ****ORCA TERMINATED NORMALLY****
TOTAL RUN TIME: 0 days 0 hours 0 minutes 12 seconds 20 msec
