                         Program Version 6.0.0  -   RELEASE  -
|  1> ! wb97x-v def2-tzvp def2/J RIJCOSX DEFGRID2 scfconv7 GCP(DFT/TZ) printgap
|  2> %output
|  3>     printlevel normal
|  4> end
|  5> * xyz 0 1
|  6> C -3.571936978380365 0.40295660638065484 -0.24105047483122471
|  7> O -2.1762172719324218 0.5269923952778702 -0.6163249085692665
|  8> C -1.3185208251950553 -0.2929603645689687 0.025877613775214383
|  9> O -1.6826625323415951 -1.1110865712887645 0.8552809154302496
| 10> C 0.10767214547994072 -0.03182908098390594 -0.3726673100115671
| 11> C 0.9650323869488183 -1.2967055617826906 -0.27705301508607616
| 12> C 2.4166250843951746 -0.9920198309937613 -0.6495794766105878
| 13> C 2.9922956496739777 0.11355385442632955 0.2370252615025382
| 14> C 2.132470086119551 1.3762355906380301 0.1668309155638043
| 15> C 0.6778359770760631 1.0814937878164763 0.535214354531699
| 16> H -3.698313533326475 0.6203396330826304 0.8225437216034076
| 17> H -3.9344258819004256 -0.6034456269929727 -0.4643287570481078
| 18> H -4.10016618198464 1.1397930215445853 -0.8451906763091123
| 19> H 0.10855659470866431 0.3392872208728155 -1.404662189255687
| 20> H 0.9234793292614691 -1.6777813760937523 0.7507949182838571
| 21> H 0.5537828645977112 -2.0746720062754895 -0.9303420432814904
| 22> H 3.018673554910131 -1.9033351172814312 -0.5616008567895431
| 23> H 2.4633114152531213 -0.6768678769258434 -1.7009890687481444
| 24> H 3.027447053871846 -0.24082658409417018 1.2764175694730473
| 25> H 4.022281058425097 0.3413504274865069 -0.06017949874180214
| 26> H 2.5293781106840014 2.1476971608122755 0.8364549050252652
| 27> H 2.1680991393884885 1.7846052607956022 -0.852261284614378
| 28> H 0.6202112912640395 0.7459778472210412 1.5793849484870899
| 29> H 0.06712475390225046 1.986181657504592 0.44354293778330633
| 30> *
| 31>
| 32>                          ****END OF INPUT****

CARTESIAN COORDINATES (ANGSTROEM)
---------------------------------
  C     -3.571937    0.402957   -0.241050
  O     -2.176217    0.526992   -0.616325
  C     -1.318521   -0.292960    0.025878
  O     -1.682663   -1.111087    0.855281
  C      0.107672   -0.031829   -0.372667
  C      0.965032   -1.296706   -0.277053
  C      2.416625   -0.992020   -0.649579
  C      2.992296    0.113554    0.237025
  C      2.132470    1.376236    0.166831
  C      0.677836    1.081494    0.535214
  H     -3.698314    0.620340    0.822544
  H     -3.934426   -0.603446   -0.464329
  H     -4.100166    1.139793   -0.845191
  H      0.108557    0.339287   -1.404662
  H      0.923479   -1.677781    0.750795
  H      0.553783   -2.074672   -0.930342
  H      3.018674   -1.903335   -0.561601
  H      2.463311   -0.676868   -1.700989
  H      3.027447   -0.240827    1.276418
  H      4.022281    0.341350   -0.060179
  H      2.529378    2.147697    0.836455
  H      2.168099    1.784605   -0.852261
  H      0.620211    0.745978    1.579385
  H      0.067125    1.986182    0.443543

 Total Charge           Charge          ....    0
 Multiplicity           Mult            ....    1
 Number of Electrons    NEL             ....   78
 Basis Dimension        Dim             ....  394

ORBITAL ENERGIES
----------------

  NO   OCC          E(Eh)            E(eV)
   0   2.0000     -21.717216      -590.9555
   1   2.0000     -21.652842      -589.2038
   2   2.0000     -12.170835      -331.1853
   3   2.0000     -12.101624      -329.3019
   4   2.0000     -12.060539      -328.1840
   5   2.0000     -12.049719      -327.8895
   6   2.0000     -12.043846      -327.7297
   7   2.0000     -12.041865      -327.6758
   8   2.0000     -12.041083      -327.6545
   9   2.0000     -12.040140      -327.6289
  10   2.0000      -1.754562       -47.7441
  11   2.0000      -1.687823       -45.9280
  12   2.0000      -1.354112       -36.8473
  13   2.0000      -1.295703       -35.2579
  14   2.0000      -1.253432       -34.1076
  15   2.0000      -1.249268       -33.9943
  16   2.0000      -1.141448       -31.0604
  17   2.0000      -1.104937       -30.0669
  18   2.0000      -1.100940       -29.9581
  19   2.0000      -1.058277       -28.7972
  20   2.0000      -1.028364       -27.9832
  21   2.0000      -0.997177       -27.1346
  22   2.0000      -0.991469       -26.9792
  23   2.0000      -0.947143       -25.7731
  24   2.0000      -0.908958       -24.7340
  25   2.0000      -0.897457       -24.4211
  26   2.0000      -0.877627       -23.8814
  27   2.0000      -0.875048       -23.8113
  28   2.0000      -0.865572       -23.5534
  29   2.0000      -0.846941       -23.0464
  30   2.0000      -0.842262       -22.9191
  31   2.0000      -0.833329       -22.6760
  32   2.0000      -0.824008       -22.4224
  33   2.0000      -0.822899       -22.3922
  34   2.0000      -0.787387       -21.4259
  35   2.0000      -0.779455       -21.2101
  36   2.0000      -0.765908       -20.8414
  37   2.0000      -0.754168       -20.5220
  38   2.0000      -0.740122       -20.1397
  39   0.0000      -0.306877        -8.3506
  40   0.0000      -0.181824        -4.9477
  41   0.0000      -0.105991        -2.8842
  42   0.0000      -0.045521        -1.2387
  43   0.0000      -0.029619        -0.8060

MULLIKEN ATOMIC CHARGES
-----------------------
   0 C :   -0.193774
   1 O :   -0.241657
   2 C :    0.291755
   3 O :   -0.356638
   4 C :   -0.001457
   5 C :   -0.219946
   6 C :   -0.166775
   7 C :   -0.185901
   8 C :   -0.173500
   9 C :   -0.254093
  10 H :    0.129382
  11 H :    0.130235
  12 H :    0.127898
  13 H :    0.086600
  14 H :    0.116588
  15 H :    0.105318
  16 H :    0.103872
  17 H :    0.087656
  18 H :    0.090279
  19 H :    0.103541
  20 H :    0.103236
  21 H :    0.091689
  22 H :    0.112916
  23 H :    0.112776
Sum of atomic charges:   -0.0000000

LOEWDIN ATOMIC CHARGES
----------------------
   0 C :   -0.289400
   1 O :    0.224871
   2 C :   -0.439090
   3 O :    0.087993
   4 C :   -0.218736
   5 C :   -0.223573
   6 C :   -0.257286
   7 C :   -0.259485
   8 C :   -0.257221
   9 C :   -0.219582
  10 H :    0.110836
  11 H :    0.111168
  12 H :    0.109115
  13 H :    0.161040
  14 H :    0.144446
  15 H :    0.137094
  16 H :    0.132640
  17 H :    0.133114
  18 H :    0.134850
  19 H :    0.131325
  20 H :    0.132814
  21 H :    0.134443
  22 H :    0.142004
  23 H :    0.136621

  Mayer bond orders larger than 0.100000
B(  0-C ,  1-O ) :   0.9057 B(  0-C , 10-H ) :   0.9779 B(  0-C , 11-H ) :   0.9787
B(  0-C , 12-H ) :   0.9734 B(  1-O ,  2-C ) :   1.2204 B(  2-C ,  3-O ) :   2.0361
B(  2-C ,  4-C ) :   0.9512 B(  4-C ,  5-C ) :   0.9745 B(  4-C ,  9-C ) :   0.9474
B(  4-C , 13-H ) :   0.9559 B(  5-C ,  6-C ) :   0.9842 B(  5-C , 14-H ) :   0.9678
B(  5-C , 15-H ) :   0.9771 B(  6-C ,  7-C ) :   0.9874 B(  6-C , 16-H ) :   0.9785
B(  6-C , 17-H ) :   0.9714 B(  7-C ,  8-C ) :   0.9897 B(  7-C , 18-H ) :   0.9736
B(  7-C , 19-H ) :   0.9763 B(  8-C ,  9-C ) :   0.9851 B(  8-C , 20-H ) :   0.9766
B(  8-C , 21-H ) :   0.9747 B(  9-C , 22-H ) :   0.9722 B(  9-C , 23-H ) :   0.9716

FINAL SINGLE POINT ENERGY      -463.786257593237

DIPOLE MOMENT
-------------

Method             : SCF
Type of density    : Electron Density
Multiplicity       :   1
Irrep              :   0
Energy             :  -463.8029733916370674 Eh
Relativity type    :
Basis              : AO
                                X                 Y                 Z
Electronic contribution:     -7.231341544      -1.510846043       0.215291404
Nuclear contribution   :      7.328361895       2.084520808      -0.648729761
                        -----------------------------------------
Total Dipole Moment    :      0.097020351       0.573674765      -0.433438357
                        -----------------------------------------
Magnitude (a.u.)       :      0.725523599
Magnitude (Debye)      :      1.844134434

Rotational constants in cm-1:             0.101156             0.024483             0.021986
Rotational constants in MHz :          3032.569842           733.982956           659.127610

                             ****ORCA TERMINATED NORMALLY****
TOTAL RUN TIME: 0 days 0 hours 4 minutes 25 seconds 223 msec
