                         Program Version 6.0.0  -   RELEASE  -
|  1> ! wb97x-v def2-tzvp def2/J RIJCOSX DEFGRID2 scfconv7 GCP(DFT/TZ) printgap
|  2> %output
|  3>     printlevel normal
|  4> end
|  5> %cpcm
|  6>     smd true
|  7>     smdsolvent "water"
|  8> end
|  9> * xyz 0 1
| 10> C -3.571936978380365 0.40295660638065484 -0.24105047483122471
| 11> O -2.1762172719324218 0.5269923952778702 -0.6163249085692665
| 12> C -1.3185208251950553 -0.2929603645689687 0.025877613775214383
| 13> O -1.6826625323415951 -1.1110865712887645 0.8552809154302496
| 14> C 0.10767214547994072 -0.03182908098390594 -0.3726673100115671
| 15> C 0.9650323869488183 -1.2967055617826906 -0.27705301508607616
| 16> C 2.4166250843951746 -0.9920198309937613 -0.6495794766105878
| 17> C 2.9922956496739777 0.11355385442632955 0.2370252615025382
| 18> C 2.132470086119551 1.3762355906380301 0.1668309155638043
| 19> C 0.6778359770760631 1.0814937878164763 0.535214354531699
| 20> H -3.698313533326475 0.6203396330826304 0.8225437216034076
| 21> H -3.9344258819004256 -0.6034456269929727 -0.4643287570481078
| 22> H -4.10016618198464 1.1397930215445853 -0.8451906763091123
| 23> H 0.10855659470866431 0.3392872208728155 -1.404662189255687
| 24> H 0.9234793292614691 -1.6777813760937523 0.7507949182838571
| 25> H 0.5537828645977112 -2.0746720062754895 -0.9303420432814904
| 26> H 3.018673554910131 -1.9033351172814312 -0.5616008567895431
| 27> H 2.4633114152531213 -0.6768678769258434 -1.7009890687481444
| 28> H 3.027447053871846 -0.24082658409417018 1.2764175694730473
| 29> H 4.022281058425097 0.3413504274865069 -0.06017949874180214
| 30> H 2.5293781106840014 2.1476971608122755 0.8364549050252652
| 31> H 2.1680991393884885 1.7846052607956022 -0.852261284614378
| 32> H 0.6202112912640395 0.7459778472210412 1.5793849484870899
| 33> H 0.06712475390225046 1.986181657504592 0.44354293778330633
| 34> *
| 35>
| 36>                          ****END OF INPUT****

CARTESIAN COORDINATES (ANGSTROEM)
---------------------------------
  C     -3.571937    0.402957   -0.241050
  O     -2.176217    0.526992   -0.616325
  C     -1.318521   -0.292960    0.025878
  O     -1.682663   -1.111087    0.855281
  C      0.107672   -0.031829   -0.372667
  C      0.965032   -1.296706   -0.277053
  C      2.416625   -0.992020   -0.649579
  C      2.992296    0.113554    0.237025
  C      2.132470    1.376236    0.166831
  C      0.677836    1.081494    0.535214
  H     -3.698314    0.620340    0.822544
  H     -3.934426   -0.603446   -0.464329
  H     -4.100166    1.139793   -0.845191
  H      0.108557    0.339287   -1.404662
  H      0.923479   -1.677781    0.750795
  H      0.553783   -2.074672   -0.930342
  H      3.018674   -1.903335   -0.561601
  H      2.463311   -0.676868   -1.700989
  H      3.027447   -0.240827    1.276418
  H      4.022281    0.341350   -0.060179
  H      2.529378    2.147697    0.836455
  H      2.168099    1.784605   -0.852261
  H      0.620211    0.745978    1.579385
  H      0.067125    1.986182    0.443543

 Total Charge           Charge          ....    0
 Multiplicity           Mult            ....    1
 Number of Electrons    NEL             ....   78
 Basis Dimension        Dim             ....  394

ORBITAL ENERGIES
----------------

  NO   OCC          E(Eh)            E(eV)
   0   2.0000     -21.722930      -591.1110
   1   2.0000     -21.668055      -589.6178
   2   2.0000     -12.182156      -331.4933
   3   2.0000     -12.091968      -329.0392
   4   2.0000     -12.055325      -328.0421
   5   2.0000     -12.040763      -327.6458
   6   2.0000     -12.035512      -327.5029
   7   2.0000     -12.032309      -327.4158
   8   2.0000     -12.031286      -327.3879
   9   2.0000     -12.029341      -327.3350
  10   2.0000      -1.763104       -47.9765
  11   2.0000      -1.701208       -46.2922
  12   2.0000      -1.347804       -36.6756
  13   2.0000      -1.292199       -35.1625
  14   2.0000      -1.245252       -33.8850
  15   2.0000      -1.242784       -33.8179
  16   2.0000      -1.141707       -31.0674
  17   2.0000      -1.105475       -30.0815
  18   2.0000      -1.093395       -29.7528
  19   2.0000      -1.070472       -29.1290
  20   2.0000      -1.022491       -27.8234
  21   2.0000      -0.997889       -27.1539
  22   2.0000      -0.991449       -26.9787
  23   2.0000      -0.950920       -25.8759
  24   2.0000      -0.914967       -24.8975
  25   2.0000      -0.902665       -24.5628
  26   2.0000      -0.871562       -23.7164
  27   2.0000      -0.867109       -23.5952
  28   2.0000      -0.866064       -23.5668
  29   2.0000      -0.839312       -22.8389
  30   2.0000      -0.834882       -22.7183
  31   2.0000      -0.827435       -22.5156
  32   2.0000      -0.816044       -22.2057
  33   2.0000      -0.814929       -22.1754
  34   2.0000      -0.779556       -21.2128
  35   2.0000      -0.770120       -20.9560
  36   2.0000      -0.756886       -20.5959
  37   2.0000      -0.745242       -20.2791
  38   2.0000      -0.730258       -19.8713
  39   0.0000      -0.313060        -8.5188
  40   0.0000      -0.177248        -4.8232
  41   0.0000      -0.109175        -2.9708
  42   0.0000      -0.040275        -1.0959
  43   0.0000      -0.023011        -0.6262

MULLIKEN ATOMIC CHARGES
-----------------------
   0 C :   -0.234220
   1 O :   -0.267447
   2 C :    0.389645
   3 O :   -0.476833
   4 C :   -0.015466
   5 C :   -0.232799
   6 C :   -0.194569
   7 C :   -0.208129
   8 C :   -0.195453
   9 C :   -0.253020
  10 H :    0.150223
  11 H :    0.149943
  12 H :    0.156932
  13 H :    0.108173
  14 H :    0.106848
  15 H :    0.122404
  16 H :    0.115226
  17 H :    0.102455
  18 H :    0.098736
  19 H :    0.115686
  20 H :    0.115817
  21 H :    0.104643
  22 H :    0.116578
  23 H :    0.124625
Sum of atomic charges:   -0.0000000

LOEWDIN ATOMIC CHARGES
----------------------
   0 C :   -0.286131
   1 O :    0.220959
   2 C :   -0.420384
   3 O :    0.026088
   4 C :   -0.215808
   5 C :   -0.227713
   6 C :   -0.257324
   7 C :   -0.261491
   8 C :   -0.257091
   9 C :   -0.218229
  10 H :    0.115745
  11 H :    0.115674
  12 H :    0.119016
  13 H :    0.168792
  14 H :    0.140824
  15 H :    0.139661
  16 H :    0.134508
  17 H :    0.137194
  18 H :    0.136429
  19 H :    0.133285
  20 H :    0.135359
  21 H :    0.137941
  22 H :    0.143247
  23 H :    0.139451

  Mayer bond orders larger than 0.100000
B(  0-C ,  1-O ) :   0.8795 B(  0-C , 10-H ) :   0.9727 B(  0-C , 11-H ) :   0.9727
B(  0-C , 12-H ) :   0.9680 B(  1-O ,  2-C ) :   1.2384 B(  2-C ,  3-O ) :   1.9067
B(  2-C ,  4-C ) :   0.9572 B(  4-C ,  5-C ) :   0.9849 B(  4-C ,  9-C ) :   0.9499
B(  4-C , 13-H ) :   0.9559 B(  5-C ,  6-C ) :   0.9949 B(  5-C , 14-H ) :   0.9586
B(  5-C , 15-H ) :   0.9739 B(  6-C ,  7-C ) :   0.9889 B(  6-C , 16-H ) :   0.9752
B(  6-C , 17-H ) :   0.9710 B(  7-C ,  8-C ) :   0.9905 B(  7-C , 18-H ) :   0.9722
B(  7-C , 19-H ) :   0.9734 B(  8-C ,  9-C ) :   0.9864 B(  8-C , 20-H ) :   0.9731
B(  8-C , 21-H ) :   0.9731 B(  9-C , 22-H ) :   0.9676 B(  9-C , 23-H ) :   0.9673

FINAL SINGLE POINT ENERGY      -463.792013370773

DIPOLE MOMENT
-------------

Method             : SCF
Type of density    : Electron Density
Multiplicity       :   1
Irrep              :   0
Energy             :  -463.8087291691729206 Eh
Relativity type    :
Basis              : AO
                                X                 Y                 Z
Electronic contribution:     -7.175708791      -1.231603747      -0.031210016
Nuclear contribution   :      7.328361895       2.084520808      -0.648729761
                        -----------------------------------------
Total Dipole Moment    :      0.152653104       0.852917061      -0.679939777
                        -----------------------------------------
Magnitude (a.u.)       :      1.101403007
Magnitude (Debye)      :      2.799543960

Rotational constants in cm-1:             0.101156             0.024483             0.021986
Rotational constants in MHz :          3032.569842           733.982956           659.127610

                             ****ORCA TERMINATED NORMALLY****
TOTAL RUN TIME: 0 days 0 hours 4 minutes 30 seconds 517 msec
