                         Program Version 6.0.0  -   RELEASE  -
|  1> ! r2scan-3c def2/J RI DEFGRID2 scfconv6 printgap
|  2> %output
|  3>     printlevel normal
|  4> end
|  5> * xyz 0 1
|  6> C 1.204666295 1.26115332 0.0528100434
|  7> C 0.4330157754 -0.0001416561 -0.3458051135
|  8> C 1.2103575463 -1.2580162581 0.0521357776
|  9> C -0.8823773019 -0.0024502564 0.368098535
| 10> O -1.9705852217 -0.0007958955 -0.1544952094
| 11> H 2.1673866166 1.272610523 -0.4499391106
| 12> H 1.3711251927 1.2799484598 1.1269426815
| 13> H 0.6526420095 2.1537198689 -0.2310664593
| 14> H 0.2489863942 -8.9807e-05 -1.4238876541
| 15> H 2.1731219824 -1.2649816381 -0.4506273292
| 16> H 0.6623991867 -2.152969418 -0.232079491
| 17> H 1.3769563269 -1.2765583018 1.126248338
| 18> H -0.7958662482 -0.0055422148 1.4705696815
| 19> *
| 20>
| 21>                          ****END OF INPUT****

CARTESIAN COORDINATES (ANGSTROEM)
---------------------------------
  C      1.204666    1.261153    0.052810
  C      0.433016   -0.000142   -0.345805
  C      1.210358   -1.258016    0.052136
  C     -0.882377   -0.002450    0.368099
  O     -1.970585   -0.000796   -0.154495
  H      2.167387    1.272611   -0.449939
  H      1.371125    1.279948    1.126943
  H      0.652642    2.153720   -0.231066
  H      0.248986   -0.000090   -1.423888
  H      2.173122   -1.264982   -0.450627
  H      0.662399   -2.152969   -0.232079
  H      1.376956   -1.276558    1.126248
  H     -0.795866   -0.005542    1.470570

 Total Charge           Charge          ....    0
 Multiplicity           Mult            ....    1
 Number of Electrons    NEL             ....   40
 Basis Dimension        Dim             ....  140

ORBITAL ENERGIES
----------------

  NO   OCC          E(Eh)            E(eV)
   0   2.0000     -18.948788      -515.6227
   1   2.0000     -10.117314      -275.3061
   2   2.0000     -10.051924      -273.5268
   3   2.0000     -10.038020      -273.1484
   4   2.0000     -10.037991      -273.1476
   5   2.0000      -1.012487       -27.5512
   6   2.0000      -0.787211       -21.4211
   7   2.0000      -0.670874       -18.2554
   8   2.0000      -0.614974       -16.7343
   9   2.0000      -0.540080       -14.6963
  10   2.0000      -0.441100       -12.0029
  11   2.0000      -0.437275       -11.8989
  12   2.0000      -0.408916       -11.1272
  13   2.0000      -0.402411       -10.9502
  14   2.0000      -0.374705       -10.1963
  15   2.0000      -0.352108        -9.5813
  16   2.0000      -0.350547        -9.5389
  17   2.0000      -0.323414        -8.8006
  18   2.0000      -0.321287        -8.7427
  19   2.0000      -0.218922        -5.9572
  20   0.0000      -0.057530        -1.5655
  21   0.0000       0.083154         2.2627
  22   0.0000       0.113134         3.0785
  23   0.0000       0.116490         3.1699
  24   0.0000       0.126271         3.4360

MULLIKEN ATOMIC CHARGES
-----------------------
   0 C :   -0.476575
   1 C :    0.001923
   2 C :   -0.476595
   3 C :    0.101272
   4 O :   -0.335823
   5 H :    0.153402
   6 H :    0.149732
   7 H :    0.157527
   8 H :    0.163755
   9 H :    0.153396
  10 H :    0.157419
  11 H :    0.149688
  12 H :    0.100879
Sum of atomic charges:    0.0000000

LOEWDIN ATOMIC CHARGES
----------------------
   0 C :   -0.399005
   1 C :   -0.240343
   2 C :   -0.399156
   3 C :    0.203996
   4 O :   -0.445408
   5 H :    0.159414
   6 H :    0.156793
   7 H :    0.160482
   8 H :    0.173014
   9 H :    0.159413
  10 H :    0.160437
  11 H :    0.156780
  12 H :    0.153584

  Mayer bond orders larger than 0.100000
B(  0-C ,  1-C ) :   0.9023 B(  0-C ,  5-H ) :   0.9663 B(  0-C ,  6-H ) :   0.9767
B(  0-C ,  7-H ) :   0.9684 B(  1-C ,  2-C ) :   0.9024 B(  1-C ,  3-C ) :   0.9151
B(  1-C ,  8-H ) :   0.9353 B(  2-C ,  9-H ) :   0.9663 B(  2-C , 10-H ) :   0.9685
B(  2-C , 11-H ) :   0.9766 B(  3-C ,  4-O ) :   1.9019 B(  3-C , 12-H ) :   0.9583

Dispersion correction           -0.002776787
FINAL SINGLE POINT ENERGY      -232.393332526591

DIPOLE MOMENT
-------------

Method             : SCF
Type of density    : Electron Density
Multiplicity       :   1
Irrep              :   0
Energy             :  -232.3966568467187415 Eh
Relativity type    :
Basis              : AO
                                X                 Y                 Z
Electronic contribution:     -6.186226095      -0.005941858      -0.627216050
Nuclear contribution   :      7.341689449       0.005746174       0.875983161
                        -----------------------------------------
Total Dipole Moment    :      1.155463354      -0.000195684       0.248767111
                        -----------------------------------------
Magnitude (a.u.)       :      1.181939371
Magnitude (Debye)      :      3.004251130

Rotational constants in cm-1:             0.260106             0.125389             0.094902
Rotational constants in MHz :          7797.772363          3759.073621          2845.100997

                             ****ORCA TERMINATED NORMALLY****
TOTAL RUN TIME: 0 days 0 hours 0 minutes 14 seconds 632 msec
