                         Program Version 6.0.0  -   RELEASE  -
|  1> ! pbe def2-sv(p) def2/J RI DEFGRID1 loosescf d4 GCP(DFT/SV(P)) printgap
|  2> %output
|  3>     printlevel normal
|  4> end
|  5> * xyz 0 1
|  6> C -2.8345171761 0.0097225728 0.5200162576
|  7> C -1.4645119367 -0.0394484025 -0.0932012677
|  8> O -1.2910019616 -0.3813877475 -1.2463125041
|  9> C -0.3400530499 0.3559065255 0.8453523171
| 10> C 0.5368178425 1.4757285865 0.2625453015
| 11> C 1.396646517 1.0004877696 -0.9038308623
| 12> C 2.2613113472 -0.1829827196 -0.4825804623
| 13> C 1.3722794263 -1.3234710797 0.0022330092
| 14> C 0.5265701675 -0.8698391301 1.186645093
| 15> H -3.0541472933 1.0315700053 0.8207811087
| 16> H -3.5818576456 -0.3318141524 -0.1909044494
| 17> H -2.8560009621 -0.6138270992 1.4105376369
| 18> H -0.7915304635 0.7217817258 1.7720559829
| 19> H -0.0992755006 2.3034001576 -0.0596376267
| 20> H 1.1876809046 1.8409526557 1.060339732
| 21> H 0.7519096521 0.6983035751 -1.7309345107
| 22> H 2.0252520408 1.8237963561 -1.2490566065
| 23> H 2.868947848 -0.5174622019 -1.3250721774
| 24> H 2.9356479787 0.1227684614 0.3212294354
| 25> H 0.7190315319 -1.6402185024 -0.8134596046
| 26> H 1.98233415 -2.1792996035 0.2977048424
| 27> H -0.1141939301 -1.6882726615 1.5225288608
| 28> H 1.1859786087 -0.5953531752 2.0128710758
| 29> *
| 30>
| 31>                          ****END OF INPUT****

CARTESIAN COORDINATES (ANGSTROEM)
---------------------------------
  C     -2.834517    0.009723    0.520016
  C     -1.464512   -0.039448   -0.093201
  O     -1.291002   -0.381388   -1.246313
  C     -0.340053    0.355907    0.845352
  C      0.536818    1.475729    0.262545
  C      1.396647    1.000488   -0.903831
  C      2.261311   -0.182983   -0.482580
  C      1.372279   -1.323471    0.002233
  C      0.526570   -0.869839    1.186645
  H     -3.054147    1.031570    0.820781
  H     -3.581858   -0.331814   -0.190904
  H     -2.856001   -0.613827    1.410538
  H     -0.791530    0.721782    1.772056
  H     -0.099276    2.303400   -0.059638
  H      1.187681    1.840953    1.060340
  H      0.751910    0.698304   -1.730935
  H      2.025252    1.823796   -1.249057
  H      2.868948   -0.517462   -1.325072
  H      2.935648    0.122768    0.321229
  H      0.719032   -1.640219   -0.813460
  H      1.982334   -2.179300    0.297705
  H     -0.114194   -1.688273    1.522529
  H      1.185979   -0.595353    2.012871

 Total Charge           Charge          ....    0
 Multiplicity           Mult            ....    1
 Number of Electrons    NEL             ....   70
 Basis Dimension        Dim             ....  154

ORBITAL ENERGIES
----------------

  NO   OCC          E(Eh)            E(eV)
   0   2.0000     -18.739690      -509.9329
   1   2.0000      -9.973679      -271.3976
   2   2.0000      -9.900407      -269.4038
   3   2.0000      -9.891800      -269.1696
   4   2.0000      -9.888680      -269.0847
   5   2.0000      -9.887149      -269.0430
   6   2.0000      -9.876005      -268.7398
   7   2.0000      -9.875426      -268.7240
   8   2.0000      -9.872771      -268.6518
   9   2.0000      -0.938164       -25.5288
  10   2.0000      -0.757499       -20.6126
  11   2.0000      -0.692922       -18.8554
  12   2.0000      -0.666090       -18.1252
  13   2.0000      -0.654997       -17.8234
  14   2.0000      -0.557183       -15.1617
  15   2.0000      -0.540820       -14.7165
  16   2.0000      -0.506089       -13.7714
  17   2.0000      -0.454305       -12.3623
  18   2.0000      -0.435097       -11.8396
  19   2.0000      -0.414902       -11.2901
  20   2.0000      -0.411097       -11.1865
  21   2.0000      -0.394502       -10.7350
  22   2.0000      -0.381761       -10.3883
  23   2.0000      -0.374459       -10.1896
  24   2.0000      -0.357398        -9.7253
  25   2.0000      -0.339254        -9.2316
  26   2.0000      -0.334211        -9.0944
  27   2.0000      -0.329026        -8.9533
  28   2.0000      -0.315847        -8.5946
  29   2.0000      -0.309898        -8.4328
  30   2.0000      -0.298869        -8.1326
  31   2.0000      -0.282264        -7.6808
  32   2.0000      -0.259633        -7.0650
  33   2.0000      -0.258816        -7.0427
  34   2.0000      -0.191457        -5.2098
  35   0.0000      -0.050850        -1.3837
  36   0.0000       0.023157         0.6301
  37   0.0000       0.052726         1.4347
  38   0.0000       0.065345         1.7781
  39   0.0000       0.070140         1.9086

MULLIKEN ATOMIC CHARGES
-----------------------
   0 C :   -0.252638
   1 C :    0.017343
   2 O :   -0.167701
   3 C :   -0.158079
   4 C :   -0.123952
   5 C :   -0.152801
   6 C :   -0.159276
   7 C :   -0.152869
   8 C :   -0.129026
   9 H :    0.127451
  10 H :    0.115468
  11 H :    0.125013
  12 H :    0.061872
  13 H :    0.084595
  14 H :    0.077866
  15 H :    0.104771
  16 H :    0.080223
  17 H :    0.084859
  18 H :    0.066896
  19 H :    0.102451
  20 H :    0.082234
  21 H :    0.083802
  22 H :    0.081500
Sum of atomic charges:    0.0000000

LOEWDIN ATOMIC CHARGES
----------------------
   0 C :   -0.360483
   1 C :    0.055454
   2 O :   -0.127703
   3 C :   -0.168985
   4 C :   -0.206142
   5 C :   -0.234865
   6 C :   -0.224202
   7 C :   -0.233268
   8 C :   -0.204793
   9 H :    0.143061
  10 H :    0.131419
  11 H :    0.141102
  12 H :    0.118439
  13 H :    0.116481
  14 H :    0.116599
  15 H :    0.125093
  16 H :    0.114425
  17 H :    0.116913
  18 H :    0.108454
  19 H :    0.124455
  20 H :    0.115391
  21 H :    0.115402
  22 H :    0.117751

  Mayer bond orders larger than 0.100000
B(  0-C ,  1-C ) :   1.0926 B(  0-C ,  9-H ) :   0.9231 B(  0-C , 10-H ) :   0.9346
B(  0-C , 11-H ) :   0.9235 B(  1-C ,  2-O ) :   2.1436 B(  1-C ,  3-C ) :   0.9086
B(  3-C ,  4-C ) :   1.0715 B(  3-C ,  8-C ) :   1.0678 B(  3-C , 12-H ) :   0.8860
B(  4-C ,  5-C ) :   1.1336 B(  4-C , 13-H ) :   0.9206 B(  4-C , 14-H ) :   0.9123
B(  5-C ,  6-C ) :   1.1342 B(  5-C , 15-H ) :   0.8999 B(  5-C , 16-H ) :   0.9158
B(  6-C ,  7-C ) :   1.1340 B(  6-C , 17-H ) :   0.9190 B(  6-C , 18-H ) :   0.9184
B(  7-C ,  8-C ) :   1.1346 B(  7-C , 19-H ) :   0.9012 B(  7-C , 20-H ) :   0.9166
B(  8-C , 21-H ) :   0.9177 B(  8-C , 22-H ) :   0.9113

Dispersion correction           -0.022767964
FINAL SINGLE POINT ENERGY      -387.608060770301

DIPOLE MOMENT
-------------

Method             : SCF
Type of density    : Electron Density
Multiplicity       :   1
Irrep              :   0
Energy             :  -387.6860531460889661 Eh
Relativity type    :
Basis              : AO
                                X                 Y                 Z
Electronic contribution:     -3.062584174      -0.670695004      -2.734633040
Nuclear contribution   :      2.945248445       0.910299072       3.592501599
                        -----------------------------------------
Total Dipole Moment    :     -0.117335729       0.239604068       0.857868559
                        -----------------------------------------
Magnitude (a.u.)       :      0.898396486
Magnitude (Debye)      :      2.283542393

Rotational constants in cm-1:             0.091711             0.041326             0.039200
Rotational constants in MHz :          2749.420396          1238.917396          1175.179241

                             ****ORCA TERMINATED NORMALLY****
TOTAL RUN TIME: 0 days 0 hours 0 minutes 10 seconds 189 msec
