                         Program Version 6.0.0  -   RELEASE  -
|  1> ! pbe def2-sv(p) def2/J RI DEFGRID1 loosescf d4 GCP(DFT/SV(P)) printgap
|  2> %output
|  3>     printlevel normal
|  4> end
|  5> * xyz 0 1
|  6> C -2.506905524 0.6637502051 -1.2600718568
|  7> C -2.0546422849 0.4114509251 0.1861012958
|  8> H -2.952388974 0.3336438752 0.807641586
|  9> C -1.1410964195 1.5393742889 0.7070058821
| 10> C 0.2852890157 1.0629984371 0.9658945748
| 11> C 0.7958788278 0.2861238734 -0.2508834562
| 12> H 0.5941723232 0.890973365 -1.139203494
| 13> C 0.0104864251 -1.0303890771 -0.3399952359
| 14> C -1.385214494 -0.942145558 0.2117747755
| 15> O -1.9707213952 -1.9308215587 0.6167634518
| 16> C 2.2866173927 0.0309554263 -0.1846504836
| 17> C 2.8503277565 -0.6087564785 0.8280886126
| 18> C 3.0810870788 0.5576932041 -1.3394154858
| 19> H -3.1314880283 -0.1567430293 -1.6076839062
| 20> H -3.0874934781 1.5813268305 -1.3036961277
| 21> H -1.6519649187 0.7564467925 -1.9232421085
| 22> H -1.1178307835 2.3459837508 -0.0270824301
| 23> H -1.5557146591 1.9457060398 1.6298569084
| 24> H 0.9291045185 1.9213942915 1.1615175276
| 25> H 0.3100980365 0.4162605084 1.8450962331
| 26> H -0.0749179622 -1.3623894978 -1.3778040968
| 27> H 0.5281023319 -1.8274815964 0.1983723226
| 28> H 3.9118955921 -0.782562942 0.8678875031
| 29> H 2.2812100211 -0.9861812805 1.660796535
| 30> H 2.9589247279 1.6372225228 -1.4155195101
| 31> H 4.1372703845 0.3321269286 -1.2236982933
| 32> H 2.7270398131 0.1153428742 -2.2695110733
| 33> *
| 34>
| 35>                          ****END OF INPUT****

CARTESIAN COORDINATES (ANGSTROEM)
---------------------------------
  C     -2.506906    0.663750   -1.260072
  C     -2.054642    0.411451    0.186101
  H     -2.952389    0.333644    0.807642
  C     -1.141096    1.539374    0.707006
  C      0.285289    1.062998    0.965895
  C      0.795879    0.286124   -0.250883
  H      0.594172    0.890973   -1.139203
  C      0.010486   -1.030389   -0.339995
  C     -1.385214   -0.942146    0.211775
  O     -1.970721   -1.930822    0.616763
  C      2.286617    0.030955   -0.184650
  C      2.850328   -0.608756    0.828089
  C      3.081087    0.557693   -1.339415
  H     -3.131488   -0.156743   -1.607684
  H     -3.087493    1.581327   -1.303696
  H     -1.651965    0.756447   -1.923242
  H     -1.117831    2.345984   -0.027082
  H     -1.555715    1.945706    1.629857
  H      0.929105    1.921394    1.161518
  H      0.310098    0.416261    1.845096
  H     -0.074918   -1.362389   -1.377804
  H      0.528102   -1.827482    0.198372
  H      3.911896   -0.782563    0.867888
  H      2.281210   -0.986181    1.660797
  H      2.958925    1.637223   -1.415520
  H      4.137270    0.332127   -1.223698
  H      2.727040    0.115343   -2.269511

 Total Charge           Charge          ....    0
 Multiplicity           Mult            ....    1
 Number of Electrons    NEL             ....   84
 Basis Dimension        Dim             ....  186

ORBITAL ENERGIES
----------------

  NO   OCC          E(Eh)            E(eV)
   0   2.0000     -18.730095      -509.6718
   1   2.0000      -9.967214      -271.2217
   2   2.0000      -9.907965      -269.6094
   3   2.0000      -9.903222      -269.4804
   4   2.0000      -9.901076      -269.4220
   5   2.0000      -9.894636      -269.2467
   6   2.0000      -9.894338      -269.2386
   7   2.0000      -9.893065      -269.2040
   8   2.0000      -9.890769      -269.1415
   9   2.0000      -9.885649      -269.0022
  10   2.0000      -9.871357      -268.6133
  11   2.0000      -0.928083       -25.2544
  12   2.0000      -0.773805       -21.0563
  13   2.0000      -0.729991       -19.8641
  14   2.0000      -0.683877       -18.6092
  15   2.0000      -0.665036       -18.0965
  16   2.0000      -0.617934       -16.8148
  17   2.0000      -0.603301       -16.4167
  18   2.0000      -0.556023       -15.1302
  19   2.0000      -0.541965       -14.7476
  20   2.0000      -0.476490       -12.9659
  21   2.0000      -0.462334       -12.5807
  22   2.0000      -0.438552       -11.9336
  23   2.0000      -0.418483       -11.3875
  24   2.0000      -0.416417       -11.3313
  25   2.0000      -0.401916       -10.9367
  26   2.0000      -0.390091       -10.6149
  27   2.0000      -0.378639       -10.3033
  28   2.0000      -0.368669       -10.0320
  29   2.0000      -0.364593        -9.9211
  30   2.0000      -0.354926        -9.6580
  31   2.0000      -0.348836        -9.4923
  32   2.0000      -0.344081        -9.3629
  33   2.0000      -0.327877        -8.9220
  34   2.0000      -0.322125        -8.7655
  35   2.0000      -0.311721        -8.4824
  36   2.0000      -0.304129        -8.2758
  37   2.0000      -0.291576        -7.9342
  38   2.0000      -0.279841        -7.6149
  39   2.0000      -0.275935        -7.5086
  40   2.0000      -0.219451        -5.9716
  41   2.0000      -0.186063        -5.0630
  42   0.0000      -0.049172        -1.3380
  43   0.0000      -0.017956        -0.4886
  44   0.0000       0.022486         0.6119
  45   0.0000       0.044763         1.2181
  46   0.0000       0.054383         1.4798

MULLIKEN ATOMIC CHARGES
-----------------------
   0 C :   -0.278638
   1 C :   -0.135146
   2 H :    0.073461
   3 C :   -0.082178
   4 C :   -0.130595
   5 C :   -0.158106
   6 H :    0.052017
   7 C :   -0.094575
   8 C :   -0.015954
   9 O :   -0.162009
  10 C :   -0.017242
  11 C :   -0.255005
  12 C :   -0.213121
  13 H :    0.118127
  14 H :    0.117463
  15 H :    0.110723
  16 H :    0.072326
  17 H :    0.090564
  18 H :    0.091859
  19 H :    0.094062
  20 H :    0.113556
  21 H :    0.106152
  22 H :    0.086709
  23 H :    0.097124
  24 H :    0.111209
  25 H :    0.097643
  26 H :    0.109577
Sum of atomic charges:   -0.0000000

LOEWDIN ATOMIC CHARGES
----------------------
   0 C :   -0.319985
   1 C :   -0.170291
   2 H :    0.129432
   3 C :   -0.214212
   4 C :   -0.210209
   5 C :   -0.134688
   6 H :    0.114558
   7 C :   -0.232761
   8 C :    0.047825
   9 O :   -0.134550
  10 C :   -0.048033
  11 C :   -0.265710
  12 C :   -0.322123
  13 H :    0.126204
  14 H :    0.125529
  15 H :    0.117208
  16 H :    0.116606
  17 H :    0.124698
  18 H :    0.122214
  19 H :    0.121386
  20 H :    0.146091
  21 H :    0.141654
  22 H :    0.120167
  23 H :    0.117968
  24 H :    0.128642
  25 H :    0.124011
  26 H :    0.128368

  Mayer bond orders larger than 0.100000
B(  0-C ,  1-C ) :   1.0828 B(  0-C , 13-H ) :   0.9446 B(  0-C , 14-H ) :   0.9431
B(  0-C , 15-H ) :   0.9457 B(  1-C ,  2-H ) :   0.8743 B(  1-C ,  3-C ) :   1.0256
B(  1-C ,  8-C ) :   1.0159 B(  3-C ,  4-C ) :   1.1835 B(  3-C , 16-H ) :   0.9061
B(  3-C , 17-H ) :   0.9089 B(  4-C ,  5-C ) :   1.1245 B(  4-C , 18-H ) :   0.9215
B(  4-C , 19-H ) :   0.8837 B(  5-C ,  6-H ) :   0.8675 B(  5-C ,  7-C ) :   1.0444
B(  5-C , 10-C ) :   0.9911 B(  7-C ,  8-C ) :   1.0098 B(  7-C , 20-H ) :   0.8793
B(  7-C , 21-H ) :   0.8824 B(  8-C ,  9-O ) :   2.1858 B( 10-C , 11-C ) :   2.0351
B( 10-C , 12-C ) :   1.1398 B( 11-C , 22-H ) :   0.9030 B( 11-C , 23-H ) :   0.9064
B( 12-C , 24-H ) :   0.9278 B( 12-C , 25-H ) :   0.9389 B( 12-C , 26-H ) :   0.9284

Dispersion correction           -0.028550297
FINAL SINGLE POINT ENERGY      -464.820350751594

DIPOLE MOMENT
-------------

Method             : SCF
Type of density    : Electron Density
Multiplicity       :   1
Irrep              :   0
Energy             :  -464.9057185117998188 Eh
Relativity type    :
Basis              : AO
                                X                 Y                 Z
Electronic contribution:     -4.034417448      -5.711347904       3.344361776
Nuclear contribution   :      4.479622807       6.689644056      -3.852603236
                        -----------------------------------------
Total Dipole Moment    :      0.445205359       0.978296152      -0.508241461
                        -----------------------------------------
Magnitude (a.u.)       :      1.188940938
Magnitude (Debye)      :      3.022047699

Rotational constants in cm-1:             0.061654             0.023926             0.021752
Rotational constants in MHz :          1848.343980           717.269585           652.111593

                             ****ORCA TERMINATED NORMALLY****
TOTAL RUN TIME: 0 days 0 hours 0 minutes 14 seconds 619 msec
