                         Program Version 6.0.0  -   RELEASE  -
|  1> ! pbe def2-sv(p) def2/J RI DEFGRID1 loosescf d4 GCP(DFT/SV(P)) printgap
|  2> %output
|  3>     printlevel normal
|  4> end
|  5> * xyz 0 1
|  6> C -1.7313873838 -1.0363811733 -0.7114153965
|  7> C -1.0542625975 -0.501690484 0.5583267393
|  8> H -1.7479753969 -0.6179403548 1.3993096
|  9> C -0.7340846164 0.9946371213 0.435680235
| 10> H -1.6164328707 1.4619821326 -0.0196518135
| 11> C 0.5078272158 1.2497210318 -0.4481778708
| 12> H 0.8449002074 2.2847642381 -0.2738031309
| 13> C 1.6653645402 0.3486321695 0.0154057927
| 14> H 2.4570782655 0.3780643391 -0.7399492609
| 15> C 1.2433710538 -1.1242318925 0.1757076811
| 16> H 2.0136735106 -1.6140596377 0.7929536388
| 17> O 0.0697211836 -1.2826774254 0.9369887492
| 18> O 1.1601561949 -1.7162755237 -1.0813836541
| 19> O 2.2191944724 0.8300224733 1.2117458433
| 20> O 0.2697718903 1.0372274525 -1.8144850219
| 21> O -0.5116188871 1.4963949484 1.7392472817
| 22> O -2.9540948789 -0.350001673 -0.8758012816
| 23> H -1.9017382714 -2.1106245109 -0.5702410581
| 24> H -1.070174608 -0.8819143092 -1.5707786079
| 25> H 1.0813218995 -2.6779983176 -0.9895642071
| 26> H 1.5096127462 0.8799951778 1.8772825328
| 27> H -0.2978207857 1.7425170481 -2.158555584
| 28> H -0.6509082116 2.453761526 1.7536900838
| 29> H -3.4102371303 -0.7057445191 -1.6512307842
| 30> *
| 31>
| 32>                          ****END OF INPUT****

CARTESIAN COORDINATES (ANGSTROEM)
---------------------------------
  C     -1.731387   -1.036381   -0.711415
  C     -1.054263   -0.501690    0.558327
  H     -1.747975   -0.617940    1.399310
  C     -0.734085    0.994637    0.435680
  H     -1.616433    1.461982   -0.019652
  C      0.507827    1.249721   -0.448178
  H      0.844900    2.284764   -0.273803
  C      1.665365    0.348632    0.015406
  H      2.457078    0.378064   -0.739949
  C      1.243371   -1.124232    0.175708
  H      2.013674   -1.614060    0.792954
  O      0.069721   -1.282677    0.936989
  O      1.160156   -1.716276   -1.081384
  O      2.219194    0.830022    1.211746
  O      0.269772    1.037227   -1.814485
  O     -0.511619    1.496395    1.739247
  O     -2.954095   -0.350002   -0.875801
  H     -1.901738   -2.110625   -0.570241
  H     -1.070175   -0.881914   -1.570779
  H      1.081322   -2.677998   -0.989564
  H      1.509613    0.879995    1.877283
  H     -0.297821    1.742517   -2.158556
  H     -0.650908    2.453762    1.753690
  H     -3.410237   -0.705745   -1.651231

 Total Charge           Charge          ....    0
 Multiplicity           Mult            ....    1
 Number of Electrons    NEL             ....   96
 Basis Dimension        Dim             ....  192

ORBITAL ENERGIES
----------------

  NO   OCC          E(Eh)            E(eV)
   0   2.0000     -18.766959      -510.6749
   1   2.0000     -18.759773      -510.4794
   2   2.0000     -18.756670      -510.3949
   3   2.0000     -18.753753      -510.3156
   4   2.0000     -18.748961      -510.1852
   5   2.0000     -18.734566      -509.7935
   6   2.0000      -9.973485      -271.3923
   7   2.0000      -9.942357      -270.5453
   8   2.0000      -9.940867      -270.5047
   9   2.0000      -9.937427      -270.4111
  10   2.0000      -9.930799      -270.2308
  11   2.0000      -9.920458      -269.9494
  12   2.0000      -0.972623       -26.4664
  13   2.0000      -0.943721       -25.6800
  14   2.0000      -0.931502       -25.3475
  15   2.0000      -0.922850       -25.1120
  16   2.0000      -0.911667       -24.8077
  17   2.0000      -0.903601       -24.5882
  18   2.0000      -0.700243       -19.0546
  19   2.0000      -0.679258       -18.4835
  20   2.0000      -0.612858       -16.6767
  21   2.0000      -0.584765       -15.9123
  22   2.0000      -0.562874       -15.3166
  23   2.0000      -0.512981       -13.9589
  24   2.0000      -0.489246       -13.3131
  25   2.0000      -0.481203       -13.0942
  26   2.0000      -0.471594       -12.8327
  27   2.0000      -0.457971       -12.4620
  28   2.0000      -0.450186       -12.2502
  29   2.0000      -0.426805       -11.6139
  30   2.0000      -0.403871       -10.9899
  31   2.0000      -0.391288       -10.6475
  32   2.0000      -0.374291       -10.1850
  33   2.0000      -0.371170       -10.1001
  34   2.0000      -0.357468        -9.7272
  35   2.0000      -0.342611        -9.3229
  36   2.0000      -0.327022        -8.8987
  37   2.0000      -0.318995        -8.6803
  38   2.0000      -0.290604        -7.9077
  39   2.0000      -0.288553        -7.8519
  40   2.0000      -0.277968        -7.5639
  41   2.0000      -0.259903        -7.0723
  42   2.0000      -0.250303        -6.8111
  43   2.0000      -0.241495        -6.5714
  44   2.0000      -0.226424        -6.1613
  45   2.0000      -0.210164        -5.7188
  46   2.0000      -0.208696        -5.6789
  47   2.0000      -0.201051        -5.4709
  48   0.0000       0.009687         0.2636
  49   0.0000       0.014714         0.4004
  50   0.0000       0.028718         0.7814
  51   0.0000       0.035753         0.9729
  52   0.0000       0.074070         2.0156

MULLIKEN ATOMIC CHARGES
-----------------------
   0 C :   -0.014173
   1 C :    0.069051
   2 H :    0.078536
   3 C :   -0.000312
   4 H :    0.073171
   5 C :    0.029356
   6 H :    0.054641
   7 C :    0.075702
   8 H :    0.083251
   9 C :    0.169614
  10 H :    0.066260
  11 O :   -0.316020
  12 O :   -0.383629
  13 O :   -0.434176
  14 O :   -0.389692
  15 O :   -0.416198
  16 O :   -0.440951
  17 H :    0.064439
  18 H :    0.117014
  19 H :    0.300854
  20 H :    0.299255
  21 H :    0.302792
  22 H :    0.308564
  23 H :    0.302652
Sum of atomic charges:   -0.0000000

LOEWDIN ATOMIC CHARGES
----------------------
   0 C :   -0.154228
   1 C :   -0.051214
   2 H :    0.121476
   3 C :   -0.084870
   4 H :    0.108102
   5 C :   -0.081961
   6 H :    0.096023
   7 C :   -0.068001
   8 H :    0.124640
   9 C :   -0.011867
  10 H :    0.099356
  11 O :   -0.144218
  12 O :   -0.302178
  13 O :   -0.318066
  14 O :   -0.302518
  15 O :   -0.309643
  16 O :   -0.347396
  17 H :    0.094624
  18 H :    0.108015
  19 H :    0.285149
  20 H :    0.271507
  21 H :    0.287721
  22 H :    0.291733
  23 H :    0.287814

  Mayer bond orders larger than 0.100000
B(  0-C ,  1-C ) :   1.0693 B(  0-C , 16-O ) :   1.0563 B(  0-C , 17-H ) :   0.9105
B(  0-C , 18-H ) :   0.8874 B(  1-C ,  2-H ) :   0.8906 B(  1-C ,  3-C ) :   1.0251
B(  1-C , 11-O ) :   1.0161 B(  3-C ,  4-H ) :   0.8876 B(  3-C ,  5-C ) :   0.9496
B(  3-C , 15-O ) :   1.0295 B(  5-C ,  6-H ) :   0.9050 B(  5-C ,  7-C ) :   0.9860
B(  5-C , 14-O ) :   1.0814 B(  7-C ,  8-H ) :   0.8826 B(  7-C ,  9-C ) :   1.0000
B(  7-C , 13-O ) :   1.0563 B(  9-C , 10-H ) :   0.9034 B(  9-C , 11-O ) :   1.0455
B(  9-C , 12-O ) :   1.1306 B( 12-O , 19-H ) :   0.8398 B( 13-O , 20-H ) :   0.8152
B( 14-O , 21-H ) :   0.8435 B( 15-O , 22-H ) :   0.8436 B( 16-O , 23-H ) :   0.8505

Dispersion correction           -0.025842716
FINAL SINGLE POINT ENERGY      -685.691556277092

DIPOLE MOMENT
-------------

Method             : SCF
Type of density    : Electron Density
Multiplicity       :   1
Irrep              :   0
Energy             :  -685.8220828589785469 Eh
Relativity type    :
Basis              : AO
                                X                 Y                 Z
Electronic contribution:      1.633231011      -0.237879357       1.358835665
Nuclear contribution   :     -2.612525622       0.556367513      -2.015847942
                        -----------------------------------------
Total Dipole Moment    :     -0.979294610       0.318488156      -0.657012277
                        -----------------------------------------
Magnitude (a.u.)       :      1.221522727
Magnitude (Debye)      :      3.104864023

Rotational constants in cm-1:             0.040174             0.029082             0.025128
Rotational constants in MHz :          1204.399276           871.850653           753.309125

                             ****ORCA TERMINATED NORMALLY****
TOTAL RUN TIME: 0 days 0 hours 0 minutes 12 seconds 71 msec
