                         Program Version 6.0.0  -   RELEASE  -
|  1> ! pbe def2-sv(p) def2/J RI DEFGRID1 loosescf d4 GCP(DFT/SV(P)) printgap
|  2> %output
|  3>     printlevel normal
|  4> end
|  5> * xyz 0 1
|  6> C -3.3633702027 -0.1540381213 -0.0484073688
|  7> C -2.178697101 0.7969233505 0.063651709
|  8> C -0.8176941849 0.1510018829 0.0061135472
|  9> C -0.6233658672 -1.2133679764 -0.1496183591
| 10> C 0.6593455641 -1.7374476153 -0.194583584
| 11> C 1.7637364874 -0.9180395643 -0.0861093649
| 12> C 1.5822354742 0.4535528756 0.0705409593
| 13> C 0.2985084033 0.9751693539 0.1152582597
| 14> O 2.6909732061 1.2393235728 0.1750129438
| 15> H -3.3562903074 -0.8784057761 0.7624262796
| 16> H -3.3453605676 -0.6855825966 -0.9967486042
| 17> H -4.2912462116 0.4103933198 0.0075351209
| 18> H -2.2529763446 1.3476777024 1.0058584841
| 19> H -2.2379539873 1.5346530214 -0.7419053734
| 20> H -1.464490693 -1.880801677 -0.2370817421
| 21> H 0.7979924476 -2.8012865465 -0.315995237
| 22> H 2.7674456027 -1.3112504299 -0.1193930684
| 23> H 0.1573097795 2.0408449394 0.2369547917
| 24> H 2.4379254009 2.1688169852 0.2794913526
| 25> *
| 26>
| 27>                          ****END OF INPUT****

CARTESIAN COORDINATES (ANGSTROEM)
---------------------------------
  C     -3.363370   -0.154038   -0.048407
  C     -2.178697    0.796923    0.063652
  C     -0.817694    0.151002    0.006114
  C     -0.623366   -1.213368   -0.149618
  C      0.659346   -1.737448   -0.194584
  C      1.763736   -0.918040   -0.086109
  C      1.582235    0.453553    0.070541
  C      0.298508    0.975169    0.115258
  O      2.690973    1.239324    0.175013
  H     -3.356290   -0.878406    0.762426
  H     -3.345361   -0.685583   -0.996749
  H     -4.291246    0.410393    0.007535
  H     -2.252976    1.347678    1.005858
  H     -2.237954    1.534653   -0.741905
  H     -1.464491   -1.880802   -0.237082
  H      0.797992   -2.801287   -0.315995
  H      2.767446   -1.311250   -0.119393
  H      0.157310    2.040845    0.236955
  H      2.437925    2.168817    0.279491

 Total Charge           Charge          ....    0
 Multiplicity           Mult            ....    1
 Number of Electrons    NEL             ....   66
 Basis Dimension        Dim             ....  146

ORBITAL ENERGIES
----------------

  NO   OCC          E(Eh)            E(eV)
   0   2.0000     -18.777438      -510.9601
   1   2.0000      -9.947618      -270.6885
   2   2.0000      -9.899820      -269.3878
   3   2.0000      -9.892721      -269.1946
   4   2.0000      -9.888133      -269.0698
   5   2.0000      -9.884255      -268.9643
   6   2.0000      -9.880318      -268.8571
   7   2.0000      -9.879264      -268.8284
   8   2.0000      -9.878363      -268.8039
   9   2.0000      -0.958572       -26.0841
  10   2.0000      -0.772144       -21.0111
  11   2.0000      -0.708552       -19.2807
  12   2.0000      -0.661792       -18.0083
  13   2.0000      -0.647704       -17.6249
  14   2.0000      -0.570691       -15.5293
  15   2.0000      -0.559045       -15.2124
  16   2.0000      -0.515544       -14.0287
  17   2.0000      -0.475567       -12.9408
  18   2.0000      -0.445958       -12.1351
  19   2.0000      -0.417222       -11.3532
  20   2.0000      -0.408241       -11.1088
  21   2.0000      -0.387738       -10.5509
  22   2.0000      -0.374581       -10.1929
  23   2.0000      -0.358309        -9.7501
  24   2.0000      -0.338348        -9.2069
  25   2.0000      -0.331558        -9.0222
  26   2.0000      -0.323100        -8.7920
  27   2.0000      -0.317777        -8.6472
  28   2.0000      -0.299193        -8.1414
  29   2.0000      -0.284754        -7.7485
  30   2.0000      -0.284659        -7.7460
  31   2.0000      -0.217025        -5.9056
  32   2.0000      -0.191822        -5.2197
  33   0.0000      -0.031859        -0.8669
  34   0.0000      -0.011453        -0.3116
  35   0.0000       0.025141         0.6841
  36   0.0000       0.045649         1.2422
  37   0.0000       0.061752         1.6804

MULLIKEN ATOMIC CHARGES
-----------------------
   0 C :   -0.264735
   1 C :   -0.159537
   2 C :    0.073117
   3 C :   -0.137812
   4 C :   -0.039385
   5 C :   -0.123722
   6 C :    0.263117
   7 C :   -0.242144
   8 O :   -0.338570
   9 H :    0.108879
  10 H :    0.109360
  11 H :    0.103117
  12 H :    0.097990
  13 H :    0.098221
  14 H :    0.035177
  15 H :    0.049297
  16 H :    0.042511
  17 H :    0.009755
  18 H :    0.315365
Sum of atomic charges:    0.0000000

LOEWDIN ATOMIC CHARGES
----------------------
   0 C :   -0.341022
   1 C :   -0.221409
   2 C :   -0.033239
   3 C :   -0.155938
   4 C :   -0.112092
   5 C :   -0.153971
   6 C :    0.025161
   7 C :   -0.177344
   8 O :   -0.238652
   9 H :    0.121215
  10 H :    0.121236
  11 H :    0.122150
  12 H :    0.128390
  13 H :    0.128585
  14 H :    0.121725
  15 H :    0.123644
  16 H :    0.129176
  17 H :    0.115727
  18 H :    0.296658

  Mayer bond orders larger than 0.100000
B(  0-C ,  1-C ) :   1.2038 B(  0-C ,  9-H ) :   0.9441 B(  0-C , 10-H ) :   0.9435
B(  0-C , 11-H ) :   0.9462 B(  1-C ,  2-C ) :   1.0422 B(  1-C , 12-H ) :   0.9056
B(  1-C , 13-H ) :   0.9051 B(  2-C ,  3-C ) :   1.4273 B(  2-C ,  7-C ) :   1.3608
B(  3-C ,  4-C ) :   1.3256 B(  3-C , 14-H ) :   0.9528 B(  4-C ,  5-C ) :   1.3866
B(  4-C , 15-H ) :   0.9611 B(  5-C ,  6-C ) :   1.3527 B(  5-C , 16-H ) :   0.9655
B(  6-C ,  7-C ) :   1.3061 B(  6-C ,  8-O ) :   1.1806 B(  7-C , 17-H ) :   0.9551
B(  8-O , 18-H ) :   0.8431

Dispersion correction           -0.018633051
FINAL SINGLE POINT ENERGY      -385.235003862007

DIPOLE MOMENT
-------------

Method             : SCF
Type of density    : Electron Density
Multiplicity       :   1
Irrep              :   0
Energy             :  -385.2946476436810599 Eh
Relativity type    :
Basis              : AO
                                X                 Y                 Z
Electronic contribution:      9.704018562       0.599349336       0.169051904
Nuclear contribution   :    -10.080750646      -0.033177128      -0.108915152
                        -----------------------------------------
Total Dipole Moment    :     -0.376732084       0.566172209       0.060136752
                        -----------------------------------------
Magnitude (a.u.)       :      0.682711111
Magnitude (Debye)      :      1.735313737

Rotational constants in cm-1:             0.119131             0.036001             0.027934
Rotational constants in MHz :          3571.443955          1079.281951           837.432460

                             ****ORCA TERMINATED NORMALLY****
TOTAL RUN TIME: 0 days 0 hours 0 minutes 8 seconds 896 msec
