                         Program Version 6.0.0  -   RELEASE  -
|  1> ! pbe def2-sv(p) def2/J RI DEFGRID1 loosescf d4 GCP(DFT/SV(P)) printgap
|  2> %output
|  3>     printlevel normal
|  4> end
|  5> * xyz 0 1
|  6> C -1.9524959288 -1.2579527139 -0.3556651942
|  7> C -1.2700408674 -0.4130225989 0.7338631125
|  8> H -1.9562637727 -0.3634102873 1.5856677813
|  9> C -0.9824994062 1.0307312224 0.2481659827
| 10> H -1.3601847024 1.1422882884 -0.7729860603
| 11> C 0.535966641 1.2755323586 0.2400468688
| 12> H 0.8910158885 1.3525205391 1.27713588
| 13> C 1.2246105869 0.0732591892 -0.4290731964
| 14> H 0.7588296999 -0.1429821856 -1.3960854883
| 15> C 1.0215998265 -1.1573787203 0.4774445984
| 16> H 1.8570106668 -1.2156570058 1.1940526782
| 17> O -0.1179624367 -1.0307831221 1.2994519136
| 18> O 0.9754821077 -2.2963714049 -0.3155409141
| 19> O 2.5794340664 0.307367148 -0.6990401804
| 20> O 0.889788254 2.4952466067 -0.3510200292
| 21> O -1.6787378722 1.9920622916 0.9983175882
| 22> O -1.3854036896 -1.0089880825 -1.6231333323
| 23> H -3.0160552482 -0.9857339323 -0.3652013151
| 24> H -1.8513507458 -2.3130381466 -0.0809485086
| 25> H 1.0150575216 -3.092405075 0.2365541027
| 26> H 2.9955395785 0.754276684 0.0531506517
| 27> H 0.632422432 2.4959158138 -1.2839003825
| 28> H -1.2921722336 2.0677276862 1.8827076191
| 29> H -1.7603537822 -1.6296021601 -2.2631006011
| 30> *
| 31>
| 32>                          ****END OF INPUT****

CARTESIAN COORDINATES (ANGSTROEM)
---------------------------------
  C     -1.952496   -1.257953   -0.355665
  C     -1.270041   -0.413023    0.733863
  H     -1.956264   -0.363410    1.585668
  C     -0.982499    1.030731    0.248166
  H     -1.360185    1.142288   -0.772986
  C      0.535967    1.275532    0.240047
  H      0.891016    1.352521    1.277136
  C      1.224611    0.073259   -0.429073
  H      0.758830   -0.142982   -1.396085
  C      1.021600   -1.157379    0.477445
  H      1.857011   -1.215657    1.194053
  O     -0.117962   -1.030783    1.299452
  O      0.975482   -2.296371   -0.315541
  O      2.579434    0.307367   -0.699040
  O      0.889788    2.495247   -0.351020
  O     -1.678738    1.992062    0.998318
  O     -1.385404   -1.008988   -1.623133
  H     -3.016055   -0.985734   -0.365201
  H     -1.851351   -2.313038   -0.080949
  H      1.015058   -3.092405    0.236554
  H      2.995540    0.754277    0.053151
  H      0.632422    2.495916   -1.283900
  H     -1.292172    2.067728    1.882708
  H     -1.760354   -1.629602   -2.263101

 Total Charge           Charge          ....    0
 Multiplicity           Mult            ....    1
 Number of Electrons    NEL             ....   96
 Basis Dimension        Dim             ....  192

ORBITAL ENERGIES
----------------

  NO   OCC          E(Eh)            E(eV)
   0   2.0000     -18.762635      -510.5573
   1   2.0000     -18.759267      -510.4656
   2   2.0000     -18.754628      -510.3394
   3   2.0000     -18.745131      -510.0809
   4   2.0000     -18.744114      -510.0533
   5   2.0000     -18.741963      -509.9947
   6   2.0000      -9.978608      -271.5317
   7   2.0000      -9.943285      -270.5705
   8   2.0000      -9.938981      -270.4534
   9   2.0000      -9.936873      -270.3961
  10   2.0000      -9.936038      -270.3733
  11   2.0000      -9.928941      -270.1802
  12   2.0000      -0.973364       -26.4866
  13   2.0000      -0.937079       -25.4992
  14   2.0000      -0.932500       -25.3746
  15   2.0000      -0.922832       -25.1115
  16   2.0000      -0.907466       -24.6934
  17   2.0000      -0.905983       -24.6530
  18   2.0000      -0.698918       -19.0185
  19   2.0000      -0.686413       -18.6783
  20   2.0000      -0.619074       -16.8459
  21   2.0000      -0.577544       -15.7158
  22   2.0000      -0.570443       -15.5225
  23   2.0000      -0.522874       -14.2281
  24   2.0000      -0.494698       -13.4614
  25   2.0000      -0.493353       -13.4248
  26   2.0000      -0.469657       -12.7800
  27   2.0000      -0.448284       -12.1984
  28   2.0000      -0.441102       -12.0030
  29   2.0000      -0.420215       -11.4346
  30   2.0000      -0.411939       -11.2094
  31   2.0000      -0.400972       -10.9110
  32   2.0000      -0.383179       -10.4268
  33   2.0000      -0.378520       -10.3000
  34   2.0000      -0.347985        -9.4691
  35   2.0000      -0.343210        -9.3392
  36   2.0000      -0.320888        -8.7318
  37   2.0000      -0.316468        -8.6115
  38   2.0000      -0.295571        -8.0429
  39   2.0000      -0.282937        -7.6991
  40   2.0000      -0.276881        -7.5343
  41   2.0000      -0.265751        -7.2315
  42   2.0000      -0.246593        -6.7101
  43   2.0000      -0.238448        -6.4885
  44   2.0000      -0.226324        -6.1586
  45   2.0000      -0.223451        -6.0804
  46   2.0000      -0.203933        -5.5493
  47   2.0000      -0.198037        -5.3889
  48   0.0000       0.017513         0.4766
  49   0.0000       0.029922         0.8142
  50   0.0000       0.037198         1.0122
  51   0.0000       0.037741         1.0270
  52   0.0000       0.048317         1.3148

MULLIKEN ATOMIC CHARGES
-----------------------
   0 C :    0.033648
   1 C :    0.029327
   2 H :    0.067846
   3 C :    0.070519
   4 H :    0.071045
   5 C :    0.032643
   6 H :    0.035569
   7 C :   -0.005850
   8 H :    0.087400
   9 C :    0.224462
  10 H :    0.038710
  11 O :   -0.318483
  12 O :   -0.379976
  13 O :   -0.402713
  14 O :   -0.401900
  15 O :   -0.410473
  16 O :   -0.422764
  17 H :    0.080675
  18 H :    0.070585
  19 H :    0.296813
  20 H :    0.296751
  21 H :    0.300729
  22 H :    0.297017
  23 H :    0.308418
Sum of atomic charges:   -0.0000000

LOEWDIN ATOMIC CHARGES
----------------------
   0 C :   -0.135355
   1 C :   -0.067630
   2 H :    0.121417
   3 C :   -0.077731
   4 H :    0.117999
   5 C :   -0.085416
   6 H :    0.104295
   7 C :   -0.099106
   8 H :    0.124703
   9 C :   -0.007988
  10 H :    0.090118
  11 O :   -0.159368
  12 O :   -0.300693
  13 O :   -0.305930
  14 O :   -0.307711
  15 O :   -0.312519
  16 O :   -0.330093
  17 H :    0.103120
  18 H :    0.101055
  19 H :    0.282801
  20 H :    0.281839
  21 H :    0.288110
  22 H :    0.282661
  23 H :    0.291423

  Mayer bond orders larger than 0.100000
B(  0-C ,  1-C ) :   1.0578 B(  0-C , 16-O ) :   1.0675 B(  0-C , 17-H ) :   0.9104
B(  0-C , 18-H ) :   0.9048 B(  1-C ,  2-H ) :   0.8920 B(  1-C ,  3-C ) :   0.9500
B(  1-C , 11-O ) :   1.0419 B(  3-C ,  4-H ) :   0.8665 B(  3-C ,  5-C ) :   1.0134
B(  3-C , 15-O ) :   1.0504 B(  5-C ,  6-H ) :   0.8512 B(  5-C ,  7-C ) :   0.9962
B(  5-C , 14-O ) :   1.0847 B(  7-C ,  8-H ) :   0.8564 B(  7-C ,  9-C ) :   0.9621
B(  7-C , 13-O ) :   1.0611 B(  9-C , 10-H ) :   0.8854 B(  9-C , 11-O ) :   1.0336
B(  9-C , 12-O ) :   1.1549 B( 12-O , 19-H ) :   0.8424 B( 13-O , 20-H ) :   0.8474
B( 14-O , 21-H ) :   0.8494 B( 15-O , 22-H ) :   0.8512 B( 16-O , 23-H ) :   0.8447

Dispersion correction           -0.025224383
FINAL SINGLE POINT ENERGY      -685.682795146043

DIPOLE MOMENT
-------------

Method             : SCF
Type of density    : Electron Density
Multiplicity       :   1
Irrep              :   0
Energy             :  -685.8122359325313937 Eh
Relativity type    :
Basis              : AO
                                X                 Y                 Z
Electronic contribution:      2.404159483       0.860150785       0.298695831
Nuclear contribution   :     -2.876961693      -1.803969000       0.052664594
                        -----------------------------------------
Total Dipole Moment    :     -0.472802211      -0.943818215       0.351360425
                        -----------------------------------------
Magnitude (a.u.)       :      1.112559617
Magnitude (Debye)      :      2.827901810

Rotational constants in cm-1:             0.034829             0.032961             0.022301
Rotational constants in MHz :          1044.147335           988.155932           668.556981

                             ****ORCA TERMINATED NORMALLY****
TOTAL RUN TIME: 0 days 0 hours 0 minutes 12 seconds 231 msec
