                         Program Version 6.0.0  -   RELEASE  -
|  1> ! pbe def2-sv(p) def2/J RI DEFGRID1 loosescf d4 GCP(DFT/SV(P)) printgap
|  2> %output
|  3>     printlevel normal
|  4> end
|  5> * xyz 0 1
|  6> C -1.5053097154 -0.8350044952 0.7343116373
|  7> C -0.8040821923 0.1742289394 0.0822467528
|  8> C -1.5009860622 1.1897094481 -0.5657161486
|  9> C -2.8851938884 1.1812719506 -0.577815911
| 10> C -3.5964526629 0.1694306771 0.0634336035
| 11> C -2.8894098381 -0.8330410459 0.7236643116
| 12> Cl -3.7523607539 -2.087867131 1.5359933142
| 13> Cl -5.3219024891 0.1590255373 0.0430020162
| 14> Cl -3.7433411954 2.4341969036 -1.3965731684
| 15> C 0.6714639398 0.1919341344 0.0850620756
| 16> C 1.340628309 1.3432917374 0.4880059858
| 17> C 2.7238637134 1.3920033042 0.5081280056
| 18> C 3.4730245511 0.2848575472 0.1139867364
| 19> C 2.8135539694 -0.8680046262 -0.3069321129
| 20> C 1.4206863818 -0.9155254961 -0.3200262326
| 21> Cl 0.6491296015 -2.3417669679 -0.901087057
| 22> Cl 3.7303193877 -2.233104107 -0.8161185157
| 23> Cl 5.1926395531 0.334641831 0.1365613415
| 24> Cl 3.529151566 2.8234052728 1.0215888508
| 25> H -0.9834697264 -1.6131232933 1.2653629457
| 26> H -0.9708398901 1.9749981027 -1.0781056893
| 27> H 0.7745763934 2.2031086885 0.8061758372
| 28> *
| 29>
| 30>                          ****END OF INPUT****

CARTESIAN COORDINATES (ANGSTROEM)
---------------------------------
  C     -1.505310   -0.835004    0.734312
  C     -0.804082    0.174229    0.082247
  C     -1.500986    1.189709   -0.565716
  C     -2.885194    1.181272   -0.577816
  C     -3.596453    0.169431    0.063434
  C     -2.889410   -0.833041    0.723664
  Cl    -3.752361   -2.087867    1.535993
  Cl    -5.321902    0.159026    0.043002
  Cl    -3.743341    2.434197   -1.396573
  C      0.671464    0.191934    0.085062
  C      1.340628    1.343292    0.488006
  C      2.723864    1.392003    0.508128
  C      3.473025    0.284858    0.113987
  C      2.813554   -0.868005   -0.306932
  C      1.420686   -0.915525   -0.320026
  Cl     0.649130   -2.341767   -0.901087
  Cl     3.730319   -2.233104   -0.816119
  Cl     5.192640    0.334642    0.136561
  Cl     3.529152    2.823405    1.021589
  H     -0.983470   -1.613123    1.265363
  H     -0.970840    1.974998   -1.078106
  H      0.774576    2.203109    0.806176

 Total Charge           Charge          ....    0
 Multiplicity           Mult            ....    1
 Number of Electrons    NEL             ....  194
 Basis Dimension        Dim             ....  300

ORBITAL ENERGIES
----------------

  NO   OCC          E(Eh)            E(eV)
   0   2.0000    -100.665945     -2739.2596
   1   2.0000    -100.664610     -2739.2233
   2   2.0000    -100.664347     -2739.2161
   3   2.0000    -100.662229     -2739.1585
   4   2.0000    -100.658615     -2739.0602
   5   2.0000    -100.657839     -2739.0390
   6   2.0000    -100.657036     -2739.0172
   7   2.0000      -9.989398      -271.8253
   8   2.0000      -9.986460      -271.7454
   9   2.0000      -9.985257      -271.7127
  10   2.0000      -9.981178      -271.6017
  11   2.0000      -9.979289      -271.5503
  12   2.0000      -9.978673      -271.5335
  13   2.0000      -9.978348      -271.5247
  14   2.0000      -9.947439      -270.6836
  15   2.0000      -9.941295      -270.5164
  16   2.0000      -9.933051      -270.2920
  17   2.0000      -9.928709      -270.1739
  18   2.0000      -9.928475      -270.1676
  19   2.0000      -9.201464      -250.3846
  20   2.0000      -9.200329      -250.3537
  21   2.0000      -9.200069      -250.3466
  22   2.0000      -9.198079      -250.2925
  23   2.0000      -9.194298      -250.1896
  24   2.0000      -9.193722      -250.1739
  25   2.0000      -9.192913      -250.1519
  26   2.0000      -7.033072      -191.3796
  27   2.0000      -7.032096      -191.3531
  28   2.0000      -7.031867      -191.3468
  29   2.0000      -7.029686      -191.2875
  30   2.0000      -7.026076      -191.1892
  31   2.0000      -7.025317      -191.1686
  32   2.0000      -7.024519      -191.1469
  33   2.0000      -7.021550      -191.0661
  34   2.0000      -7.020479      -191.0369
  35   2.0000      -7.020393      -191.0346
  36   2.0000      -7.020132      -191.0275
  37   2.0000      -7.019205      -191.0023
  38   2.0000      -7.018941      -190.9951
  39   2.0000      -7.018084      -190.9718
  40   2.0000      -7.017176      -190.9471
  41   2.0000      -7.014363      -190.8705
  42   2.0000      -7.013737      -190.8535
  43   2.0000      -7.013195      -190.8387
  44   2.0000      -7.012930      -190.8315
  45   2.0000      -7.012823      -190.8286
  46   2.0000      -7.012003      -190.8063
  47   2.0000      -0.877391       -23.8750
  48   2.0000      -0.863306       -23.4917
  49   2.0000      -0.837413       -22.7872
  50   2.0000      -0.818282       -22.2666
  51   2.0000      -0.817385       -22.2422
  52   2.0000      -0.794518       -21.6199
  53   2.0000      -0.787531       -21.4298
  54   2.0000      -0.779291       -21.2056
  55   2.0000      -0.762461       -20.7476
  56   2.0000      -0.707386       -19.2489
  57   2.0000      -0.681745       -18.5512
  58   2.0000      -0.673208       -18.3189
  59   2.0000      -0.659427       -17.9439
  60   2.0000      -0.592455       -16.1215
  61   2.0000      -0.576428       -15.6854
  62   2.0000      -0.564533       -15.3617
  63   2.0000      -0.544695       -14.8219
  64   2.0000      -0.498130       -13.5548
  65   2.0000      -0.494506       -13.4562
  66   2.0000      -0.474035       -12.8991
  67   2.0000      -0.468650       -12.7526
  68   2.0000      -0.444345       -12.0913
  69   2.0000      -0.432621       -11.7722
  70   2.0000      -0.423871       -11.5341
  71   2.0000      -0.420322       -11.4375
  72   2.0000      -0.418727       -11.3941
  73   2.0000      -0.412624       -11.2281
  74   2.0000      -0.403912       -10.9910
  75   2.0000      -0.392273       -10.6743
  76   2.0000      -0.378186       -10.2910
  77   2.0000      -0.363740        -9.8979
  78   2.0000      -0.361835        -9.8460
  79   2.0000      -0.357818        -9.7367
  80   2.0000      -0.340410        -9.2630
  81   2.0000      -0.338132        -9.2010
  82   2.0000      -0.319752        -8.7009
  83   2.0000      -0.307719        -8.3735
  84   2.0000      -0.306764        -8.3475
  85   2.0000      -0.302282        -8.2255
  86   2.0000      -0.300022        -8.1640
  87   2.0000      -0.298156        -8.1132
  88   2.0000      -0.288837        -7.8597
  89   2.0000      -0.287204        -7.8152
  90   2.0000      -0.284426        -7.7396
  91   2.0000      -0.265682        -7.2296
  92   2.0000      -0.264508        -7.1976
  93   2.0000      -0.245014        -6.6672
  94   2.0000      -0.235567        -6.4101
  95   2.0000      -0.234084        -6.3698
  96   2.0000      -0.223734        -6.0881
  97   0.0000      -0.091076        -2.4783
  98   0.0000      -0.076079        -2.0702
  99   0.0000      -0.068859        -1.8737
 100   0.0000      -0.054847        -1.4925
 101   0.0000      -0.052151        -1.4191

MULLIKEN ATOMIC CHARGES
-----------------------
   0 C :   -0.123671
   1 C :    0.082953
   2 C :   -0.146874
   3 C :    0.069879
   4 C :    0.044171
   5 C :    0.059953
   6 Cl:   -0.041799
   7 Cl:   -0.018314
   8 Cl:   -0.042252
   9 C :    0.077746
  10 C :   -0.188315
  11 C :    0.089573
  12 C :    0.028323
  13 C :    0.009094
  14 C :    0.019623
  15 Cl:   -0.019139
  16 Cl:   -0.012056
  17 Cl:   -0.010904
  18 Cl:   -0.037260
  19 H :    0.052211
  20 H :    0.052444
  21 H :    0.054616
Sum of atomic charges:    0.0000000

LOEWDIN ATOMIC CHARGES
----------------------
   0 C :   -0.131176
   1 C :   -0.030833
   2 C :   -0.130421
   3 C :   -0.149208
   4 C :   -0.177068
   5 C :   -0.148855
   6 Cl:    0.157649
   7 Cl:    0.166480
   8 Cl:    0.157479
   9 C :   -0.040927
  10 C :   -0.125732
  11 C :   -0.156097
  12 C :   -0.176932
  13 C :   -0.172600
  14 C :   -0.152135
  15 Cl:    0.182974
  16 Cl:    0.173892
  17 Cl:    0.174691
  18 Cl:    0.163091
  19 H :    0.134907
  20 H :    0.138748
  21 H :    0.142074

  Mayer bond orders larger than 0.100000
B(  0-C ,  1-C ) :   1.3039 B(  0-C ,  5-C ) :   1.3741 B(  0-C , 19-H ) :   0.9642
B(  1-C ,  2-C ) :   1.3171 B(  1-C ,  9-C ) :   0.9529 B(  2-C ,  3-C ) :   1.3550
B(  2-C , 20-H ) :   0.9686 B(  3-C ,  4-C ) :   1.4047 B(  3-C ,  8-Cl) :   1.0410
B(  4-C ,  5-C ) :   1.3993 B(  4-C ,  7-Cl) :   1.1166 B(  5-C ,  6-Cl) :   1.0410
B(  9-C , 10-C ) :   1.3142 B(  9-C , 14-C ) :   1.3969 B( 10-C , 11-C ) :   1.3216
B( 10-C , 21-H ) :   0.9754 B( 11-C , 12-C ) :   1.3950 B( 11-C , 18-Cl) :   1.0398
B( 12-C , 13-C ) :   1.4150 B( 12-C , 17-Cl) :   1.1227 B( 13-C , 14-C ) :   1.3864
B( 13-C , 16-Cl) :   1.1220 B( 14-C , 15-Cl) :   1.1023

Dispersion correction           -0.048140190
FINAL SINGLE POINT ENERGY     -3677.236971537048

DIPOLE MOMENT
-------------

Method             : SCF
Type of density    : Electron Density
Multiplicity       :   1
Irrep              :   0
Energy             : -3677.2568331392872096 Eh
Relativity type    :
Basis              : AO
                                X                 Y                 Z
Electronic contribution:      1.705910426      -3.444769668      -1.357629204
Nuclear contribution   :     -1.487497760       3.629791321       1.437537064
                        -----------------------------------------
Total Dipole Moment    :      0.218412666       0.185021653       0.079907860
                        -----------------------------------------
Magnitude (a.u.)       :      0.297190799
Magnitude (Debye)      :      0.755398978

Rotational constants in cm-1:             0.011813             0.003384             0.002878
Rotational constants in MHz :           354.130642           101.439976            86.274584

                             ****ORCA TERMINATED NORMALLY****
TOTAL RUN TIME: 0 days 0 hours 0 minutes 19 seconds 798 msec
