                         Program Version 6.0.0  -   RELEASE  -
|  1> ! pbe def2-sv(p) def2/J RI DEFGRID1 loosescf d4 GCP(DFT/SV(P)) printgap
|  2> %output
|  3>     printlevel normal
|  4> end
|  5> * xyz 0 1
|  6> C 0.7329165388 -1.1661893281 0.2204176154
|  7> C -0.7321598306 -1.1666205197 -0.2204261035
|  8> O -1.3920534804 -0.0004155801 0.2437986392
|  9> C -0.7329247359 1.1662153849 -0.2204140266
| 10> C 0.7321623906 1.1666062231 0.2204106771
| 11> O 1.3920660045 0.0004080175 -0.2438035432
| 12> H 1.2709500815 -2.0100895211 -0.2094550701
| 13> H 0.7862999822 -1.2046686069 1.3176884605
| 14> H -0.7857080929 -1.2052805484 -1.3176758127
| 15> H -1.2695941567 -2.0108889133 0.2095582984
| 16> H -0.7863953676 1.2048031364 -1.3176916553
| 17> H -1.2709260502 2.0101004435 0.2095521359
| 18> H 1.2696563456 2.0108138917 -0.20948234
| 19> H 0.7855856307 1.2051900251 1.3177248855
| 20> *
| 21>
| 22>                          ****END OF INPUT****

CARTESIAN COORDINATES (ANGSTROEM)
---------------------------------
  C      0.732917   -1.166189    0.220418
  C     -0.732160   -1.166621   -0.220426
  O     -1.392053   -0.000416    0.243799
  C     -0.732925    1.166215   -0.220414
  C      0.732162    1.166606    0.220411
  O      1.392066    0.000408   -0.243804
  H      1.270950   -2.010090   -0.209455
  H      0.786300   -1.204669    1.317688
  H     -0.785708   -1.205281   -1.317676
  H     -1.269594   -2.010889    0.209558
  H     -0.786395    1.204803   -1.317692
  H     -1.270926    2.010100    0.209552
  H      1.269656    2.010814   -0.209482
  H      0.785586    1.205190    1.317725

 Total Charge           Charge          ....    0
 Multiplicity           Mult            ....    1
 Number of Electrons    NEL             ....   48
 Basis Dimension        Dim             ....  100

ORBITAL ENERGIES
----------------

  NO   OCC          E(Eh)            E(eV)
   0   2.0000     -18.758616      -510.4479
   1   2.0000     -18.758534      -510.4457
   2   2.0000      -9.933310      -270.2991
   3   2.0000      -9.933293      -270.2987
   4   2.0000      -9.933277      -270.2982
   5   2.0000      -9.933268      -270.2980
   6   2.0000      -0.960035       -26.1239
   7   2.0000      -0.921369       -25.0717
   8   2.0000      -0.703834       -19.1523
   9   2.0000      -0.618940       -16.8422
  10   2.0000      -0.601173       -16.3587
  11   2.0000      -0.515309       -14.0223
  12   2.0000      -0.454630       -12.3711
  13   2.0000      -0.437648       -11.9090
  14   2.0000      -0.430794       -11.7225
  15   2.0000      -0.427433       -11.6311
  16   2.0000      -0.397181       -10.8078
  17   2.0000      -0.355083        -9.6623
  18   2.0000      -0.330040        -8.9809
  19   2.0000      -0.322853        -8.7853
  20   2.0000      -0.310299        -8.4437
  21   2.0000      -0.256432        -6.9779
  22   2.0000      -0.233157        -6.3445
  23   2.0000      -0.191292        -5.2053
  24   0.0000       0.045376         1.2347
  25   0.0000       0.056986         1.5507
  26   0.0000       0.068317         1.8590
  27   0.0000       0.070870         1.9285
  28   0.0000       0.093600         2.5470

MULLIKEN ATOMIC CHARGES
-----------------------
   0 C :    0.004260
   1 C :    0.004201
   2 O :   -0.339770
   3 C :    0.004248
   4 C :    0.004197
   5 O :   -0.339758
   6 H :    0.095596
   7 H :    0.070051
   8 H :    0.070067
   9 H :    0.095593
  10 H :    0.070061
  11 H :    0.095599
  12 H :    0.095588
  13 H :    0.070066
Sum of atomic charges:   -0.0000000

LOEWDIN ATOMIC CHARGES
----------------------
   0 C :   -0.131279
   1 C :   -0.131274
   2 O :   -0.175386
   3 C :   -0.131273
   4 C :   -0.131275
   5 O :   -0.175376
   6 H :    0.117950
   7 H :    0.101018
   8 H :    0.101019
   9 H :    0.117946
  10 H :    0.101016
  11 H :    0.117951
  12 H :    0.117947
  13 H :    0.101014

  Mayer bond orders larger than 0.100000
B(  0-C ,  1-C ) :   1.1214 B(  0-C ,  5-O ) :   1.0232 B(  0-C ,  6-H ) :   0.9245
B(  0-C ,  7-H ) :   0.8968 B(  1-C ,  2-O ) :   1.0232 B(  1-C ,  8-H ) :   0.8969
B(  1-C ,  9-H ) :   0.9245 B(  2-O ,  3-C ) :   1.0232 B(  3-C ,  4-C ) :   1.1214
B(  3-C , 10-H ) :   0.8968 B(  3-C , 11-H ) :   0.9245 B(  4-C ,  5-O ) :   1.0232
B(  4-C , 12-H ) :   0.9245 B(  4-C , 13-H ) :   0.8968

Dispersion correction           -0.010403502
FINAL SINGLE POINT ENERGY      -306.977556656242

DIPOLE MOMENT
-------------

Method             : SCF
Type of density    : Electron Density
Multiplicity       :   1
Irrep              :   0
Energy             :  -307.0402163903539758 Eh
Relativity type    :
Basis              : AO
                                X                 Y                 Z
Electronic contribution:      0.000125364       0.000025352      -0.000233332
Nuclear contribution   :     -0.000123303      -0.000018963       0.000205295
                        -----------------------------------------
Total Dipole Moment    :      0.000002060       0.000006389      -0.000028037
                        -----------------------------------------
Magnitude (a.u.)       :      0.000028829
Magnitude (Debye)      :      0.000073277

Rotational constants in cm-1:             0.170400             0.155802             0.091468
Rotational constants in MHz :          5108.459712          4670.840206          2742.142965

                             ****ORCA TERMINATED NORMALLY****
TOTAL RUN TIME: 0 days 0 hours 0 minutes 5 seconds 69 msec
