                         Program Version 6.0.0  -   RELEASE  -
|  1> ! r2scan-3c def2/J RI DEFGRID2 scfconv6 printgap
|  2> %output
|  3>     printlevel normal
|  4> end
|  5> * xyz 0 1
|  6> C -2.5359213278 0.631332651 0.0662829881
|  7> C -1.3925620224 -0.3374420983 -0.1726219848
|  8> O -0.1723873972 0.4135112942 -0.2866053397
|  9> C 0.9708068719 -0.1670359091 0.0543720453
| 10> O 1.046793258 -1.3111226309 0.4552693816
| 11> C 2.132435365 0.7641133252 -0.121812741
| 12> H -3.4685065427 0.0794348849 0.1239603119
| 13> H -2.3823582637 1.1716310403 0.9959834503
| 14> H -2.5904587928 1.3460888293 -0.7494198526
| 15> H -1.5320504086 -0.8926445795 -1.1055016461
| 16> H -1.2847248843 -1.0546378287 0.647564717
| 17> H 3.0364304297 0.2945108842 0.2510694773
| 18> H 1.9342803806 1.6913138511 0.4081659231
| 19> H 2.2412967163 0.9955344855 -1.1783087355
| 20> *
| 21>
| 22>                          ****END OF INPUT****

CARTESIAN COORDINATES (ANGSTROEM)
---------------------------------
  C     -2.535921    0.631333    0.066283
  C     -1.392562   -0.337442   -0.172622
  O     -0.172387    0.413511   -0.286605
  C      0.970807   -0.167036    0.054372
  O      1.046793   -1.311123    0.455269
  C      2.132435    0.764113   -0.121813
  H     -3.468507    0.079435    0.123960
  H     -2.382358    1.171631    0.995983
  H     -2.590459    1.346089   -0.749420
  H     -1.532050   -0.892645   -1.105502
  H     -1.284725   -1.054638    0.647565
  H      3.036430    0.294511    0.251069
  H      1.934280    1.691314    0.408166
  H      2.241297    0.995534   -1.178309

 Total Charge           Charge          ....    0
 Multiplicity           Mult            ....    1
 Number of Electrons    NEL             ....   48
 Basis Dimension        Dim             ....  164

ORBITAL ENERGIES
----------------

  NO   OCC          E(Eh)            E(eV)
   0   2.0000     -18.996439      -516.9194
   1   2.0000     -18.927337      -515.0390
   2   2.0000     -10.155077      -276.3337
   3   2.0000     -10.091357      -274.5998
   4   2.0000     -10.039156      -273.1793
   5   2.0000     -10.032471      -272.9974
   6   2.0000      -1.071496       -29.1569
   7   2.0000      -0.974525       -26.5182
   8   2.0000      -0.757282       -20.6067
   9   2.0000      -0.708047       -19.2669
  10   2.0000      -0.614324       -16.7166
  11   2.0000      -0.534977       -14.5575
  12   2.0000      -0.467800       -12.7295
  13   2.0000      -0.456043       -12.4096
  14   2.0000      -0.435384       -11.8474
  15   2.0000      -0.415487       -11.3060
  16   2.0000      -0.386692       -10.5224
  17   2.0000      -0.370837       -10.0910
  18   2.0000      -0.368785       -10.0352
  19   2.0000      -0.353984        -9.6324
  20   2.0000      -0.329337        -8.9617
  21   2.0000      -0.311623        -8.4797
  22   2.0000      -0.271419        -7.3857
  23   2.0000      -0.235114        -6.3978
  24   0.0000      -0.012912        -0.3514
  25   0.0000       0.077983         2.1220
  26   0.0000       0.094944         2.5835
  27   0.0000       0.117011         3.1840
  28   0.0000       0.130238         3.5439

MULLIKEN ATOMIC CHARGES
-----------------------
   0 C :   -0.440779
   1 C :   -0.146481
   2 O :   -0.169369
   3 C :    0.424712
   4 O :   -0.432560
   5 C :   -0.517264
   6 H :    0.146675
   7 H :    0.151759
   8 H :    0.152164
   9 H :    0.144613
  10 H :    0.175123
  11 H :    0.177438
  12 H :    0.166275
  13 H :    0.167694
Sum of atomic charges:   -0.0000000

LOEWDIN ATOMIC CHARGES
----------------------
   0 C :   -0.387166
   1 C :    0.032827
   2 O :   -0.599635
   3 C :    0.353094
   4 O :   -0.434181
   5 C :   -0.336431
   6 H :    0.159459
   7 H :    0.158513
   8 H :    0.158782
   9 H :    0.174407
  10 H :    0.189574
  11 H :    0.174524
  12 H :    0.177339
  13 H :    0.178894

  Mayer bond orders larger than 0.100000
B(  0-C ,  1-C ) :   0.9473 B(  0-C ,  6-H ) :   0.9676 B(  0-C ,  7-H ) :   0.9743
B(  0-C ,  8-H ) :   0.9687 B(  1-C ,  2-O ) :   0.7887 B(  1-C ,  9-H ) :   0.9460
B(  1-C , 10-H ) :   0.9644 B(  2-O ,  3-C ) :   1.0695 B(  3-C ,  4-O ) :   1.8332
B(  3-C ,  5-C ) :   0.9565 B(  5-C , 11-H ) :   0.9883 B(  5-C , 12-H ) :   0.9556
B(  5-C , 13-H ) :   0.9475

Dispersion correction           -0.002877483
FINAL SINGLE POINT ENERGY      -307.637087203804

DIPOLE MOMENT
-------------

Method             : SCF
Type of density    : Electron Density
Multiplicity       :   1
Irrep              :   0
Energy             :  -307.6433371220190338 Eh
Relativity type    :
Basis              : AO
                                X                 Y                 Z
Electronic contribution:      3.354501028      -2.659661843       0.300540764
Nuclear contribution   :     -3.782946227       3.393391169      -0.566483933
                        -----------------------------------------
Total Dipole Moment    :     -0.428445200       0.733729326      -0.265943169
                        -----------------------------------------
Magnitude (a.u.)       :      0.890308813
Magnitude (Debye)      :      2.262985160

Rotational constants in cm-1:             0.275171             0.070177             0.058744
Rotational constants in MHz :          8249.408238          2103.852510          1761.114416

                             ****ORCA TERMINATED NORMALLY****
TOTAL RUN TIME: 0 days 0 hours 0 minutes 15 seconds 156 msec
