                         Program Version 6.0.0  -   RELEASE  -
|  1> ! r2scan-3c def2/J RI DEFGRID2 scfconv6 printgap
|  2> %output
|  3>     printlevel normal
|  4> end
|  5> %cpcm
|  6>     smd true
|  7>     smdsolvent "water"
|  8> end
|  9> * xyz 0 1
| 10> C -2.5359213278 0.631332651 0.0662829881
| 11> C -1.3925620224 -0.3374420983 -0.1726219848
| 12> O -0.1723873972 0.4135112942 -0.2866053397
| 13> C 0.9708068719 -0.1670359091 0.0543720453
| 14> O 1.046793258 -1.3111226309 0.4552693816
| 15> C 2.132435365 0.7641133252 -0.121812741
| 16> H -3.4685065427 0.0794348849 0.1239603119
| 17> H -2.3823582637 1.1716310403 0.9959834503
| 18> H -2.5904587928 1.3460888293 -0.7494198526
| 19> H -1.5320504086 -0.8926445795 -1.1055016461
| 20> H -1.2847248843 -1.0546378287 0.647564717
| 21> H 3.0364304297 0.2945108842 0.2510694773
| 22> H 1.9342803806 1.6913138511 0.4081659231
| 23> H 2.2412967163 0.9955344855 -1.1783087355
| 24> *
| 25>
| 26>                          ****END OF INPUT****

CARTESIAN COORDINATES (ANGSTROEM)
---------------------------------
  C     -2.535921    0.631333    0.066283
  C     -1.392562   -0.337442   -0.172622
  O     -0.172387    0.413511   -0.286605
  C      0.970807   -0.167036    0.054372
  O      1.046793   -1.311123    0.455269
  C      2.132435    0.764113   -0.121813
  H     -3.468507    0.079435    0.123960
  H     -2.382358    1.171631    0.995983
  H     -2.590459    1.346089   -0.749420
  H     -1.532050   -0.892645   -1.105502
  H     -1.284725   -1.054638    0.647565
  H      3.036430    0.294511    0.251069
  H      1.934280    1.691314    0.408166
  H      2.241297    0.995534   -1.178309

 Total Charge           Charge          ....    0
 Multiplicity           Mult            ....    1
 Number of Electrons    NEL             ....   48
 Basis Dimension        Dim             ....  164

ORBITAL ENERGIES
----------------

  NO   OCC          E(Eh)            E(eV)
   0   2.0000     -19.001581      -517.0593
   1   2.0000     -18.943325      -515.4741
   2   2.0000     -10.165437      -276.6156
   3   2.0000     -10.083225      -274.3785
   4   2.0000     -10.030305      -272.9385
   5   2.0000     -10.018616      -272.6204
   6   2.0000      -1.078480       -29.3469
   7   2.0000      -0.988303       -26.8931
   8   2.0000      -0.751557       -20.4509
   9   2.0000      -0.700074       -19.0500
  10   2.0000      -0.606959       -16.5162
  11   2.0000      -0.532755       -14.4970
  12   2.0000      -0.466657       -12.6984
  13   2.0000      -0.461605       -12.5609
  14   2.0000      -0.443302       -12.0629
  15   2.0000      -0.409457       -11.1419
  16   2.0000      -0.379733       -10.3330
  17   2.0000      -0.364811        -9.9270
  18   2.0000      -0.359960        -9.7950
  19   2.0000      -0.347859        -9.4657
  20   2.0000      -0.328437        -8.9372
  21   2.0000      -0.311050        -8.4641
  22   2.0000      -0.277027        -7.5383
  23   2.0000      -0.252054        -6.8587
  24   0.0000      -0.020624        -0.5612
  25   0.0000       0.082078         2.2334
  26   0.0000       0.104482         2.8431
  27   0.0000       0.127920         3.4809
  28   0.0000       0.140743         3.8298

MULLIKEN ATOMIC CHARGES
-----------------------
   0 C :   -0.486335
   1 C :   -0.142817
   2 O :   -0.184837
   3 C :    0.470534
   4 O :   -0.522352
   5 C :   -0.554128
   6 H :    0.168212
   7 H :    0.164943
   8 H :    0.164248
   9 H :    0.170320
  10 H :    0.173908
  11 H :    0.185465
  12 H :    0.194281
  13 H :    0.198560
Sum of atomic charges:   -0.0000000

LOEWDIN ATOMIC CHARGES
----------------------
   0 C :   -0.390383
   1 C :    0.036090
   2 O :   -0.600746
   3 C :    0.364167
   4 O :   -0.498201
   5 C :   -0.334871
   6 H :    0.168062
   7 H :    0.161671
   8 H :    0.162147
   9 H :    0.183612
  10 H :    0.189893
  11 H :    0.178255
  12 H :    0.188959
  13 H :    0.191345

  Mayer bond orders larger than 0.100000
B(  0-C ,  1-C ) :   0.9450 B(  0-C ,  6-H ) :   0.9613 B(  0-C ,  7-H ) :   0.9727
B(  0-C ,  8-H ) :   0.9659 B(  1-C ,  2-O ) :   0.7762 B(  1-C ,  9-H ) :   0.9373
B(  1-C , 10-H ) :   0.9595 B(  2-O ,  3-C ) :   1.0983 B(  3-C ,  4-O ) :   1.7616
B(  3-C ,  5-C ) :   0.9548 B(  5-C , 11-H ) :   0.9814 B(  5-C , 12-H ) :   0.9441
B(  5-C , 13-H ) :   0.9350

Dispersion correction           -0.002877483
FINAL SINGLE POINT ENERGY      -307.642934260570

DIPOLE MOMENT
-------------

Method             : SCF
Type of density    : Electron Density
Multiplicity       :   1
Irrep              :   0
Energy             :  -307.6491841787853332 Eh
Relativity type    :
Basis              : AO
                                X                 Y                 Z
Electronic contribution:      3.222678990      -2.372271920       0.181269144
Nuclear contribution   :     -3.782946227       3.393391169      -0.566483933
                        -----------------------------------------
Total Dipole Moment    :     -0.560267238       1.021119249      -0.385214789
                        -----------------------------------------
Magnitude (a.u.)       :      1.226773953
Magnitude (Debye)      :      3.118211581

Rotational constants in cm-1:             0.275171             0.070177             0.058744
Rotational constants in MHz :          8249.408238          2103.852510          1761.114416

                             ****ORCA TERMINATED NORMALLY****
TOTAL RUN TIME: 0 days 0 hours 0 minutes 17 seconds 344 msec
