                         Program Version 6.0.0  -   RELEASE  -
|  1> ! pbe def2-sv(p) def2/J RI DEFGRID1 loosescf d4 GCP(DFT/SV(P)) printgap
|  2> %output
|  3>     printlevel normal
|  4> end
|  5> * xyz 0 1
|  6> C -2.0872880749 -1.3630969474 -0.1248345739
|  7> C -1.0211593524 -0.4997463442 0.5690224584
|  8> H -1.4560751155 -0.1118301203 1.4988744225
|  9> C -0.6155099224 0.6922755505 -0.3077786749
| 10> H -0.4810411713 0.3583205347 -1.3502120108
| 11> C 0.7256415557 1.2377363363 0.2097685491
| 12> H 0.6392235654 1.4063202923 1.2902954268
| 13> C 1.8098526008 0.1876292245 -0.0652615557
| 14> H 2.1382373101 0.2651226352 -1.108201772
| 15> C 1.2185835032 -1.2379986637 0.1051923738
| 16> H 1.9669913641 -1.8605283996 0.6153550002
| 17> O 0.1089119789 -1.2704624607 0.9698204402
| 18> O 0.9215827549 -1.7333513189 -1.1621783611
| 19> O 2.9671085625 0.3758826015 0.7005218839
| 20> O 1.0025122185 2.50044495 -0.3380922452
| 21> O -1.6299285634 1.6637018943 -0.2539057636
| 22> O -3.3446302424 -0.7355162621 -0.1266529272
| 23> H -2.2085478961 -2.2969126839 0.4292010265
| 24> H -1.7667053784 -1.5917150042 -1.15084175
| 25> H 0.7689625221 -2.6897928216 -1.125219725
| 26> H 2.7470616851 0.3955122592 1.6433452056
| 27> H 1.338094808 2.4079102944 -1.24174686
| 28> H -1.2170302087 2.5390514685 -0.347349641
| 29> H -3.2337979916 0.1849065521 -0.4134307047
| 30> *
| 31>
| 32>                          ****END OF INPUT****

CARTESIAN COORDINATES (ANGSTROEM)
---------------------------------
  C     -2.087288   -1.363097   -0.124835
  C     -1.021159   -0.499746    0.569022
  H     -1.456075   -0.111830    1.498874
  C     -0.615510    0.692276   -0.307779
  H     -0.481041    0.358321   -1.350212
  C      0.725642    1.237736    0.209769
  H      0.639224    1.406320    1.290295
  C      1.809853    0.187629   -0.065262
  H      2.138237    0.265123   -1.108202
  C      1.218584   -1.237999    0.105192
  H      1.966991   -1.860528    0.615355
  O      0.108912   -1.270462    0.969820
  O      0.921583   -1.733351   -1.162178
  O      2.967109    0.375883    0.700522
  O      1.002512    2.500445   -0.338092
  O     -1.629929    1.663702   -0.253906
  O     -3.344630   -0.735516   -0.126653
  H     -2.208548   -2.296913    0.429201
  H     -1.766705   -1.591715   -1.150842
  H      0.768963   -2.689793   -1.125220
  H      2.747062    0.395512    1.643345
  H      1.338095    2.407910   -1.241747
  H     -1.217030    2.539051   -0.347350
  H     -3.233798    0.184907   -0.413431

 Total Charge           Charge          ....    0
 Multiplicity           Mult            ....    1
 Number of Electrons    NEL             ....   96
 Basis Dimension        Dim             ....  192

ORBITAL ENERGIES
----------------

  NO   OCC          E(Eh)            E(eV)
   0   2.0000     -18.776288      -510.9288
   1   2.0000     -18.775098      -510.8964
   2   2.0000     -18.774913      -510.8914
   3   2.0000     -18.762273      -510.5474
   4   2.0000     -18.761606      -510.5293
   5   2.0000     -18.733030      -509.7517
   6   2.0000      -9.994056      -271.9521
   7   2.0000      -9.956150      -270.9206
   8   2.0000      -9.954687      -270.8808
   9   2.0000      -9.947343      -270.6810
  10   2.0000      -9.942707      -270.5548
  11   2.0000      -9.921919      -269.9891
  12   2.0000      -0.989618       -26.9289
  13   2.0000      -0.961548       -26.1650
  14   2.0000      -0.940704       -25.5979
  15   2.0000      -0.930627       -25.3236
  16   2.0000      -0.921198       -25.0671
  17   2.0000      -0.908094       -24.7105
  18   2.0000      -0.712304       -19.3828
  19   2.0000      -0.695652       -18.9297
  20   2.0000      -0.620685       -16.8897
  21   2.0000      -0.593652       -16.1541
  22   2.0000      -0.576560       -15.6890
  23   2.0000      -0.534596       -14.5471
  24   2.0000      -0.518853       -14.1187
  25   2.0000      -0.497482       -13.5372
  26   2.0000      -0.473039       -12.8720
  27   2.0000      -0.462568       -12.5871
  28   2.0000      -0.447848       -12.1866
  29   2.0000      -0.434815       -11.8319
  30   2.0000      -0.423832       -11.5331
  31   2.0000      -0.402499       -10.9525
  32   2.0000      -0.390854       -10.6357
  33   2.0000      -0.373724       -10.1696
  34   2.0000      -0.364743        -9.9252
  35   2.0000      -0.356231        -9.6935
  36   2.0000      -0.336254        -9.1499
  37   2.0000      -0.323933        -8.8147
  38   2.0000      -0.315240        -8.5781
  39   2.0000      -0.300482        -8.1765
  40   2.0000      -0.285307        -7.7636
  41   2.0000      -0.276406        -7.5214
  42   2.0000      -0.266688        -7.2569
  43   2.0000      -0.246574        -6.7096
  44   2.0000      -0.238666        -6.4944
  45   2.0000      -0.229814        -6.2535
  46   2.0000      -0.218955        -5.9581
  47   2.0000      -0.200463        -5.4549
  48   0.0000       0.008447         0.2298
  49   0.0000       0.014025         0.3817
  50   0.0000       0.026030         0.7083
  51   0.0000       0.037340         1.0161
  52   0.0000       0.055337         1.5058

MULLIKEN ATOMIC CHARGES
-----------------------
   0 C :    0.085104
   1 C :    0.043007
   2 H :    0.077337
   3 C :   -0.006895
   4 H :    0.064609
   5 C :    0.050856
   6 H :    0.057558
   7 C :    0.079428
   8 H :    0.068066
   9 C :    0.141738
  10 H :    0.068750
  11 O :   -0.316021
  12 O :   -0.392025
  13 O :   -0.409045
  14 O :   -0.412344
  15 O :   -0.424415
  16 O :   -0.447604
  17 H :    0.080435
  18 H :    0.060207
  19 H :    0.310841
  20 H :    0.303030
  21 H :    0.306295
  22 H :    0.306108
  23 H :    0.304981
Sum of atomic charges:   -0.0000000

LOEWDIN ATOMIC CHARGES
----------------------
   0 C :   -0.129760
   1 C :   -0.069209
   2 H :    0.119490
   3 C :   -0.089812
   4 H :    0.102882
   5 C :   -0.080249
   6 H :    0.117258
   7 C :   -0.083200
   8 H :    0.120386
   9 C :   -0.012293
  10 H :    0.101742
  11 O :   -0.148172
  12 O :   -0.306027
  13 O :   -0.306167
  14 O :   -0.303969
  15 O :   -0.320669
  16 O :   -0.340743
  17 H :    0.109825
  18 H :    0.091785
  19 H :    0.290790
  20 H :    0.287046
  21 H :    0.289689
  22 H :    0.282598
  23 H :    0.276778

  Mayer bond orders larger than 0.100000
B(  0-C ,  1-C ) :   1.0619 B(  0-C , 16-O ) :   1.0834 B(  0-C , 17-H ) :   0.9189
B(  0-C , 18-H ) :   0.9038 B(  1-C ,  2-H ) :   0.8803 B(  1-C ,  3-C ) :   0.9737
B(  1-C , 11-O ) :   0.9584 B(  3-C ,  4-H ) :   0.8759 B(  3-C ,  5-C ) :   1.0140
B(  3-C , 15-O ) :   1.0618 B(  5-C ,  6-H ) :   0.8497 B(  5-C ,  7-C ) :   1.0221
B(  5-C , 14-O ) :   1.0442 B(  7-C ,  8-H ) :   0.8642 B(  7-C ,  9-C ) :   0.9698
B(  7-C , 13-O ) :   1.0644 B(  9-C , 10-H ) :   0.9002 B(  9-C , 11-O ) :   1.0843
B(  9-C , 12-O ) :   1.1028 B( 12-O , 19-H ) :   0.8336 B( 13-O , 20-H ) :   0.8474
B( 14-O , 21-H ) :   0.8439 B( 15-O , 22-H ) :   0.8131 B( 16-O , 23-H ) :   0.8263

Dispersion correction           -0.024647767
FINAL SINGLE POINT ENERGY      -685.692591231009

DIPOLE MOMENT
-------------

Method             : SCF
Type of density    : Electron Density
Multiplicity       :   1
Irrep              :   0
Energy             :  -685.8239802787160215 Eh
Relativity type    :
Basis              : AO
                                X                 Y                 Z
Electronic contribution:      1.583001506       0.908336762       0.890429634
Nuclear contribution   :     -0.716971130      -0.920336704      -1.185148231
                        -----------------------------------------
Total Dipole Moment    :      0.866030375      -0.011999943      -0.294718597
                        -----------------------------------------
Magnitude (a.u.)       :      0.914883414
Magnitude (Debye)      :      2.325448832

Rotational constants in cm-1:             0.044105             0.025943             0.018746
Rotational constants in MHz :          1322.228558           777.761423           561.998815

                             ****ORCA TERMINATED NORMALLY****
TOTAL RUN TIME: 0 days 0 hours 0 minutes 12 seconds 253 msec
