                         Program Version 6.0.0  -   RELEASE  -
|  1> ! r2scan-3c def2/J RI DEFGRID2 scfconv6 printgap
|  2> %output
|  3>     printlevel normal
|  4> end
|  5> * xyz 0 1
|  6> C -2.0533859212 -0.1096920226 -0.4034185205
|  7> C -0.8145641635 0.0062444933 0.4793211935
|  8> C 0.1300296772 -1.2026395207 0.3134584767
|  9> C 1.3253432039 -0.677019676 -0.479830716
| 10> C 1.4771880959 0.7482619311 0.0401168723
| 11> C 0.0326052329 1.2425909264 0.1114261438
| 12> H -1.7660483822 -0.2287950799 -1.445854529
| 13> H -2.6529457556 -0.9687220629 -0.1100897757
| 14> H -2.6682619892 0.7833809747 -0.3143100367
| 15> H -1.1430669813 0.0760105545 1.520135104
| 16> H 0.4671570207 -1.5508342357 1.2907723613
| 17> H -0.3633625331 -2.0339184805 -0.1878884692
| 18> H 2.2206067205 -1.2796034474 -0.333905069
| 19> H 1.091434881 -0.6579170049 -1.5453719538
| 20> H 1.9203110029 0.7310910888 1.0372528486
| 21> H 2.09828851 1.3705272359 -0.6026299566
| 22> H -0.0898352244 2.0506212754 0.831254632
| 23> H -0.2727879141 1.6158496424 -0.8671687138
| 24> *
| 25>
| 26>                          ****END OF INPUT****

CARTESIAN COORDINATES (ANGSTROEM)
---------------------------------
  C     -2.053386   -0.109692   -0.403419
  C     -0.814564    0.006244    0.479321
  C      0.130030   -1.202640    0.313458
  C      1.325343   -0.677020   -0.479831
  C      1.477188    0.748262    0.040117
  C      0.032605    1.242591    0.111426
  H     -1.766048   -0.228795   -1.445855
  H     -2.652946   -0.968722   -0.110090
  H     -2.668262    0.783381   -0.314310
  H     -1.143067    0.076011    1.520135
  H      0.467157   -1.550834    1.290772
  H     -0.363363   -2.033918   -0.187888
  H      2.220607   -1.279603   -0.333905
  H      1.091435   -0.657917   -1.545372
  H      1.920311    0.731091    1.037253
  H      2.098289    1.370527   -0.602630
  H     -0.089835    2.050621    0.831255
  H     -0.272788    1.615850   -0.867169

 Total Charge           Charge          ....    0
 Multiplicity           Mult            ....    1
 Number of Electrons    NEL             ....   48
 Basis Dimension        Dim             ....  174

ORBITAL ENERGIES
----------------

  NO   OCC          E(Eh)            E(eV)
   0   2.0000     -10.026190      -272.8265
   1   2.0000     -10.018390      -272.6142
   2   2.0000     -10.018245      -272.6103
   3   2.0000     -10.016500      -272.5628
   4   2.0000     -10.016190      -272.5544
   5   2.0000     -10.012340      -272.4496
   6   2.0000      -0.803463       -21.8633
   7   2.0000      -0.708057       -19.2672
   8   2.0000      -0.671318       -18.2675
   9   2.0000      -0.615077       -16.7371
  10   2.0000      -0.534122       -14.5342
  11   2.0000      -0.509143       -13.8545
  12   2.0000      -0.452588       -12.3155
  13   2.0000      -0.434909       -11.8345
  14   2.0000      -0.390423       -10.6240
  15   2.0000      -0.384431       -10.4609
  16   2.0000      -0.363325        -9.8866
  17   2.0000      -0.347406        -9.4534
  18   2.0000      -0.301747        -8.2110
  19   2.0000      -0.299714        -8.1556
  20   2.0000      -0.292554        -7.9608
  21   2.0000      -0.285133        -7.7589
  22   2.0000      -0.282832        -7.6962
  23   2.0000      -0.276494        -7.5238
  24   0.0000       0.084519         2.2999
  25   0.0000       0.100617         2.7379
  26   0.0000       0.108827         2.9613
  27   0.0000       0.130058         3.5391
  28   0.0000       0.137245         3.7346

MULLIKEN ATOMIC CHARGES
-----------------------
   0 C :   -0.546371
   1 C :    0.072870
   2 C :   -0.373770
   3 C :   -0.311302
   4 C :   -0.236580
   5 C :   -0.414441
   6 H :    0.148691
   7 H :    0.146497
   8 H :    0.146307
   9 H :    0.153537
  10 H :    0.153233
  11 H :    0.154038
  12 H :    0.150383
  13 H :    0.154514
  14 H :    0.144425
  15 H :    0.149424
  16 H :    0.152043
  17 H :    0.156503
Sum of atomic charges:    0.0000000

LOEWDIN ATOMIC CHARGES
----------------------
   0 C :   -0.415712
   1 C :   -0.236383
   2 C :   -0.301577
   3 C :   -0.304338
   4 C :   -0.302634
   5 C :   -0.300993
   6 H :    0.151247
   7 H :    0.151006
   8 H :    0.152709
   9 H :    0.156306
  10 H :    0.156844
  11 H :    0.158557
  12 H :    0.155655
  13 H :    0.154095
  14 H :    0.154452
  15 H :    0.155105
  16 H :    0.157485
  17 H :    0.158175

  Mayer bond orders larger than 0.100000
B(  0-C ,  1-C ) :   0.8872 B(  0-C ,  6-H ) :   0.9918 B(  0-C ,  7-H ) :   0.9788
B(  0-C ,  8-H ) :   0.9733 B(  1-C ,  2-C ) :   0.9318 B(  1-C ,  5-C ) :   0.9287
B(  1-C ,  9-H ) :   0.9380 B(  2-C ,  3-C ) :   0.9158 B(  2-C , 10-H ) :   0.9776
B(  2-C , 11-H ) :   0.9697 B(  3-C ,  4-C ) :   0.8926 B(  3-C , 12-H ) :   0.9494
B(  3-C , 13-H ) :   1.0007 B(  4-C ,  5-C ) :   0.9009 B(  4-C , 14-H ) :   0.9794
B(  4-C , 15-H ) :   0.9564 B(  5-C , 16-H ) :   0.9547 B(  5-C , 17-H ) :   1.0039

Dispersion correction           -0.004702679
FINAL SINGLE POINT ENERGY      -235.784043955841

DIPOLE MOMENT
-------------

Method             : SCF
Type of density    : Electron Density
Multiplicity       :   1
Irrep              :   0
Energy             :  -235.7868644152730440 Eh
Relativity type    :
Basis              : AO
                                X                 Y                 Z
Electronic contribution:      1.101943326       0.091534985       0.724066334
Nuclear contribution   :     -1.086871868      -0.086601398      -0.682798398
                        -----------------------------------------
Total Dipole Moment    :      0.015071458       0.004933587       0.041267936
                        -----------------------------------------
Magnitude (a.u.)       :      0.044210086
Magnitude (Debye)      :      0.112373108

Rotational constants in cm-1:             0.191317             0.105142             0.081185
Rotational constants in MHz :          5735.549497          3152.063080          2433.867438

                             ****ORCA TERMINATED NORMALLY****
TOTAL RUN TIME: 0 days 0 hours 0 minutes 10 seconds 872 msec
