                         Program Version 6.0.0  -   RELEASE  -
|  1> ! r2scan-3c def2/J RI DEFGRID2 scfconv6 printgap
|  2> %output
|  3>     printlevel normal
|  4> end
|  5> %cpcm
|  6>     smd true
|  7>     smdsolvent "water"
|  8> end
|  9> * xyz 0 1
| 10> C -2.0533859212 -0.1096920226 -0.4034185205
| 11> C -0.8145641635 0.0062444933 0.4793211935
| 12> C 0.1300296772 -1.2026395207 0.3134584767
| 13> C 1.3253432039 -0.677019676 -0.479830716
| 14> C 1.4771880959 0.7482619311 0.0401168723
| 15> C 0.0326052329 1.2425909264 0.1114261438
| 16> H -1.7660483822 -0.2287950799 -1.445854529
| 17> H -2.6529457556 -0.9687220629 -0.1100897757
| 18> H -2.6682619892 0.7833809747 -0.3143100367
| 19> H -1.1430669813 0.0760105545 1.520135104
| 20> H 0.4671570207 -1.5508342357 1.2907723613
| 21> H -0.3633625331 -2.0339184805 -0.1878884692
| 22> H 2.2206067205 -1.2796034474 -0.333905069
| 23> H 1.091434881 -0.6579170049 -1.5453719538
| 24> H 1.9203110029 0.7310910888 1.0372528486
| 25> H 2.09828851 1.3705272359 -0.6026299566
| 26> H -0.0898352244 2.0506212754 0.831254632
| 27> H -0.2727879141 1.6158496424 -0.8671687138
| 28> *
| 29>
| 30>                          ****END OF INPUT****

CARTESIAN COORDINATES (ANGSTROEM)
---------------------------------
  C     -2.053386   -0.109692   -0.403419
  C     -0.814564    0.006244    0.479321
  C      0.130030   -1.202640    0.313458
  C      1.325343   -0.677020   -0.479831
  C      1.477188    0.748262    0.040117
  C      0.032605    1.242591    0.111426
  H     -1.766048   -0.228795   -1.445855
  H     -2.652946   -0.968722   -0.110090
  H     -2.668262    0.783381   -0.314310
  H     -1.143067    0.076011    1.520135
  H      0.467157   -1.550834    1.290772
  H     -0.363363   -2.033918   -0.187888
  H      2.220607   -1.279603   -0.333905
  H      1.091435   -0.657917   -1.545372
  H      1.920311    0.731091    1.037253
  H      2.098289    1.370527   -0.602630
  H     -0.089835    2.050621    0.831255
  H     -0.272788    1.615850   -0.867169

 Total Charge           Charge          ....    0
 Multiplicity           Mult            ....    1
 Number of Electrons    NEL             ....   48
 Basis Dimension        Dim             ....  174

ORBITAL ENERGIES
----------------

  NO   OCC          E(Eh)            E(eV)
   0   2.0000     -10.019571      -272.6464
   1   2.0000     -10.011798      -272.4349
   2   2.0000     -10.011657      -272.4310
   3   2.0000     -10.009761      -272.3794
   4   2.0000     -10.009489      -272.3721
   5   2.0000     -10.005490      -272.2632
   6   2.0000      -0.796941       -21.6859
   7   2.0000      -0.701723       -19.0949
   8   2.0000      -0.665071       -18.0975
   9   2.0000      -0.608885       -16.5686
  10   2.0000      -0.527839       -14.3632
  11   2.0000      -0.502835       -13.6828
  12   2.0000      -0.445988       -12.1359
  13   2.0000      -0.428551       -11.6615
  14   2.0000      -0.383837       -10.4447
  15   2.0000      -0.377719       -10.2783
  16   2.0000      -0.356810        -9.7093
  17   2.0000      -0.340653        -9.2696
  18   2.0000      -0.295462        -8.0399
  19   2.0000      -0.293569        -7.9884
  20   2.0000      -0.285704        -7.7744
  21   2.0000      -0.278700        -7.5838
  22   2.0000      -0.276240        -7.5169
  23   2.0000      -0.269520        -7.3340
  24   0.0000       0.092234         2.5098
  25   0.0000       0.107364         2.9215
  26   0.0000       0.114809         3.1241
  27   0.0000       0.134785         3.6677
  28   0.0000       0.142833         3.8867

MULLIKEN ATOMIC CHARGES
-----------------------
   0 C :   -0.579251
   1 C :    0.074303
   2 C :   -0.391085
   3 C :   -0.327628
   4 C :   -0.258128
   5 C :   -0.427853
   6 H :    0.159702
   7 H :    0.155385
   8 H :    0.154510
   9 H :    0.161598
  10 H :    0.161606
  11 H :    0.161246
  12 H :    0.157791
  13 H :    0.163618
  14 H :    0.153939
  15 H :    0.156906
  16 H :    0.160110
  17 H :    0.163231
Sum of atomic charges:    0.0000000

LOEWDIN ATOMIC CHARGES
----------------------
   0 C :   -0.423487
   1 C :   -0.235773
   2 C :   -0.305361
   3 C :   -0.308562
   4 C :   -0.307003
   5 C :   -0.304606
   6 H :    0.154213
   7 H :    0.152857
   8 H :    0.154248
   9 H :    0.158367
  10 H :    0.158860
  11 H :    0.160020
  12 H :    0.157125
  13 H :    0.156576
  14 H :    0.156696
  15 H :    0.156712
  16 H :    0.159187
  17 H :    0.159932

  Mayer bond orders larger than 0.100000
B(  0-C ,  1-C ) :   0.8815 B(  0-C ,  6-H ) :   0.9882 B(  0-C ,  7-H ) :   0.9764
B(  0-C ,  8-H ) :   0.9712 B(  1-C ,  2-C ) :   0.9300 B(  1-C ,  5-C ) :   0.9290
B(  1-C ,  9-H ) :   0.9397 B(  2-C ,  3-C ) :   0.9123 B(  2-C , 10-H ) :   0.9765
B(  2-C , 11-H ) :   0.9694 B(  3-C ,  4-C ) :   0.8917 B(  3-C , 12-H ) :   0.9484
B(  3-C , 13-H ) :   0.9980 B(  4-C ,  5-C ) :   0.8992 B(  4-C , 14-H ) :   0.9786
B(  4-C , 15-H ) :   0.9548 B(  5-C , 16-H ) :   0.9540 B(  5-C , 17-H ) :   1.0017

Dispersion correction           -0.004702679
FINAL SINGLE POINT ENERGY      -235.781871488672

DIPOLE MOMENT
-------------

Method             : SCF
Type of density    : Electron Density
Multiplicity       :   1
Irrep              :   0
Energy             :  -235.7846919481035854 Eh
Relativity type    :
Basis              : AO
                                X                 Y                 Z
Electronic contribution:      1.101590129       0.091749664       0.729138317
Nuclear contribution   :     -1.086871868      -0.086601398      -0.682798398
                        -----------------------------------------
Total Dipole Moment    :      0.014718260       0.005148266       0.046339918
                        -----------------------------------------
Magnitude (a.u.)       :      0.048892943
Magnitude (Debye)      :      0.124275985

Rotational constants in cm-1:             0.191317             0.105142             0.081185
Rotational constants in MHz :          5735.549497          3152.063080          2433.867438

                             ****ORCA TERMINATED NORMALLY****
TOTAL RUN TIME: 0 days 0 hours 0 minutes 12 seconds 786 msec
