                         Program Version 6.0.0  -   RELEASE  -
|  1> ! pbe def2-sv(p) def2/J RI DEFGRID1 loosescf d4 GCP(DFT/SV(P)) printgap
|  2> %output
|  3>     printlevel normal
|  4> end
|  5> * xyz 0 1
|  6> C -3.0362846695 0.7476981213 0.4646048053
|  7> C -1.5714699458 0.3419750819 0.6173273946
|  8> H -1.3821426879 0.1486347615 1.6805015492
|  9> C -0.6090411465 1.4419404426 0.1264811941
| 10> C 0.2018800187 0.9792984993 -1.0754861753
| 11> C 1.0537381587 -0.2507441647 -0.7239533816
| 12> H 1.5303430349 -0.5925164876 -1.6478847303
| 13> C 0.1349418836 -1.382005581 -0.222209134
| 14> C -1.3077960156 -0.9847430736 -0.0609062044
| 15> O -2.207378933 -1.726224642 -0.4111513518
| 16> C 2.1632784763 0.133157538 0.2311336789
| 17> C 2.0515401898 0.1228922219 1.550332651
| 18> C 3.4294701639 0.5685289369 -0.4435921344
| 19> H -3.6863366877 -0.0625568476 0.7869095223
| 20> H -3.2485573648 1.6306679304 1.0607683297
| 21> H -3.2594575348 0.9610323303 -0.5784667332
| 22> H -1.189488107 2.3233294114 -0.1467809051
| 23> H 0.0767141955 1.7310762784 0.9227891023
| 24> H -0.4745823297 0.7138642361 -1.8919588073
| 25> H 0.8458655346 1.790393031 -1.4173310692
| 26> H 0.1657797734 -2.2378637109 -0.8987854595
| 27> H 0.4730726214 -1.7352205166 0.7538097988
| 28> H 2.8686034452 0.4257658358 2.182947816
| 29> H 1.15805644 -0.1879668701 2.0642036691
| 30> H 4.1472626351 0.9485647623 0.2774857918
| 31> H 3.8772198497 -0.2735329756 -0.9701261679
| 32> H 3.2231956581 1.3452744476 -1.1777031499
| 33> *
| 34>
| 35>                          ****END OF INPUT****

CARTESIAN COORDINATES (ANGSTROEM)
---------------------------------
  C     -3.036285    0.747698    0.464605
  C     -1.571470    0.341975    0.617327
  H     -1.382143    0.148635    1.680502
  C     -0.609041    1.441940    0.126481
  C      0.201880    0.979298   -1.075486
  C      1.053738   -0.250744   -0.723953
  H      1.530343   -0.592516   -1.647885
  C      0.134942   -1.382006   -0.222209
  C     -1.307796   -0.984743   -0.060906
  O     -2.207379   -1.726225   -0.411151
  C      2.163278    0.133158    0.231134
  C      2.051540    0.122892    1.550333
  C      3.429470    0.568529   -0.443592
  H     -3.686337   -0.062557    0.786910
  H     -3.248557    1.630668    1.060768
  H     -3.259458    0.961032   -0.578467
  H     -1.189488    2.323329   -0.146781
  H      0.076714    1.731076    0.922789
  H     -0.474582    0.713864   -1.891959
  H      0.845866    1.790393   -1.417331
  H      0.165780   -2.237864   -0.898785
  H      0.473073   -1.735221    0.753810
  H      2.868603    0.425766    2.182948
  H      1.158056   -0.187967    2.064204
  H      4.147263    0.948565    0.277486
  H      3.877220   -0.273533   -0.970126
  H      3.223196    1.345274   -1.177703

 Total Charge           Charge          ....    0
 Multiplicity           Mult            ....    1
 Number of Electrons    NEL             ....   84
 Basis Dimension        Dim             ....  186

ORBITAL ENERGIES
----------------

  NO   OCC          E(Eh)            E(eV)
   0   2.0000     -18.736722      -509.8521
   1   2.0000      -9.968282      -271.2507
   2   2.0000      -9.909284      -269.6453
   3   2.0000      -9.907449      -269.5954
   4   2.0000      -9.900977      -269.4193
   5   2.0000      -9.896452      -269.2961
   6   2.0000      -9.891463      -269.1604
   7   2.0000      -9.889028      -269.0941
   8   2.0000      -9.888973      -269.0926
   9   2.0000      -9.881055      -268.8772
  10   2.0000      -9.873917      -268.6829
  11   2.0000      -0.932541       -25.3757
  12   2.0000      -0.773569       -21.0499
  13   2.0000      -0.726613       -19.7721
  14   2.0000      -0.685884       -18.6639
  15   2.0000      -0.659917       -17.9573
  16   2.0000      -0.622066       -16.9273
  17   2.0000      -0.606069       -16.4920
  18   2.0000      -0.551566       -15.0089
  19   2.0000      -0.539627       -14.6840
  20   2.0000      -0.474909       -12.9229
  21   2.0000      -0.454360       -12.3638
  22   2.0000      -0.443324       -12.0635
  23   2.0000      -0.426955       -11.6180
  24   2.0000      -0.422870       -11.5069
  25   2.0000      -0.401436       -10.9236
  26   2.0000      -0.384820       -10.4715
  27   2.0000      -0.381560       -10.3828
  28   2.0000      -0.368670       -10.0320
  29   2.0000      -0.358714        -9.7611
  30   2.0000      -0.352113        -9.5815
  31   2.0000      -0.344845        -9.3837
  32   2.0000      -0.331213        -9.0128
  33   2.0000      -0.329638        -8.9699
  34   2.0000      -0.323837        -8.8121
  35   2.0000      -0.310303        -8.4438
  36   2.0000      -0.306845        -8.3497
  37   2.0000      -0.286485        -7.7957
  38   2.0000      -0.278999        -7.5919
  39   2.0000      -0.277633        -7.5548
  40   2.0000      -0.225524        -6.1368
  41   2.0000      -0.190283        -5.1779
  42   0.0000      -0.049640        -1.3508
  43   0.0000      -0.022404        -0.6096
  44   0.0000       0.026280         0.7151
  45   0.0000       0.044914         1.2222
  46   0.0000       0.057359         1.5608

MULLIKEN ATOMIC CHARGES
-----------------------
   0 C :   -0.225788
   1 C :   -0.178491
   2 H :    0.100291
   3 C :   -0.115690
   4 C :   -0.114537
   5 C :   -0.146789
   6 H :    0.067343
   7 C :   -0.025133
   8 C :   -0.050162
   9 O :   -0.161135
  10 C :   -0.070035
  11 C :   -0.243781
  12 C :   -0.217181
  13 H :    0.112164
  14 H :    0.096904
  15 H :    0.100717
  16 H :    0.086626
  17 H :    0.092607
  18 H :    0.098089
  19 H :    0.087716
  20 H :    0.088442
  21 H :    0.114128
  22 H :    0.086942
  23 H :    0.092560
  24 H :    0.099685
  25 H :    0.114431
  26 H :    0.110079
Sum of atomic charges:    0.0000000

LOEWDIN ATOMIC CHARGES
----------------------
   0 C :   -0.326190
   1 C :   -0.176594
   2 H :    0.140150
   3 C :   -0.218381
   4 C :   -0.208856
   5 C :   -0.129186
   6 H :    0.123969
   7 C :   -0.234123
   8 C :    0.047804
   9 O :   -0.129818
  10 C :   -0.046755
  11 C :   -0.274031
  12 C :   -0.320700
  13 H :    0.125518
  14 H :    0.117482
  15 H :    0.120754
  16 H :    0.123151
  17 H :    0.123869
  18 H :    0.122187
  19 H :    0.119453
  20 H :    0.135551
  21 H :    0.146781
  22 H :    0.121221
  23 H :    0.114245
  24 H :    0.124179
  25 H :    0.131559
  26 H :    0.126761

  Mayer bond orders larger than 0.100000
B(  0-C ,  1-C ) :   1.1291 B(  0-C , 13-H ) :   0.9385 B(  0-C , 14-H ) :   0.9446
B(  0-C , 15-H ) :   0.9519 B(  1-C ,  2-H ) :   0.8508 B(  1-C ,  3-C ) :   1.0509
B(  1-C ,  8-C ) :   0.9634 B(  3-C ,  4-C ) :   1.1839 B(  3-C , 16-H ) :   0.9129
B(  3-C , 17-H ) :   0.8873 B(  4-C ,  5-C ) :   1.1184 B(  4-C , 18-H ) :   0.8890
B(  4-C , 19-H ) :   0.9098 B(  5-C ,  6-H ) :   0.8826 B(  5-C ,  7-C ) :   1.0377
B(  5-C , 10-C ) :   0.9863 B(  7-C ,  8-C ) :   1.0712 B(  7-C , 20-H ) :   0.8818
B(  7-C , 21-H ) :   0.8677 B(  8-C ,  9-O ) :   2.1898 B( 10-C , 11-C ) :   2.0440
B( 10-C , 12-C ) :   1.1215 B( 11-C , 22-H ) :   0.9008 B( 11-C , 23-H ) :   0.8932
B( 12-C , 24-H ) :   0.9410 B( 12-C , 25-H ) :   0.9269 B( 12-C , 26-H ) :   0.9280

Dispersion correction           -0.029287741
FINAL SINGLE POINT ENERGY      -464.821354530118

DIPOLE MOMENT
-------------

Method             : SCF
Type of density    : Electron Density
Multiplicity       :   1
Irrep              :   0
Energy             :  -464.9069172732492916 Eh
Relativity type    :
Basis              : AO
                                X                 Y                 Z
Electronic contribution:     -3.885518277      -5.793835545      -0.827051425
Nuclear contribution   :      4.775885382       6.474907179       0.932424824
                        -----------------------------------------
Total Dipole Moment    :      0.890367105       0.681071633       0.105373398
                        -----------------------------------------
Magnitude (a.u.)       :      1.125928818
Magnitude (Debye)      :      2.861883618

Rotational constants in cm-1:             0.069602             0.024309             0.022110
Rotational constants in MHz :          2086.606788           728.760343           662.830116

                             ****ORCA TERMINATED NORMALLY****
TOTAL RUN TIME: 0 days 0 hours 0 minutes 16 seconds 720 msec
