                         Program Version 6.0.0  -   RELEASE  -
|  1> ! wb97x-v def2-tzvp def2/J RIJCOSX DEFGRID2 scfconv7 GCP(DFT/TZ) printgap
|  2> %output
|  3>     printlevel normal
|  4> end
|  5> %cpcm
|  6>     smd true
|  7>     smdsolvent "water"
|  8> end
|  9> * xyz 0 1
| 10> C -1.897683330960219 -0.6634928416622722 0.17508820304444894
| 11> C -0.9457829269628285 0.4611283424737817 -0.1987181353519316
| 12> C 0.515165208817983 0.10119965418996255 -0.01962997651108456
| 13> O 0.887562944724807 -1.0103589109819653 0.39042603459420977
| 14> N 1.392791752057622 1.0727583297236793 -0.33535001940577885
| 15> H -1.7812428753281415 -0.9497079764544754 1.2240884458024401
| 16> H -2.932084920722451 -0.3431463826478125 0.023336381041340552
| 17> H -1.7236684395062305 -1.5511926583315347 -0.43940061472566033
| 18> H -1.1463277299284196 1.3568444471270662 0.40196005914784677
| 19> H -1.0901895032501288 0.7622464948524866 -1.2436797995917785
| 20> H 1.0761183092431674 1.9697414080626667 -0.6684872111920968
| 21> H 2.3831072289155744 0.9044283583811317 -0.24148279783560297
| 22> *
| 23>
| 24>                          ****END OF INPUT****

CARTESIAN COORDINATES (ANGSTROEM)
---------------------------------
  C     -1.897683   -0.663493    0.175088
  C     -0.945783    0.461128   -0.198718
  C      0.515165    0.101200   -0.019630
  O      0.887563   -1.010359    0.390426
  N      1.392792    1.072758   -0.335350
  H     -1.781243   -0.949708    1.224088
  H     -2.932085   -0.343146    0.023336
  H     -1.723668   -1.551193   -0.439401
  H     -1.146328    1.356844    0.401960
  H     -1.090190    0.762246   -1.243680
  H      1.076118    1.969741   -0.668487
  H      2.383107    0.904428   -0.241483

 Total Charge           Charge          ....    0
 Multiplicity           Mult            ....    1
 Number of Electrons    NEL             ....   40
 Basis Dimension        Dim             ....  197

ORBITAL ENERGIES
----------------

  NO   OCC          E(Eh)            E(eV)
   0   2.0000     -21.644985      -588.9900
   1   2.0000     -16.541689      -450.1223
   2   2.0000     -12.157047      -330.8101
   3   2.0000     -12.048403      -327.8537
   4   2.0000     -12.030402      -327.3639
   5   2.0000      -1.696376       -46.1607
   6   2.0000      -1.498161       -40.7670
   7   2.0000      -1.282616       -34.9018
   8   2.0000      -1.165016       -31.7017
   9   2.0000      -1.097817       -29.8731
  10   2.0000      -1.047931       -28.5157
  11   2.0000      -1.015358       -27.6293
  12   2.0000      -0.938254       -25.5312
  13   2.0000      -0.923546       -25.1310
  14   2.0000      -0.858078       -23.3495
  15   2.0000      -0.840593       -22.8737
  16   2.0000      -0.827878       -22.5277
  17   2.0000      -0.790955       -21.5230
  18   2.0000      -0.785229       -21.3672
  19   2.0000      -0.764806       -20.8114
  20   0.0000      -0.272085        -7.4038
  21   0.0000      -0.058423        -1.5898
  22   0.0000      -0.038860        -1.0574
  23   0.0000      -0.019733        -0.5370
  24   0.0000       0.016114         0.4385

MULLIKEN ATOMIC CHARGES
-----------------------
   0 C :   -0.388770
   1 C :   -0.179547
   2 C :    0.304838
   3 O :   -0.552548
   4 N :   -0.437607
   5 H :    0.125386
   6 H :    0.135022
   7 H :    0.125221
   8 H :    0.143206
   9 H :    0.143331
  10 H :    0.297599
  11 H :    0.283872
Sum of atomic charges:   -0.0000000

LOEWDIN ATOMIC CHARGES
----------------------
   0 C :   -0.306395
   1 C :   -0.250733
   2 C :   -0.453389
   3 O :   -0.069489
   4 N :    0.029442
   5 H :    0.120982
   6 H :    0.123220
   7 H :    0.120938
   8 H :    0.155800
   9 H :    0.155891
  10 H :    0.190038
  11 H :    0.183695

  Mayer bond orders larger than 0.100000
B(  0-C ,  1-C ) :   0.9923 B(  0-C ,  5-H ) :   0.9754 B(  0-C ,  6-H ) :   0.9762
B(  0-C ,  7-H ) :   0.9753 B(  1-C ,  2-C ) :   0.9833 B(  1-C ,  8-H ) :   0.9422
B(  1-C ,  9-H ) :   0.9419 B(  2-C ,  3-O ) :   1.8980 B(  2-C ,  4-N ) :   1.3399
B(  4-N , 10-H ) :   0.8936 B(  4-N , 11-H ) :   0.8852

FINAL SINGLE POINT ENERGY      -248.561730906342

DIPOLE MOMENT
-------------

Method             : SCF
Type of density    : Electron Density
Multiplicity       :   1
Irrep              :   0
Energy             :  -248.5694709273419676 Eh
Relativity type    :
Basis              : AO
                                X                 Y                 Z
Electronic contribution:      4.649549594       0.148168336       0.101086434
Nuclear contribution   :     -4.915081309       2.024185506      -0.888460100
                        -----------------------------------------
Total Dipole Moment    :     -0.265531715       2.172353841      -0.787373666
                        -----------------------------------------
Magnitude (a.u.)       :      2.325851585
Magnitude (Debye)      :      5.911844906

Rotational constants in cm-1:             0.327723             0.126979             0.094732
Rotational constants in MHz :          9824.901944          3806.729121          2839.989899

                             ****ORCA TERMINATED NORMALLY****
TOTAL RUN TIME: 0 days 0 hours 0 minutes 56 seconds 539 msec
