                         Program Version 6.0.0  -   RELEASE  -
|  1> ! pbe def2-sv(p) def2/J RI DEFGRID1 loosescf d4 GCP(DFT/SV(P)) printgap
|  2> %output
|  3>     printlevel normal
|  4> end
|  5> * xyz 0 1
|  6> C 1.3352528365 1.328512605 6.9642e-06
|  7> C -0.0286234949 1.1070580105 -6.25069e-05
|  8> C -0.4957953065 -0.2113582785 -1.99947e-05
|  9> C 0.4493863373 -1.2418081333 1.54631e-05
| 10> N 1.7508341331 -1.029545362 -7.1422e-06
| 11> C 2.1805725832 0.2251356653 1.90306e-05
| 12> C -1.9272228965 -0.5044825448 1.88718e-05
| 13> O -2.8086783957 0.3276078356 1.7075e-06
| 14> H 1.7385689508 2.3276526686 0.0001062343
| 15> H -0.7433883194 1.9167712415 0.0002544017
| 16> H 0.1389513024 -2.2782194679 -9.17346e-05
| 17> H 3.2549569818 0.344136525 3.5769e-06
| 18> H -2.1720155142 -1.5813595609 6.38735e-05
| 19> *
| 20>
| 21>                          ****END OF INPUT****

CARTESIAN COORDINATES (ANGSTROEM)
---------------------------------
  C      1.335253    1.328513    0.000007
  C     -0.028623    1.107058   -0.000063
  C     -0.495795   -0.211358   -0.000020
  C      0.449386   -1.241808    0.000015
  N      1.750834   -1.029545   -0.000007
  C      2.180573    0.225136    0.000019
  C     -1.927223   -0.504483    0.000019
  O     -2.808678    0.327608    0.000002
  H      1.738569    2.327653    0.000106
  H     -0.743388    1.916771    0.000254
  H      0.138951   -2.278219   -0.000092
  H      3.254957    0.344137    0.000004
  H     -2.172016   -1.581360    0.000064

 Total Charge           Charge          ....    0
 Multiplicity           Mult            ....    1
 Number of Electrons    NEL             ....   56
 Basis Dimension        Dim             ....  122

ORBITAL ENERGIES
----------------

  NO   OCC          E(Eh)            E(eV)
   0   2.0000     -18.759896      -510.4827
   1   2.0000     -14.001913      -381.0114
   2   2.0000      -9.981403      -271.6078
   3   2.0000      -9.948250      -270.7057
   4   2.0000      -9.946709      -270.6637
   5   2.0000      -9.929956      -270.2078
   6   2.0000      -9.923568      -270.0340
   7   2.0000      -9.921751      -269.9846
   8   2.0000      -0.952400       -25.9161
   9   2.0000      -0.880536       -23.9606
  10   2.0000      -0.749746       -20.4016
  11   2.0000      -0.715971       -19.4826
  12   2.0000      -0.615125       -16.7384
  13   2.0000      -0.587371       -15.9832
  14   2.0000      -0.530252       -14.4289
  15   2.0000      -0.488539       -13.2938
  16   2.0000      -0.465540       -12.6680
  17   2.0000      -0.434631       -11.8269
  18   2.0000      -0.406669       -11.0660
  19   2.0000      -0.394288       -10.7291
  20   2.0000      -0.385631       -10.4935
  21   2.0000      -0.368993       -10.0408
  22   2.0000      -0.358116        -9.7448
  23   2.0000      -0.346646        -9.4327
  24   2.0000      -0.281320        -7.6551
  25   2.0000      -0.262267        -7.1366
  26   2.0000      -0.230056        -6.2601
  27   2.0000      -0.211930        -5.7669
  28   0.0000      -0.111675        -3.0388
  29   0.0000      -0.071695        -1.9509
  30   0.0000      -0.016583        -0.4512
  31   0.0000       0.044489         1.2106
  32   0.0000       0.060141         1.6365

MULLIKEN ATOMIC CHARGES
-----------------------
   0 C :   -0.063122
   1 C :   -0.034160
   2 C :    0.017817
   3 C :   -0.077748
   4 N :   -0.049476
   5 C :   -0.043955
   6 C :    0.048126
   7 O :   -0.154795
   8 H :    0.075037
   9 H :    0.080246
  10 H :    0.073490
  11 H :    0.083281
  12 H :    0.045260
Sum of atomic charges:    0.0000000

LOEWDIN ATOMIC CHARGES
----------------------
   0 C :   -0.134208
   1 C :   -0.057346
   2 C :   -0.114067
   3 C :   -0.055413
   4 N :   -0.068391
   5 C :   -0.057690
   6 C :    0.006726
   7 O :   -0.117373
   8 H :    0.134407
   9 H :    0.138544
  10 H :    0.119812
  11 H :    0.120695
  12 H :    0.084305

  Mayer bond orders larger than 0.100000
B(  0-C ,  1-C ) :   1.4128 B(  0-C ,  5-C ) :   1.3537 B(  0-C ,  8-H ) :   0.9510
B(  1-C ,  2-C ) :   1.3694 B(  1-C ,  9-H ) :   0.9533 B(  2-C ,  3-C ) :   1.3035
B(  2-C ,  6-C ) :   0.9803 B(  3-C ,  4-N ) :   1.5628 B(  3-C , 10-H ) :   0.9497
B(  4-N ,  5-C ) :   1.5395 B(  5-C , 11-H ) :   0.9527 B(  6-C ,  7-O ) :   2.1489
B(  6-C , 12-H ) :   0.9192

Dispersion correction           -0.013063085
FINAL SINGLE POINT ENERGY      -360.863597105199

DIPOLE MOMENT
-------------

Method             : SCF
Type of density    : Electron Density
Multiplicity       :   1
Irrep              :   0
Energy             :  -360.8997535175054736 Eh
Relativity type    :
Basis              : AO
                                X                 Y                 Z
Electronic contribution:     -1.443864852      -0.446954119      -0.000237256
Nuclear contribution   :      2.048012597       0.683098111       0.000315543
                        -----------------------------------------
Total Dipole Moment    :      0.604147745       0.236143992       0.000078287
                        -----------------------------------------
Magnitude (a.u.)       :      0.648658993
Magnitude (Debye)      :      1.648760131

Rotational constants in cm-1:             0.182751             0.053224             0.041219
Rotational constants in MHz :          5478.724506          1595.611343          1235.722358

                             ****ORCA TERMINATED NORMALLY****
TOTAL RUN TIME: 0 days 0 hours 0 minutes 7 seconds 703 msec
