                         Program Version 6.0.0  -   RELEASE  -
|  1> ! pbe def2-sv(p) def2/J RI DEFGRID1 loosescf d4 GCP(DFT/SV(P)) printgap
|  2> %output
|  3>     printlevel normal
|  4> end
|  5> * xyz 0 1
|  6> C -1.8090887369 -1.0483783508 -0.6963877704
|  7> C -1.046324118 -0.5003518657 0.5198607926
|  8> H -1.7153051534 -0.608415949 1.3829633092
|  9> C -0.714020053 0.9919492566 0.3530182831
| 10> H -1.5484497532 1.4589666669 -0.186899819
| 11> C 0.5785440255 1.2377852521 -0.4597217149
| 12> H 0.8433808946 2.2937157375 -0.3160830584
| 13> C 1.7128901137 0.3692150068 0.0996170835
| 14> H 2.577310002 0.4256690779 -0.5720248963
| 15> C 1.2619445454 -1.1071244676 0.1464305772
| 16> H 2.0093285379 -1.674238121 0.7193062234
| 17> O 0.0770613768 -1.2998044857 0.873828835
| 18> O 1.1645573136 -1.5695971478 -1.1701101582
| 19> O 2.1566261251 0.8008447373 1.3560016611
| 20> O 0.3950718021 1.0500490724 -1.8391591268
| 21> O -0.5129229051 1.6167155226 1.6040080946
| 22> O -3.0912510098 -0.4598262964 -0.6769259279
| 23> H -1.8788887848 -2.1386343053 -0.5898057861
| 24> H -1.283575078 -0.8032989282 -1.6238636556
| 25> H 1.0921018705 -2.5356944921 -1.1867616835
| 26> H 1.3816803618 1.0280623754 1.8999573099
| 27> H 0.6425769141 0.1384763892 -2.0670683803
| 28> H -1.3454319616 1.6445190599 2.0964659033
| 29> H -3.5858623694 -0.7476625131 -1.4567742751
| 30> *
| 31>
| 32>                          ****END OF INPUT****

CARTESIAN COORDINATES (ANGSTROEM)
---------------------------------
  C     -1.809089   -1.048378   -0.696388
  C     -1.046324   -0.500352    0.519861
  H     -1.715305   -0.608416    1.382963
  C     -0.714020    0.991949    0.353018
  H     -1.548450    1.458967   -0.186900
  C      0.578544    1.237785   -0.459722
  H      0.843381    2.293716   -0.316083
  C      1.712890    0.369215    0.099617
  H      2.577310    0.425669   -0.572025
  C      1.261945   -1.107124    0.146431
  H      2.009329   -1.674238    0.719306
  O      0.077061   -1.299804    0.873829
  O      1.164557   -1.569597   -1.170110
  O      2.156626    0.800845    1.356002
  O      0.395072    1.050049   -1.839159
  O     -0.512923    1.616716    1.604008
  O     -3.091251   -0.459826   -0.676926
  H     -1.878889   -2.138634   -0.589806
  H     -1.283575   -0.803299   -1.623864
  H      1.092102   -2.535694   -1.186762
  H      1.381680    1.028062    1.899957
  H      0.642577    0.138476   -2.067068
  H     -1.345432    1.644519    2.096466
  H     -3.585862   -0.747663   -1.456774

 Total Charge           Charge          ....    0
 Multiplicity           Mult            ....    1
 Number of Electrons    NEL             ....   96
 Basis Dimension        Dim             ....  192

ORBITAL ENERGIES
----------------

  NO   OCC          E(Eh)            E(eV)
   0   2.0000     -18.784826      -511.1611
   1   2.0000     -18.769588      -510.7465
   2   2.0000     -18.768498      -510.7168
   3   2.0000     -18.756659      -510.3946
   4   2.0000     -18.743089      -510.0254
   5   2.0000     -18.735327      -509.8142
   6   2.0000      -9.986748      -271.7532
   7   2.0000      -9.946383      -270.6548
   8   2.0000      -9.941455      -270.5208
   9   2.0000      -9.937156      -270.4038
  10   2.0000      -9.936287      -270.3801
  11   2.0000      -9.935056      -270.3466
  12   2.0000      -0.988772       -26.9059
  13   2.0000      -0.946583       -25.7578
  14   2.0000      -0.931597       -25.3500
  15   2.0000      -0.923453       -25.1284
  16   2.0000      -0.920416       -25.0458
  17   2.0000      -0.910380       -24.7727
  18   2.0000      -0.703936       -19.1551
  19   2.0000      -0.684700       -18.6316
  20   2.0000      -0.626970       -17.0607
  21   2.0000      -0.582527       -15.8514
  22   2.0000      -0.571515       -15.5517
  23   2.0000      -0.523852       -14.2548
  24   2.0000      -0.513130       -13.9630
  25   2.0000      -0.486709       -13.2440
  26   2.0000      -0.476817       -12.9748
  27   2.0000      -0.462481       -12.5847
  28   2.0000      -0.433936       -11.8080
  29   2.0000      -0.416661       -11.3379
  30   2.0000      -0.413261       -11.2454
  31   2.0000      -0.404525       -11.0077
  32   2.0000      -0.395502       -10.7622
  33   2.0000      -0.380907       -10.3650
  34   2.0000      -0.361799        -9.8451
  35   2.0000      -0.353742        -9.6258
  36   2.0000      -0.333913        -9.0862
  37   2.0000      -0.322897        -8.7865
  38   2.0000      -0.305500        -8.3131
  39   2.0000      -0.294151        -8.0043
  40   2.0000      -0.279091        -7.5945
  41   2.0000      -0.271454        -7.3866
  42   2.0000      -0.257224        -6.9994
  43   2.0000      -0.244017        -6.6400
  44   2.0000      -0.229680        -6.2499
  45   2.0000      -0.225270        -6.1299
  46   2.0000      -0.210963        -5.7406
  47   2.0000      -0.201668        -5.4877
  48   0.0000       0.006834         0.1860
  49   0.0000       0.017187         0.4677
  50   0.0000       0.019981         0.5437
  51   0.0000       0.058429         1.5899
  52   0.0000       0.071771         1.9530

MULLIKEN ATOMIC CHARGES
-----------------------
   0 C :    0.019531
   1 C :    0.061935
   2 H :    0.062388
   3 C :    0.033217
   4 H :    0.088994
   5 C :    0.047855
   6 H :    0.084351
   7 C :    0.021203
   8 H :    0.083244
   9 C :    0.177469
  10 H :    0.074500
  11 O :   -0.309165
  12 O :   -0.412271
  13 O :   -0.426967
  14 O :   -0.421281
  15 O :   -0.429674
  16 O :   -0.438189
  17 H :    0.066257
  18 H :    0.063174
  19 H :    0.313716
  20 H :    0.304297
  21 H :    0.317422
  22 H :    0.311957
  23 H :    0.306037
Sum of atomic charges:   -0.0000000

LOEWDIN ATOMIC CHARGES
----------------------
   0 C :   -0.143408
   1 C :   -0.064197
   2 H :    0.114672
   3 C :   -0.077579
   4 H :    0.115882
   5 C :   -0.066057
   6 H :    0.118119
   7 C :   -0.083174
   8 H :    0.119131
   9 C :   -0.012046
  10 H :    0.104751
  11 O :   -0.141006
  12 O :   -0.310213
  13 O :   -0.317010
  14 O :   -0.317636
  15 O :   -0.312135
  16 O :   -0.342393
  17 H :    0.094793
  18 H :    0.096008
  19 H :    0.293080
  20 H :    0.273899
  21 H :    0.273364
  22 H :    0.292700
  23 H :    0.290458

  Mayer bond orders larger than 0.100000
B(  0-C ,  1-C ) :   1.0596 B(  0-C , 16-O ) :   1.0664 B(  0-C , 17-H ) :   0.9070
B(  0-C , 18-H ) :   0.8968 B(  1-C ,  2-H ) :   0.8906 B(  1-C ,  3-C ) :   0.9917
B(  1-C , 11-O ) :   1.0073 B(  3-C ,  4-H ) :   0.8877 B(  3-C ,  5-C ) :   0.9646
B(  3-C , 15-O ) :   0.9969 B(  5-C ,  6-H ) :   0.9012 B(  5-C ,  7-C ) :   1.0132
B(  5-C , 14-O ) :   1.0910 B(  7-C ,  8-H ) :   0.8948 B(  7-C ,  9-C ) :   0.9727
B(  7-C , 13-O ) :   1.0769 B(  9-C , 10-H ) :   0.9045 B(  9-C , 11-O ) :   1.0680
B(  9-C , 12-O ) :   1.0695 B( 12-O , 19-H ) :   0.8318 B( 13-O , 20-H ) :   0.8092
B( 14-O , 21-H ) :   0.8001 B( 15-O , 22-H ) :   0.8415 B( 16-O , 23-H ) :   0.8485

Dispersion correction           -0.025883353
FINAL SINGLE POINT ENERGY      -685.698563300418

DIPOLE MOMENT
-------------

Method             : SCF
Type of density    : Electron Density
Multiplicity       :   1
Irrep              :   0
Energy             :  -685.8312827821968085 Eh
Relativity type    :
Basis              : AO
                                X                 Y                 Z
Electronic contribution:      1.678446027       0.307121137       1.471611673
Nuclear contribution   :     -2.634520351      -1.422594112      -1.780888365
                        -----------------------------------------
Total Dipole Moment    :     -0.956074324      -1.115472975      -0.309276693
                        -----------------------------------------
Magnitude (a.u.)       :      1.501336120
Magnitude (Debye)      :      3.816093147

Rotational constants in cm-1:             0.041012             0.028499             0.024597
Rotational constants in MHz :          1229.495577           854.375466           737.413514

                             ****ORCA TERMINATED NORMALLY****
TOTAL RUN TIME: 0 days 0 hours 0 minutes 12 seconds 653 msec
