                         Program Version 6.0.0  -   RELEASE  -
|  1> ! pbe def2-sv(p) def2/J RI DEFGRID1 loosescf d4 GCP(DFT/SV(P)) printgap
|  2> %output
|  3>     printlevel normal
|  4> end
|  5> * xyz 0 1
|  6> C -2.2142208191 -0.9798682996 -0.4069454345
|  7> C -1.1781045572 -0.2001331084 0.4191000502
|  8> H -1.6726100411 0.221225917 1.303548438
|  9> C -0.585498166 0.9494892761 -0.4203307231
| 10> H -0.4391004208 0.6064305268 -1.4516766232
| 11> C 0.7795607186 1.3201931094 0.1877489021
| 12> H 0.6619603042 1.4536945229 1.2713593607
| 13> C 1.7389540248 0.1463333845 -0.0697356977
| 14> H 2.0408774495 0.1443835225 -1.122905548
| 15> C 1.0021429989 -1.1958027392 0.1903714432
| 16> H 1.6480383064 -1.8291002679 0.8162656834
| 17> O -0.1603869402 -1.0385445075 0.964629138
| 18> O 0.7520800021 -1.7922561222 -1.0427000161
| 19> O 2.9324643009 0.244542961 0.6571359033
| 20> O 1.2691992357 2.5486203993 -0.2715404273
| 21> O -1.4663882516 2.0357412821 -0.5061723384
| 22> O -2.8243072365 -2.0294602046 0.2990324203
| 23> H -1.7258321193 -1.4416653671 -1.2666998632
| 24> H -2.9565146404 -0.2561947946 -0.7690887789
| 25> H 0.4475318324 -2.7041593195 -0.91526666
| 26> H 2.7432997488 0.3976525186 1.5945477169
| 27> H 1.3993539169 2.5204221893 -1.2299649925
| 28> H -1.3967118919 2.5834242706 0.2899446402
| 29> H -3.2815532334 -1.6775618232 1.0756312168
| 30> *
| 31>
| 32>                          ****END OF INPUT****

CARTESIAN COORDINATES (ANGSTROEM)
---------------------------------
  C     -2.214221   -0.979868   -0.406945
  C     -1.178105   -0.200133    0.419100
  H     -1.672610    0.221226    1.303548
  C     -0.585498    0.949489   -0.420331
  H     -0.439100    0.606431   -1.451677
  C      0.779561    1.320193    0.187749
  H      0.661960    1.453695    1.271359
  C      1.738954    0.146333   -0.069736
  H      2.040877    0.144384   -1.122906
  C      1.002143   -1.195803    0.190371
  H      1.648038   -1.829100    0.816266
  O     -0.160387   -1.038545    0.964629
  O      0.752080   -1.792256   -1.042700
  O      2.932464    0.244543    0.657136
  O      1.269199    2.548620   -0.271540
  O     -1.466388    2.035741   -0.506172
  O     -2.824307   -2.029460    0.299032
  H     -1.725832   -1.441665   -1.266700
  H     -2.956515   -0.256195   -0.769089
  H      0.447532   -2.704159   -0.915267
  H      2.743300    0.397653    1.594548
  H      1.399354    2.520422   -1.229965
  H     -1.396712    2.583424    0.289945
  H     -3.281553   -1.677562    1.075631

 Total Charge           Charge          ....    0
 Multiplicity           Mult            ....    1
 Number of Electrons    NEL             ....   96
 Basis Dimension        Dim             ....  192

ORBITAL ENERGIES
----------------

  NO   OCC          E(Eh)            E(eV)
   0   2.0000     -18.770068      -510.7595
   1   2.0000     -18.767879      -510.7000
   2   2.0000     -18.757656      -510.4218
   3   2.0000     -18.755530      -510.3639
   4   2.0000     -18.753555      -510.3102
   5   2.0000     -18.745171      -510.0820
   6   2.0000      -9.986773      -271.7539
   7   2.0000      -9.949310      -270.7345
   8   2.0000      -9.946857      -270.6677
   9   2.0000      -9.944900      -270.6145
  10   2.0000      -9.944247      -270.5967
  11   2.0000      -9.926826      -270.1227
  12   2.0000      -0.983423       -26.7603
  13   2.0000      -0.949061       -25.8253
  14   2.0000      -0.934224       -25.4215
  15   2.0000      -0.923924       -25.1412
  16   2.0000      -0.919918       -25.0322
  17   2.0000      -0.911770       -24.8105
  18   2.0000      -0.707651       -19.2562
  19   2.0000      -0.692246       -18.8370
  20   2.0000      -0.620556       -16.8862
  21   2.0000      -0.588465       -16.0130
  22   2.0000      -0.575196       -15.6519
  23   2.0000      -0.537741       -14.6327
  24   2.0000      -0.508976       -13.8499
  25   2.0000      -0.496640       -13.5143
  26   2.0000      -0.469568       -12.7776
  27   2.0000      -0.453224       -12.3329
  28   2.0000      -0.438707       -11.9378
  29   2.0000      -0.426501       -11.6057
  30   2.0000      -0.418983       -11.4011
  31   2.0000      -0.408410       -11.1134
  32   2.0000      -0.386394       -10.5143
  33   2.0000      -0.378510       -10.2998
  34   2.0000      -0.359106        -9.7718
  35   2.0000      -0.354258        -9.6399
  36   2.0000      -0.332755        -9.0547
  37   2.0000      -0.322152        -8.7662
  38   2.0000      -0.295994        -8.0544
  39   2.0000      -0.283356        -7.7105
  40   2.0000      -0.282027        -7.6744
  41   2.0000      -0.279810        -7.6140
  42   2.0000      -0.267540        -7.2801
  43   2.0000      -0.240360        -6.5405
  44   2.0000      -0.236426        -6.4335
  45   2.0000      -0.226877        -6.1736
  46   2.0000      -0.211607        -5.7581
  47   2.0000      -0.199256        -5.4220
  48   0.0000       0.018687         0.5085
  49   0.0000       0.019929         0.5423
  50   0.0000       0.026460         0.7200
  51   0.0000       0.035089         0.9548
  52   0.0000       0.035957         0.9784

MULLIKEN ATOMIC CHARGES
-----------------------
   0 C :    0.055569
   1 C :    0.068389
   2 H :    0.039133
   3 C :   -0.021327
   4 H :    0.071523
   5 C :    0.052552
   6 H :    0.040517
   7 C :    0.070119
   8 H :    0.068235
   9 C :    0.168903
  10 H :    0.063442
  11 O :   -0.313803
  12 O :   -0.397530
  13 O :   -0.407246
  14 O :   -0.400290
  15 O :   -0.401384
  16 O :   -0.428217
  17 H :    0.079968
  18 H :    0.080468
  19 H :    0.313306
  20 H :    0.300386
  21 H :    0.302104
  22 H :    0.301916
  23 H :    0.293268
Sum of atomic charges:   -0.0000000

LOEWDIN ATOMIC CHARGES
----------------------
   0 C :   -0.140785
   1 C :   -0.075523
   2 H :    0.103517
   3 C :   -0.085784
   4 H :    0.116466
   5 C :   -0.086520
   6 H :    0.108319
   7 C :   -0.084540
   8 H :    0.120304
   9 C :   -0.010233
  10 H :    0.099463
  11 O :   -0.151355
  12 O :   -0.306821
  13 O :   -0.306080
  14 O :   -0.306129
  15 O :   -0.306878
  16 O :   -0.336020
  17 H :    0.112028
  18 H :    0.102565
  19 H :    0.292136
  20 H :    0.285183
  21 H :    0.288735
  22 H :    0.286151
  23 H :    0.281803

  Mayer bond orders larger than 0.100000
B(  0-C ,  1-C ) :   1.0508 B(  0-C , 16-O ) :   1.0834 B(  0-C , 17-H ) :   0.9015
B(  0-C , 18-H ) :   0.9124 B(  1-C ,  2-H ) :   0.8790 B(  1-C ,  3-C ) :   0.9383
B(  1-C , 11-O ) :   0.9780 B(  3-C ,  4-H ) :   0.8797 B(  3-C ,  5-C ) :   0.9940
B(  3-C , 15-O ) :   1.0608 B(  5-C ,  6-H ) :   0.8471 B(  5-C ,  7-C ) :   1.0146
B(  5-C , 14-O ) :   1.0879 B(  7-C ,  8-H ) :   0.8702 B(  7-C ,  9-C ) :   0.9487
B(  7-C , 13-O ) :   1.0646 B(  9-C , 10-H ) :   0.8977 B(  9-C , 11-O ) :   1.0818
B(  9-C , 12-O ) :   1.0995 B( 12-O , 19-H ) :   0.8312 B( 13-O , 20-H ) :   0.8486
B( 14-O , 21-H ) :   0.8487 B( 15-O , 22-H ) :   0.8442 B( 16-O , 23-H ) :   0.8541

Dispersion correction           -0.024433622
FINAL SINGLE POINT ENERGY      -685.685390173040

DIPOLE MOMENT
-------------

Method             : SCF
Type of density    : Electron Density
Multiplicity       :   1
Irrep              :   0
Energy             :  -685.8144325939983901 Eh
Relativity type    :
Basis              : AO
                                X                 Y                 Z
Electronic contribution:      2.069711008       0.053012700       0.942204996
Nuclear contribution   :     -2.367306564       0.016940308      -0.377820106
                        -----------------------------------------
Total Dipole Moment    :     -0.297595556       0.069953008       0.564384890
                        -----------------------------------------
Magnitude (a.u.)       :      0.641862012
Magnitude (Debye)      :      1.631483578

Rotational constants in cm-1:             0.042763             0.025785             0.018389
Rotational constants in MHz :          1282.014296           773.019238           551.278313

                             ****ORCA TERMINATED NORMALLY****
TOTAL RUN TIME: 0 days 0 hours 0 minutes 11 seconds 851 msec
