                         Program Version 6.0.0  -   RELEASE  -
|  1> ! pbe def2-sv(p) def2/J RI DEFGRID1 loosescf d4 GCP(DFT/SV(P)) printgap
|  2> %output
|  3>     printlevel normal
|  4> end
|  5> * xyz 0 1
|  6> C -1.9500010273 0.6246550143 1.94982e-05
|  7> C -1.900014266 -0.75819457 4.6337e-06
|  8> C -0.6723457892 -1.3995481209 4.84525e-05
|  9> C 0.4800561694 -0.6436102759 9.3572e-05
| 10> C 0.4589540895 0.7508345577 0.0002013441
| 11> C -0.7857081756 1.3722794948 -3.78399e-05
| 12> O 1.6307466934 1.4292294977 -0.0001152453
| 13> F 1.689306702 -1.2839931113 -3.86532e-05
| 14> H -2.9022240616 1.1303353569 -0.0002357694
| 15> H -2.8068656482 -1.3395586352 5.04e-05
| 16> H -0.5921087238 -2.4742591424 0.0001665245
| 17> H -0.8357022471 2.4503597386 -0.0008796794
| 18> H 1.4723884713 2.3866018388 -0.0004718542
| 19> *
| 20>
| 21>                          ****END OF INPUT****

CARTESIAN COORDINATES (ANGSTROEM)
---------------------------------
  C     -1.950001    0.624655    0.000019
  C     -1.900014   -0.758195    0.000005
  C     -0.672346   -1.399548    0.000048
  C      0.480056   -0.643610    0.000094
  C      0.458954    0.750835    0.000201
  C     -0.785708    1.372279   -0.000038
  O      1.630747    1.429229   -0.000115
  F      1.689307   -1.283993   -0.000039
  H     -2.902224    1.130335   -0.000236
  H     -2.806866   -1.339559    0.000050
  H     -0.592109   -2.474259    0.000167
  H     -0.835702    2.450360   -0.000880
  H      1.472388    2.386602   -0.000472

 Total Charge           Charge          ....    0
 Multiplicity           Mult            ....    1
 Number of Electrons    NEL             ....   58
 Basis Dimension        Dim             ....  122

ORBITAL ENERGIES
----------------

  NO   OCC          E(Eh)            E(eV)
   0   2.0000     -24.259390      -660.1316
   1   2.0000     -18.792533      -511.3708
   2   2.0000      -9.970109      -271.3005
   3   2.0000      -9.963325      -271.1158
   4   2.0000      -9.902148      -269.4511
   5   2.0000      -9.899490      -269.3788
   6   2.0000      -9.898448      -269.3505
   7   2.0000      -9.895573      -269.2722
   8   2.0000      -1.084385       -29.5076
   9   2.0000      -0.973825       -26.4991
  10   2.0000      -0.782001       -21.2793
  11   2.0000      -0.679161       -18.4809
  12   2.0000      -0.673050       -18.3146
  13   2.0000      -0.581399       -15.8207
  14   2.0000      -0.547251       -14.8914
  15   2.0000      -0.509187       -13.8557
  16   2.0000      -0.473803       -12.8928
  17   2.0000      -0.442559       -12.0426
  18   2.0000      -0.420983       -11.4555
  19   2.0000      -0.402921       -10.9640
  20   2.0000      -0.397863       -10.8264
  21   2.0000      -0.362347        -9.8600
  22   2.0000      -0.349356        -9.5065
  23   2.0000      -0.340559        -9.2671
  24   2.0000      -0.312963        -8.5161
  25   2.0000      -0.303746        -8.2654
  26   2.0000      -0.303702        -8.2641
  27   2.0000      -0.228774        -6.2253
  28   2.0000      -0.199276        -5.4226
  29   0.0000      -0.037381        -1.0172
  30   0.0000      -0.024479        -0.6661
  31   0.0000       0.013914         0.3786
  32   0.0000       0.032372         0.8809
  33   0.0000       0.082075         2.2334

MULLIKEN ATOMIC CHARGES
-----------------------
   0 C :   -0.047275
   1 C :   -0.044810
   2 C :   -0.170511
   3 C :    0.254589
   4 C :    0.156120
   5 C :   -0.175670
   6 O :   -0.322746
   7 F :   -0.176474
   8 H :    0.054011
   9 H :    0.056281
  10 H :    0.060355
  11 H :    0.033487
  12 H :    0.322644
Sum of atomic charges:    0.0000000

LOEWDIN ATOMIC CHARGES
----------------------
   0 C :   -0.127686
   1 C :   -0.138599
   2 C :   -0.144222
   3 C :    0.052026
   4 C :   -0.003526
   5 C :   -0.170075
   6 O :   -0.222677
   7 F :   -0.061207
   8 H :    0.125917
   9 H :    0.126229
  10 H :    0.137708
  11 H :    0.123435
  12 H :    0.302676

  Mayer bond orders larger than 0.100000
B(  0-C ,  1-C ) :   1.3787 B(  0-C ,  5-C ) :   1.3613 B(  0-C ,  8-H ) :   0.9654
B(  1-C ,  2-C ) :   1.3198 B(  1-C ,  9-H ) :   0.9691 B(  2-C ,  3-C ) :   1.3965
B(  2-C ,  5-C ) :   0.1028 B(  2-C , 10-H ) :   0.9673 B(  3-C ,  4-C ) :   1.3105
B(  3-C ,  7-F ) :   1.1243 B(  4-C ,  5-C ) :   1.3180 B(  4-C ,  6-O ) :   1.2155
B(  5-C , 11-H ) :   0.9613 B(  6-O , 12-H ) :   0.8383

Dispersion correction           -0.012585922
FINAL SINGLE POINT ENERGY      -405.875832977913

DIPOLE MOMENT
-------------

Method             : SCF
Type of density    : Electron Density
Multiplicity       :   1
Irrep              :   0
Energy             :  -405.9191008276001753 Eh
Relativity type    :
Basis              : AO
                                X                 Y                 Z
Electronic contribution:      6.272724814      -2.438527101       0.000862140
Nuclear contribution   :     -6.855298454       3.231141881      -0.001251550
                        -----------------------------------------
Total Dipole Moment    :     -0.582573640       0.792614780      -0.000389410
                        -----------------------------------------
Magnitude (a.u.)       :      0.983682056
Magnitude (Debye)      :      2.500321082

Rotational constants in cm-1:             0.109088             0.075384             0.044578
Rotational constants in MHz :          3270.380059          2259.940739          1336.426125

                             ****ORCA TERMINATED NORMALLY****
TOTAL RUN TIME: 0 days 0 hours 0 minutes 10 seconds 933 msec
