                         Program Version 6.0.0  -   RELEASE  -
|  1> ! pbe def2-sv(p) def2/J RI DEFGRID1 loosescf d4 GCP(DFT/SV(P)) printgap
|  2> %output
|  3>     printlevel normal
|  4> end
|  5> * xyz 0 1
|  6> C 3.240837694 -0.108473324 1.0060480076
|  7> C 1.913074207 -0.1123190753 0.3325669835
|  8> C 1.3448077775 1.010580353 -0.134986583
|  9> C 0.043695651 1.0524000792 -0.7751547648
| 10> O -0.3810644963 2.0722797888 -1.313832401
| 11> C -0.7808195846 -0.2175566943 -0.6983284121
| 12> H -1.5135738968 -0.1969647259 -1.5123793062
| 13> C 0.1569397679 -1.4126069516 -0.8797629584
| 14> C 1.2411315781 -1.4396213209 0.1924385883
| 15> C -1.5617713861 -0.2101935717 0.6387716096
| 16> C -2.6003107657 0.9113075281 0.6276664249
| 17> C -2.2640139991 -1.5435574479 0.8929430786
| 18> H 3.5949456428 0.9032966179 1.1794571462
| 19> H 3.9673055872 -0.6336707732 0.3874469423
| 20> H 3.1789471505 -0.6375751063 1.9549387276
| 21> H 1.8558749647 1.9615294369 -0.0656753757
| 22> H -0.4104655811 -2.3421414657 -0.874411435
| 23> H 0.6311923031 -1.3199799748 -1.8605294041
| 24> H 0.8074189752 -1.7072199045 1.1599917662
| 25> H 1.9850505507 -2.2019365338 -0.0455711545
| 26> H -0.8558220464 -0.0146366705 1.4528619647
| 27> H -3.3729189481 0.7025829778 -0.109601431
| 28> H -2.1452556143 1.866624376 0.3748464586
| 29> H -3.0704554965 1.0033407267 1.6037880811
| 30> H -2.904624844 -1.453758305 1.766880463
| 31> H -1.5555463586 -2.3452771654 1.0760859039
| 32> H -2.8849161801 -1.8111980375 0.0411713812
| 33> *
| 34>
| 35>                          ****END OF INPUT****

CARTESIAN COORDINATES (ANGSTROEM)
---------------------------------
  C      3.240838   -0.108473    1.006048
  C      1.913074   -0.112319    0.332567
  C      1.344808    1.010580   -0.134987
  C      0.043696    1.052400   -0.775155
  O     -0.381064    2.072280   -1.313832
  C     -0.780820   -0.217557   -0.698328
  H     -1.513574   -0.196965   -1.512379
  C      0.156940   -1.412607   -0.879763
  C      1.241132   -1.439621    0.192439
  C     -1.561771   -0.210194    0.638772
  C     -2.600311    0.911308    0.627666
  C     -2.264014   -1.543557    0.892943
  H      3.594946    0.903297    1.179457
  H      3.967306   -0.633671    0.387447
  H      3.178947   -0.637575    1.954939
  H      1.855875    1.961529   -0.065675
  H     -0.410466   -2.342141   -0.874411
  H      0.631192   -1.319980   -1.860529
  H      0.807419   -1.707220    1.159992
  H      1.985051   -2.201937   -0.045571
  H     -0.855822   -0.014637    1.452862
  H     -3.372919    0.702583   -0.109601
  H     -2.145256    1.866624    0.374846
  H     -3.070455    1.003341    1.603788
  H     -2.904625   -1.453758    1.766880
  H     -1.555546   -2.345277    1.076086
  H     -2.884916   -1.811198    0.041171

 Total Charge           Charge          ....    0
 Multiplicity           Mult            ....    1
 Number of Electrons    NEL             ....   84
 Basis Dimension        Dim             ....  186

ORBITAL ENERGIES
----------------

  NO   OCC          E(Eh)            E(eV)
   0   2.0000     -18.721040      -509.4254
   1   2.0000      -9.958563      -270.9863
   2   2.0000      -9.922822      -270.0137
   3   2.0000      -9.903085      -269.4766
   4   2.0000      -9.902955      -269.4731
   5   2.0000      -9.895137      -269.2604
   6   2.0000      -9.894672      -269.2477
   7   2.0000      -9.894010      -269.2297
   8   2.0000      -9.888507      -269.0800
   9   2.0000      -9.878103      -268.7968
  10   2.0000      -9.866470      -268.4803
  11   2.0000      -0.915757       -24.9190
  12   2.0000      -0.776649       -21.1337
  13   2.0000      -0.732648       -19.9364
  14   2.0000      -0.684842       -18.6355
  15   2.0000      -0.657464       -17.8905
  16   2.0000      -0.623673       -16.9710
  17   2.0000      -0.610196       -16.6043
  18   2.0000      -0.556540       -15.1442
  19   2.0000      -0.515041       -14.0150
  20   2.0000      -0.507611       -13.8128
  21   2.0000      -0.462098       -12.5743
  22   2.0000      -0.435269       -11.8443
  23   2.0000      -0.419257       -11.4086
  24   2.0000      -0.408017       -11.1027
  25   2.0000      -0.398865       -10.8537
  26   2.0000      -0.390246       -10.6191
  27   2.0000      -0.375872       -10.2280
  28   2.0000      -0.362029        -9.8513
  29   2.0000      -0.358658        -9.7596
  30   2.0000      -0.348194        -9.4749
  31   2.0000      -0.345533        -9.4024
  32   2.0000      -0.339076        -9.2267
  33   2.0000      -0.333734        -9.0814
  34   2.0000      -0.323251        -8.7961
  35   2.0000      -0.307341        -8.3632
  36   2.0000      -0.298982        -8.1357
  37   2.0000      -0.291281        -7.9261
  38   2.0000      -0.281389        -7.6570
  39   2.0000      -0.273690        -7.4475
  40   2.0000      -0.231834        -6.3085
  41   2.0000      -0.181005        -4.9254
  42   0.0000      -0.078615        -2.1392
  43   0.0000       0.019455         0.5294
  44   0.0000       0.031276         0.8511
  45   0.0000       0.048476         1.3191
  46   0.0000       0.056496         1.5373

MULLIKEN ATOMIC CHARGES
-----------------------
   0 C :   -0.217478
   1 C :   -0.066513
   2 C :   -0.156050
   3 C :    0.097721
   4 O :   -0.181158
   5 C :   -0.121180
   6 H :    0.062254
   7 C :   -0.115307
   8 C :   -0.110902
   9 C :   -0.203243
  10 C :   -0.238527
  11 C :   -0.225553
  12 H :    0.112949
  13 H :    0.122323
  14 H :    0.116304
  15 H :    0.045097
  16 H :    0.087566
  17 H :    0.096412
  18 H :    0.109011
  19 H :    0.095662
  20 H :    0.077624
  21 H :    0.092618
  22 H :    0.125280
  23 H :    0.094929
  24 H :    0.101684
  25 H :    0.101831
  26 H :    0.096646
Sum of atomic charges:    0.0000000

LOEWDIN ATOMIC CHARGES
----------------------
   0 C :   -0.321717
   1 C :   -0.015438
   2 C :   -0.170312
   3 C :    0.042124
   4 O :   -0.146423
   5 C :   -0.152484
   6 H :    0.126335
   7 C :   -0.210843
   8 C :   -0.216411
   9 C :   -0.145031
  10 C :   -0.331226
  11 C :   -0.329155
  12 H :    0.129660
  13 H :    0.138316
  14 H :    0.134825
  15 H :    0.128604
  16 H :    0.119843
  17 H :    0.124318
  18 H :    0.135843
  19 H :    0.128904
  20 H :    0.115317
  21 H :    0.118157
  22 H :    0.125984
  23 H :    0.115847
  24 H :    0.121320
  25 H :    0.113716
  26 H :    0.119926

  Mayer bond orders larger than 0.100000
B(  0-C ,  1-C ) :   1.1271 B(  0-C , 12-H ) :   0.9423 B(  0-C , 13-H ) :   0.9226
B(  0-C , 14-H ) :   0.9292 B(  1-C ,  2-C ) :   1.7145 B(  1-C ,  8-C ) :   1.0775
B(  2-C ,  3-C ) :   1.0496 B(  2-C , 15-H ) :   0.9365 B(  3-C ,  4-O ) :   2.0708
B(  3-C ,  5-C ) :   0.9788 B(  5-C ,  6-H ) :   0.8579 B(  5-C ,  7-C ) :   1.0581
B(  5-C ,  9-C ) :   1.0287 B(  7-C ,  8-C ) :   1.1246 B(  7-C , 16-H ) :   0.8976
B(  7-C , 17-H ) :   0.9210 B(  8-C , 18-H ) :   0.8632 B(  8-C , 19-H ) :   0.9047
B(  9-C , 10-C ) :   1.1173 B(  9-C , 11-C ) :   1.1230 B(  9-C , 20-H ) :   0.8899
B( 10-C , 21-H ) :   0.9476 B( 10-C , 22-H ) :   0.9348 B( 10-C , 23-H ) :   0.9462
B( 11-C , 24-H ) :   0.9472 B( 11-C , 25-H ) :   0.9351 B( 11-C , 26-H ) :   0.9440

Dispersion correction           -0.028967064
FINAL SINGLE POINT ENERGY      -464.843412584745

DIPOLE MOMENT
-------------

Method             : SCF
Type of density    : Electron Density
Multiplicity       :   1
Irrep              :   0
Energy             :  -464.9285361427257612 Eh
Relativity type    :
Basis              : AO
                                X                 Y                 Z
Electronic contribution:      3.204372975       6.489163105      -5.381012074
Nuclear contribution   :     -2.531986681      -7.687552286       6.106088987
                        -----------------------------------------
Total Dipole Moment    :      0.672386294      -1.198389181       0.725076913
                        -----------------------------------------
Magnitude (a.u.)       :      1.553697682
Magnitude (Debye)      :      3.949185662

Rotational constants in cm-1:             0.051806             0.029479             0.023083
Rotational constants in MHz :          1553.094293           883.747172           692.024656

                             ****ORCA TERMINATED NORMALLY****
TOTAL RUN TIME: 0 days 0 hours 0 minutes 10 seconds 812 msec
