                         Program Version 6.0.0  -   RELEASE  -
|  1> ! pbe def2-sv(p) def2/J RI DEFGRID1 loosescf d4 GCP(DFT/SV(P)) printgap
|  2> %output
|  3>     printlevel normal
|  4> end
|  5> * xyz 0 1
|  6> C -3.9294551056 -0.3080862086 -0.002661152
|  7> C -3.7202986766 1.0639690063 -0.002019871
|  8> C -2.4325427391 1.5674674074 -0.0001629982
|  9> C -1.3332148996 0.7118703446 0.0009122364
| 10> C -1.5455215304 -0.6716046159 0.0005593845
| 11> C -2.8478034582 -1.1684512713 -0.0011838011
| 12> C -0.4146882192 -1.6100727559 0.0013101784
| 13> O -0.5909865626 -2.8270327756 0.0019564178
| 14> C 0.9357436357 -1.0231194711 0.0006517721
| 15> C 2.007220187 -1.9000585092 0.000336409
| 16> C 3.3154007484 -1.4196055055 -0.0009526183
| 17> C 3.5476854412 -0.0710727513 -0.0019357074
| 18> C 2.4829189901 0.8617694387 -0.0012115677
| 19> C 1.1440675674 0.3761312497 0.0002191375
| 20> C 0.0242194031 1.2947341178 0.0020310288
| 21> O 0.1545550822 2.5289469106 0.0043154943
| 22> N 2.7634318953 2.1680273091 -0.0025517393
| 23> H -4.9328006697 -0.7040835768 -0.0045791565
| 24> H -4.5612072498 1.7396519405 -0.0032588359
| 25> H -2.2483408281 2.6316426524 0.0002506489
| 26> H -2.9812642761 -2.2402317998 -0.0015352959
| 27> H 1.8011757092 -2.9593988432 0.0009974274
| 28> H 4.1399157288 -2.1150472707 -0.0012306708
| 29> H 4.5575572581 0.3094446807 -0.0031241805
| 30> H 1.9952073874 2.8267962699 -0.0002344323
| 31> H 3.7197193638 2.476796534 -0.0024351946
| 32> *
| 33>
| 34>                          ****END OF INPUT****

CARTESIAN COORDINATES (ANGSTROEM)
---------------------------------
  C     -3.929455   -0.308086   -0.002661
  C     -3.720299    1.063969   -0.002020
  C     -2.432543    1.567467   -0.000163
  C     -1.333215    0.711870    0.000912
  C     -1.545522   -0.671605    0.000559
  C     -2.847803   -1.168451   -0.001184
  C     -0.414688   -1.610073    0.001310
  O     -0.590987   -2.827033    0.001956
  C      0.935744   -1.023119    0.000652
  C      2.007220   -1.900059    0.000336
  C      3.315401   -1.419606   -0.000953
  C      3.547685   -0.071073   -0.001936
  C      2.482919    0.861769   -0.001212
  C      1.144068    0.376131    0.000219
  C      0.024219    1.294734    0.002031
  O      0.154555    2.528947    0.004315
  N      2.763432    2.168027   -0.002552
  H     -4.932801   -0.704084   -0.004579
  H     -4.561207    1.739652   -0.003259
  H     -2.248341    2.631643    0.000251
  H     -2.981264   -2.240232   -0.001535
  H      1.801176   -2.959399    0.000997
  H      4.139916   -2.115047   -0.001231
  H      4.557557    0.309445   -0.003124
  H      1.995207    2.826796   -0.000234
  H      3.719719    2.476797   -0.002435

 Total Charge           Charge          ....    0
 Multiplicity           Mult            ....    1
 Number of Electrons    NEL             ....  116
 Basis Dimension        Dim             ....  256

ORBITAL ENERGIES
----------------

  NO   OCC          E(Eh)            E(eV)
   0   2.0000     -18.747315      -510.1404
   1   2.0000     -18.741811      -509.9906
   2   2.0000     -14.011816      -381.2809
   3   2.0000      -9.977027      -271.4887
   4   2.0000      -9.973737      -271.3992
   5   2.0000      -9.961085      -271.0549
   6   2.0000      -9.912762      -269.7400
   7   2.0000      -9.911454      -269.7044
   8   2.0000      -9.910874      -269.6886
   9   2.0000      -9.910610      -269.6814
  10   2.0000      -9.909928      -269.6629
  11   2.0000      -9.908499      -269.6240
  12   2.0000      -9.908241      -269.6170
  13   2.0000      -9.907569      -269.5986
  14   2.0000      -9.904253      -269.5084
  15   2.0000      -9.903632      -269.4915
  16   2.0000      -9.895244      -269.2633
  17   2.0000      -0.939681       -25.5700
  18   2.0000      -0.934257       -25.4224
  19   2.0000      -0.860496       -23.4153
  20   2.0000      -0.795849       -21.6562
  21   2.0000      -0.777649       -21.1609
  22   2.0000      -0.724637       -19.7184
  23   2.0000      -0.687435       -18.7061
  24   2.0000      -0.683862       -18.6088
  25   2.0000      -0.672266       -18.2933
  26   2.0000      -0.608297       -16.5526
  27   2.0000      -0.593438       -16.1483
  28   2.0000      -0.576257       -15.6807
  29   2.0000      -0.544726       -14.8228
  30   2.0000      -0.520626       -14.1669
  31   2.0000      -0.512853       -13.9554
  32   2.0000      -0.495000       -13.4696
  33   2.0000      -0.471032       -12.8174
  34   2.0000      -0.445433       -12.1208
  35   2.0000      -0.434027       -11.8105
  36   2.0000      -0.426875       -11.6159
  37   2.0000      -0.417137       -11.3509
  38   2.0000      -0.410260       -11.1638
  39   2.0000      -0.401076       -10.9138
  40   2.0000      -0.387549       -10.5457
  41   2.0000      -0.382833       -10.4174
  42   2.0000      -0.372401       -10.1336
  43   2.0000      -0.367427        -9.9982
  44   2.0000      -0.363175        -9.8825
  45   2.0000      -0.353465        -9.6183
  46   2.0000      -0.341715        -9.2985
  47   2.0000      -0.331455        -9.0194
  48   2.0000      -0.324759        -8.8371
  49   2.0000      -0.317087        -8.6284
  50   2.0000      -0.308193        -8.3864
  51   2.0000      -0.291790        -7.9400
  52   2.0000      -0.248944        -6.7741
  53   2.0000      -0.241988        -6.5848
  54   2.0000      -0.240290        -6.5386
  55   2.0000      -0.217374        -5.9151
  56   2.0000      -0.204831        -5.5737
  57   2.0000      -0.193106        -5.2547
  58   0.0000      -0.125086        -3.4038
  59   0.0000      -0.078067        -2.1243
  60   0.0000      -0.051002        -1.3878
  61   0.0000      -0.030156        -0.8206
  62   0.0000       0.019162         0.5214

MULLIKEN ATOMIC CHARGES
-----------------------
   0 C :   -0.020955
   1 C :   -0.016719
   2 C :   -0.132941
   3 C :    0.045196
   4 C :    0.038980
   5 C :   -0.126171
   6 C :    0.083915
   7 O :   -0.150984
   8 C :    0.026697
   9 C :   -0.142201
  10 C :   -0.013938
  11 C :   -0.125270
  12 C :    0.028524
  13 C :    0.045564
  14 C :    0.075429
  15 O :   -0.212826
  16 N :   -0.261545
  17 H :    0.062579
  18 H :    0.062213
  19 H :    0.058600
  20 H :    0.058479
  21 H :    0.055596
  22 H :    0.061112
  23 H :    0.026910
  24 H :    0.250793
  25 H :    0.222963
Sum of atomic charges:   -0.0000000

LOEWDIN ATOMIC CHARGES
----------------------
   0 C :   -0.107541
   1 C :   -0.105055
   2 C :   -0.088046
   3 C :   -0.045471
   4 C :   -0.053084
   5 C :   -0.083135
   6 C :    0.058667
   7 O :   -0.131597
   8 C :   -0.044922
   9 C :   -0.111278
  10 C :   -0.098289
  11 C :   -0.140864
  12 C :    0.032145
  13 C :   -0.093153
  14 C :    0.057170
  15 O :   -0.173783
  16 N :   -0.263226
  17 H :    0.128735
  18 H :    0.128573
  19 H :    0.134961
  20 H :    0.135879
  21 H :    0.134983
  22 H :    0.130257
  23 H :    0.123480
  24 H :    0.241985
  25 H :    0.232608

  Mayer bond orders larger than 0.100000
B(  0-C ,  1-C ) :   1.3275 B(  0-C ,  5-C ) :   1.3368 B(  0-C , 17-H ) :   0.9668
B(  1-C ,  2-C ) :   1.3353 B(  1-C , 18-H ) :   0.9666 B(  2-C ,  3-C ) :   1.3823
B(  2-C , 19-H ) :   0.9545 B(  3-C ,  4-C ) :   1.3349 B(  3-C , 14-C ) :   0.9669
B(  4-C ,  5-C ) :   1.3798 B(  4-C ,  6-C ) :   0.9552 B(  5-C , 20-H ) :   0.9563
B(  6-C ,  7-O ) :   2.1554 B(  6-C ,  8-C ) :   0.9507 B(  8-C ,  9-C ) :   1.4312
B(  8-C , 13-C ) :   1.3045 B(  9-C , 10-C ) :   1.2314 B(  9-C , 21-H ) :   0.9561
B( 10-C , 11-C ) :   1.3982 B( 10-C , 22-H ) :   0.9652 B( 11-C , 12-C ) :   1.2393
B( 11-C , 23-H ) :   0.9601 B( 12-C , 13-C ) :   1.2170 B( 12-C , 16-N ) :   1.4605
B( 13-C , 14-C ) :   1.0187 B( 14-C , 15-O ) :   2.0026 B( 15-O , 24-H ) :   0.1206
B( 16-N , 24-H ) :   0.7935 B( 16-N , 25-H ) :   0.8589

Dispersion correction           -0.038423623
FINAL SINGLE POINT ENERGY      -742.634865456397

DIPOLE MOMENT
-------------

Method             : SCF
Type of density    : Electron Density
Multiplicity       :   1
Irrep              :   0
Energy             :  -742.7004623848049505 Eh
Relativity type    :
Basis              : AO
                                X                 Y                 Z
Electronic contribution:     -0.670677151      -1.035150777       0.011121372
Nuclear contribution   :      1.406566576       1.851545366      -0.014134195
                        -----------------------------------------
Total Dipole Moment    :      0.735889425       0.816394589      -0.003012822
                        -----------------------------------------
Magnitude (a.u.)       :      1.099109844
Magnitude (Debye)      :      2.793715203

Rotational constants in cm-1:             0.030455             0.013638             0.009420
Rotational constants in MHz :           913.010540           408.852326           282.394516

                             ****ORCA TERMINATED NORMALLY****
TOTAL RUN TIME: 0 days 0 hours 0 minutes 17 seconds 283 msec
