                         Program Version 6.0.0  -   RELEASE  -
|  1> ! pbe def2-sv(p) def2/J RI DEFGRID1 loosescf d4 GCP(DFT/SV(P)) printgap
|  2> %output
|  3>     printlevel normal
|  4> end
|  5> * xyz 0 1
|  6> C -1.8273347292 -1.0169767169 -0.6788267554
|  7> C -1.0463599481 -0.4392927734 0.5212977863
|  8> H -1.7020372237 -0.5039061126 1.3985472127
|  9> C -0.6691743639 1.0437327207 0.3310315561
| 10> H -1.4739652113 1.5373766718 -0.2249295536
| 11> C 0.6407213072 1.2398180194 -0.467973619
| 12> H 0.9452527937 2.2844539081 -0.320877299
| 13> C 1.7412747252 0.3305379858 0.0971734384
| 14> H 2.6087100753 0.3754768247 -0.5762038832
| 15> C 1.2382839321 -1.1269342043 0.1304570447
| 16> H 1.9598125119 -1.7477338521 0.6838218633
| 17> O 0.0611651814 -1.2671513054 0.8766534008
| 18> O 1.1150028653 -1.5638663844 -1.191259219
| 19> O 2.0624090219 0.7870100425 1.3855573009
| 20> O 0.4703221191 1.0642663841 -1.8504245857
| 21> O -0.6028876236 1.7174363683 1.56468695
| 22> O -3.1934477706 -0.684336695 -0.6350512895
| 23> H -1.7940610248 -2.1069686864 -0.6115826548
| 24> H -1.3817328282 -0.6977451633 -1.6264683983
| 25> H 0.9400444654 -2.5164196939 -1.2214187845
| 26> H 2.8299656643 0.3109376029 1.7340843017
| 27> H 0.6262816495 0.1303447364 -2.0716154538
| 28> H 0.2145521424 1.4529729982 2.0188658906
| 29> H -3.3073559592 0.2661471138 -0.769373743
| 30> *
| 31>
| 32>                          ****END OF INPUT****

CARTESIAN COORDINATES (ANGSTROEM)
---------------------------------
  C     -1.827335   -1.016977   -0.678827
  C     -1.046360   -0.439293    0.521298
  H     -1.702037   -0.503906    1.398547
  C     -0.669174    1.043733    0.331032
  H     -1.473965    1.537377   -0.224930
  C      0.640721    1.239818   -0.467974
  H      0.945253    2.284454   -0.320877
  C      1.741275    0.330538    0.097173
  H      2.608710    0.375477   -0.576204
  C      1.238284   -1.126934    0.130457
  H      1.959813   -1.747734    0.683822
  O      0.061165   -1.267151    0.876653
  O      1.115003   -1.563866   -1.191259
  O      2.062409    0.787010    1.385557
  O      0.470322    1.064266   -1.850425
  O     -0.602888    1.717436    1.564687
  O     -3.193448   -0.684337   -0.635051
  H     -1.794061   -2.106969   -0.611583
  H     -1.381733   -0.697745   -1.626468
  H      0.940044   -2.516420   -1.221419
  H      2.829966    0.310938    1.734084
  H      0.626282    0.130345   -2.071615
  H      0.214552    1.452973    2.018866
  H     -3.307356    0.266147   -0.769374

 Total Charge           Charge          ....    0
 Multiplicity           Mult            ....    1
 Number of Electrons    NEL             ....   96
 Basis Dimension        Dim             ....  192

ORBITAL ENERGIES
----------------

  NO   OCC          E(Eh)            E(eV)
   0   2.0000     -18.797016      -511.4928
   1   2.0000     -18.785232      -511.1721
   2   2.0000     -18.773423      -510.8508
   3   2.0000     -18.748237      -510.1655
   4   2.0000     -18.745440      -510.0894
   5   2.0000     -18.733492      -509.7642
   6   2.0000     -10.004170      -272.2273
   7   2.0000      -9.959854      -271.0214
   8   2.0000      -9.944127      -270.5934
   9   2.0000      -9.937101      -270.4023
  10   2.0000      -9.936189      -270.3775
  11   2.0000      -9.927598      -270.1437
  12   2.0000      -0.999000       -27.1842
  13   2.0000      -0.959677       -26.1141
  14   2.0000      -0.933330       -25.3972
  15   2.0000      -0.928274       -25.2596
  16   2.0000      -0.919463       -25.0199
  17   2.0000      -0.909612       -24.7518
  18   2.0000      -0.702515       -19.1164
  19   2.0000      -0.695337       -18.9211
  20   2.0000      -0.621808       -16.9202
  21   2.0000      -0.598275       -16.2799
  22   2.0000      -0.577390       -15.7116
  23   2.0000      -0.537190       -14.6177
  24   2.0000      -0.509277       -13.8581
  25   2.0000      -0.491170       -13.3654
  26   2.0000      -0.480858       -13.0848
  27   2.0000      -0.465868       -12.6769
  28   2.0000      -0.444553       -12.0969
  29   2.0000      -0.434714       -11.8292
  30   2.0000      -0.413767       -11.2592
  31   2.0000      -0.402818       -10.9612
  32   2.0000      -0.395855       -10.7718
  33   2.0000      -0.378637       -10.3032
  34   2.0000      -0.365345        -9.9415
  35   2.0000      -0.352286        -9.5862
  36   2.0000      -0.341994        -9.3061
  37   2.0000      -0.330588        -8.9958
  38   2.0000      -0.304763        -8.2930
  39   2.0000      -0.293703        -7.9921
  40   2.0000      -0.283952        -7.7267
  41   2.0000      -0.270880        -7.3710
  42   2.0000      -0.259788        -7.0692
  43   2.0000      -0.254211        -6.9174
  44   2.0000      -0.243800        -6.6341
  45   2.0000      -0.234157        -6.3717
  46   2.0000      -0.209193        -5.6924
  47   2.0000      -0.194355        -5.2887
  48   0.0000      -0.003281        -0.0893
  49   0.0000       0.001954         0.0532
  50   0.0000       0.026335         0.7166
  51   0.0000       0.053803         1.4641
  52   0.0000       0.069542         1.8923

MULLIKEN ATOMIC CHARGES
-----------------------
   0 C :    0.028341
   1 C :    0.039468
   2 H :    0.082057
   3 C :    0.066080
   4 H :    0.054815
   5 C :    0.047184
   6 H :    0.085954
   7 C :   -0.002263
   8 H :    0.085894
   9 C :    0.185015
  10 H :    0.056340
  11 O :   -0.306302
  12 O :   -0.408306
  13 O :   -0.415715
  14 O :   -0.421554
  15 O :   -0.432452
  16 O :   -0.433940
  17 H :    0.071005
  18 H :    0.063998
  19 H :    0.320035
  20 H :    0.312009
  21 H :    0.315806
  22 H :    0.303664
  23 H :    0.302866
Sum of atomic charges:    0.0000000

LOEWDIN ATOMIC CHARGES
----------------------
   0 C :   -0.143907
   1 C :   -0.077049
   2 H :    0.123445
   3 C :   -0.071834
   4 H :    0.109282
   5 C :   -0.065378
   6 H :    0.119812
   7 C :   -0.088390
   8 H :    0.111192
   9 C :   -0.013212
  10 H :    0.094293
  11 O :   -0.140548
  12 O :   -0.304751
  13 O :   -0.301501
  14 O :   -0.317913
  15 O :   -0.323956
  16 O :   -0.331523
  17 H :    0.108031
  18 H :    0.093451
  19 H :    0.296935
  20 H :    0.294049
  21 H :    0.272283
  22 H :    0.274177
  23 H :    0.283014

  Mayer bond orders larger than 0.100000
B(  0-C ,  1-C ) :   1.0244 B(  0-C , 16-O ) :   1.0662 B(  0-C , 17-H ) :   0.9119
B(  0-C , 18-H ) :   0.9069 B(  1-C ,  2-H ) :   0.8915 B(  1-C ,  3-C ) :   0.9753
B(  1-C , 11-O ) :   0.9666 B(  3-C ,  4-H ) :   0.8853 B(  3-C ,  5-C ) :   0.9664
B(  3-C , 15-O ) :   1.0513 B(  5-C ,  6-H ) :   0.8986 B(  5-C ,  7-C ) :   1.0117
B(  5-C , 14-O ) :   1.0822 B(  7-C ,  8-H ) :   0.8972 B(  7-C ,  9-C ) :   0.9693
B(  7-C , 13-O ) :   1.0318 B(  9-C , 10-H ) :   0.9055 B(  9-C , 11-O ) :   1.1016
B(  9-C , 12-O ) :   1.0817 B( 12-O , 19-H ) :   0.8266 B( 13-O , 20-H ) :   0.8388
B( 14-O , 21-H ) :   0.7976 B( 15-O , 22-H ) :   0.8203 B( 16-O , 23-H ) :   0.8478

Dispersion correction           -0.025835762
FINAL SINGLE POINT ENERGY      -685.695728866643

DIPOLE MOMENT
-------------

Method             : SCF
Type of density    : Electron Density
Multiplicity       :   1
Irrep              :   0
Energy             :  -685.8282536297278966 Eh
Relativity type    :
Basis              : AO
                                X                 Y                 Z
Electronic contribution:      1.044885812       0.132889578       1.457854823
Nuclear contribution   :      0.435391959      -1.139145933      -1.486792592
                        -----------------------------------------
Total Dipole Moment    :      1.480277771      -1.006256355      -0.028937768
                        -----------------------------------------
Magnitude (a.u.)       :      1.790142879
Magnitude (Debye)      :      4.550181588

Rotational constants in cm-1:             0.040846             0.028024             0.024219
Rotational constants in MHz :          1224.520748           840.139370           726.076692

                             ****ORCA TERMINATED NORMALLY****
TOTAL RUN TIME: 0 days 0 hours 0 minutes 12 seconds 619 msec
