                         Program Version 6.0.0  -   RELEASE  -
|  1> ! r2scan-3c def2/J RI DEFGRID2 scfconv6 printgap
|  2> %output
|  3>     printlevel normal
|  4> end
|  5> * xyz 0 1
|  6> C -2.3023431085 0.0947836996 0.0426683812
|  7> C -1.6599338669 1.299401273 -0.1965992027
|  8> C -0.2796113832 1.3517887447 -0.2455952784
|  9> C 0.4748577761 0.1990881563 -0.0560956758
| 10> C -0.1728448791 -1.0032456046 0.181968385
| 11> C -1.5559302418 -1.0545669862 0.2315979452
| 12> C 1.9792611523 0.2842928621 -0.116892888
| 13> O 2.5712419559 -0.9704892289 0.1407831838
| 14> H -3.3804759913 0.0545868934 0.0811620973
| 15> H -2.2372905699 2.1996896596 -0.3450980144
| 16> H 0.2206393041 2.291278179 -0.4320136612
| 17> H 0.4168902201 -1.8946829409 0.3286424659
| 18> H -2.0493246568 -1.9967565989 0.4179282842
| 19> H 2.2685629432 0.6444502346 -1.1161111982
| 20> H 2.3181295051 1.0263053794 0.6216147122
| 21> H 3.5321660947 -0.8801759224 0.1032196673
| 22> *
| 23>
| 24>                          ****END OF INPUT****

CARTESIAN COORDINATES (ANGSTROEM)
---------------------------------
  C     -2.302343    0.094784    0.042668
  C     -1.659934    1.299401   -0.196599
  C     -0.279611    1.351789   -0.245595
  C      0.474858    0.199088   -0.056096
  C     -0.172845   -1.003246    0.181968
  C     -1.555930   -1.054567    0.231598
  C      1.979261    0.284293   -0.116893
  O      2.571242   -0.970489    0.140783
  H     -3.380476    0.054587    0.081162
  H     -2.237291    2.199690   -0.345098
  H      0.220639    2.291278   -0.432014
  H      0.416890   -1.894683    0.328642
  H     -2.049325   -1.996757    0.417928
  H      2.268563    0.644450   -1.116111
  H      2.318130    1.026305    0.621615
  H      3.532166   -0.880176    0.103220

 Total Charge           Charge          ....    0
 Multiplicity           Mult            ....    1
 Number of Electrons    NEL             ....   58
 Basis Dimension        Dim             ....  197

ORBITAL ENERGIES
----------------

  NO   OCC          E(Eh)            E(eV)
   0   2.0000     -18.958515      -515.8874
   1   2.0000     -10.088234      -274.5148
   2   2.0000     -10.041483      -273.2427
   3   2.0000     -10.032471      -272.9974
   4   2.0000     -10.031990      -272.9843
   5   2.0000     -10.029955      -272.9289
   6   2.0000     -10.028819      -272.8980
   7   2.0000     -10.025687      -272.8128
   8   2.0000      -0.995874       -27.0991
   9   2.0000      -0.825072       -22.4514
  10   2.0000      -0.735334       -20.0095
  11   2.0000      -0.712520       -19.3887
  12   2.0000      -0.645222       -17.5574
  13   2.0000      -0.575356       -15.6562
  14   2.0000      -0.550045       -14.9675
  15   2.0000      -0.489484       -13.3195
  16   2.0000      -0.481011       -13.0890
  17   2.0000      -0.429320       -11.6824
  18   2.0000      -0.421312       -11.4645
  19   2.0000      -0.408264       -11.1094
  20   2.0000      -0.390628       -10.6295
  21   2.0000      -0.385179       -10.4813
  22   2.0000      -0.337132        -9.1738
  23   2.0000      -0.328420        -8.9368
  24   2.0000      -0.308038        -8.3821
  25   2.0000      -0.298908        -8.1337
  26   2.0000      -0.255054        -6.9404
  27   2.0000      -0.233213        -6.3461
  28   2.0000      -0.220728        -6.0063
  29   0.0000      -0.030172        -0.8210
  30   0.0000      -0.023577        -0.6416
  31   0.0000       0.052805         1.4369
  32   0.0000       0.088950         2.4205
  33   0.0000       0.108433         2.9506

MULLIKEN ATOMIC CHARGES
-----------------------
   0 C :   -0.147349
   1 C :   -0.153292
   2 C :   -0.246641
   3 C :    0.208561
   4 C :   -0.201780
   5 C :   -0.154827
   6 C :   -0.209536
   7 O :   -0.427029
   8 H :    0.146021
   9 H :    0.144764
  10 H :    0.145205
  11 H :    0.176660
  12 H :    0.145126
  13 H :    0.139208
  14 H :    0.137710
  15 H :    0.297198
Sum of atomic charges:   -0.0000000

LOEWDIN ATOMIC CHARGES
----------------------
   0 C :   -0.172883
   1 C :   -0.163076
   2 C :   -0.164249
   3 C :   -0.066941
   4 C :   -0.143415
   5 C :   -0.160724
   6 C :    0.035321
   7 O :   -0.625503
   8 H :    0.165887
   9 H :    0.166304
  10 H :    0.168533
  11 H :    0.187821
  12 H :    0.166595
  13 H :    0.168251
  14 H :    0.167954
  15 H :    0.270124

  Mayer bond orders larger than 0.100000
B(  0-C ,  1-C ) :   1.4153 B(  0-C ,  5-C ) :   1.4252 B(  0-C ,  8-H ) :   0.9467
B(  1-C ,  2-C ) :   1.4358 B(  1-C ,  9-H ) :   0.9480 B(  2-C ,  3-C ) :   1.4056
B(  2-C , 10-H ) :   0.9338 B(  3-C ,  4-C ) :   1.4480 B(  3-C ,  6-C ) :   0.8653
B(  3-C ,  7-O ) :  -0.1207 B(  4-C ,  5-C ) :   1.3840 B(  4-C , 11-H ) :   0.9553
B(  5-C , 12-H ) :   0.9557 B(  6-C ,  7-O ) :   1.0110 B(  6-C , 13-H ) :   0.9753
B(  6-C , 14-H ) :   0.9790 B(  7-O , 15-H ) :   0.8977

Dispersion correction           -0.004886230
FINAL SINGLE POINT ENERGY      -346.687307638104

DIPOLE MOMENT
-------------

Method             : SCF
Type of density    : Electron Density
Multiplicity       :   1
Irrep              :   0
Energy             :  -346.6882952806569165 Eh
Relativity type    :
Basis              : AO
                                X                 Y                 Z
Electronic contribution:     -0.554458628      -0.922048353       0.214616435
Nuclear contribution   :      1.060111976       1.340971018      -0.317504722
                        -----------------------------------------
Total Dipole Moment    :      0.505653348       0.418922665      -0.102888288
                        -----------------------------------------
Magnitude (a.u.)       :      0.664655931
Magnitude (Debye)      :      1.689421117

Rotational constants in cm-1:             0.166890             0.050042             0.038783
Rotational constants in MHz :          5003.241267          1500.209620          1162.698408

                             ****ORCA TERMINATED NORMALLY****
TOTAL RUN TIME: 0 days 0 hours 0 minutes 20 seconds 470 msec
