                         Program Version 6.0.0  -   RELEASE  -
|  1> ! r2scan-3c def2/J RI DEFGRID2 scfconv6 printgap
|  2> %output
|  3>     printlevel normal
|  4> end
|  5> %cpcm
|  6>     smd true
|  7>     smdsolvent "water"
|  8> end
|  9> * xyz 0 1
| 10> C -2.3023431085 0.0947836996 0.0426683812
| 11> C -1.6599338669 1.299401273 -0.1965992027
| 12> C -0.2796113832 1.3517887447 -0.2455952784
| 13> C 0.4748577761 0.1990881563 -0.0560956758
| 14> C -0.1728448791 -1.0032456046 0.181968385
| 15> C -1.5559302418 -1.0545669862 0.2315979452
| 16> C 1.9792611523 0.2842928621 -0.116892888
| 17> O 2.5712419559 -0.9704892289 0.1407831838
| 18> H -3.3804759913 0.0545868934 0.0811620973
| 19> H -2.2372905699 2.1996896596 -0.3450980144
| 20> H 0.2206393041 2.291278179 -0.4320136612
| 21> H 0.4168902201 -1.8946829409 0.3286424659
| 22> H -2.0493246568 -1.9967565989 0.4179282842
| 23> H 2.2685629432 0.6444502346 -1.1161111982
| 24> H 2.3181295051 1.0263053794 0.6216147122
| 25> H 3.5321660947 -0.8801759224 0.1032196673
| 26> *
| 27>
| 28>                          ****END OF INPUT****

CARTESIAN COORDINATES (ANGSTROEM)
---------------------------------
  C     -2.302343    0.094784    0.042668
  C     -1.659934    1.299401   -0.196599
  C     -0.279611    1.351789   -0.245595
  C      0.474858    0.199088   -0.056096
  C     -0.172845   -1.003246    0.181968
  C     -1.555930   -1.054567    0.231598
  C      1.979261    0.284293   -0.116893
  O      2.571242   -0.970489    0.140783
  H     -3.380476    0.054587    0.081162
  H     -2.237291    2.199690   -0.345098
  H      0.220639    2.291278   -0.432014
  H      0.416890   -1.894683    0.328642
  H     -2.049325   -1.996757    0.417928
  H      2.268563    0.644450   -1.116111
  H      2.318130    1.026305    0.621615
  H      3.532166   -0.880176    0.103220

 Total Charge           Charge          ....    0
 Multiplicity           Mult            ....    1
 Number of Electrons    NEL             ....   58
 Basis Dimension        Dim             ....  197

ORBITAL ENERGIES
----------------

  NO   OCC          E(Eh)            E(eV)
   0   2.0000     -18.956153      -515.8231
   1   2.0000     -10.080273      -274.2982
   2   2.0000     -10.043640      -273.3013
   3   2.0000     -10.032894      -273.0089
   4   2.0000     -10.032406      -272.9956
   5   2.0000     -10.031839      -272.9802
   6   2.0000     -10.029970      -272.9294
   7   2.0000     -10.029721      -272.9226
   8   2.0000      -0.992728       -27.0135
   9   2.0000      -0.828475       -22.5440
  10   2.0000      -0.735660       -20.0183
  11   2.0000      -0.715183       -19.4611
  12   2.0000      -0.642260       -17.4768
  13   2.0000      -0.576089       -15.6762
  14   2.0000      -0.549719       -14.9586
  15   2.0000      -0.484834       -13.1930
  16   2.0000      -0.479055       -13.0357
  17   2.0000      -0.424017       -11.5381
  18   2.0000      -0.418903       -11.3989
  19   2.0000      -0.409378       -11.1397
  20   2.0000      -0.391132       -10.6432
  21   2.0000      -0.384694       -10.4681
  22   2.0000      -0.342843        -9.3292
  23   2.0000      -0.328239        -8.9318
  24   2.0000      -0.308066        -8.3829
  25   2.0000      -0.297260        -8.0889
  26   2.0000      -0.257149        -6.9974
  27   2.0000      -0.239382        -6.5139
  28   2.0000      -0.223248        -6.0749
  29   0.0000      -0.034232        -0.9315
  30   0.0000      -0.028203        -0.7674
  31   0.0000       0.071261         1.9391
  32   0.0000       0.097469         2.6523
  33   0.0000       0.113252         3.0817

MULLIKEN ATOMIC CHARGES
-----------------------
   0 C :   -0.181852
   1 C :   -0.191054
   2 C :   -0.265124
   3 C :    0.191415
   4 C :   -0.239240
   5 C :   -0.200584
   6 C :   -0.201503
   7 O :   -0.497370
   8 H :    0.179071
   9 H :    0.177870
  10 H :    0.180506
  11 H :    0.190268
  12 H :    0.177142
  13 H :    0.165209
  14 H :    0.164456
  15 H :    0.350789
Sum of atomic charges:   -0.0000000

LOEWDIN ATOMIC CHARGES
----------------------
   0 C :   -0.185657
   1 C :   -0.171708
   2 C :   -0.166539
   3 C :   -0.074701
   4 C :   -0.167464
   5 C :   -0.172154
   6 C :    0.039246
   7 O :   -0.653739
   8 H :    0.176614
   9 H :    0.177575
  10 H :    0.182007
  11 H :    0.189265
  12 H :    0.177135
  13 H :    0.180365
  14 H :    0.180275
  15 H :    0.289478

  Mayer bond orders larger than 0.100000
B(  0-C ,  1-C ) :   1.3722 B(  0-C ,  5-C ) :   1.3957 B(  0-C ,  8-H ) :   0.9541
B(  1-C ,  2-C ) :   1.4014 B(  1-C ,  9-H ) :   0.9589 B(  2-C ,  3-C ) :   1.3960
B(  2-C , 10-H ) :   0.9430 B(  3-C ,  4-C ) :   1.3716 B(  3-C ,  6-C ) :   0.8609
B(  3-C ,  7-O ) :  -0.1100 B(  4-C ,  5-C ) :   1.3637 B(  4-C , 11-H ) :   0.9632
B(  5-C , 12-H ) :   0.9634 B(  6-C ,  7-O ) :   0.9911 B(  6-C , 13-H ) :   0.9730
B(  6-C , 14-H ) :   0.9763 B(  7-O , 15-H ) :   0.8705

Dispersion correction           -0.004886230
FINAL SINGLE POINT ENERGY      -346.697002735654

DIPOLE MOMENT
-------------

Method             : SCF
Type of density    : Electron Density
Multiplicity       :   1
Irrep              :   0
Energy             :  -346.6979903782067822 Eh
Relativity type    :
Basis              : AO
                                X                 Y                 Z
Electronic contribution:     -0.384296857      -0.624200867       0.147084339
Nuclear contribution   :      1.060111976       1.340971018      -0.317504722
                        -----------------------------------------
Total Dipole Moment    :      0.675815119       0.716770151      -0.170420384
                        -----------------------------------------
Magnitude (a.u.)       :      0.999764288
Magnitude (Debye)      :      2.541198868

Rotational constants in cm-1:             0.166890             0.050042             0.038783
Rotational constants in MHz :          5003.241267          1500.209620          1162.698408

                             ****ORCA TERMINATED NORMALLY****
TOTAL RUN TIME: 0 days 0 hours 0 minutes 23 seconds 816 msec
