                         Program Version 6.0.0  -   RELEASE  -
|  1> ! pbe def2-sv(p) def2/J RI DEFGRID1 loosescf d4 GCP(DFT/SV(P)) printgap
|  2> %output
|  3>     printlevel normal
|  4> end
|  5> * xyz 0 1
|  6> C 2.4509920634 -1.1995112584 0.0072734917
|  7> C 1.6993724456 0.0970538861 -0.0003816245
|  8> O 2.2708188508 1.1754764723 -0.006629984
|  9> C 0.2163698483 0.0287722226 -0.0002384296
| 10> C -0.513236463 1.2207522188 0.0033595496
| 11> C -1.8942283482 1.1704798529 0.0037380207
| 12> C -2.5024326969 -0.0774744022 0.0006377819
| 13> N -1.826102038 -1.2167358612 -0.0035794614
| 14> C -0.5066065386 -1.1662967242 -0.0040878567
| 15> H 2.1843492704 -1.7765224678 0.8891265262
| 16> H 3.5185133589 -0.9965415955 0.0123593827
| 17> H 2.1943273556 -1.779944846 -0.8753790903
| 18> H 0.023674105 2.1584178994 0.00603016
| 19> H -2.4853327172 2.0715361053 0.0068617947
| 20> H -3.5788459203 -0.1777010057 0.0013094496
| 21> H -0.0168694926 -2.1289299668 -0.0080737249
| 22> *
| 23>
| 24>                          ****END OF INPUT****

CARTESIAN COORDINATES (ANGSTROEM)
---------------------------------
  C      2.450992   -1.199511    0.007273
  C      1.699372    0.097054   -0.000382
  O      2.270819    1.175476   -0.006630
  C      0.216370    0.028772   -0.000238
  C     -0.513236    1.220752    0.003360
  C     -1.894228    1.170480    0.003738
  C     -2.502433   -0.077474    0.000638
  N     -1.826102   -1.216736   -0.003579
  C     -0.506607   -1.166297   -0.004088
  H      2.184349   -1.776522    0.889127
  H      3.518513   -0.996542    0.012359
  H      2.194327   -1.779945   -0.875379
  H      0.023674    2.158418    0.006030
  H     -2.485333    2.071536    0.006862
  H     -3.578846   -0.177701    0.001309
  H     -0.016869   -2.128930   -0.008074

 Total Charge           Charge          ....    0
 Multiplicity           Mult            ....    1
 Number of Electrons    NEL             ....   64
 Basis Dimension        Dim             ....  140

ORBITAL ENERGIES
----------------

  NO   OCC          E(Eh)            E(eV)
   0   2.0000     -18.749418      -510.1976
   1   2.0000     -13.995340      -380.8326
   2   2.0000      -9.985254      -271.7126
   3   2.0000      -9.941656      -270.5262
   4   2.0000      -9.939460      -270.4665
   5   2.0000      -9.921437      -269.9760
   6   2.0000      -9.918892      -269.9068
   7   2.0000      -9.914837      -269.7964
   8   2.0000      -9.895130      -269.2602
   9   2.0000      -0.945013       -25.7151
  10   2.0000      -0.873874       -23.7793
  11   2.0000      -0.742989       -20.2178
  12   2.0000      -0.714855       -19.4522
  13   2.0000      -0.672861       -18.3095
  14   2.0000      -0.595415       -16.2021
  15   2.0000      -0.574491       -15.6327
  16   2.0000      -0.510215       -13.8836
  17   2.0000      -0.474724       -12.9179
  18   2.0000      -0.454178       -12.3588
  19   2.0000      -0.422508       -11.4970
  20   2.0000      -0.414481       -11.2786
  21   2.0000      -0.410964       -11.1829
  22   2.0000      -0.378962       -10.3121
  23   2.0000      -0.375397       -10.2151
  24   2.0000      -0.364298        -9.9130
  25   2.0000      -0.351210        -9.5569
  26   2.0000      -0.335770        -9.1368
  27   2.0000      -0.331331        -9.0160
  28   2.0000      -0.273711        -7.4480
  29   2.0000      -0.256066        -6.9679
  30   2.0000      -0.222430        -6.0526
  31   2.0000      -0.206389        -5.6161
  32   0.0000      -0.101432        -2.7601
  33   0.0000      -0.066263        -1.8031
  34   0.0000      -0.013123        -0.3571
  35   0.0000       0.041149         1.1197
  36   0.0000       0.053433         1.4540

MULLIKEN ATOMIC CHARGES
-----------------------
   0 C :   -0.239324
   1 C :   -0.009962
   2 O :   -0.157400
   3 C :    0.030241
   4 C :   -0.050444
   5 C :   -0.056633
   6 C :   -0.047883
   7 N :   -0.046569
   8 C :   -0.103344
   9 H :    0.130656
  10 H :    0.121630
  11 H :    0.130865
  12 H :    0.081135
  13 H :    0.070387
  14 H :    0.078754
  15 H :    0.067893
Sum of atomic charges:   -0.0000000

LOEWDIN ATOMIC CHARGES
----------------------
   0 C :   -0.359727
   1 C :    0.047672
   2 O :   -0.126926
   3 C :   -0.096450
   4 C :   -0.061152
   5 C :   -0.136588
   6 C :   -0.063137
   7 N :   -0.071539
   8 C :   -0.066184
   9 H :    0.144296
  10 H :    0.138456
  11 H :    0.144567
  12 H :    0.138216
  13 H :    0.132545
  14 H :    0.118587
  15 H :    0.117364

  Mayer bond orders larger than 0.100000
B(  0-C ,  1-C ) :   1.1339 B(  0-C ,  9-H ) :   0.9138 B(  0-C , 10-H ) :   0.9280
B(  0-C , 11-H ) :   0.9130 B(  1-C ,  2-O ) :   2.1664 B(  1-C ,  3-C ) :   0.9216
B(  3-C ,  4-C ) :   1.3956 B(  3-C ,  8-C ) :   1.3312 B(  4-C ,  5-C ) :   1.4002
B(  4-C , 12-H ) :   0.9488 B(  5-C ,  6-C ) :   1.3547 B(  5-C , 13-H ) :   0.9511
B(  6-C ,  7-N ) :   1.5417 B(  6-C , 14-H ) :   0.9529 B(  7-N ,  8-C ) :   1.5619
B(  8-C , 15-H ) :   0.9382

Dispersion correction           -0.016419362
FINAL SINGLE POINT ENERGY      -400.086118345151

DIPOLE MOMENT
-------------

Method             : SCF
Type of density    : Electron Density
Multiplicity       :   1
Irrep              :   0
Energy             :  -400.1316692251630229 Eh
Relativity type    :
Basis              : AO
                                X                 Y                 Z
Electronic contribution:     -2.042696456       2.296043478      -0.023384293
Nuclear contribution   :      1.749688672      -2.456372009       0.030123542
                        -----------------------------------------
Total Dipole Moment    :     -0.293007784      -0.160328532       0.006739249
                        -----------------------------------------
Magnitude (a.u.)       :      0.334072173
Magnitude (Debye)      :      0.849143981

Rotational constants in cm-1:             0.126197             0.041725             0.031541
Rotational constants in MHz :          3783.286269          1250.872384           945.588072

                             ****ORCA TERMINATED NORMALLY****
TOTAL RUN TIME: 0 days 0 hours 0 minutes 8 seconds 919 msec
