                         Program Version 6.0.0  -   RELEASE  -
|  1> ! pbe def2-sv(p) def2/J RI DEFGRID1 loosescf d4 GCP(DFT/SV(P)) printgap
|  2> %output
|  3>     printlevel normal
|  4> end
|  5> * xyz 0 1
|  6> C -2.5130826778 0.9596724336 0.0695902424
|  7> C -1.4276521113 -0.0582353678 -0.1467512821
|  8> O -1.4448901605 -0.8034284101 -1.1068045274
|  9> C -0.3516215117 -0.106556204 0.9225547993
| 10> C 0.5002822172 1.1710715996 0.8605383094
| 11> C 1.2334593058 1.2898017208 -0.4783404646
| 12> C 1.7243045695 -0.0751598762 -0.9811354183
| 13> C 1.902763949 -1.0428791667 0.1829131932
| 14> C 0.5405553826 -1.3544930259 0.8066297375
| 15> H -2.6383043839 1.5529933916 -0.8334216002
| 16> H -3.4474367768 0.4242696185 0.2306264894
| 17> H -2.3160577428 1.6026486717 0.9192729131
| 18> H -0.8802002352 -0.1170492417 1.8813790758
| 19> H -0.1182520525 2.0544899399 1.0170294184
| 20> H 1.2225759688 1.1266701114 1.676102805
| 21> H 0.5678867929 1.7277180419 -1.2250444008
| 22> H 2.0785159176 1.969149263 -0.3538762358
| 23> H 0.9922117622 -0.5016429898 -1.6700459347
| 24> H 2.6617914911 0.0416735178 -1.5265934499
| 25> H 2.3590900095 -1.969877171 -0.1673408851
| 26> H 2.5730131865 -0.6044333547 0.9241200894
| 27> H 0.0241509324 -2.0837023398 0.1774111448
| 28> H 0.6828635816 -1.8028343359 1.7905660685
| 29> *
| 30>
| 31>                          ****END OF INPUT****

CARTESIAN COORDINATES (ANGSTROEM)
---------------------------------
  C     -2.513083    0.959672    0.069590
  C     -1.427652   -0.058235   -0.146751
  O     -1.444890   -0.803428   -1.106805
  C     -0.351622   -0.106556    0.922555
  C      0.500282    1.171072    0.860538
  C      1.233459    1.289802   -0.478340
  C      1.724305   -0.075160   -0.981135
  C      1.902764   -1.042879    0.182913
  C      0.540555   -1.354493    0.806630
  H     -2.638304    1.552993   -0.833422
  H     -3.447437    0.424270    0.230626
  H     -2.316058    1.602649    0.919273
  H     -0.880200   -0.117049    1.881379
  H     -0.118252    2.054490    1.017029
  H      1.222576    1.126670    1.676103
  H      0.567887    1.727718   -1.225044
  H      2.078516    1.969149   -0.353876
  H      0.992212   -0.501643   -1.670046
  H      2.661791    0.041674   -1.526593
  H      2.359090   -1.969877   -0.167341
  H      2.573013   -0.604433    0.924120
  H      0.024151   -2.083702    0.177411
  H      0.682864   -1.802834    1.790566

 Total Charge           Charge          ....    0
 Multiplicity           Mult            ....    1
 Number of Electrons    NEL             ....   70
 Basis Dimension        Dim             ....  154

ORBITAL ENERGIES
----------------

  NO   OCC          E(Eh)            E(eV)
   0   2.0000     -18.739398      -509.9249
   1   2.0000      -9.973162      -271.3835
   2   2.0000      -9.900234      -269.3991
   3   2.0000      -9.894851      -269.2526
   4   2.0000      -9.887503      -269.0526
   5   2.0000      -9.883591      -268.9462
   6   2.0000      -9.877731      -268.7867
   7   2.0000      -9.877324      -268.7757
   8   2.0000      -9.873774      -268.6791
   9   2.0000      -0.937036       -25.4981
  10   2.0000      -0.759230       -20.6597
  11   2.0000      -0.690645       -18.7934
  12   2.0000      -0.664762       -18.0891
  13   2.0000      -0.652608       -17.7584
  14   2.0000      -0.565777       -15.3956
  15   2.0000      -0.544172       -14.8077
  16   2.0000      -0.491243       -13.3674
  17   2.0000      -0.453089       -12.3292
  18   2.0000      -0.441271       -12.0076
  19   2.0000      -0.430227       -11.7071
  20   2.0000      -0.411924       -11.2090
  21   2.0000      -0.391588       -10.6557
  22   2.0000      -0.381428       -10.3792
  23   2.0000      -0.367043        -9.9877
  24   2.0000      -0.351032        -9.5521
  25   2.0000      -0.342060        -9.3079
  26   2.0000      -0.331578        -9.0227
  27   2.0000      -0.327627        -8.9152
  28   2.0000      -0.321636        -8.7522
  29   2.0000      -0.312835        -8.5127
  30   2.0000      -0.302325        -8.2267
  31   2.0000      -0.266128        -7.2417
  32   2.0000      -0.261923        -7.1273
  33   2.0000      -0.258183        -7.0255
  34   2.0000      -0.197092        -5.3631
  35   0.0000      -0.052693        -1.4338
  36   0.0000       0.022882         0.6226
  37   0.0000       0.048369         1.3162
  38   0.0000       0.064528         1.7559
  39   0.0000       0.077615         2.1120

MULLIKEN ATOMIC CHARGES
-----------------------
   0 C :   -0.243644
   1 C :    0.003365
   2 O :   -0.166266
   3 C :   -0.212607
   4 C :   -0.118273
   5 C :   -0.166306
   6 C :   -0.160970
   7 C :   -0.161552
   8 C :   -0.091487
   9 H :    0.128464
  10 H :    0.133243
  11 H :    0.112670
  12 H :    0.084279
  13 H :    0.089998
  14 H :    0.087031
  15 H :    0.087314
  16 H :    0.084175
  17 H :    0.099963
  18 H :    0.082122
  19 H :    0.087091
  20 H :    0.071001
  21 H :    0.095021
  22 H :    0.075369
Sum of atomic charges:    0.0000000

LOEWDIN ATOMIC CHARGES
----------------------
   0 C :   -0.362157
   1 C :    0.051287
   2 O :   -0.129971
   3 C :   -0.172996
   4 C :   -0.211141
   5 C :   -0.230894
   6 C :   -0.236362
   7 C :   -0.224442
   8 C :   -0.221948
   9 H :    0.145262
  10 H :    0.150774
  11 H :    0.125297
  12 H :    0.131842
  13 H :    0.116823
  14 H :    0.122327
  15 H :    0.117704
  16 H :    0.118514
  17 H :    0.123213
  18 H :    0.115882
  19 H :    0.119307
  20 H :    0.109914
  21 H :    0.124878
  22 H :    0.116885

  Mayer bond orders larger than 0.100000
B(  0-C ,  1-C ) :   1.0663 B(  0-C ,  9-H ) :   0.9272 B(  0-C , 10-H ) :   0.9189
B(  0-C , 11-H ) :   0.9344 B(  1-C ,  2-O ) :   2.1506 B(  1-C ,  3-C ) :   0.9347
B(  3-C ,  4-C ) :   1.1163 B(  3-C ,  8-C ) :   1.0775 B(  3-C , 12-H ) :   0.8689
B(  4-C ,  5-C ) :   1.1562 B(  4-C , 13-H ) :   0.9123 B(  4-C , 14-H ) :   0.8962
B(  5-C ,  6-C ) :   1.1451 B(  5-C , 15-H ) :   0.9133 B(  5-C , 16-H ) :   0.9167
B(  6-C ,  7-C ) :   1.1845 B(  6-C , 17-H ) :   0.9010 B(  6-C , 18-H ) :   0.9223
B(  7-C ,  8-C ) :   1.1655 B(  7-C , 19-H ) :   0.9200 B(  7-C , 20-H ) :   0.9057
B(  8-C , 21-H ) :   0.8990 B(  8-C , 22-H ) :   0.9096

Dispersion correction           -0.023056000
FINAL SINGLE POINT ENERGY      -387.600292812356

DIPOLE MOMENT
-------------

Method             : SCF
Type of density    : Electron Density
Multiplicity       :   1
Irrep              :   0
Energy             :  -387.6780343909842372 Eh
Relativity type    :
Basis              : AO
                                X                 Y                 Z
Electronic contribution:     -3.524009995      -2.592823940      -1.939675629
Nuclear contribution   :      3.507809172       3.196680683       2.648150468
                        -----------------------------------------
Total Dipole Moment    :     -0.016200823       0.603856744       0.708474839
                        -----------------------------------------
Magnitude (a.u.)       :      0.931043517
Magnitude (Debye)      :      2.366524550

Rotational constants in cm-1:             0.084285             0.044679             0.040635
Rotational constants in MHz :          2526.796289          1339.457318          1218.193289

                             ****ORCA TERMINATED NORMALLY****
TOTAL RUN TIME: 0 days 0 hours 0 minutes 9 seconds 732 msec
