                         Program Version 6.0.0  -   RELEASE  -
|  1> ! pbe def2-sv(p) def2/J RI DEFGRID1 loosescf d4 GCP(DFT/SV(P)) printgap
|  2> %output
|  3>     printlevel normal
|  4> end
|  5> * xyz 0 1
|  6> C -1.6352559123 -1.3035835793 -0.6566215946
|  7> C -1.1507992399 -0.4907729388 0.553192346
|  8> H -1.9494646825 -0.5147439451 1.3025065374
|  9> C -0.8796680729 0.9928911607 0.2031883091
| 10> H -1.2795844007 1.2136335511 -0.7908845683
| 11> C 0.6303702141 1.2773412807 0.1955456615
| 12> H 0.9773358161 1.409467358 1.2344258636
| 13> C 1.3976507025 0.09107888 -0.4010627366
| 14> H 1.0304940571 -0.0985454759 -1.4181832608
| 15> C 1.1560803613 -1.159697436 0.4627402338
| 16> H 1.9424810644 -1.2090534299 1.2324134142
| 17> O -0.0400632779 -1.0972057429 1.2004857432
| 18> O 1.2068034898 -2.2741597386 -0.3742388817
| 19> O 2.7585763837 0.4429238967 -0.4265139342
| 20> O 0.8616219288 2.4479427096 -0.5413872853
| 21> O -1.567568892 1.864637319 1.0611074386
| 22> O -2.8528057541 -0.74765363 -1.0912357381
| 23> H -1.7704575537 -2.343297211 -0.3328096234
| 24> H -0.8850033609 -1.2779885756 -1.4556114136
| 25> H 1.1726038982 -3.0897703268 0.148565819
| 26> H 3.2604532869 -0.2165328773 -0.9260768521
| 27> H 1.8207632788 2.5554015033 -0.6435602392
| 28> H -1.2069941887 1.7962176673 1.9576631261
| 29> H -3.1920407531 -1.2647161773 -1.8356776795
| 30> *
| 31>
| 32>                          ****END OF INPUT****

CARTESIAN COORDINATES (ANGSTROEM)
---------------------------------
  C     -1.635256   -1.303584   -0.656622
  C     -1.150799   -0.490773    0.553192
  H     -1.949465   -0.514744    1.302507
  C     -0.879668    0.992891    0.203188
  H     -1.279584    1.213634   -0.790885
  C      0.630370    1.277341    0.195546
  H      0.977336    1.409467    1.234426
  C      1.397651    0.091079   -0.401063
  H      1.030494   -0.098545   -1.418183
  C      1.156080   -1.159697    0.462740
  H      1.942481   -1.209053    1.232413
  O     -0.040063   -1.097206    1.200486
  O      1.206803   -2.274160   -0.374239
  O      2.758576    0.442924   -0.426514
  O      0.861622    2.447943   -0.541387
  O     -1.567569    1.864637    1.061107
  O     -2.852806   -0.747654   -1.091236
  H     -1.770458   -2.343297   -0.332810
  H     -0.885003   -1.277989   -1.455611
  H      1.172604   -3.089770    0.148566
  H      3.260453   -0.216533   -0.926077
  H      1.820763    2.555402   -0.643560
  H     -1.206994    1.796218    1.957663
  H     -3.192041   -1.264716   -1.835678

 Total Charge           Charge          ....    0
 Multiplicity           Mult            ....    1
 Number of Electrons    NEL             ....   96
 Basis Dimension        Dim             ....  192

ORBITAL ENERGIES
----------------

  NO   OCC          E(Eh)            E(eV)
   0   2.0000     -18.770379      -510.7680
   1   2.0000     -18.769834      -510.7531
   2   2.0000     -18.767062      -510.6777
   3   2.0000     -18.750025      -510.2141
   4   2.0000     -18.739545      -509.9290
   5   2.0000     -18.735696      -509.8242
   6   2.0000      -9.987622      -271.7770
   7   2.0000      -9.944991      -270.6170
   8   2.0000      -9.938593      -270.4429
   9   2.0000      -9.937872      -270.4232
  10   2.0000      -9.931316      -270.2448
  11   2.0000      -9.930087      -270.2114
  12   2.0000      -0.983262       -26.7559
  13   2.0000      -0.945956       -25.7408
  14   2.0000      -0.930028       -25.3074
  15   2.0000      -0.922746       -25.1092
  16   2.0000      -0.914308       -24.8796
  17   2.0000      -0.906266       -24.6607
  18   2.0000      -0.698808       -19.0155
  19   2.0000      -0.691069       -18.8049
  20   2.0000      -0.619840       -16.8667
  21   2.0000      -0.582857       -15.8603
  22   2.0000      -0.561969       -15.2919
  23   2.0000      -0.522575       -14.2200
  24   2.0000      -0.507588       -13.8122
  25   2.0000      -0.486565       -13.2401
  26   2.0000      -0.468022       -12.7355
  27   2.0000      -0.453639       -12.3441
  28   2.0000      -0.447422       -12.1750
  29   2.0000      -0.426636       -11.6094
  30   2.0000      -0.410897       -11.1811
  31   2.0000      -0.395528       -10.7629
  32   2.0000      -0.393340       -10.7033
  33   2.0000      -0.379459       -10.3256
  34   2.0000      -0.357753        -9.7349
  35   2.0000      -0.337590        -9.1863
  36   2.0000      -0.329962        -8.9787
  37   2.0000      -0.308504        -8.3948
  38   2.0000      -0.296777        -8.0757
  39   2.0000      -0.293158        -7.9772
  40   2.0000      -0.281545        -7.6612
  41   2.0000      -0.260745        -7.0952
  42   2.0000      -0.257393        -7.0040
  43   2.0000      -0.240758        -6.5514
  44   2.0000      -0.230499        -6.2722
  45   2.0000      -0.217292        -5.9128
  46   2.0000      -0.214049        -5.8246
  47   2.0000      -0.198315        -5.3964
  48   0.0000       0.016124         0.4388
  49   0.0000       0.021445         0.5835
  50   0.0000       0.026177         0.7123
  51   0.0000       0.040995         1.1155
  52   0.0000       0.057832         1.5737

MULLIKEN ATOMIC CHARGES
-----------------------
   0 C :    0.004095
   1 C :    0.021449
   2 H :    0.074866
   3 C :    0.097607
   4 H :    0.084416
   5 C :    0.074738
   6 H :    0.039604
   7 C :   -0.027389
   8 H :    0.075364
   9 C :    0.201274
  10 H :    0.059930
  11 O :   -0.308062
  12 O :   -0.396374
  13 O :   -0.419971
  14 O :   -0.408991
  15 O :   -0.412992
  16 O :   -0.426782
  17 H :    0.065659
  18 H :    0.087225
  19 H :    0.303121
  20 H :    0.310825
  21 H :    0.301876
  22 H :    0.293700
  23 H :    0.304812
Sum of atomic charges:    0.0000000

LOEWDIN ATOMIC CHARGES
----------------------
   0 C :   -0.142705
   1 C :   -0.066685
   2 H :    0.121153
   3 C :   -0.062395
   4 H :    0.127025
   5 C :   -0.066965
   6 H :    0.098544
   7 C :   -0.093043
   8 H :    0.109571
   9 C :   -0.014134
  10 H :    0.098735
  11 O :   -0.146578
  12 O :   -0.311851
  13 O :   -0.317161
  14 O :   -0.314631
  15 O :   -0.306146
  16 O :   -0.336871
  17 H :    0.095909
  18 H :    0.096331
  19 H :    0.286118
  20 H :    0.293628
  21 H :    0.282553
  22 H :    0.280266
  23 H :    0.289333

  Mayer bond orders larger than 0.100000
B(  0-C ,  1-C ) :   1.0459 B(  0-C , 16-O ) :   1.0759 B(  0-C , 17-H ) :   0.9066
B(  0-C , 18-H ) :   0.9048 B(  1-C ,  2-H ) :   0.8861 B(  1-C ,  3-C ) :   0.9733
B(  1-C , 11-O ) :   1.0244 B(  3-C ,  4-H ) :   0.8720 B(  3-C ,  5-C ) :   1.0161
B(  3-C , 15-O ) :   1.0433 B(  5-C ,  6-H ) :   0.8584 B(  5-C ,  7-C ) :   1.0125
B(  5-C , 14-O ) :   1.1024 B(  7-C ,  8-H ) :   0.8809 B(  7-C ,  9-C ) :   0.9736
B(  7-C , 13-O ) :   1.0641 B(  9-C , 10-H ) :   0.8865 B(  9-C , 11-O ) :   1.0644
B(  9-C , 12-O ) :   1.1197 B( 12-O , 19-H ) :   0.8399 B( 13-O , 20-H ) :   0.8438
B( 14-O , 21-H ) :   0.8345 B( 15-O , 22-H ) :   0.8518 B( 16-O , 23-H ) :   0.8495

Dispersion correction           -0.024534371
FINAL SINGLE POINT ENERGY      -685.688749990201

DIPOLE MOMENT
-------------

Method             : SCF
Type of density    : Electron Density
Multiplicity       :   1
Irrep              :   0
Energy             :  -685.8180519577548466 Eh
Relativity type    :
Basis              : AO
                                X                 Y                 Z
Electronic contribution:      0.995097589       1.271523935       1.249288400
Nuclear contribution   :     -0.069072951      -2.842540355      -1.435345368
                        -----------------------------------------
Total Dipole Moment    :      0.926024638      -1.571016419      -0.186056968
                        -----------------------------------------
Magnitude (a.u.)       :      1.833093401
Magnitude (Debye)      :      4.659353139

Rotational constants in cm-1:             0.035969             0.029329             0.020000
Rotational constants in MHz :          1078.313761           879.272848           599.576572

                             ****ORCA TERMINATED NORMALLY****
TOTAL RUN TIME: 0 days 0 hours 0 minutes 11 seconds 978 msec
