                         Program Version 6.0.0  -   RELEASE  -
|  1> ! pbe def2-sv(p) def2/J RI DEFGRID1 loosescf d4 GCP(DFT/SV(P)) printgap
|  2> %output
|  3>     printlevel normal
|  4> end
|  5> * xyz 0 1
|  6> C -2.5590299133 -0.6788674028 -0.3256813341
|  7> C -1.1697730508 -0.319119972 0.2160192041
|  8> H -1.2032617116 -0.2962954647 1.3185627527
|  9> C -0.7061031385 1.0475586123 -0.3093067441
| 10> H -0.7202557819 1.0283393594 -1.4047715374
| 11> C 0.73231079 1.3441378824 0.1513877241
| 12> H 0.7475287012 1.4975017801 1.2441020238
| 13> C 1.6631190075 0.1706923059 -0.1624248484
| 14> H 1.8178237505 0.1273903082 -1.2491497436
| 15> C 1.0348101591 -1.1607723734 0.2920427054
| 16> H 1.0099387743 -1.1667333556 1.403568167
| 17> O -0.2728669403 -1.3347320476 -0.1985905784
| 18> O 1.8265428542 -2.1792287177 -0.1977703133
| 19> O 2.8750586413 0.3784261412 0.5135860136
| 20> O 1.2309383357 2.4867391188 -0.4967580679
| 21> O -1.5705486677 2.0892863064 0.061441767
| 22> O -3.1558613562 -1.7366050735 0.375904453
| 23> H -2.4618087921 -0.9140206859 -1.3914893384
| 24> H -3.2180851317 0.1827227429 -0.206538286
| 25> H 1.3976110775 -3.037025207 -0.0533230952
| 26> H 3.504052627 -0.3098370685 0.2502745131
| 27> H 0.5576688314 3.18448368 -0.4510118675
| 28> H -1.6411860152 2.1325332452 1.0271863872
| 29> H -2.6321741948 -2.5385323556 0.2389511867
| 30> *
| 31>
| 32>                          ****END OF INPUT****

CARTESIAN COORDINATES (ANGSTROEM)
---------------------------------
  C     -2.559030   -0.678867   -0.325681
  C     -1.169773   -0.319120    0.216019
  H     -1.203262   -0.296295    1.318563
  C     -0.706103    1.047559   -0.309307
  H     -0.720256    1.028339   -1.404772
  C      0.732311    1.344138    0.151388
  H      0.747529    1.497502    1.244102
  C      1.663119    0.170692   -0.162425
  H      1.817824    0.127390   -1.249150
  C      1.034810   -1.160772    0.292043
  H      1.009939   -1.166733    1.403568
  O     -0.272867   -1.334732   -0.198591
  O      1.826543   -2.179229   -0.197770
  O      2.875059    0.378426    0.513586
  O      1.230938    2.486739   -0.496758
  O     -1.570549    2.089286    0.061442
  O     -3.155861   -1.736605    0.375904
  H     -2.461809   -0.914021   -1.391489
  H     -3.218085    0.182723   -0.206538
  H      1.397611   -3.037025   -0.053323
  H      3.504053   -0.309837    0.250275
  H      0.557669    3.184484   -0.451012
  H     -1.641186    2.132533    1.027186
  H     -2.632174   -2.538532    0.238951

 Total Charge           Charge          ....    0
 Multiplicity           Mult            ....    1
 Number of Electrons    NEL             ....   96
 Basis Dimension        Dim             ....  192

ORBITAL ENERGIES
----------------

  NO   OCC          E(Eh)            E(eV)
   0   2.0000     -18.782097      -511.0868
   1   2.0000     -18.772961      -510.8382
   2   2.0000     -18.772902      -510.8366
   3   2.0000     -18.749728      -510.2060
   4   2.0000     -18.748734      -510.1790
   5   2.0000     -18.745288      -510.0852
   6   2.0000      -9.990936      -271.8672
   7   2.0000      -9.950094      -270.7558
   8   2.0000      -9.949406      -270.7371
   9   2.0000      -9.944728      -270.6098
  10   2.0000      -9.941426      -270.5200
  11   2.0000      -9.934880      -270.3418
  12   2.0000      -0.993301       -27.0291
  13   2.0000      -0.955435       -25.9987
  14   2.0000      -0.937125       -25.5005
  15   2.0000      -0.928629       -25.2693
  16   2.0000      -0.920458       -25.0469
  17   2.0000      -0.913428       -24.8556
  18   2.0000      -0.707688       -19.2572
  19   2.0000      -0.694963       -18.9109
  20   2.0000      -0.620014       -16.8714
  21   2.0000      -0.593743       -16.1566
  22   2.0000      -0.562099       -15.2955
  23   2.0000      -0.537014       -14.6129
  24   2.0000      -0.505453       -13.7541
  25   2.0000      -0.495219       -13.4756
  26   2.0000      -0.480297       -13.0695
  27   2.0000      -0.467333       -12.7168
  28   2.0000      -0.460065       -12.5190
  29   2.0000      -0.438397       -11.9294
  30   2.0000      -0.419611       -11.4182
  31   2.0000      -0.395300       -10.7567
  32   2.0000      -0.379966       -10.3394
  33   2.0000      -0.376674       -10.2498
  34   2.0000      -0.374833       -10.1997
  35   2.0000      -0.356760        -9.7079
  36   2.0000      -0.329971        -8.9790
  37   2.0000      -0.321444        -8.7469
  38   2.0000      -0.301574        -8.2062
  39   2.0000      -0.295927        -8.0526
  40   2.0000      -0.287975        -7.8362
  41   2.0000      -0.278863        -7.5883
  42   2.0000      -0.262513        -7.1434
  43   2.0000      -0.245918        -6.6918
  44   2.0000      -0.238440        -6.4883
  45   2.0000      -0.226912        -6.1746
  46   2.0000      -0.219218        -5.9652
  47   2.0000      -0.201023        -5.4701
  48   0.0000       0.008305         0.2260
  49   0.0000       0.019692         0.5358
  50   0.0000       0.028571         0.7775
  51   0.0000       0.039918         1.0862
  52   0.0000       0.058279         1.5859

MULLIKEN ATOMIC CHARGES
-----------------------
   0 C :    0.100928
   1 C :   -0.024987
   2 H :    0.041662
   3 C :    0.027062
   4 H :    0.072358
   5 C :    0.094211
   6 H :    0.040172
   7 C :    0.051798
   8 H :    0.065320
   9 C :    0.176200
  10 H :    0.037011
  11 O :   -0.318042
  12 O :   -0.385505
  13 O :   -0.407880
  14 O :   -0.403827
  15 O :   -0.413609
  16 O :   -0.430883
  17 H :    0.076262
  18 H :    0.088221
  19 H :    0.309139
  20 H :    0.305878
  21 H :    0.299368
  22 H :    0.302792
  23 H :    0.296350
Sum of atomic charges:   -0.0000000

LOEWDIN ATOMIC CHARGES
----------------------
   0 C :   -0.126497
   1 C :   -0.082785
   2 H :    0.097645
   3 C :   -0.083352
   4 H :    0.121872
   5 C :   -0.070311
   6 H :    0.098394
   7 C :   -0.075254
   8 H :    0.113335
   9 C :   -0.007137
  10 H :    0.079461
  11 O :   -0.159399
  12 O :   -0.298180
  13 O :   -0.311030
  14 O :   -0.315033
  15 O :   -0.303395
  16 O :   -0.334598
  17 H :    0.105193
  18 H :    0.118689
  19 H :    0.291729
  20 H :    0.289350
  21 H :    0.281621
  22 H :    0.287227
  23 H :    0.282455

  Mayer bond orders larger than 0.100000
B(  0-C ,  1-C ) :   1.0395 B(  0-C , 16-O ) :   1.0825 B(  0-C , 17-H ) :   0.9088
B(  0-C , 18-H ) :   0.9107 B(  1-C ,  2-H ) :   0.8687 B(  1-C ,  3-C ) :   0.9767
B(  1-C , 11-O ) :   0.9805 B(  3-C ,  4-H ) :   0.8628 B(  3-C ,  5-C ) :   1.0086
B(  3-C , 15-O ) :   1.0109 B(  5-C ,  6-H ) :   0.8675 B(  5-C ,  7-C ) :   1.0044
B(  5-C , 14-O ) :   1.1077 B(  7-C ,  8-H ) :   0.8682 B(  7-C ,  9-C ) :   0.9915
B(  7-C , 13-O ) :   1.0849 B(  9-C , 10-H ) :   0.8828 B(  9-C , 11-O ) :   1.0027
B(  9-C , 12-O ) :   1.1694 B( 12-O , 19-H ) :   0.8382 B( 13-O , 20-H ) :   0.8421
B( 14-O , 21-H ) :   0.8352 B( 15-O , 22-H ) :   0.8434 B( 16-O , 23-H ) :   0.8511

Dispersion correction           -0.023528495
FINAL SINGLE POINT ENERGY      -685.698491023746

DIPOLE MOMENT
-------------

Method             : SCF
Type of density    : Electron Density
Multiplicity       :   1
Irrep              :   0
Energy             :  -685.8278011987134732 Eh
Relativity type    :
Basis              : AO
                                X                 Y                 Z
Electronic contribution:      2.492464596      -0.571644085      -0.310434330
Nuclear contribution   :     -2.652592384      -0.107091100       0.682306812
                        -----------------------------------------
Total Dipole Moment    :     -0.160127788      -0.678735185       0.371872481
                        -----------------------------------------
Magnitude (a.u.)       :      0.790323669
Magnitude (Debye)      :      2.008843122

Rotational constants in cm-1:             0.039325             0.025649             0.016359
Rotational constants in MHz :          1178.935538           768.932971           490.417973

                             ****ORCA TERMINATED NORMALLY****
TOTAL RUN TIME: 0 days 0 hours 0 minutes 12 seconds 0 msec
