                         Program Version 6.0.0  -   RELEASE  -
|  1> ! pbe def2-sv(p) def2/J RI DEFGRID1 loosescf d4 GCP(DFT/SV(P)) printgap
|  2> %output
|  3>     printlevel normal
|  4> end
|  5> * xyz 0 1
|  6> C -2.0733902913 -1.3768145595 -0.1099974842
|  7> C -1.0013021699 -0.5184477306 0.5884149318
|  8> H -1.4176959626 -0.1733174552 1.5446223817
|  9> C -0.6204658693 0.6969641313 -0.2686723451
| 10> H -0.5117885862 0.3997860653 -1.317978456
| 11> C 0.7277807484 1.2533281077 0.2124230876
| 12> H 0.6670593763 1.4479003558 1.2984587513
| 13> C 1.821189479 0.2029177366 -0.0419489388
| 14> H 2.1992295038 0.3413008294 -1.0595871334
| 15> C 1.2302305475 -1.226787074 0.0538937999
| 16> H 1.9875089626 -1.873492588 0.5176361771
| 17> O 0.139004299 -1.2963681402 0.9431975173
| 18> O 0.8989438018 -1.6601074304 -1.2259579088
| 19> O 2.9320467824 0.3534345221 0.797321001
| 20> O 1.0556122801 2.4452938765 -0.4542115101
| 21> O -1.6177716175 1.6872701381 -0.2587667298
| 22> O -3.3221864349 -0.7336045683 -0.1366445512
| 23> H -2.2146502251 -2.2984412354 0.4590509874
| 24> H -1.7375880949 -1.6278106922 -1.1239462062
| 25> H 0.8010355121 -2.6244224833 -1.2438622638
| 26> H 2.6538479917 0.3327279723 1.725345647
| 27> H 0.2303613087 2.8977091358 -0.6981149678
| 28> H -1.7854290295 1.9786723467 0.6508448178
| 29> H -3.2330061302 0.1105030198 -0.6069572733
| 30> *
| 31>
| 32>                          ****END OF INPUT****

CARTESIAN COORDINATES (ANGSTROEM)
---------------------------------
  C     -2.073390   -1.376815   -0.109997
  C     -1.001302   -0.518448    0.588415
  H     -1.417696   -0.173317    1.544622
  C     -0.620466    0.696964   -0.268672
  H     -0.511789    0.399786   -1.317978
  C      0.727781    1.253328    0.212423
  H      0.667059    1.447900    1.298459
  C      1.821189    0.202918   -0.041949
  H      2.199230    0.341301   -1.059587
  C      1.230231   -1.226787    0.053894
  H      1.987509   -1.873493    0.517636
  O      0.139004   -1.296368    0.943198
  O      0.898944   -1.660107   -1.225958
  O      2.932047    0.353435    0.797321
  O      1.055612    2.445294   -0.454212
  O     -1.617772    1.687270   -0.258767
  O     -3.322186   -0.733605   -0.136645
  H     -2.214650   -2.298441    0.459051
  H     -1.737588   -1.627811   -1.123946
  H      0.801036   -2.624422   -1.243862
  H      2.653848    0.332728    1.725346
  H      0.230361    2.897709   -0.698115
  H     -1.785429    1.978672    0.650845
  H     -3.233006    0.110503   -0.606957

 Total Charge           Charge          ....    0
 Multiplicity           Mult            ....    1
 Number of Electrons    NEL             ....   96
 Basis Dimension        Dim             ....  192

ORBITAL ENERGIES
----------------

  NO   OCC          E(Eh)            E(eV)
   0   2.0000     -18.788421      -511.2589
   1   2.0000     -18.776361      -510.9308
   2   2.0000     -18.775038      -510.8948
   3   2.0000     -18.752287      -510.2757
   4   2.0000     -18.748965      -510.1853
   5   2.0000     -18.745183      -510.0824
   6   2.0000      -9.990046      -271.8430
   7   2.0000      -9.955877      -270.9132
   8   2.0000      -9.950666      -270.7714
   9   2.0000      -9.948617      -270.7156
  10   2.0000      -9.942660      -270.5535
  11   2.0000      -9.930180      -270.2139
  12   2.0000      -0.989426       -26.9237
  13   2.0000      -0.967313       -26.3219
  14   2.0000      -0.935867       -25.4662
  15   2.0000      -0.925094       -25.1731
  16   2.0000      -0.919297       -25.0154
  17   2.0000      -0.917629       -24.9700
  18   2.0000      -0.711425       -19.3589
  19   2.0000      -0.694580       -18.9005
  20   2.0000      -0.619676       -16.8623
  21   2.0000      -0.600287       -16.3347
  22   2.0000      -0.569497       -15.4968
  23   2.0000      -0.540790       -14.7156
  24   2.0000      -0.512440       -13.9442
  25   2.0000      -0.494600       -13.4587
  26   2.0000      -0.487548       -13.2669
  27   2.0000      -0.456153       -12.4125
  28   2.0000      -0.450178       -12.2500
  29   2.0000      -0.443119       -12.0579
  30   2.0000      -0.412302       -11.2193
  31   2.0000      -0.400467       -10.8972
  32   2.0000      -0.386102       -10.5064
  33   2.0000      -0.378268       -10.2932
  34   2.0000      -0.368355       -10.0234
  35   2.0000      -0.359731        -9.7888
  36   2.0000      -0.349259        -9.5038
  37   2.0000      -0.313418        -8.5285
  38   2.0000      -0.303570        -8.2606
  39   2.0000      -0.303153        -8.2492
  40   2.0000      -0.284897        -7.7524
  41   2.0000      -0.280742        -7.6394
  42   2.0000      -0.271047        -7.3756
  43   2.0000      -0.247163        -6.7257
  44   2.0000      -0.242760        -6.6058
  45   2.0000      -0.228975        -6.2307
  46   2.0000      -0.215264        -5.8576
  47   2.0000      -0.203478        -5.5369
  48   0.0000       0.002074         0.0564
  49   0.0000       0.015408         0.4193
  50   0.0000       0.021945         0.5972
  51   0.0000       0.044783         1.2186
  52   0.0000       0.058782         1.5995

MULLIKEN ATOMIC CHARGES
-----------------------
   0 C :    0.073226
   1 C :    0.056952
   2 H :    0.056720
   3 C :   -0.041926
   4 H :    0.092805
   5 C :    0.063125
   6 H :    0.022944
   7 C :    0.120365
   8 H :    0.086103
   9 C :    0.118984
  10 H :    0.069496
  11 O :   -0.317503
  12 O :   -0.388355
  13 O :   -0.412416
  14 O :   -0.405200
  15 O :   -0.414852
  16 O :   -0.445111
  17 H :    0.086437
  18 H :    0.067995
  19 H :    0.310782
  20 H :    0.297168
  21 H :    0.297737
  22 H :    0.306843
  23 H :    0.297682
Sum of atomic charges:   -0.0000000

LOEWDIN ATOMIC CHARGES
----------------------
   0 C :   -0.131415
   1 C :   -0.076566
   2 H :    0.109680
   3 C :   -0.097184
   4 H :    0.126111
   5 C :   -0.074351
   6 H :    0.091588
   7 C :   -0.071895
   8 H :    0.131239
   9 C :   -0.015265
  10 H :    0.101910
  11 O :   -0.151413
  12 O :   -0.303428
  13 O :   -0.304761
  14 O :   -0.317701
  15 O :   -0.298431
  16 O :   -0.339316
  17 H :    0.112984
  18 H :    0.095955
  19 H :    0.290921
  20 H :    0.282214
  21 H :    0.277562
  22 H :    0.287966
  23 H :    0.273597

  Mayer bond orders larger than 0.100000
B(  0-C ,  1-C ) :   1.0447 B(  0-C , 16-O ) :   1.0788 B(  0-C , 17-H ) :   0.9199
B(  0-C , 18-H ) :   0.9087 B(  1-C ,  2-H ) :   0.8782 B(  1-C ,  3-C ) :   0.9666
B(  1-C , 11-O ) :   0.9722 B(  3-C ,  4-H ) :   0.8684 B(  3-C ,  5-C ) :   1.0452
B(  3-C , 15-O ) :   0.9910 B(  5-C ,  6-H ) :   0.8476 B(  5-C ,  7-C ) :   1.0116
B(  5-C , 14-O ) :   1.1221 B(  7-C ,  8-H ) :   0.8633 B(  7-C ,  9-C ) :   0.9822
B(  7-C , 13-O ) :   1.0529 B(  9-C , 10-H ) :   0.8997 B(  9-C , 11-O ) :   1.0611
B(  9-C , 12-O ) :   1.1041 B( 12-O , 19-H ) :   0.8340 B( 13-O , 20-H ) :   0.8483
B( 14-O , 21-H ) :   0.8258 B( 15-O , 22-H ) :   0.8370 B( 16-O , 23-H ) :   0.8299

Dispersion correction           -0.024688435
FINAL SINGLE POINT ENERGY      -685.691762006811

DIPOLE MOMENT
-------------

Method             : SCF
Type of density    : Electron Density
Multiplicity       :   1
Irrep              :   0
Energy             :  -685.8229664041718934 Eh
Relativity type    :
Basis              : AO
                                X                 Y                 Z
Electronic contribution:      1.898105861       0.819591452       0.301704977
Nuclear contribution   :     -2.213859040      -1.009767989       0.131551668
                        -----------------------------------------
Total Dipole Moment    :     -0.315753179      -0.190176537       0.433256644
                        -----------------------------------------
Magnitude (a.u.)       :      0.568839613
Magnitude (Debye)      :      1.445875391

Rotational constants in cm-1:             0.044055             0.025994             0.018972
Rotational constants in MHz :          1320.750242           779.282585           568.770269

                             ****ORCA TERMINATED NORMALLY****
TOTAL RUN TIME: 0 days 0 hours 0 minutes 12 seconds 331 msec
