                         Program Version 6.0.0  -   RELEASE  -
|  1> ! pbe def2-sv(p) def2/J RI DEFGRID1 loosescf d4 GCP(DFT/SV(P)) printgap
|  2> %output
|  3>     printlevel normal
|  4> end
|  5> * xyz 0 1
|  6> C -2.761674929 0.8650207324 0.8653181027
|  7> C -1.3487806015 0.6217098472 0.3402273271
|  8> H -0.6307790388 1.0311244178 1.0623072017
|  9> C -1.0978870154 1.2828390959 -1.0143316489
| 10> C 0.3826370061 1.2177233215 -1.3929826108
| 11> C 1.0446207733 -0.129128752 -1.0099431746
| 12> H 1.6672768282 -0.4505733115 -1.8524027619
| 13> C -0.0253174592 -1.206322454 -0.8122948273
| 14> C -1.0446674933 -0.8554072141 0.2361227207
| 15> O -1.5974920487 -1.6988608837 0.9180954191
| 16> C 1.989766608 0.0149007266 0.1737764953
| 17> C 2.9640352283 0.9136480191 0.1440662208
| 18> C 1.8538134214 -0.920173673 1.3367741182
| 19> H -2.9176865347 1.9213071341 1.0645896406
| 20> H -3.4960144778 0.5328539128 0.1345260873
| 21> H -2.9198823434 0.3032076019 1.7828494809
| 22> H -1.7119646234 0.7877528351 -1.7690967147
| 23> H -1.4131742806 2.3259280848 -0.9714682257
| 24> H 0.4785188222 1.3864352832 -2.465753456
| 25> H 0.9095351102 2.0254783381 -0.8857887663
| 26> H -0.5827868771 -1.3169730402 -1.7471191266
| 27> H 0.4105625656 -2.1795398998 -0.5856640767
| 28> H 3.6569726279 1.0238894908 0.9602028895
| 29> H 3.1178578434 1.5695395732 -0.6957694567
| 30> H 2.1014561951 -1.9369404159 1.0333968323
| 31> H 2.5326337918 -0.6295373521 2.1341299489
| 32> H 0.8401828142 -0.9339009375 1.7322018999
| 33> *
| 34>
| 35>                          ****END OF INPUT****

CARTESIAN COORDINATES (ANGSTROEM)
---------------------------------
  C     -2.761675    0.865021    0.865318
  C     -1.348781    0.621710    0.340227
  H     -0.630779    1.031124    1.062307
  C     -1.097887    1.282839   -1.014332
  C      0.382637    1.217723   -1.392983
  C      1.044621   -0.129129   -1.009943
  H      1.667277   -0.450573   -1.852403
  C     -0.025317   -1.206322   -0.812295
  C     -1.044667   -0.855407    0.236123
  O     -1.597492   -1.698861    0.918095
  C      1.989767    0.014901    0.173776
  C      2.964035    0.913648    0.144066
  C      1.853813   -0.920174    1.336774
  H     -2.917687    1.921307    1.064590
  H     -3.496014    0.532854    0.134526
  H     -2.919882    0.303208    1.782849
  H     -1.711965    0.787753   -1.769097
  H     -1.413174    2.325928   -0.971468
  H      0.478519    1.386435   -2.465753
  H      0.909535    2.025478   -0.885789
  H     -0.582787   -1.316973   -1.747119
  H      0.410563   -2.179540   -0.585664
  H      3.656973    1.023889    0.960203
  H      3.117858    1.569540   -0.695769
  H      2.101456   -1.936940    1.033397
  H      2.532634   -0.629537    2.134130
  H      0.840183   -0.933901    1.732202

 Total Charge           Charge          ....    0
 Multiplicity           Mult            ....    1
 Number of Electrons    NEL             ....   84
 Basis Dimension        Dim             ....  186

ORBITAL ENERGIES
----------------

  NO   OCC          E(Eh)            E(eV)
   0   2.0000     -18.739721      -509.9337
   1   2.0000      -9.971523      -271.3389
   2   2.0000      -9.909407      -269.6487
   3   2.0000      -9.903845      -269.4973
   4   2.0000      -9.901613      -269.4366
   5   2.0000      -9.895881      -269.2806
   6   2.0000      -9.894094      -269.2320
   7   2.0000      -9.891876      -269.1716
   8   2.0000      -9.884169      -268.9619
   9   2.0000      -9.877029      -268.7676
  10   2.0000      -9.874317      -268.6938
  11   2.0000      -0.934916       -25.4404
  12   2.0000      -0.774416       -21.0729
  13   2.0000      -0.727253       -19.7896
  14   2.0000      -0.684637       -18.6299
  15   2.0000      -0.662520       -18.0281
  16   2.0000      -0.621233       -16.9046
  17   2.0000      -0.600875       -16.3507
  18   2.0000      -0.557455       -15.1691
  19   2.0000      -0.531835       -14.4720
  20   2.0000      -0.475470       -12.9382
  21   2.0000      -0.467367       -12.7177
  22   2.0000      -0.437765       -11.9122
  23   2.0000      -0.428469       -11.6592
  24   2.0000      -0.416349       -11.3294
  25   2.0000      -0.395830       -10.7711
  26   2.0000      -0.384674       -10.4675
  27   2.0000      -0.376951       -10.2574
  28   2.0000      -0.375457       -10.2167
  29   2.0000      -0.361630        -9.8405
  30   2.0000      -0.353357        -9.6153
  31   2.0000      -0.342035        -9.3073
  32   2.0000      -0.336636        -9.1603
  33   2.0000      -0.328021        -8.9259
  34   2.0000      -0.323351        -8.7988
  35   2.0000      -0.315166        -8.5761
  36   2.0000      -0.301764        -8.2114
  37   2.0000      -0.291554        -7.9336
  38   2.0000      -0.282947        -7.6994
  39   2.0000      -0.272921        -7.4266
  40   2.0000      -0.218286        -5.9399
  41   2.0000      -0.192661        -5.2426
  42   0.0000      -0.053414        -1.4535
  43   0.0000      -0.023902        -0.6504
  44   0.0000       0.024817         0.6753
  45   0.0000       0.050926         1.3858
  46   0.0000       0.057500         1.5646

MULLIKEN ATOMIC CHARGES
-----------------------
   0 C :   -0.207292
   1 C :   -0.177613
   2 H :    0.099137
   3 C :   -0.134219
   4 C :   -0.094966
   5 C :   -0.149980
   6 H :    0.088765
   7 C :   -0.037486
   8 C :   -0.043416
   9 O :   -0.167712
  10 C :   -0.088119
  11 C :   -0.234789
  12 C :   -0.216857
  13 H :    0.095974
  14 H :    0.095414
  15 H :    0.116858
  16 H :    0.077766
  17 H :    0.089293
  18 H :    0.078641
  19 H :    0.089969
  20 H :    0.106572
  21 H :    0.091900
  22 H :    0.086312
  23 H :    0.089646
  24 H :    0.115565
  25 H :    0.100330
  26 H :    0.130307
Sum of atomic charges:    0.0000000

LOEWDIN ATOMIC CHARGES
----------------------
   0 C :   -0.323364
   1 C :   -0.178779
   2 H :    0.142632
   3 C :   -0.214938
   4 C :   -0.214699
   5 C :   -0.133279
   6 H :    0.136773
   7 C :   -0.238693
   8 C :    0.048233
   9 O :   -0.131429
  10 C :   -0.055986
  11 C :   -0.267898
  12 C :   -0.325341
  13 H :    0.118513
  14 H :    0.120681
  15 H :    0.127470
  16 H :    0.115667
  17 H :    0.123567
  18 H :    0.119361
  19 H :    0.123298
  20 H :    0.147627
  21 H :    0.132652
  22 H :    0.118809
  23 H :    0.116655
  24 H :    0.133843
  25 H :    0.127068
  26 H :    0.131555

  Mayer bond orders larger than 0.100000
B(  0-C ,  1-C ) :   1.1291 B(  0-C , 13-H ) :   0.9472 B(  0-C , 14-H ) :   0.9519
B(  0-C , 15-H ) :   0.9386 B(  1-C ,  2-H ) :   0.8429 B(  1-C ,  3-C ) :   1.1172
B(  1-C ,  8-C ) :   0.9296 B(  3-C ,  4-C ) :   1.1691 B(  3-C , 16-H ) :   0.8968
B(  3-C , 17-H ) :   0.9138 B(  4-C ,  5-C ) :   1.0574 B(  4-C , 18-H ) :   0.9088
B(  4-C , 19-H ) :   0.9090 B(  5-C ,  6-H ) :   0.8691 B(  5-C ,  7-C ) :   1.1362
B(  5-C , 10-C ) :   0.9890 B(  7-C ,  8-C ) :   1.0358 B(  7-C , 20-H ) :   0.8554
B(  7-C , 21-H ) :   0.8790 B(  8-C ,  9-O ) :   2.1661 B( 10-C , 11-C ) :   2.0359
B( 10-C , 12-C ) :   1.1537 B( 11-C , 22-H ) :   0.9068 B( 11-C , 23-H ) :   0.9086
B( 12-C , 24-H ) :   0.9174 B( 12-C , 25-H ) :   0.9310 B( 12-C , 26-H ) :   0.9087

Dispersion correction           -0.029633162
FINAL SINGLE POINT ENERGY      -464.819294392811

DIPOLE MOMENT
-------------

Method             : SCF
Type of density    : Electron Density
Multiplicity       :   1
Irrep              :   0
Energy             :  -464.9053584202882803 Eh
Relativity type    :
Basis              : AO
                                X                 Y                 Z
Electronic contribution:     -1.494400051      -4.507429574       0.396717645
Nuclear contribution   :      1.892711852       5.097245831      -0.989153152
                        -----------------------------------------
Total Dipole Moment    :      0.398311802       0.589816256      -0.592435507
                        -----------------------------------------
Magnitude (a.u.)       :      0.926021240
Magnitude (Debye)      :      2.353758937

Rotational constants in cm-1:             0.054326             0.029992             0.024664
Rotational constants in MHz :          1628.665189           899.129820           739.412118

                             ****ORCA TERMINATED NORMALLY****
TOTAL RUN TIME: 0 days 0 hours 0 minutes 17 seconds 628 msec
