                         Program Version 6.0.0  -   RELEASE  -
|  1> ! wb97x-v def2-tzvp def2/J RIJCOSX DEFGRID2 scfconv7 GCP(DFT/TZ) printgap
|  2> %output
|  3>     printlevel normal
|  4> end
|  5> * xyz 0 1
|  6> C -3.3064363486171944 0.7024600482329173 0.4028319399754619
|  7> C -2.465314137882922 -0.3876647357518149 -0.2538051495858591
|  8> C -0.9674261901773596 -0.21770439473241066 -0.13589434673810932
|  9> C -0.12992962613023332 -1.3292195161520752 -0.29992957136043924
| 10> C 1.2525519167691173 -1.2107747954674244 -0.2272610281002722
| 11> C 1.8595254213597363 0.026904822911485236 0.018685938597427735
| 12> C 1.0270310110936876 1.134709779661504 0.181890091544279
| 13> C -0.3614050688620123 1.016231820742199 0.10780242651933757
| 14> C 3.353630140009994 0.14445808388409354 0.12760295058379942
| 15> H -4.3687739809261945 0.44942977732392747 0.3321110294122119
| 16> H -3.168191863363122 1.674213582269112 -0.08097959848738677
| 17> H -3.0558359055179873 0.8135024197245121 1.4634355882209376
| 18> H -2.727195928166312 -0.4489741349599255 -1.3192956030979883
| 19> H -2.7324294945879615 -1.362469272091115 0.17099347068278709
| 20> H -0.5733303149846611 -2.3042555422032156 -0.48859094125636293
| 21> H 1.8739924023534222 -2.0935408592090337 -0.3572167027150753
| 22> H 1.4686861272437106 2.109571888274434 0.3726855915196886
| 23> H -0.969940921712274 1.9048006716231267 0.2423275200130472
| 24> H 3.7137043704575454 -0.295643891932846 1.0650309744846276
| 25> H 3.8544581034660568 -0.3859974849009665 -0.6884031665529784
| 26> H 3.6706038721272187 1.1902722734472064 0.10663817939012091
| 27> *
| 28>
| 29>                          ****END OF INPUT****

CARTESIAN COORDINATES (ANGSTROEM)
---------------------------------
  C     -3.306436    0.702460    0.402832
  C     -2.465314   -0.387665   -0.253805
  C     -0.967426   -0.217704   -0.135894
  C     -0.129930   -1.329220   -0.299930
  C      1.252552   -1.210775   -0.227261
  C      1.859525    0.026905    0.018686
  C      1.027031    1.134710    0.181890
  C     -0.361405    1.016232    0.107802
  C      3.353630    0.144458    0.127603
  H     -4.368774    0.449430    0.332111
  H     -3.168192    1.674214   -0.080980
  H     -3.055836    0.813502    1.463436
  H     -2.727196   -0.448974   -1.319296
  H     -2.732429   -1.362469    0.170993
  H     -0.573330   -2.304256   -0.488591
  H      1.873992   -2.093541   -0.357217
  H      1.468686    2.109572    0.372686
  H     -0.969941    1.904801    0.242328
  H      3.713704   -0.295644    1.065031
  H      3.854458   -0.385997   -0.688403
  H      3.670604    1.190272    0.106638

 Total Charge           Charge          ....    0
 Multiplicity           Mult            ....    1
 Number of Electrons    NEL             ....   66
 Basis Dimension        Dim             ....  351

ORBITAL ENERGIES
----------------

  NO   OCC          E(Eh)            E(eV)
   0   2.0000     -12.053359      -327.9886
   1   2.0000     -12.052307      -327.9599
   2   2.0000     -12.047532      -327.8300
   3   2.0000     -12.044631      -327.7511
   4   2.0000     -12.043736      -327.7267
   5   2.0000     -12.042431      -327.6912
   6   2.0000     -12.041866      -327.6758
   7   2.0000     -12.040502      -327.6387
   8   2.0000     -12.036781      -327.5375
   9   2.0000      -1.381125       -37.5823
  10   2.0000      -1.310048       -35.6482
  11   2.0000      -1.264718       -34.4147
  12   2.0000      -1.252119       -34.0719
  13   2.0000      -1.187690       -32.3187
  14   2.0000      -1.118272       -30.4297
  15   2.0000      -1.098911       -29.9029
  16   2.0000      -1.056325       -28.7441
  17   2.0000      -0.953693       -25.9513
  18   2.0000      -0.944308       -25.6959
  19   2.0000      -0.904710       -24.6184
  20   2.0000      -0.874835       -23.8055
  21   2.0000      -0.870263       -23.6811
  22   2.0000      -0.864004       -23.5107
  23   2.0000      -0.835583       -22.7374
  24   2.0000      -0.834238       -22.7008
  25   2.0000      -0.823080       -22.3971
  26   2.0000      -0.815305       -22.1856
  27   2.0000      -0.791469       -21.5370
  28   2.0000      -0.782892       -21.3036
  29   2.0000      -0.778533       -21.1850
  30   2.0000      -0.745826       -20.2950
  31   2.0000      -0.631588       -17.1864
  32   2.0000      -0.622781       -16.9467
  33   0.0000      -0.234176        -6.3722
  34   0.0000      -0.230470        -6.2714
  35   0.0000      -0.069397        -1.8884
  36   0.0000      -0.050385        -1.3710
  37   0.0000      -0.022852        -0.6218

MULLIKEN ATOMIC CHARGES
-----------------------
   0 C :   -0.353301
   1 C :   -0.162400
   2 C :    0.127930
   3 C :   -0.190879
   4 C :   -0.182688
   5 C :    0.147174
   6 C :   -0.198291
   7 C :   -0.180446
   8 C :   -0.364394
   9 H :    0.117863
  10 H :    0.108430
  11 H :    0.119538
  12 H :    0.101523
  13 H :    0.103637
  14 H :    0.109994
  15 H :    0.111750
  16 H :    0.108880
  17 H :    0.116161
  18 H :    0.122961
  19 H :    0.120697
  20 H :    0.115863
Sum of atomic charges:   -0.0000000

LOEWDIN ATOMIC CHARGES
----------------------
   0 C :   -0.302181
   1 C :   -0.243039
   2 C :   -0.146416
   3 C :   -0.114254
   4 C :   -0.115922
   5 C :   -0.173991
   6 C :   -0.118857
   7 C :   -0.115651
   8 C :   -0.254051
   9 H :    0.117836
  10 H :    0.115336
  11 H :    0.120047
  12 H :    0.142316
  13 H :    0.140526
  14 H :    0.143186
  15 H :    0.143036
  16 H :    0.141914
  17 H :    0.144058
  18 H :    0.126972
  19 H :    0.125451
  20 H :    0.123686

  Mayer bond orders larger than 0.100000
B(  0-C ,  1-C ) :   1.0010 B(  0-C ,  9-H ) :   0.9812 B(  0-C , 10-H ) :   0.9751
B(  0-C , 11-H ) :   0.9811 B(  1-C ,  2-C ) :   0.9436 B(  1-C , 12-H ) :   0.9504
B(  1-C , 13-H ) :   0.9876 B(  2-C ,  3-C ) :   1.3577 B(  2-C ,  7-C ) :   1.3823
B(  3-C ,  4-C ) :   1.4723 B(  3-C , 14-H ) :   0.9808 B(  4-C ,  5-C ) :   1.3565
B(  4-C , 15-H ) :   0.9812 B(  5-C ,  6-C ) :   1.4168 B(  5-C ,  8-C ) :   0.9148
B(  6-C ,  7-C ) :   1.4490 B(  6-C , 16-H ) :   0.9696 B(  7-C , 17-H ) :   0.9679
B(  8-C , 18-H ) :   0.9678 B(  8-C , 19-H ) :   0.9851 B(  8-C , 20-H ) :   0.9968

FINAL SINGLE POINT ENERGY      -350.203605480230

DIPOLE MOMENT
-------------

Method             : SCF
Type of density    : Electron Density
Multiplicity       :   1
Irrep              :   0
Energy             :  -350.2161449534302164 Eh
Relativity type    :
Basis              : AO
                                X                 Y                 Z
Electronic contribution:      2.802113902      -1.220861873      -0.783602190
Nuclear contribution   :     -2.838321141       1.191145034       0.778655888
                        -----------------------------------------
Total Dipole Moment    :     -0.036207239      -0.029716839      -0.004946302
                        -----------------------------------------
Magnitude (a.u.)       :      0.047101174
Magnitude (Debye)      :      0.119721670

Rotational constants in cm-1:             0.151295             0.031445             0.026573
Rotational constants in MHz :          4535.700752           942.708315           796.642545

                             ****ORCA TERMINATED NORMALLY****
TOTAL RUN TIME: 0 days 0 hours 4 minutes 5 seconds 272 msec
