                         Program Version 6.0.0  -   RELEASE  -
|  1> ! wb97x-v def2-tzvp def2/J RIJCOSX DEFGRID2 scfconv7 GCP(DFT/TZ) printgap
|  2> %output
|  3>     printlevel normal
|  4> end
|  5> %cpcm
|  6>     smd true
|  7>     smdsolvent "water"
|  8> end
|  9> * xyz 0 1
| 10> C -3.3064363486171944 0.7024600482329173 0.4028319399754619
| 11> C -2.465314137882922 -0.3876647357518149 -0.2538051495858591
| 12> C -0.9674261901773596 -0.21770439473241066 -0.13589434673810932
| 13> C -0.12992962613023332 -1.3292195161520752 -0.29992957136043924
| 14> C 1.2525519167691173 -1.2107747954674244 -0.2272610281002722
| 15> C 1.8595254213597363 0.026904822911485236 0.018685938597427735
| 16> C 1.0270310110936876 1.134709779661504 0.181890091544279
| 17> C -0.3614050688620123 1.016231820742199 0.10780242651933757
| 18> C 3.353630140009994 0.14445808388409354 0.12760295058379942
| 19> H -4.3687739809261945 0.44942977732392747 0.3321110294122119
| 20> H -3.168191863363122 1.674213582269112 -0.08097959848738677
| 21> H -3.0558359055179873 0.8135024197245121 1.4634355882209376
| 22> H -2.727195928166312 -0.4489741349599255 -1.3192956030979883
| 23> H -2.7324294945879615 -1.362469272091115 0.17099347068278709
| 24> H -0.5733303149846611 -2.3042555422032156 -0.48859094125636293
| 25> H 1.8739924023534222 -2.0935408592090337 -0.3572167027150753
| 26> H 1.4686861272437106 2.109571888274434 0.3726855915196886
| 27> H -0.969940921712274 1.9048006716231267 0.2423275200130472
| 28> H 3.7137043704575454 -0.295643891932846 1.0650309744846276
| 29> H 3.8544581034660568 -0.3859974849009665 -0.6884031665529784
| 30> H 3.6706038721272187 1.1902722734472064 0.10663817939012091
| 31> *
| 32>
| 33>                          ****END OF INPUT****

CARTESIAN COORDINATES (ANGSTROEM)
---------------------------------
  C     -3.306436    0.702460    0.402832
  C     -2.465314   -0.387665   -0.253805
  C     -0.967426   -0.217704   -0.135894
  C     -0.129930   -1.329220   -0.299930
  C      1.252552   -1.210775   -0.227261
  C      1.859525    0.026905    0.018686
  C      1.027031    1.134710    0.181890
  C     -0.361405    1.016232    0.107802
  C      3.353630    0.144458    0.127603
  H     -4.368774    0.449430    0.332111
  H     -3.168192    1.674214   -0.080980
  H     -3.055836    0.813502    1.463436
  H     -2.727196   -0.448974   -1.319296
  H     -2.732429   -1.362469    0.170993
  H     -0.573330   -2.304256   -0.488591
  H      1.873992   -2.093541   -0.357217
  H      1.468686    2.109572    0.372686
  H     -0.969941    1.904801    0.242328
  H      3.713704   -0.295644    1.065031
  H      3.854458   -0.385997   -0.688403
  H      3.670604    1.190272    0.106638

 Total Charge           Charge          ....    0
 Multiplicity           Mult            ....    1
 Number of Electrons    NEL             ....   66
 Basis Dimension        Dim             ....  351

ORBITAL ENERGIES
----------------

  NO   OCC          E(Eh)            E(eV)
   0   2.0000     -12.053227      -327.9850
   1   2.0000     -12.052011      -327.9519
   2   2.0000     -12.043623      -327.7236
   3   2.0000     -12.042814      -327.7016
   4   2.0000     -12.041435      -327.6641
   5   2.0000     -12.041018      -327.6528
   6   2.0000     -12.039811      -327.6199
   7   2.0000     -12.032624      -327.4243
   8   2.0000     -12.027425      -327.2829
   9   2.0000      -1.381904       -37.6035
  10   2.0000      -1.307593       -35.5814
  11   2.0000      -1.265111       -34.4254
  12   2.0000      -1.246570       -33.9209
  13   2.0000      -1.182986       -32.1907
  14   2.0000      -1.113533       -30.3008
  15   2.0000      -1.097312       -29.8594
  16   2.0000      -1.053495       -28.6671
  17   2.0000      -0.952889       -25.9294
  18   2.0000      -0.941291       -25.6138
  19   2.0000      -0.900983       -24.5170
  20   2.0000      -0.870772       -23.6949
  21   2.0000      -0.863990       -23.5104
  22   2.0000      -0.860647       -23.4194
  23   2.0000      -0.829419       -22.5696
  24   2.0000      -0.827819       -22.5261
  25   2.0000      -0.818150       -22.2630
  26   2.0000      -0.808590       -22.0028
  27   2.0000      -0.786860       -21.4116
  28   2.0000      -0.776406       -21.1271
  29   2.0000      -0.772390       -21.0178
  30   2.0000      -0.744709       -20.2645
  31   2.0000      -0.633968       -17.2511
  32   2.0000      -0.623702       -16.9718
  33   0.0000      -0.235182        -6.3996
  34   0.0000      -0.232156        -6.3173
  35   0.0000      -0.069240        -1.8841
  36   0.0000      -0.044217        -1.2032
  37   0.0000      -0.017672        -0.4809

MULLIKEN ATOMIC CHARGES
-----------------------
   0 C :   -0.394602
   1 C :   -0.162125
   2 C :    0.087503
   3 C :   -0.231301
   4 C :   -0.223278
   5 C :    0.112745
   6 C :   -0.242461
   7 C :   -0.221550
   8 C :   -0.393835
   9 H :    0.135326
  10 H :    0.126730
  11 H :    0.126954
  12 H :    0.116256
  13 H :    0.123573
  14 H :    0.152677
  15 H :    0.153941
  16 H :    0.153716
  17 H :    0.160301
  18 H :    0.139273
  19 H :    0.139981
  20 H :    0.140176
Sum of atomic charges:   -0.0000000

LOEWDIN ATOMIC CHARGES
----------------------
   0 C :   -0.306499
   1 C :   -0.242890
   2 C :   -0.156116
   3 C :   -0.124203
   4 C :   -0.125892
   5 C :   -0.184349
   6 C :   -0.130120
   7 C :   -0.126682
   8 C :   -0.256472
   9 H :    0.120963
  10 H :    0.119405
  11 H :    0.120769
  12 H :    0.146462
  13 H :    0.145589
  14 H :    0.152607
  15 H :    0.152382
  16 H :    0.151458
  17 H :    0.153006
  18 H :    0.131395
  19 H :    0.130218
  20 H :    0.128971

  Mayer bond orders larger than 0.100000
B(  0-C ,  1-C ) :   0.9943 B(  0-C ,  9-H ) :   0.9778 B(  0-C , 10-H ) :   0.9717
B(  0-C , 11-H ) :   0.9795 B(  1-C ,  2-C ) :   0.9531 B(  1-C , 12-H ) :   0.9453
B(  1-C , 13-H ) :   0.9867 B(  2-C ,  3-C ) :   1.3375 B(  2-C ,  7-C ) :   1.3633
B(  3-C ,  4-C ) :   1.4548 B(  3-C , 14-H ) :   0.9877 B(  4-C ,  5-C ) :   1.3350
B(  4-C , 15-H ) :   0.9879 B(  5-C ,  6-C ) :   1.3976 B(  5-C ,  8-C ) :   0.9295
B(  6-C ,  7-C ) :   1.4260 B(  6-C , 16-H ) :   0.9783 B(  7-C , 17-H ) :   0.9733
B(  8-C , 18-H ) :   0.9624 B(  8-C , 19-H ) :   0.9789 B(  8-C , 20-H ) :   0.9919

FINAL SINGLE POINT ENERGY      -350.204418329416

DIPOLE MOMENT
-------------

Method             : SCF
Type of density    : Electron Density
Multiplicity       :   1
Irrep              :   0
Energy             :  -350.2169578026164345 Eh
Relativity type    :
Basis              : AO
                                X                 Y                 Z
Electronic contribution:      2.795228772      -1.235832053      -0.798204007
Nuclear contribution   :     -2.838321141       1.191145034       0.778655888
                        -----------------------------------------
Total Dipole Moment    :     -0.043092369      -0.044687019      -0.019548118
                        -----------------------------------------
Magnitude (a.u.)       :      0.065084644
Magnitude (Debye)      :      0.165432019

Rotational constants in cm-1:             0.151295             0.031445             0.026573
Rotational constants in MHz :          4535.700752           942.708315           796.642545

                             ****ORCA TERMINATED NORMALLY****
TOTAL RUN TIME: 0 days 0 hours 3 minutes 49 seconds 233 msec
