                         Program Version 6.0.0  -   RELEASE  -
|  1> ! pbe def2-sv(p) def2/J RI DEFGRID1 loosescf d4 GCP(DFT/SV(P)) printgap
|  2> %output
|  3>     printlevel normal
|  4> end
|  5> * xyz 0 1
|  6> C -1.6778666846 -1.3641572375 -0.5604309212
|  7> C -1.1368666485 -0.4918605423 0.5826152604
|  8> H -1.893099872 -0.4448754479 1.3732671881
|  9> C -0.8755358543 0.959478314 0.1302605605
| 10> H -1.2317991516 1.0737201008 -0.9056037882
| 11> C 0.6249798952 1.2747024941 0.1858899506
| 12> H 0.9162726262 1.4217083414 1.2321861789
| 13> C 1.4354527391 0.1067548157 -0.388277902
| 14> H 1.1219667472 -0.0901765924 -1.4267707787
| 15> C 1.1719410861 -1.1592601818 0.4421610034
| 16> H 1.9767237234 -1.2472154009 1.1860425274
| 17> O -0.0061891663 -1.0775233415 1.2103966875
| 18> O 1.1636876412 -2.2536446061 -0.4193993463
| 19> O 2.812435021 0.3778883394 -0.353038576
| 20> O 0.9435490059 2.4771800983 -0.4705377048
| 21> O -1.6069038902 1.8149920398 0.9752224711
| 22> O -2.8516777461 -0.7661741726 -1.0587484479
| 23> H -1.8807407567 -2.3610221725 -0.1532826873
| 24> H -0.9201130041 -1.4527346047 -1.3493822324
| 25> H 1.2147481743 -3.0796109284 0.0850519697
| 26> H 2.9419466697 1.3213882603 -0.5501126626
| 27> H 0.6483893392 2.4348571754 -1.393420507
| 28> H -1.3890693117 2.7355635423 0.7631098432
| 29> H -3.2696447232 -1.366889769 -1.6920413158
| 30> *
| 31>
| 32>                          ****END OF INPUT****

CARTESIAN COORDINATES (ANGSTROEM)
---------------------------------
  C     -1.677867   -1.364157   -0.560431
  C     -1.136867   -0.491861    0.582615
  H     -1.893100   -0.444875    1.373267
  C     -0.875536    0.959478    0.130261
  H     -1.231799    1.073720   -0.905604
  C      0.624980    1.274702    0.185890
  H      0.916273    1.421708    1.232186
  C      1.435453    0.106755   -0.388278
  H      1.121967   -0.090177   -1.426771
  C      1.171941   -1.159260    0.442161
  H      1.976724   -1.247215    1.186043
  O     -0.006189   -1.077523    1.210397
  O      1.163688   -2.253645   -0.419399
  O      2.812435    0.377888   -0.353039
  O      0.943549    2.477180   -0.470538
  O     -1.606904    1.814992    0.975222
  O     -2.851678   -0.766174   -1.058748
  H     -1.880741   -2.361022   -0.153283
  H     -0.920113   -1.452735   -1.349382
  H      1.214748   -3.079611    0.085052
  H      2.941947    1.321388   -0.550113
  H      0.648389    2.434857   -1.393421
  H     -1.389069    2.735564    0.763110
  H     -3.269645   -1.366890   -1.692041

 Total Charge           Charge          ....    0
 Multiplicity           Mult            ....    1
 Number of Electrons    NEL             ....   96
 Basis Dimension        Dim             ....  192

ORBITAL ENERGIES
----------------

  NO   OCC          E(Eh)            E(eV)
   0   2.0000     -18.772624      -510.8291
   1   2.0000     -18.765472      -510.6345
   2   2.0000     -18.761695      -510.5317
   3   2.0000     -18.751752      -510.2611
   4   2.0000     -18.746431      -510.1163
   5   2.0000     -18.744835      -510.0729
   6   2.0000      -9.983421      -271.6627
   7   2.0000      -9.943015      -270.5632
   8   2.0000      -9.940993      -270.5082
   9   2.0000      -9.940340      -270.4904
  10   2.0000      -9.939599      -270.4702
  11   2.0000      -9.929032      -270.1827
  12   2.0000      -0.978062       -26.6144
  13   2.0000      -0.954888       -25.9838
  14   2.0000      -0.929113       -25.2824
  15   2.0000      -0.923000       -25.1161
  16   2.0000      -0.915726       -24.9182
  17   2.0000      -0.910083       -24.7646
  18   2.0000      -0.702269       -19.1097
  19   2.0000      -0.690256       -18.7828
  20   2.0000      -0.622134       -16.9291
  21   2.0000      -0.582195       -15.8423
  22   2.0000      -0.567491       -15.4422
  23   2.0000      -0.521329       -14.1861
  24   2.0000      -0.507587       -13.8121
  25   2.0000      -0.475314       -12.9339
  26   2.0000      -0.469813       -12.7843
  27   2.0000      -0.463991       -12.6258
  28   2.0000      -0.448228       -12.1969
  29   2.0000      -0.435641       -11.8544
  30   2.0000      -0.406647       -11.0654
  31   2.0000      -0.399444       -10.8694
  32   2.0000      -0.391496       -10.6531
  33   2.0000      -0.367707       -10.0058
  34   2.0000      -0.364597        -9.9212
  35   2.0000      -0.352093        -9.5809
  36   2.0000      -0.323804        -8.8112
  37   2.0000      -0.316535        -8.6134
  38   2.0000      -0.298630        -8.1261
  39   2.0000      -0.289785        -7.8855
  40   2.0000      -0.285187        -7.7603
  41   2.0000      -0.259866        -7.0713
  42   2.0000      -0.251872        -6.8538
  43   2.0000      -0.249592        -6.7917
  44   2.0000      -0.228744        -6.2244
  45   2.0000      -0.221053        -6.0152
  46   2.0000      -0.216562        -5.8930
  47   2.0000      -0.202996        -5.5238
  48   0.0000       0.010058         0.2737
  49   0.0000       0.022360         0.6084
  50   0.0000       0.028495         0.7754
  51   0.0000       0.044643         1.2148
  52   0.0000       0.054958         1.4955

MULLIKEN ATOMIC CHARGES
-----------------------
   0 C :   -0.009523
   1 C :    0.045195
   2 H :    0.089553
   3 C :    0.072828
   4 H :    0.051670
   5 C :    0.028042
   6 H :    0.073978
   7 C :    0.006134
   8 H :    0.052106
   9 C :    0.215961
  10 H :    0.072387
  11 O :   -0.307414
  12 O :   -0.387484
  13 O :   -0.412199
  14 O :   -0.422151
  15 O :   -0.410176
  16 O :   -0.430476
  17 H :    0.072024
  18 H :    0.094806
  19 H :    0.303218
  20 H :    0.299786
  21 H :    0.298471
  22 H :    0.298507
  23 H :    0.304759
Sum of atomic charges:    0.0000000

LOEWDIN ATOMIC CHARGES
----------------------
   0 C :   -0.145974
   1 C :   -0.051585
   2 H :    0.129264
   3 C :   -0.072758
   4 H :    0.099433
   5 C :   -0.090785
   6 H :    0.124353
   7 C :   -0.086839
   8 H :    0.099114
   9 C :    0.000533
  10 H :    0.107063
  11 O :   -0.141370
  12 O :   -0.302477
  13 O :   -0.318807
  14 O :   -0.310915
  15 O :   -0.316916
  16 O :   -0.340840
  17 H :    0.099499
  18 H :    0.097780
  19 H :    0.287259
  20 H :    0.279235
  21 H :    0.283789
  22 H :    0.282617
  23 H :    0.289329

  Mayer bond orders larger than 0.100000
B(  0-C ,  1-C ) :   1.0533 B(  0-C , 16-O ) :   1.0671 B(  0-C , 17-H ) :   0.9113
B(  0-C , 18-H ) :   0.9021 B(  1-C ,  2-H ) :   0.8830 B(  1-C ,  3-C ) :   0.9918
B(  1-C , 11-O ) :   1.0355 B(  3-C ,  4-H ) :   0.8757 B(  3-C ,  5-C ) :   1.0252
B(  3-C , 15-O ) :   1.0720 B(  5-C ,  6-H ) :   0.8488 B(  5-C ,  7-C ) :   1.0162
B(  5-C , 14-O ) :   1.0131 B(  7-C ,  8-H ) :   0.8730 B(  7-C ,  9-C ) :   0.9834
B(  7-C , 13-O ) :   1.0954 B(  9-C , 10-H ) :   0.8867 B(  9-C , 11-O ) :   1.0558
B(  9-C , 12-O ) :   1.1324 B( 12-O , 19-H ) :   0.8415 B( 13-O , 20-H ) :   0.8277
B( 14-O , 21-H ) :   0.8449 B( 15-O , 22-H ) :   0.8423 B( 16-O , 23-H ) :   0.8498

Dispersion correction           -0.024534278
FINAL SINGLE POINT ENERGY      -685.689857223972

DIPOLE MOMENT
-------------

Method             : SCF
Type of density    : Electron Density
Multiplicity       :   1
Irrep              :   0
Energy             :  -685.8198288508837095 Eh
Relativity type    :
Basis              : AO
                                X                 Y                 Z
Electronic contribution:      1.464579235       0.724282996       1.755342549
Nuclear contribution   :     -1.648586562      -0.981554663      -2.657638608
                        -----------------------------------------
Total Dipole Moment    :     -0.184007328      -0.257271667      -0.902296060
                        -----------------------------------------
Magnitude (a.u.)       :      0.956130528
Magnitude (Debye)      :      2.430290664

Rotational constants in cm-1:             0.036616             0.029301             0.019772
Rotational constants in MHz :          1097.714228           878.423274           592.738701

                             ****ORCA TERMINATED NORMALLY****
TOTAL RUN TIME: 0 days 0 hours 0 minutes 11 seconds 951 msec
