                         Program Version 6.0.0  -   RELEASE  -
|  1> ! wb97x-v def2-tzvp def2/J RIJCOSX DEFGRID2 scfconv7 GCP(DFT/TZ) printgap
|  2> %output
|  3>     printlevel normal
|  4> end
|  5> * xyz 0 1
|  6> C -1.8545450607823908 -2.2075237061081182e-05 -0.8047164524840436
|  7> N -1.139687827429522 -1.031037653949967e-05 0.4775842260644031
|  8> C -0.29707119694343137 1.2058986388679553 0.6201620663317825
|  9> C 0.9176947394870162 1.2543080130411504 -0.3105763068030662
| 10> C 1.7750229896431604 1.6910527165547806e-05 -0.12862150425614371
| 11> C 0.9177166844880146 -1.2542867311725303 -0.31058793257128414
| 12> C -0.297035957490506 -1.205894087293426 0.6201659295839552
| 13> H -2.497286092054499 0.8851960134597612 -0.8611827969863656
| 14> H -2.4971630611201285 -0.8853255843894114 -0.861231984174476
| 15> H -1.210319934836627 4.768686924840371e-05 -1.6977302981728906
| 16> H -0.9317363490525828 2.0870472000882887 0.4698370494866897
| 17> H 0.05987533488864022 1.2372656615775128 1.6593343389690345
| 18> H 0.5924999195639881 1.3338268238421938 -1.3555393534507578
| 19> H 1.4989632440192953 2.15767276448817 -0.08948866130983904
| 20> H 2.6185356078350983 2.6357331228583653e-05 -0.8284854611999429
| 21> H 2.1980462553652598 1.605888703192257e-05 0.8864925184950168
| 22> H 0.5925054776673918 -1.3337944178531433 -1.3555470791777577
| 23> H 1.4990019902669571 -2.1576454759564374 -0.08952100459121544
| 24> H -0.9316784251076866 -2.0870621117654413 0.469862025930585
| 25> H 0.05992457531803708 -1.2372376278415942 1.6593343832739944
| 26> *
| 27>
| 28>                          ****END OF INPUT****

CARTESIAN COORDINATES (ANGSTROEM)
---------------------------------
  C     -1.854545   -0.000022   -0.804716
  N     -1.139688   -0.000010    0.477584
  C     -0.297071    1.205899    0.620162
  C      0.917695    1.254308   -0.310576
  C      1.775023    0.000017   -0.128622
  C      0.917717   -1.254287   -0.310588
  C     -0.297036   -1.205894    0.620166
  H     -2.497286    0.885196   -0.861183
  H     -2.497163   -0.885326   -0.861232
  H     -1.210320    0.000048   -1.697730
  H     -0.931736    2.087047    0.469837
  H      0.059875    1.237266    1.659334
  H      0.592500    1.333827   -1.355539
  H      1.498963    2.157673   -0.089489
  H      2.618536    0.000026   -0.828485
  H      2.198046    0.000016    0.886493
  H      0.592505   -1.333794   -1.355547
  H      1.499002   -2.157645   -0.089521
  H     -0.931678   -2.087062    0.469862
  H      0.059925   -1.237238    1.659334

 Total Charge           Charge          ....    0
 Multiplicity           Mult            ....    1
 Number of Electrons    NEL             ....   56
 Basis Dimension        Dim             ....  295

ORBITAL ENERGIES
----------------

  NO   OCC          E(Eh)            E(eV)
   0   2.0000     -16.511716      -449.3066
   1   2.0000     -12.060912      -328.1941
   2   2.0000     -12.060664      -328.1873
   3   2.0000     -12.056161      -328.0648
   4   2.0000     -12.039715      -327.6173
   5   2.0000     -12.036923      -327.5413
   6   2.0000     -12.036544      -327.5310
   7   2.0000      -1.475359       -40.1466
   8   2.0000      -1.302994       -35.4563
   9   2.0000      -1.258224       -34.2380
  10   2.0000      -1.197194       -32.5773
  11   2.0000      -1.116544       -30.3827
  12   2.0000      -1.105831       -30.0912
  13   2.0000      -1.012653       -27.5557
  14   2.0000      -0.934372       -25.4256
  15   2.0000      -0.921315       -25.0703
  16   2.0000      -0.897303       -24.4168
  17   2.0000      -0.880086       -23.9484
  18   2.0000      -0.860788       -23.4232
  19   2.0000      -0.852191       -23.1893
  20   2.0000      -0.820772       -22.3343
  21   2.0000      -0.809636       -22.0313
  22   2.0000      -0.801210       -21.8020
  23   2.0000      -0.784145       -21.3377
  24   2.0000      -0.774742       -21.0818
  25   2.0000      -0.763828       -20.7848
  26   2.0000      -0.746148       -20.3037
  27   2.0000      -0.691629       -18.8202
  28   0.0000      -0.097415        -2.6508
  29   0.0000      -0.055837        -1.5194
  30   0.0000      -0.046123        -1.2551
  31   0.0000      -0.032055        -0.8723
  32   0.0000      -0.022187        -0.6037

MULLIKEN ATOMIC CHARGES
-----------------------
   0 C :   -0.307843
   1 N :   -0.118875
   2 C :   -0.164841
   3 C :   -0.214273
   4 C :   -0.160935
   5 C :   -0.214279
   6 C :   -0.164791
   7 H :    0.117206
   8 H :    0.117205
   9 H :    0.098213
  10 H :    0.107903
  11 H :    0.101653
  12 H :    0.102867
  13 H :    0.100097
  14 H :    0.099453
  15 H :    0.088727
  16 H :    0.102862
  17 H :    0.100117
  18 H :    0.107900
  19 H :    0.101635
Sum of atomic charges:    0.0000000

LOEWDIN ATOMIC CHARGES
----------------------
   0 C :   -0.320674
   1 N :    0.055400
   2 C :   -0.280922
   3 C :   -0.269030
   4 C :   -0.262638
   5 C :   -0.269030
   6 C :   -0.280922
   7 H :    0.112677
   8 H :    0.112678
   9 H :    0.095697
  10 H :    0.127799
  11 H :    0.130493
  12 H :    0.130962
  13 H :    0.132710
  14 H :    0.129344
  15 H :    0.133489
  16 H :    0.130963
  17 H :    0.132710
  18 H :    0.127798
  19 H :    0.130494

  Mayer bond orders larger than 0.100000
B(  0-C ,  1-N ) :   0.9786 B(  0-C ,  7-H ) :   0.9809 B(  0-C ,  8-H ) :   0.9809
B(  0-C ,  9-H ) :   0.9749 B(  1-N ,  2-C ) :   0.9994 B(  1-N ,  6-C ) :   0.9994
B(  2-C ,  3-C ) :   0.9700 B(  2-C , 10-H ) :   0.9877 B(  2-C , 11-H ) :   0.9820
B(  3-C ,  4-C ) :   0.9688 B(  3-C , 12-H ) :   0.9811 B(  3-C , 13-H ) :   0.9743
B(  4-C ,  5-C ) :   0.9688 B(  4-C , 14-H ) :   0.9754 B(  4-C , 15-H ) :   0.9773
B(  5-C ,  6-C ) :   0.9700 B(  5-C , 16-H ) :   0.9811 B(  5-C , 17-H ) :   0.9743
B(  6-C , 18-H ) :   0.9876 B(  6-C , 19-H ) :   0.9819

FINAL SINGLE POINT ENERGY      -291.221682703429

DIPOLE MOMENT
-------------

Method             : SCF
Type of density    : Electron Density
Multiplicity       :   1
Irrep              :   0
Energy             :  -291.2361652992291283 Eh
Relativity type    :
Basis              : AO
                                X                 Y                 Z
Electronic contribution:     -0.798777207      -0.000012115       1.701873643
Nuclear contribution   :      1.096767895       0.000014320      -1.979453664
                        -----------------------------------------
Total Dipole Moment    :      0.297990687       0.000002204      -0.277580021
                        -----------------------------------------
Magnitude (a.u.)       :      0.407245771
Magnitude (Debye)      :      1.035136486

Rotational constants in cm-1:             0.122632             0.088337             0.066986
Rotational constants in MHz :          3676.424400          2648.273065          2008.199598

                             ****ORCA TERMINATED NORMALLY****
TOTAL RUN TIME: 0 days 0 hours 2 minutes 38 seconds 770 msec
