                         Program Version 6.0.0  -   RELEASE  -
|  1> ! wb97x-v def2-tzvp def2/J RIJCOSX DEFGRID2 scfconv7 GCP(DFT/TZ) printgap
|  2> %output
|  3>     printlevel normal
|  4> end
|  5> %cpcm
|  6>     smd true
|  7>     smdsolvent "water"
|  8> end
|  9> * xyz 0 1
| 10> C -1.8545450607823908 -2.2075237061081182e-05 -0.8047164524840436
| 11> N -1.139687827429522 -1.031037653949967e-05 0.4775842260644031
| 12> C -0.29707119694343137 1.2058986388679553 0.6201620663317825
| 13> C 0.9176947394870162 1.2543080130411504 -0.3105763068030662
| 14> C 1.7750229896431604 1.6910527165547806e-05 -0.12862150425614371
| 15> C 0.9177166844880146 -1.2542867311725303 -0.31058793257128414
| 16> C -0.297035957490506 -1.205894087293426 0.6201659295839552
| 17> H -2.497286092054499 0.8851960134597612 -0.8611827969863656
| 18> H -2.4971630611201285 -0.8853255843894114 -0.861231984174476
| 19> H -1.210319934836627 4.768686924840371e-05 -1.6977302981728906
| 20> H -0.9317363490525828 2.0870472000882887 0.4698370494866897
| 21> H 0.05987533488864022 1.2372656615775128 1.6593343389690345
| 22> H 0.5924999195639881 1.3338268238421938 -1.3555393534507578
| 23> H 1.4989632440192953 2.15767276448817 -0.08948866130983904
| 24> H 2.6185356078350983 2.6357331228583653e-05 -0.8284854611999429
| 25> H 2.1980462553652598 1.605888703192257e-05 0.8864925184950168
| 26> H 0.5925054776673918 -1.3337944178531433 -1.3555470791777577
| 27> H 1.4990019902669571 -2.1576454759564374 -0.08952100459121544
| 28> H -0.9316784251076866 -2.0870621117654413 0.469862025930585
| 29> H 0.05992457531803708 -1.2372376278415942 1.6593343832739944
| 30> *
| 31>
| 32>                          ****END OF INPUT****

CARTESIAN COORDINATES (ANGSTROEM)
---------------------------------
  C     -1.854545   -0.000022   -0.804716
  N     -1.139688   -0.000010    0.477584
  C     -0.297071    1.205899    0.620162
  C      0.917695    1.254308   -0.310576
  C      1.775023    0.000017   -0.128622
  C      0.917717   -1.254287   -0.310588
  C     -0.297036   -1.205894    0.620166
  H     -2.497286    0.885196   -0.861183
  H     -2.497163   -0.885326   -0.861232
  H     -1.210320    0.000048   -1.697730
  H     -0.931736    2.087047    0.469837
  H      0.059875    1.237266    1.659334
  H      0.592500    1.333827   -1.355539
  H      1.498963    2.157673   -0.089489
  H      2.618536    0.000026   -0.828485
  H      2.198046    0.000016    0.886493
  H      0.592505   -1.333794   -1.355547
  H      1.499002   -2.157645   -0.089521
  H     -0.931678   -2.087062    0.469862
  H      0.059925   -1.237238    1.659334

 Total Charge           Charge          ....    0
 Multiplicity           Mult            ....    1
 Number of Electrons    NEL             ....   56
 Basis Dimension        Dim             ....  295

ORBITAL ENERGIES
----------------

  NO   OCC          E(Eh)            E(eV)
   0   2.0000     -16.510131      -449.2635
   1   2.0000     -12.053648      -327.9964
   2   2.0000     -12.053405      -327.9898
   3   2.0000     -12.048085      -327.8450
   4   2.0000     -12.029497      -327.3393
   5   2.0000     -12.027166      -327.2758
   6   2.0000     -12.026746      -327.2644
   7   2.0000      -1.471856       -40.0512
   8   2.0000      -1.293906       -35.2090
   9   2.0000      -1.250454       -34.0266
  10   2.0000      -1.190715       -32.4010
  11   2.0000      -1.109251       -30.1843
  12   2.0000      -1.097761       -29.8716
  13   2.0000      -1.004434       -27.3320
  14   2.0000      -0.927982       -25.2517
  15   2.0000      -0.915047       -24.8997
  16   2.0000      -0.890532       -24.2326
  17   2.0000      -0.871530       -23.7155
  18   2.0000      -0.852022       -23.1847
  19   2.0000      -0.843948       -22.9650
  20   2.0000      -0.812699       -22.1147
  21   2.0000      -0.801647       -21.8139
  22   2.0000      -0.793559       -21.5938
  23   2.0000      -0.775828       -21.1114
  24   2.0000      -0.766138       -20.8477
  25   2.0000      -0.755169       -20.5492
  26   2.0000      -0.736404       -20.0386
  27   2.0000      -0.688648       -18.7391
  28   0.0000      -0.091569        -2.4917
  29   0.0000      -0.050342        -1.3699
  30   0.0000      -0.039822        -1.0836
  31   0.0000      -0.020438        -0.5561
  32   0.0000      -0.014243        -0.3876

MULLIKEN ATOMIC CHARGES
-----------------------
   0 C :   -0.344753
   1 N :   -0.192068
   2 C :   -0.170475
   3 C :   -0.236349
   4 C :   -0.187880
   5 C :   -0.236359
   6 C :   -0.170421
   7 H :    0.134298
   8 H :    0.134300
   9 H :    0.122129
  10 H :    0.124784
  11 H :    0.114066
  12 H :    0.116112
  13 H :    0.113815
  14 H :    0.111053
  15 H :    0.098973
  16 H :    0.116107
  17 H :    0.113836
  18 H :    0.124782
  19 H :    0.114048
Sum of atomic charges:    0.0000000

LOEWDIN ATOMIC CHARGES
----------------------
   0 C :   -0.325542
   1 N :    0.033964
   2 C :   -0.284975
   3 C :   -0.269524
   4 C :   -0.264992
   5 C :   -0.269524
   6 C :   -0.284975
   7 H :    0.115238
   8 H :    0.115240
   9 H :    0.102821
  10 H :    0.130775
  11 H :    0.132333
  12 H :    0.134332
  13 H :    0.135373
  14 H :    0.130985
  15 H :    0.135657
  16 H :    0.134333
  17 H :    0.135373
  18 H :    0.130775
  19 H :    0.132333

  Mayer bond orders larger than 0.100000
B(  0-C ,  1-N ) :   0.9687 B(  0-C ,  7-H ) :   0.9763 B(  0-C ,  8-H ) :   0.9763
B(  0-C ,  9-H ) :   0.9759 B(  1-N ,  2-C ) :   0.9899 B(  1-N ,  6-C ) :   0.9899
B(  2-C ,  3-C ) :   0.9724 B(  2-C , 10-H ) :   0.9812 B(  2-C , 11-H ) :   0.9788
B(  3-C ,  4-C ) :   0.9705 B(  3-C , 12-H ) :   0.9785 B(  3-C , 13-H ) :   0.9705
B(  4-C ,  5-C ) :   0.9706 B(  4-C , 14-H ) :   0.9731 B(  4-C , 15-H ) :   0.9759
B(  5-C ,  6-C ) :   0.9725 B(  5-C , 16-H ) :   0.9785 B(  5-C , 17-H ) :   0.9705
B(  6-C , 18-H ) :   0.9812 B(  6-C , 19-H ) :   0.9788

FINAL SINGLE POINT ENERGY      -291.228523563809

DIPOLE MOMENT
-------------

Method             : SCF
Type of density    : Electron Density
Multiplicity       :   1
Irrep              :   0
Energy             :  -291.2430061596091946 Eh
Relativity type    :
Basis              : AO
                                X                 Y                 Z
Electronic contribution:     -0.667081919      -0.000011929       1.553610562
Nuclear contribution   :      1.096767895       0.000014320      -1.979453664
                        -----------------------------------------
Total Dipole Moment    :      0.429685975       0.000002390      -0.425843103
                        -----------------------------------------
Magnitude (a.u.)       :      0.604956515
Magnitude (Debye)      :      1.537677261

Rotational constants in cm-1:             0.122632             0.088337             0.066986
Rotational constants in MHz :          3676.424400          2648.273065          2008.199598

                             ****ORCA TERMINATED NORMALLY****
TOTAL RUN TIME: 0 days 0 hours 2 minutes 33 seconds 120 msec
