                         Program Version 6.0.0  -   RELEASE  -
|  1> ! pbe def2-sv(p) def2/J RI DEFGRID1 loosescf d4 GCP(DFT/SV(P)) printgap
|  2> %output
|  3>     printlevel normal
|  4> end
|  5> * xyz 0 1
|  6> C -2.358215257 -1.0087944484 0.3820507337
|  7> C -1.08085785 -0.2545865893 0.803484695
|  8> H -1.2937539257 0.2176824806 1.7708168216
|  9> C -0.6801276568 0.8532943634 -0.1762242573
| 10> H -0.6901964371 0.4732235492 -1.2106223799
| 11> C 0.752184927 1.2964107446 0.1614840778
| 12> H 0.7975364011 1.5575275988 1.2252434299
| 13> C 1.7265524431 0.1369531914 -0.1039908147
| 14> H 2.0485742465 0.1647335866 -1.1570037624
| 15> C 1.0042103837 -1.2134908259 0.0859459817
| 16> H 1.728081115 -1.9327536912 0.5012674288
| 17> O -0.0081789263 -1.1681659631 1.0468173666
| 18> O 0.5484907605 -1.6190727311 -1.1683566749
| 19> O 2.8382992545 0.1613445421 0.7516122311
| 20> O 1.0910519903 2.4727725458 -0.5305094422
| 21> O -1.592834572 1.9151692487 -0.0525635474
| 22> O -2.2547503774 -1.6879770027 -0.8459234848
| 23> H -3.1826962866 -0.2898361322 0.3739339821
| 24> H -2.5526988258 -1.7772273274 1.1333838185
| 25> H -0.141461844 -2.2984191373 -1.0603401879
| 26> H 3.3074052021 1.0032846429 0.6458379407
| 27> H 1.1629486615 2.2886140758 -1.479646185
| 28> H -1.1170125625 2.7452783988 -0.2235513477
| 29> H -2.3594551095 -1.0611572308 -1.5743724188
| 30> *
| 31>
| 32>                          ****END OF INPUT****

CARTESIAN COORDINATES (ANGSTROEM)
---------------------------------
  C     -2.358215   -1.008794    0.382051
  C     -1.080858   -0.254587    0.803485
  H     -1.293754    0.217682    1.770817
  C     -0.680128    0.853294   -0.176224
  H     -0.690196    0.473224   -1.210622
  C      0.752185    1.296411    0.161484
  H      0.797536    1.557528    1.225243
  C      1.726552    0.136953   -0.103991
  H      2.048574    0.164734   -1.157004
  C      1.004210   -1.213491    0.085946
  H      1.728081   -1.932754    0.501267
  O     -0.008179   -1.168166    1.046817
  O      0.548491   -1.619073   -1.168357
  O      2.838299    0.161345    0.751612
  O      1.091052    2.472773   -0.530509
  O     -1.592835    1.915169   -0.052564
  O     -2.254750   -1.687977   -0.845923
  H     -3.182696   -0.289836    0.373934
  H     -2.552699   -1.777227    1.133384
  H     -0.141462   -2.298419   -1.060340
  H      3.307405    1.003285    0.645838
  H      1.162949    2.288614   -1.479646
  H     -1.117013    2.745278   -0.223551
  H     -2.359455   -1.061157   -1.574372

 Total Charge           Charge          ....    0
 Multiplicity           Mult            ....    1
 Number of Electrons    NEL             ....   96
 Basis Dimension        Dim             ....  192

ORBITAL ENERGIES
----------------

  NO   OCC          E(Eh)            E(eV)
   0   2.0000     -18.775529      -510.9081
   1   2.0000     -18.765104      -510.6244
   2   2.0000     -18.764777      -510.6155
   3   2.0000     -18.754837      -510.3451
   4   2.0000     -18.752671      -510.2861
   5   2.0000     -18.751926      -510.2658
   6   2.0000      -9.981325      -271.6057
   7   2.0000      -9.949079      -270.7282
   8   2.0000      -9.945009      -270.6175
   9   2.0000      -9.944318      -270.5986
  10   2.0000      -9.943658      -270.5807
  11   2.0000      -9.934884      -270.3419
  12   2.0000      -0.979450       -26.6522
  13   2.0000      -0.958002       -26.0686
  14   2.0000      -0.936990       -25.4968
  15   2.0000      -0.930573       -25.3222
  16   2.0000      -0.922692       -25.1077
  17   2.0000      -0.902960       -24.5708
  18   2.0000      -0.707268       -19.2457
  19   2.0000      -0.693134       -18.8611
  20   2.0000      -0.626707       -17.0536
  21   2.0000      -0.589917       -16.0525
  22   2.0000      -0.568909       -15.4808
  23   2.0000      -0.522201       -14.2098
  24   2.0000      -0.511923       -13.9301
  25   2.0000      -0.481070       -13.0906
  26   2.0000      -0.478983       -13.0338
  27   2.0000      -0.461149       -12.5485
  28   2.0000      -0.448596       -12.2069
  29   2.0000      -0.431480       -11.7412
  30   2.0000      -0.414160       -11.2699
  31   2.0000      -0.399562       -10.8726
  32   2.0000      -0.392056       -10.6684
  33   2.0000      -0.378363       -10.2958
  34   2.0000      -0.369661       -10.0590
  35   2.0000      -0.355009        -9.6603
  36   2.0000      -0.332883        -9.0582
  37   2.0000      -0.317942        -8.6516
  38   2.0000      -0.304161        -8.2767
  39   2.0000      -0.296743        -8.0748
  40   2.0000      -0.294505        -8.0139
  41   2.0000      -0.265313        -7.2195
  42   2.0000      -0.258282        -7.0282
  43   2.0000      -0.251086        -6.8324
  44   2.0000      -0.238638        -6.4937
  45   2.0000      -0.223946        -6.0939
  46   2.0000      -0.213430        -5.8077
  47   2.0000      -0.205054        -5.5798
  48   0.0000       0.008377         0.2279
  49   0.0000       0.018931         0.5151
  50   0.0000       0.039739         1.0813
  51   0.0000       0.048277         1.3137
  52   0.0000       0.053580         1.4580

MULLIKEN ATOMIC CHARGES
-----------------------
   0 C :    0.060396
   1 C :    0.067583
   2 H :    0.069785
   3 C :    0.007834
   4 H :    0.034664
   5 C :    0.008708
   6 H :    0.070024
   7 C :    0.098779
   8 H :    0.054500
   9 C :    0.160857
  10 H :    0.072640
  11 O :   -0.309938
  12 O :   -0.420301
  13 O :   -0.409617
  14 O :   -0.422239
  15 O :   -0.417476
  16 O :   -0.437500
  17 H :    0.091836
  18 H :    0.094526
  19 H :    0.303929
  20 H :    0.305771
  21 H :    0.302587
  22 H :    0.300917
  23 H :    0.311734
Sum of atomic charges:   -0.0000000

LOEWDIN ATOMIC CHARGES
----------------------
   0 C :   -0.131085
   1 C :   -0.066443
   2 H :    0.121134
   3 C :   -0.092313
   4 H :    0.090096
   5 C :   -0.084634
   6 H :    0.123024
   7 C :   -0.082037
   8 H :    0.103352
   9 C :    0.003837
  10 H :    0.103399
  11 O :   -0.139732
  12 O :   -0.324503
  13 O :   -0.314260
  14 O :   -0.311533
  15 O :   -0.326962
  16 O :   -0.321281
  17 H :    0.112418
  18 H :    0.118883
  19 H :    0.274882
  20 H :    0.289000
  21 H :    0.285616
  22 H :    0.279948
  23 H :    0.289193

  Mayer bond orders larger than 0.100000
B(  0-C ,  1-C ) :   1.0343 B(  0-C , 16-O ) :   1.0703 B(  0-C , 17-H ) :   0.9165
B(  0-C , 18-H ) :   0.9187 B(  1-C ,  2-H ) :   0.8705 B(  1-C ,  3-C ) :   0.9768
B(  1-C , 11-O ) :   0.9691 B(  3-C ,  4-H ) :   0.8523 B(  3-C ,  5-C ) :   1.0584
B(  3-C , 15-O ) :   1.0855 B(  5-C ,  6-H ) :   0.8445 B(  5-C ,  7-C ) :   1.0203
B(  5-C , 14-O ) :   1.0132 B(  7-C ,  8-H ) :   0.8758 B(  7-C ,  9-C ) :   0.9834
B(  7-C , 13-O ) :   1.0914 B(  9-C , 10-H ) :   0.8928 B(  9-C , 11-O ) :   1.0874
B(  9-C , 12-O ) :   1.0824 B( 12-O , 19-H ) :   0.8018 B( 13-O , 20-H ) :   0.8458
B( 14-O , 21-H ) :   0.8451 B( 15-O , 22-H ) :   0.8223 B( 16-O , 23-H ) :   0.8405

Dispersion correction           -0.025043306
FINAL SINGLE POINT ENERGY      -685.696120632005

DIPOLE MOMENT
-------------

Method             : SCF
Type of density    : Electron Density
Multiplicity       :   1
Irrep              :   0
Energy             :  -685.8279862814576973 Eh
Relativity type    :
Basis              : AO
                                X                 Y                 Z
Electronic contribution:      2.136268845      -0.260468798       0.274725819
Nuclear contribution   :     -2.141754408       1.024594773      -1.001654712
                        -----------------------------------------
Total Dipole Moment    :     -0.005485563       0.764125975      -0.726928894
                        -----------------------------------------
Magnitude (a.u.)       :      1.054677303
Magnitude (Debye)      :      2.680776658

Rotational constants in cm-1:             0.042120             0.028246             0.020562
Rotational constants in MHz :          1262.711137           846.793093           616.419907

                             ****ORCA TERMINATED NORMALLY****
TOTAL RUN TIME: 0 days 0 hours 0 minutes 12 seconds 40 msec
