                         Program Version 6.0.0  -   RELEASE  -
|  1> ! pbe def2-sv(p) def2/J RI DEFGRID1 loosescf d4 GCP(DFT/SV(P)) printgap
|  2> %output
|  3>     printlevel normal
|  4> end
|  5> * xyz 0 1
|  6> C -2.5047823419 -1.0647009587 0.2778855257
|  7> C -1.0732550412 -0.5611207398 0.5632508951
|  8> H -0.9330099664 -0.5000310013 1.6533457571
|  9> C -0.8094635885 0.8235831524 -0.0447258995
| 10> H -0.941709917 0.7474500964 -1.1367380071
| 11> C 0.6436939601 1.2366737892 0.245451895
| 12> H 0.7738220825 1.3244749597 1.3319051155
| 13> C 1.5863204211 0.1560729635 -0.3056229768
| 14> H 1.4544802546 0.0812626994 -1.3920027288
| 15> C 1.191868956 -1.2033471934 0.3250888726
| 16> H 1.3333949443 -1.1482542154 1.4192340324
| 17> O -0.1564596545 -1.4987056584 0.0293733488
| 18> O 1.977241355 -2.24848639 -0.1063288897
| 19> O 2.9404890897 0.460724961 -0.1224605798
| 20> O 0.9090431889 2.5221620046 -0.2593174904
| 21> O -1.7260032349 1.742462919 0.4937206595
| 22> O -3.0603944749 -0.5840270337 -0.9163230532
| 23> H -3.1408191104 -0.803526607 1.128893978
| 24> H -2.4550407951 -2.1507788675 0.1797263623
| 25> H 1.7716504026 -2.4551584528 -1.0315528689
| 26> H 3.158844006 0.4899334559 0.8197572843
| 27> H 1.112552262 2.4757677444 -1.2045599724
| 28> H -1.3673609694 2.636325118 0.370353982
| 29> H -3.2909589153 0.3492189764 -0.79573676
| 30> *
| 31>
| 32>                          ****END OF INPUT****

CARTESIAN COORDINATES (ANGSTROEM)
---------------------------------
  C     -2.504782   -1.064701    0.277886
  C     -1.073255   -0.561121    0.563251
  H     -0.933010   -0.500031    1.653346
  C     -0.809464    0.823583   -0.044726
  H     -0.941710    0.747450   -1.136738
  C      0.643694    1.236674    0.245452
  H      0.773822    1.324475    1.331905
  C      1.586320    0.156073   -0.305623
  H      1.454480    0.081263   -1.392003
  C      1.191869   -1.203347    0.325089
  H      1.333395   -1.148254    1.419234
  O     -0.156460   -1.498706    0.029373
  O      1.977241   -2.248486   -0.106329
  O      2.940489    0.460725   -0.122461
  O      0.909043    2.522162   -0.259317
  O     -1.726003    1.742463    0.493721
  O     -3.060394   -0.584027   -0.916323
  H     -3.140819   -0.803527    1.128894
  H     -2.455041   -2.150779    0.179726
  H      1.771650   -2.455158   -1.031553
  H      3.158844    0.489933    0.819757
  H      1.112552    2.475768   -1.204560
  H     -1.367361    2.636325    0.370354
  H     -3.290959    0.349219   -0.795737

 Total Charge           Charge          ....    0
 Multiplicity           Mult            ....    1
 Number of Electrons    NEL             ....   96
 Basis Dimension        Dim             ....  192

ORBITAL ENERGIES
----------------

  NO   OCC          E(Eh)            E(eV)
   0   2.0000     -18.774102      -510.8693
   1   2.0000     -18.768320      -510.7119
   2   2.0000     -18.764106      -510.5973
   3   2.0000     -18.762433      -510.5518
   4   2.0000     -18.758943      -510.4568
   5   2.0000     -18.746582      -510.1204
   6   2.0000      -9.992836      -271.9189
   7   2.0000      -9.951955      -270.8065
   8   2.0000      -9.950532      -270.7677
   9   2.0000      -9.947078      -270.6737
  10   2.0000      -9.946402      -270.6554
  11   2.0000      -9.930988      -270.2359
  12   2.0000      -0.987389       -26.8682
  13   2.0000      -0.956558       -26.0293
  14   2.0000      -0.941548       -25.6208
  15   2.0000      -0.926791       -25.2193
  16   2.0000      -0.923045       -25.1173
  17   2.0000      -0.915766       -24.9193
  18   2.0000      -0.709415       -19.3042
  19   2.0000      -0.692644       -18.8478
  20   2.0000      -0.618836       -16.8394
  21   2.0000      -0.591321       -16.0907
  22   2.0000      -0.579357       -15.7651
  23   2.0000      -0.541441       -14.7334
  24   2.0000      -0.506749       -13.7893
  25   2.0000      -0.499793       -13.6001
  26   2.0000      -0.465824       -12.6757
  27   2.0000      -0.459033       -12.4909
  28   2.0000      -0.454311       -12.3624
  29   2.0000      -0.438061       -11.9202
  30   2.0000      -0.430094       -11.7035
  31   2.0000      -0.418137       -11.3781
  32   2.0000      -0.389331       -10.5942
  33   2.0000      -0.367095        -9.9892
  34   2.0000      -0.365056        -9.9337
  35   2.0000      -0.353868        -9.6292
  36   2.0000      -0.328287        -8.9331
  37   2.0000      -0.319199        -8.6858
  38   2.0000      -0.309724        -8.4280
  39   2.0000      -0.301405        -8.2017
  40   2.0000      -0.290859        -7.9147
  41   2.0000      -0.275517        -7.4972
  42   2.0000      -0.258790        -7.0420
  43   2.0000      -0.252619        -6.8741
  44   2.0000      -0.239665        -6.5216
  45   2.0000      -0.225037        -6.1236
  46   2.0000      -0.218195        -5.9374
  47   2.0000      -0.206827        -5.6280
  48   0.0000       0.006755         0.1838
  49   0.0000       0.019734         0.5370
  50   0.0000       0.025424         0.6918
  51   0.0000       0.042538         1.1575
  52   0.0000       0.051317         1.3964

MULLIKEN ATOMIC CHARGES
-----------------------
   0 C :    0.082259
   1 C :    0.024936
   2 H :    0.051904
   3 C :    0.028875
   4 H :    0.046961
   5 C :    0.045444
   6 H :    0.051116
   7 C :    0.035906
   8 H :    0.044816
   9 C :    0.177677
  10 H :    0.038407
  11 O :   -0.302100
  12 O :   -0.365416
  13 O :   -0.395945
  14 O :   -0.409084
  15 O :   -0.425440
  16 O :   -0.434385
  17 H :    0.080513
  18 H :    0.094760
  19 H :    0.306072
  20 H :    0.300819
  21 H :    0.306009
  22 H :    0.308572
  23 H :    0.307323
Sum of atomic charges:   -0.0000000

LOEWDIN ATOMIC CHARGES
----------------------
   0 C :   -0.121887
   1 C :   -0.065614
   2 H :    0.104283
   3 C :   -0.089798
   4 H :    0.097851
   5 C :   -0.090301
   6 H :    0.109892
   7 C :   -0.103699
   8 H :    0.110393
   9 C :   -0.004746
  10 H :    0.091491
  11 O :   -0.151209
  12 O :   -0.282720
  13 O :   -0.304417
  14 O :   -0.310152
  15 O :   -0.324977
  16 O :   -0.331180
  17 H :    0.105299
  18 H :    0.122549
  19 H :    0.291537
  20 H :    0.288334
  21 H :    0.290199
  22 H :    0.285928
  23 H :    0.282945

  Mayer bond orders larger than 0.100000
B(  0-C ,  1-C ) :   0.9969 B(  0-C , 16-O ) :   1.1133 B(  0-C , 17-H ) :   0.9219
B(  0-C , 18-H ) :   0.9189 B(  1-C ,  2-H ) :   0.8711 B(  1-C ,  3-C ) :   1.0225
B(  1-C , 11-O ) :   0.9901 B(  3-C ,  4-H ) :   0.8535 B(  3-C ,  5-C ) :   1.0040
B(  3-C , 15-O ) :   1.0645 B(  5-C ,  6-H ) :   0.8686 B(  5-C ,  7-C ) :   0.9962
B(  5-C , 14-O ) :   1.0605 B(  7-C ,  8-H ) :   0.8531 B(  7-C ,  9-C ) :   0.9583
B(  7-C , 13-O ) :   1.0741 B(  9-C , 10-H ) :   0.8757 B(  9-C , 11-O ) :   1.0110
B(  9-C , 12-O ) :   1.1677 B( 12-O , 19-H ) :   0.8421 B( 13-O , 20-H ) :   0.8480
B( 14-O , 21-H ) :   0.8452 B( 15-O , 22-H ) :   0.8264 B( 16-O , 23-H ) :   0.8338

Dispersion correction           -0.023988362
FINAL SINGLE POINT ENERGY      -685.695341960341

DIPOLE MOMENT
-------------

Method             : SCF
Type of density    : Electron Density
Multiplicity       :   1
Irrep              :   0
Energy             :  -685.8252669432420134 Eh
Relativity type    :
Basis              : AO
                                X                 Y                 Z
Electronic contribution:      2.447810869      -0.314565408      -1.175299510
Nuclear contribution   :     -2.354992701       0.987806411       1.246555212
                        -----------------------------------------
Total Dipole Moment    :      0.092818168       0.673241003       0.071255702
                        -----------------------------------------
Magnitude (a.u.)       :      0.683334497
Magnitude (Debye)      :      1.736898258

Rotational constants in cm-1:             0.041284             0.025825             0.017247
Rotational constants in MHz :          1237.668357           774.219315           517.052758

                             ****ORCA TERMINATED NORMALLY****
TOTAL RUN TIME: 0 days 0 hours 0 minutes 11 seconds 724 msec
