                         Program Version 6.0.0  -   RELEASE  -
|  1> ! r2scan-3c def2/J RI DEFGRID2 scfconv6 printgap
|  2> %output
|  3>     printlevel normal
|  4> end
|  5> * xyz 0 1
|  6> C -1.9495715491 0.4986926295 0.0641527175
|  7> C -0.9010231016 -0.5900079916 -0.1222987486
|  8> C 0.5507935734 -0.163678443 -0.0238816085
|  9> O 1.4574615791 -0.9809496166 -0.1857818204
| 10> N 0.8037469584 1.1205039054 0.244059419
| 11> H -2.938705641 0.0602109062 -0.04113151
| 12> H -1.8858382146 0.9399523418 1.0556665826
| 13> H -1.8476233373 1.274595421 -0.6904802206
| 14> H -1.0153137987 -1.0635731436 -1.1002870878
| 15> H -1.0388945068 -1.3799755296 0.6199450196
| 16> H 0.0644542264 1.7875880963 0.3768338823
| 17> H 1.7626469849 1.4197810351 0.3143489027
| 18> *
| 19>
| 20>                          ****END OF INPUT****

CARTESIAN COORDINATES (ANGSTROEM)
---------------------------------
  C     -1.949572    0.498693    0.064153
  C     -0.901023   -0.590008   -0.122299
  C      0.550794   -0.163678   -0.023882
  O      1.457462   -0.980950   -0.185782
  N      0.803747    1.120504    0.244059
  H     -2.938706    0.060211   -0.041132
  H     -1.885838    0.939952    1.055667
  H     -1.847623    1.274595   -0.690480
  H     -1.015314   -1.063573   -1.100287
  H     -1.038895   -1.379976    0.619945
  H      0.064454    1.787588    0.376834
  H      1.762647    1.419781    0.314349

 Total Charge           Charge          ....    0
 Multiplicity           Mult            ....    1
 Number of Electrons    NEL             ....   40
 Basis Dimension        Dim             ....  140

ORBITAL ENERGIES
----------------

  NO   OCC          E(Eh)            E(eV)
   0   2.0000     -18.902254      -514.3565
   1   2.0000     -14.184544      -385.9811
   2   2.0000     -10.126187      -275.5476
   3   2.0000     -10.043152      -273.2880
   4   2.0000     -10.038913      -273.1727
   5   2.0000      -0.989242       -26.9186
   6   2.0000      -0.876672       -23.8554
   7   2.0000      -0.751718       -20.4553
   8   2.0000      -0.630022       -17.1438
   9   2.0000      -0.557978       -15.1833
  10   2.0000      -0.519041       -14.1238
  11   2.0000      -0.442870       -12.0511
  12   2.0000      -0.426533       -11.6066
  13   2.0000      -0.392639       -10.6843
  14   2.0000      -0.370939       -10.0938
  15   2.0000      -0.350727        -9.5438
  16   2.0000      -0.342866        -9.3298
  17   2.0000      -0.322402        -8.7730
  18   2.0000      -0.241394        -6.5687
  19   2.0000      -0.210474        -5.7273
  20   0.0000       0.002948         0.0802
  21   0.0000       0.060347         1.6421
  22   0.0000       0.112025         3.0483
  23   0.0000       0.116954         3.1825
  24   0.0000       0.137080         3.7301

MULLIKEN ATOMIC CHARGES
-----------------------
   0 C :   -0.523489
   1 C :   -0.234569
   2 C :    0.254112
   3 O :   -0.417207
   4 N :   -0.378449
   5 H :    0.156468
   6 H :    0.153302
   7 H :    0.155468
   8 H :    0.164913
   9 H :    0.165099
  10 H :    0.257680
  11 H :    0.246672
Sum of atomic charges:   -0.0000000

LOEWDIN ATOMIC CHARGES
----------------------
   0 C :   -0.420422
   1 C :   -0.252063
   2 C :    0.298349
   3 O :   -0.476508
   4 N :   -0.499120
   5 H :    0.158768
   6 H :    0.151484
   7 H :    0.152109
   8 H :    0.181442
   9 H :    0.181348
  10 H :    0.260573
  11 H :    0.264040

  Mayer bond orders larger than 0.100000
B(  0-C ,  1-C ) :   0.8581 B(  0-C ,  5-H ) :   0.9548 B(  0-C ,  6-H ) :   0.9830
B(  0-C ,  7-H ) :   0.9839 B(  1-C ,  2-C ) :   1.0100 B(  1-C ,  8-H ) :   0.9285
B(  1-C ,  9-H ) :   0.9258 B(  2-C ,  3-O ) :   1.9427 B(  2-C ,  4-N ) :   1.1206
B(  4-N , 10-H ) :   0.9042 B(  4-N , 11-H ) :   0.9187

Dispersion correction           -0.002477588
FINAL SINGLE POINT ENERGY      -248.471316605028

DIPOLE MOMENT
-------------

Method             : SCF
Type of density    : Electron Density
Multiplicity       :   1
Irrep              :   0
Energy             :  -248.4773439622641718 Eh
Relativity type    :
Basis              : AO
                                X                 Y                 Z
Electronic contribution:      5.458921862      -1.595868503      -0.249687145
Nuclear contribution   :     -6.446632369       2.842310023       0.500408564
                        -----------------------------------------
Total Dipole Moment    :     -0.987710507       1.246441520       0.250721419
                        -----------------------------------------
Magnitude (a.u.)       :      1.609984391
Magnitude (Debye)      :      4.092255104

Rotational constants in cm-1:             0.318231             0.130038             0.095604
Rotational constants in MHz :          9540.321415          3898.446151          2866.126906

                             ****ORCA TERMINATED NORMALLY****
TOTAL RUN TIME: 0 days 0 hours 0 minutes 11 seconds 489 msec
