                         Program Version 6.0.0  -   RELEASE  -
|  1> ! r2scan-3c def2/J RI DEFGRID2 scfconv6 printgap
|  2> %output
|  3>     printlevel normal
|  4> end
|  5> %cpcm
|  6>     smd true
|  7>     smdsolvent "water"
|  8> end
|  9> * xyz 0 1
| 10> C -1.9495715491 0.4986926295 0.0641527175
| 11> C -0.9010231016 -0.5900079916 -0.1222987486
| 12> C 0.5507935734 -0.163678443 -0.0238816085
| 13> O 1.4574615791 -0.9809496166 -0.1857818204
| 14> N 0.8037469584 1.1205039054 0.244059419
| 15> H -2.938705641 0.0602109062 -0.04113151
| 16> H -1.8858382146 0.9399523418 1.0556665826
| 17> H -1.8476233373 1.274595421 -0.6904802206
| 18> H -1.0153137987 -1.0635731436 -1.1002870878
| 19> H -1.0388945068 -1.3799755296 0.6199450196
| 20> H 0.0644542264 1.7875880963 0.3768338823
| 21> H 1.7626469849 1.4197810351 0.3143489027
| 22> *
| 23>
| 24>                          ****END OF INPUT****

CARTESIAN COORDINATES (ANGSTROEM)
---------------------------------
  C     -1.949572    0.498693    0.064153
  C     -0.901023   -0.590008   -0.122299
  C      0.550794   -0.163678   -0.023882
  O      1.457462   -0.980950   -0.185782
  N      0.803747    1.120504    0.244059
  H     -2.938706    0.060211   -0.041132
  H     -1.885838    0.939952    1.055667
  H     -1.847623    1.274595   -0.690480
  H     -1.015314   -1.063573   -1.100287
  H     -1.038895   -1.379976    0.619945
  H      0.064454    1.787588    0.376834
  H      1.762647    1.419781    0.314349

 Total Charge           Charge          ....    0
 Multiplicity           Mult            ....    1
 Number of Electrons    NEL             ....   40
 Basis Dimension        Dim             ....  140

ORBITAL ENERGIES
----------------

  NO   OCC          E(Eh)            E(eV)
   0   2.0000     -18.920102      -514.8421
   1   2.0000     -14.178587      -385.8190
   2   2.0000     -10.134530      -275.7746
   3   2.0000     -10.034027      -273.0398
   4   2.0000     -10.018129      -272.6072
   5   2.0000      -1.005482       -27.3606
   6   2.0000      -0.874471       -23.7956
   7   2.0000      -0.738663       -20.1000
   8   2.0000      -0.618139       -16.8204
   9   2.0000      -0.550252       -14.9731
  10   2.0000      -0.507560       -13.8114
  11   2.0000      -0.433146       -11.7865
  12   2.0000      -0.431304       -11.7364
  13   2.0000      -0.388838       -10.5808
  14   2.0000      -0.368074       -10.0158
  15   2.0000      -0.353571        -9.6212
  16   2.0000      -0.327984        -8.9249
  17   2.0000      -0.311301        -8.4709
  18   2.0000      -0.250479        -6.8159
  19   2.0000      -0.231494        -6.2993
  20   0.0000      -0.003025        -0.0823
  21   0.0000       0.078685         2.1411
  22   0.0000       0.124471         3.3870
  23   0.0000       0.137129         3.7315
  24   0.0000       0.153185         4.1684

MULLIKEN ATOMIC CHARGES
-----------------------
   0 C :   -0.541028
   1 C :   -0.246531
   2 C :    0.292402
   3 O :   -0.547925
   4 N :   -0.434736
   5 H :    0.167310
   6 H :    0.169864
   7 H :    0.170833
   8 H :    0.177189
   9 H :    0.178565
  10 H :    0.318359
  11 H :    0.295697
Sum of atomic charges:   -0.0000000

LOEWDIN ATOMIC CHARGES
----------------------
   0 C :   -0.418051
   1 C :   -0.250919
   2 C :    0.301958
   3 O :   -0.578636
   4 N :   -0.462583
   5 H :    0.162033
   6 H :    0.159620
   7 H :    0.159822
   8 H :    0.185763
   9 H :    0.186243
  10 H :    0.278393
  11 H :    0.276357

  Mayer bond orders larger than 0.100000
B(  0-C ,  1-C ) :   0.8805 B(  0-C ,  5-H ) :   0.9531 B(  0-C ,  6-H ) :   0.9767
B(  0-C ,  7-H ) :   0.9778 B(  1-C ,  2-C ) :   1.0115 B(  1-C ,  8-H ) :   0.9242
B(  1-C ,  9-H ) :   0.9204 B(  2-C ,  3-O ) :   1.8236 B(  2-C ,  4-N ) :   1.1972
B(  4-N , 10-H ) :   0.8801 B(  4-N , 11-H ) :   0.8967

Dispersion correction           -0.002477588
FINAL SINGLE POINT ENERGY      -248.488046530150

DIPOLE MOMENT
-------------

Method             : SCF
Type of density    : Electron Density
Multiplicity       :   1
Irrep              :   0
Energy             :  -248.4940738873861221 Eh
Relativity type    :
Basis              : AO
                                X                 Y                 Z
Electronic contribution:      5.073021743      -1.030907563      -0.133538309
Nuclear contribution   :     -6.446632369       2.842310023       0.500408564
                        -----------------------------------------
Total Dipole Moment    :     -1.373610626       1.811402460       0.366870255
                        -----------------------------------------
Magnitude (a.u.)       :      2.302732900
Magnitude (Debye)      :      5.853081880

Rotational constants in cm-1:             0.318231             0.130038             0.095604
Rotational constants in MHz :          9540.321415          3898.446151          2866.126906

                             ****ORCA TERMINATED NORMALLY****
TOTAL RUN TIME: 0 days 0 hours 0 minutes 12 seconds 514 msec
