                         Program Version 6.0.0  -   RELEASE  -
|  1> ! r2scan-3c def2/J RI DEFGRID2 scfconv6 printgap
|  2> %output
|  3>     printlevel normal
|  4> end
|  5> * xyz 0 1
|  6> C 1.9098088321 -0.4062285259 0.9831140398
|  7> C 1.1132992856 -0.3592036375 -0.3151632753
|  8> C -0.3573740595 0.080492032 -0.172055841
|  9> C -0.4636148606 1.5227507141 0.3353245522
| 10> C -1.1419684445 -0.8611635171 0.7426679278
| 11> O -0.9857338376 -0.0238861343 -1.452239338
| 12> H 1.9438101445 0.5710894838 1.4562259038
| 13> H 2.9303650789 -0.7154587649 0.7702299672
| 14> H 1.4791943279 -1.1186936774 1.6805272756
| 15> H 1.1155974554 -1.3496531259 -0.7771901591
| 16> H 1.6080090474 0.3276782976 -1.0079837245
| 17> H -0.1375526206 1.5896443093 1.3680859352
| 18> H 0.147932861 2.1887482163 -0.2701155956
| 19> H -1.4991909133 1.8498475902 0.2769750366
| 20> H -1.0233224911 -1.8876393121 0.4061050001
| 21> H -0.8033056333 -0.773241688 1.7691060737
| 22> H -2.197203113 -0.6055077269 0.6930151684
| 23> H -0.5504644493 0.5806483611 -2.0679311138
| 24> *
| 25>
| 26>                          ****END OF INPUT****

CARTESIAN COORDINATES (ANGSTROEM)
---------------------------------
  C      1.909809   -0.406229    0.983114
  C      1.113299   -0.359204   -0.315163
  C     -0.357374    0.080492   -0.172056
  C     -0.463615    1.522751    0.335325
  C     -1.141968   -0.861164    0.742668
  O     -0.985734   -0.023886   -1.452239
  H      1.943810    0.571089    1.456226
  H      2.930365   -0.715459    0.770230
  H      1.479194   -1.118694    1.680527
  H      1.115597   -1.349653   -0.777190
  H      1.608009    0.327678   -1.007984
  H     -0.137553    1.589644    1.368086
  H      0.147933    2.188748   -0.270116
  H     -1.499191    1.849848    0.276975
  H     -1.023322   -1.887639    0.406105
  H     -0.803306   -0.773242    1.769106
  H     -2.197203   -0.605508    0.693015
  H     -0.550464    0.580648   -2.067931

 Total Charge           Charge          ....    0
 Multiplicity           Mult            ....    1
 Number of Electrons    NEL             ....   50
 Basis Dimension        Dim             ....  179

ORBITAL ENERGIES
----------------

  NO   OCC          E(Eh)            E(eV)
   0   2.0000     -18.940129      -515.3871
   1   2.0000     -10.086628      -274.4711
   2   2.0000     -10.025283      -272.8018
   3   2.0000     -10.020450      -272.6703
   4   2.0000     -10.017435      -272.5883
   5   2.0000     -10.013764      -272.4884
   6   2.0000      -0.979383       -26.6504
   7   2.0000      -0.764236       -20.7959
   8   2.0000      -0.700969       -19.0743
   9   2.0000      -0.657397       -17.8887
  10   2.0000      -0.601620       -16.3709
  11   2.0000      -0.527745       -14.3607
  12   2.0000      -0.462561       -12.5869
  13   2.0000      -0.430269       -11.7082
  14   2.0000      -0.413775       -11.2594
  15   2.0000      -0.398680       -10.8486
  16   2.0000      -0.362944        -9.8762
  17   2.0000      -0.358247        -9.7484
  18   2.0000      -0.352406        -9.5895
  19   2.0000      -0.345564        -9.4033
  20   2.0000      -0.323324        -8.7981
  21   2.0000      -0.311509        -8.4766
  22   2.0000      -0.303511        -8.2589
  23   2.0000      -0.279848        -7.6151
  24   2.0000      -0.230505        -6.2724
  25   0.0000       0.064000         1.7415
  26   0.0000       0.090630         2.4662
  27   0.0000       0.115108         3.1323
  28   0.0000       0.132307         3.6002
  29   0.0000       0.136081         3.7029

MULLIKEN ATOMIC CHARGES
-----------------------
   0 C :   -0.509458
   1 C :   -0.205075
   2 C :    0.180285
   3 C :   -0.500988
   4 C :   -0.510136
   5 O :   -0.407415
   6 H :    0.152658
   7 H :    0.147270
   8 H :    0.155812
   9 H :    0.157714
  10 H :    0.126203
  11 H :    0.156227
  12 H :    0.142140
  13 H :    0.164746
  14 H :    0.156121
  15 H :    0.154232
  16 H :    0.158569
  17 H :    0.281095
Sum of atomic charges:   -0.0000000

LOEWDIN ATOMIC CHARGES
----------------------
   0 C :   -0.418815
   1 C :   -0.285861
   2 C :    0.055501
   3 C :   -0.391467
   4 C :   -0.372673
   5 O :   -0.607589
   6 H :    0.151436
   7 H :    0.152979
   8 H :    0.152964
   9 H :    0.166444
  10 H :    0.155396
  11 H :    0.159047
  12 H :    0.155843
  13 H :    0.166729
  14 H :    0.164910
  15 H :    0.157672
  16 H :    0.168339
  17 H :    0.269145

  Mayer bond orders larger than 0.100000
B(  0-C ,  1-C ) :   0.8774 B(  0-C ,  6-H ) :   0.9807 B(  0-C ,  7-H ) :   0.9641
B(  0-C ,  8-H ) :   0.9801 B(  1-C ,  2-C ) :   0.9131 B(  1-C ,  9-H ) :   0.9774
B(  1-C , 10-H ) :   0.9625 B(  2-C ,  3-C ) :   0.9489 B(  2-C ,  4-C ) :   0.9323
B(  2-C ,  5-O ) :   0.8700 B(  3-C , 11-H ) :   0.9735 B(  3-C , 12-H ) :   0.9648
B(  3-C , 13-H ) :   0.9713 B(  4-C , 14-H ) :   0.9697 B(  4-C , 15-H ) :   0.9769
B(  4-C , 16-H ) :   0.9661 B(  5-O , 17-H ) :   0.9026

Dispersion correction           -0.004568673
FINAL SINGLE POINT ENERGY      -272.908457688926

DIPOLE MOMENT
-------------

Method             : SCF
Type of density    : Electron Density
Multiplicity       :   1
Irrep              :   0
Energy             :  -272.9135763256949758 Eh
Relativity type    :
Basis              : AO
                                X                 Y                 Z
Electronic contribution:     -2.341674939      -0.290802030      -3.837168586
Nuclear contribution   :      2.812874192       0.616452420       4.009783913
                        -----------------------------------------
Total Dipole Moment    :      0.471199253       0.325650389       0.172615327
                        -----------------------------------------
Magnitude (a.u.)       :      0.598224844
Magnitude (Debye)      :      1.520566711

Rotational constants in cm-1:             0.148318             0.085706             0.085173
Rotational constants in MHz :          4446.470832          2569.414327          2553.434136

                             ****ORCA TERMINATED NORMALLY****
TOTAL RUN TIME: 0 days 0 hours 0 minutes 19 seconds 682 msec
