                         Program Version 6.0.0  -   RELEASE  -
|  1> ! r2scan-3c def2/J RI DEFGRID2 scfconv6 printgap
|  2> %output
|  3>     printlevel normal
|  4> end
|  5> %cpcm
|  6>     smd true
|  7>     smdsolvent "water"
|  8> end
|  9> * xyz 0 1
| 10> C 1.9098088321 -0.4062285259 0.9831140398
| 11> C 1.1132992856 -0.3592036375 -0.3151632753
| 12> C -0.3573740595 0.080492032 -0.172055841
| 13> C -0.4636148606 1.5227507141 0.3353245522
| 14> C -1.1419684445 -0.8611635171 0.7426679278
| 15> O -0.9857338376 -0.0238861343 -1.452239338
| 16> H 1.9438101445 0.5710894838 1.4562259038
| 17> H 2.9303650789 -0.7154587649 0.7702299672
| 18> H 1.4791943279 -1.1186936774 1.6805272756
| 19> H 1.1155974554 -1.3496531259 -0.7771901591
| 20> H 1.6080090474 0.3276782976 -1.0079837245
| 21> H -0.1375526206 1.5896443093 1.3680859352
| 22> H 0.147932861 2.1887482163 -0.2701155956
| 23> H -1.4991909133 1.8498475902 0.2769750366
| 24> H -1.0233224911 -1.8876393121 0.4061050001
| 25> H -0.8033056333 -0.773241688 1.7691060737
| 26> H -2.197203113 -0.6055077269 0.6930151684
| 27> H -0.5504644493 0.5806483611 -2.0679311138
| 28> *
| 29>
| 30>                          ****END OF INPUT****

CARTESIAN COORDINATES (ANGSTROEM)
---------------------------------
  C      1.909809   -0.406229    0.983114
  C      1.113299   -0.359204   -0.315163
  C     -0.357374    0.080492   -0.172056
  C     -0.463615    1.522751    0.335325
  C     -1.141968   -0.861164    0.742668
  O     -0.985734   -0.023886   -1.452239
  H      1.943810    0.571089    1.456226
  H      2.930365   -0.715459    0.770230
  H      1.479194   -1.118694    1.680527
  H      1.115597   -1.349653   -0.777190
  H      1.608009    0.327678   -1.007984
  H     -0.137553    1.589644    1.368086
  H      0.147933    2.188748   -0.270116
  H     -1.499191    1.849848    0.276975
  H     -1.023322   -1.887639    0.406105
  H     -0.803306   -0.773242    1.769106
  H     -2.197203   -0.605508    0.693015
  H     -0.550464    0.580648   -2.067931

 Total Charge           Charge          ....    0
 Multiplicity           Mult            ....    1
 Number of Electrons    NEL             ....   50
 Basis Dimension        Dim             ....  179

ORBITAL ENERGIES
----------------

  NO   OCC          E(Eh)            E(eV)
   0   2.0000     -18.945324      -515.5285
   1   2.0000     -10.082736      -274.3652
   2   2.0000     -10.016468      -272.5619
   3   2.0000     -10.009606      -272.3752
   4   2.0000     -10.008549      -272.3465
   5   2.0000     -10.007544      -272.3191
   6   2.0000      -0.983176       -26.7536
   7   2.0000      -0.757669       -20.6172
   8   2.0000      -0.693085       -18.8598
   9   2.0000      -0.650561       -17.7027
  10   2.0000      -0.593778       -16.1575
  11   2.0000      -0.524500       -14.2724
  12   2.0000      -0.457469       -12.4484
  13   2.0000      -0.423006       -11.5106
  14   2.0000      -0.407340       -11.0843
  15   2.0000      -0.393223       -10.7001
  16   2.0000      -0.355304        -9.6683
  17   2.0000      -0.351900        -9.5757
  18   2.0000      -0.344550        -9.3757
  19   2.0000      -0.340004        -9.2520
  20   2.0000      -0.317355        -8.6357
  21   2.0000      -0.306426        -8.3383
  22   2.0000      -0.297491        -8.0951
  23   2.0000      -0.277338        -7.5468
  24   2.0000      -0.235342        -6.4040
  25   0.0000       0.079141         2.1535
  26   0.0000       0.100911         2.7459
  27   0.0000       0.126679         3.4471
  28   0.0000       0.141427         3.8484
  29   0.0000       0.143732         3.9111

MULLIKEN ATOMIC CHARGES
-----------------------
   0 C :   -0.539564
   1 C :   -0.228628
   2 C :    0.223094
   3 C :   -0.542364
   4 C :   -0.553543
   5 O :   -0.502525
   6 H :    0.165030
   7 H :    0.157695
   8 H :    0.165083
   9 H :    0.154353
  10 H :    0.151492
  11 H :    0.174713
  12 H :    0.164905
  13 H :    0.164934
  14 H :    0.165802
  15 H :    0.177111
  16 H :    0.164433
  17 H :    0.337978
Sum of atomic charges:   -0.0000000

LOEWDIN ATOMIC CHARGES
----------------------
   0 C :   -0.423747
   1 C :   -0.286172
   2 C :    0.057215
   3 C :   -0.394856
   4 C :   -0.382467
   5 O :   -0.646335
   6 H :    0.155618
   7 H :    0.155494
   8 H :    0.155567
   9 H :    0.164745
  10 H :    0.163454
  11 H :    0.165526
  12 H :    0.163634
  13 H :    0.165621
  14 H :    0.165433
  15 H :    0.166822
  16 H :    0.167195
  17 H :    0.287252

  Mayer bond orders larger than 0.100000
B(  0-C ,  1-C ) :   0.8797 B(  0-C ,  6-H ) :   0.9771 B(  0-C ,  7-H ) :   0.9622
B(  0-C ,  8-H ) :   0.9760 B(  1-C ,  2-C ) :   0.9092 B(  1-C ,  9-H ) :   0.9726
B(  1-C , 10-H ) :   0.9664 B(  2-C ,  3-C ) :   0.9427 B(  2-C ,  4-C ) :   0.9324
B(  2-C ,  5-O ) :   0.8478 B(  3-C , 11-H ) :   0.9681 B(  3-C , 12-H ) :   0.9639
B(  3-C , 13-H ) :   0.9675 B(  4-C , 14-H ) :   0.9676 B(  4-C , 15-H ) :   0.9690
B(  4-C , 16-H ) :   0.9661 B(  5-O , 17-H ) :   0.8771

Dispersion correction           -0.004568673
FINAL SINGLE POINT ENERGY      -272.914723003888

DIPOLE MOMENT
-------------

Method             : SCF
Type of density    : Electron Density
Multiplicity       :   1
Irrep              :   0
Energy             :  -272.9198416406570118 Eh
Relativity type    :
Basis              : AO
                                X                 Y                 Z
Electronic contribution:     -2.096210895      -0.100543683      -3.746865256
Nuclear contribution   :      2.812874192       0.616452420       4.009783913
                        -----------------------------------------
Total Dipole Moment    :      0.716663297       0.515908737       0.262918657
                        -----------------------------------------
Magnitude (a.u.)       :      0.921354615
Magnitude (Debye)      :      2.341897318

Rotational constants in cm-1:             0.148318             0.085706             0.085173
Rotational constants in MHz :          4446.470832          2569.414327          2553.434136

                             ****ORCA TERMINATED NORMALLY****
TOTAL RUN TIME: 0 days 0 hours 0 minutes 23 seconds 773 msec
