                         Program Version 6.0.0  -   RELEASE  -
|  1> ! r2scan-3c def2/J RI DEFGRID2 scfconv6 printgap
|  2> %output
|  3>     printlevel normal
|  4> end
|  5> * xyz 0 1
|  6> C -2.5624998007 -0.8693868147 0.274932376
|  7> C -1.1342518942 -0.4298364379 0.6255133517
|  8> H -1.033920684 -0.3560268302 1.719063453
|  9> C -0.8216093686 0.9474206764 0.0257232122
| 10> H -1.0531731883 0.9297522047 -1.0497692089
| 11> C 0.6658898009 1.2829540863 0.1967734895
| 12> H 0.8760313163 1.4237074585 1.2697987294
| 13> C 1.5377851828 0.1333233833 -0.3129541014
| 14> H 1.393457429 0.0195539866 -1.3977071955
| 15> C 1.0976550939 -1.1740734732 0.3625679934
| 16> H 1.2675557942 -1.0825031793 1.4567171369
| 17> O -0.2653339777 -1.4290873753 0.1246883998
| 18> O 1.8378708704 -2.2066049443 -0.177314524
| 19> O 2.8750566691 0.4416430699 -0.0151250555
| 20> O 0.9166150891 2.4761723937 -0.5031116443
| 21> O -1.627177539 1.8862038803 0.689948266
| 22> O -2.7391588449 -1.0484803473 -1.1048309053
| 23> H -3.2526901857 -0.083357862 0.583442584
| 24> H -2.7894021488 -1.7948488074 0.8176327622
| 25> H 1.469078682 -3.0597353645 0.1000968829
| 26> H 3.4375650854 -0.2993442227 -0.285151769
| 27> H 1.8681536643 2.6555957553 -0.4759211054
| 28> H -1.4153163382 2.7660708694 0.3428924746
| 29> H -2.1043752194 -1.7152390281 -1.4065615672
| 30> *
| 31>
| 32>                          ****END OF INPUT****

CARTESIAN COORDINATES (ANGSTROEM)
---------------------------------
  C     -2.562500   -0.869387    0.274932
  C     -1.134252   -0.429836    0.625513
  H     -1.033921   -0.356027    1.719063
  C     -0.821609    0.947421    0.025723
  H     -1.053173    0.929752   -1.049769
  C      0.665890    1.282954    0.196773
  H      0.876031    1.423707    1.269799
  C      1.537785    0.133323   -0.312954
  H      1.393457    0.019554   -1.397707
  C      1.097655   -1.174073    0.362568
  H      1.267556   -1.082503    1.456717
  O     -0.265334   -1.429087    0.124688
  O      1.837871   -2.206605   -0.177315
  O      2.875057    0.441643   -0.015125
  O      0.916615    2.476172   -0.503112
  O     -1.627178    1.886204    0.689948
  O     -2.739159   -1.048480   -1.104831
  H     -3.252690   -0.083358    0.583443
  H     -2.789402   -1.794849    0.817633
  H      1.469079   -3.059735    0.100097
  H      3.437565   -0.299344   -0.285152
  H      1.868154    2.655596   -0.475921
  H     -1.415316    2.766071    0.342892
  H     -2.104375   -1.715239   -1.406562

 Total Charge           Charge          ....    0
 Multiplicity           Mult            ....    1
 Number of Electrons    NEL             ....   96
 Basis Dimension        Dim             ....  318

ORBITAL ENERGIES
----------------

  NO   OCC          E(Eh)            E(eV)
   0   2.0000     -18.981453      -516.5116
   1   2.0000     -18.980890      -516.4963
   2   2.0000     -18.969251      -516.1796
   3   2.0000     -18.961620      -515.9719
   4   2.0000     -18.956724      -515.8387
   5   2.0000     -18.950029      -515.6565
   6   2.0000     -10.147591      -276.1300
   7   2.0000     -10.096015      -274.7265
   8   2.0000     -10.093790      -274.6660
   9   2.0000     -10.091753      -274.6106
  10   2.0000     -10.088345      -274.5178
  11   2.0000     -10.079011      -274.2638
  12   2.0000      -1.063076       -28.9278
  13   2.0000      -1.016601       -27.6631
  14   2.0000      -1.009075       -27.4583
  15   2.0000      -0.995863       -27.0988
  16   2.0000      -0.986752       -26.8509
  17   2.0000      -0.983532       -26.7633
  18   2.0000      -0.753972       -20.5166
  19   2.0000      -0.741539       -20.1783
  20   2.0000      -0.660605       -17.9760
  21   2.0000      -0.620703       -16.8902
  22   2.0000      -0.595341       -16.2000
  23   2.0000      -0.557910       -15.1815
  24   2.0000      -0.543496       -14.7893
  25   2.0000      -0.508628       -13.8405
  26   2.0000      -0.494301       -13.4506
  27   2.0000      -0.487695       -13.2708
  28   2.0000      -0.465628       -12.6704
  29   2.0000      -0.464790       -12.6476
  30   2.0000      -0.441833       -12.0229
  31   2.0000      -0.433496       -11.7960
  32   2.0000      -0.407284       -11.0828
  33   2.0000      -0.397279       -10.8105
  34   2.0000      -0.383299       -10.4301
  35   2.0000      -0.377582       -10.2745
  36   2.0000      -0.355877        -9.6839
  37   2.0000      -0.350897        -9.5484
  38   2.0000      -0.331727        -9.0267
  39   2.0000      -0.318748        -8.6736
  40   2.0000      -0.307534        -8.3684
  41   2.0000      -0.298193        -8.1142
  42   2.0000      -0.284201        -7.7335
  43   2.0000      -0.270489        -7.3604
  44   2.0000      -0.254011        -6.9120
  45   2.0000      -0.244134        -6.6432
  46   2.0000      -0.239638        -6.5209
  47   2.0000      -0.233296        -6.3483
  48   0.0000       0.030382         0.8267
  49   0.0000       0.043682         1.1887
  50   0.0000       0.063320         1.7230
  51   0.0000       0.073429         1.9981
  52   0.0000       0.086516         2.3542

MULLIKEN ATOMIC CHARGES
-----------------------
   0 C :   -0.245862
   1 C :    0.033057
   2 H :    0.166620
   3 C :   -0.072694
   4 H :    0.196203
   5 C :   -0.032003
   6 H :    0.169455
   7 C :    0.047501
   8 H :    0.171310
   9 C :   -0.051574
  10 H :    0.142259
  11 O :   -0.230611
  12 O :   -0.403655
  13 O :   -0.441924
  14 O :   -0.442571
  15 O :   -0.442057
  16 O :   -0.422882
  17 H :    0.160627
  18 H :    0.138214
  19 H :    0.310247
  20 H :    0.313559
  21 H :    0.314315
  22 H :    0.313336
  23 H :    0.309128
Sum of atomic charges:    0.0000000

LOEWDIN ATOMIC CHARGES
----------------------
   0 C :    0.044204
   1 C :    0.116782
   2 H :    0.188220
   3 C :    0.114417
   4 H :    0.194284
   5 C :    0.108413
   6 H :    0.186010
   7 C :    0.116804
   8 H :    0.188900
   9 C :    0.297446
  10 H :    0.180050
  11 O :   -0.690075
  12 O :   -0.503270
  13 O :   -0.572485
  14 O :   -0.574490
  15 O :   -0.576747
  16 O :   -0.590025
  17 H :    0.197072
  18 H :    0.164430
  19 H :    0.285478
  20 H :    0.283302
  21 H :    0.283218
  22 H :    0.283619
  23 H :    0.274443

  Mayer bond orders larger than 0.100000
B(  0-C ,  1-C ) :   0.9431 B(  0-C , 16-O ) :   1.0306 B(  0-C , 17-H ) :   0.9613
B(  0-C , 18-H ) :   0.9818 B(  1-C ,  2-H ) :   0.9313 B(  1-C ,  3-C ) :   0.8698
B(  1-C , 11-O ) :   0.7691 B(  1-C , 16-O ) :  -0.1110 B(  3-C ,  4-H ) :   0.9971
B(  3-C ,  5-C ) :   0.8323 B(  3-C , 15-O ) :   0.8692 B(  5-C ,  6-H ) :   0.9861
B(  5-C ,  7-C ) :   0.8583 B(  5-C , 14-O ) :   0.9064 B(  7-C ,  8-H ) :   0.9728
B(  7-C ,  9-C ) :   0.8052 B(  7-C , 13-O ) :   0.9128 B(  9-C , 10-H ) :   1.0056
B(  9-C , 11-O ) :   0.9435 B(  9-C , 12-O ) :   1.0426 B( 12-O , 19-H ) :   0.8791
B( 13-O , 20-H ) :   0.8809 B( 14-O , 21-H ) :   0.8778 B( 15-O , 22-H ) :   0.8814
B( 16-O , 23-H ) :   0.8767

Dispersion correction           -0.008040614
FINAL SINGLE POINT ENERGY      -687.080892264051

DIPOLE MOMENT
-------------

Method             : SCF
Type of density    : Electron Density
Multiplicity       :   1
Irrep              :   0
Energy             :  -687.0922775945550711 Eh
Relativity type    :
Basis              : AO
                                X                 Y                 Z
Electronic contribution:      2.030318547      -0.109853065      -1.159903332
Nuclear contribution   :     -1.239584058      -0.557725755       1.556393671
                        -----------------------------------------
Total Dipole Moment    :      0.790734489      -0.667578820       0.396490338
                        -----------------------------------------
Magnitude (a.u.)       :      1.108208961
Magnitude (Debye)      :      2.816843320

Rotational constants in cm-1:             0.039037             0.027258             0.017871
Rotational constants in MHz :          1170.300348           817.172431           535.749592

                             ****ORCA TERMINATED NORMALLY****
TOTAL RUN TIME: 0 days 0 hours 0 minutes 49 seconds 604 msec
