                         Program Version 6.0.0  -   RELEASE  -
|  1> ! r2scan-3c def2/J RI DEFGRID2 scfconv6 printgap
|  2> %output
|  3>     printlevel normal
|  4> end
|  5> %cpcm
|  6>     smd true
|  7>     smdsolvent "water"
|  8> end
|  9> * xyz 0 1
| 10> C -2.5624998007 -0.8693868147 0.274932376
| 11> C -1.1342518942 -0.4298364379 0.6255133517
| 12> H -1.033920684 -0.3560268302 1.719063453
| 13> C -0.8216093686 0.9474206764 0.0257232122
| 14> H -1.0531731883 0.9297522047 -1.0497692089
| 15> C 0.6658898009 1.2829540863 0.1967734895
| 16> H 0.8760313163 1.4237074585 1.2697987294
| 17> C 1.5377851828 0.1333233833 -0.3129541014
| 18> H 1.393457429 0.0195539866 -1.3977071955
| 19> C 1.0976550939 -1.1740734732 0.3625679934
| 20> H 1.2675557942 -1.0825031793 1.4567171369
| 21> O -0.2653339777 -1.4290873753 0.1246883998
| 22> O 1.8378708704 -2.2066049443 -0.177314524
| 23> O 2.8750566691 0.4416430699 -0.0151250555
| 24> O 0.9166150891 2.4761723937 -0.5031116443
| 25> O -1.627177539 1.8862038803 0.689948266
| 26> O -2.7391588449 -1.0484803473 -1.1048309053
| 27> H -3.2526901857 -0.083357862 0.583442584
| 28> H -2.7894021488 -1.7948488074 0.8176327622
| 29> H 1.469078682 -3.0597353645 0.1000968829
| 30> H 3.4375650854 -0.2993442227 -0.285151769
| 31> H 1.8681536643 2.6555957553 -0.4759211054
| 32> H -1.4153163382 2.7660708694 0.3428924746
| 33> H -2.1043752194 -1.7152390281 -1.4065615672
| 34> *
| 35>
| 36>                          ****END OF INPUT****

CARTESIAN COORDINATES (ANGSTROEM)
---------------------------------
  C     -2.562500   -0.869387    0.274932
  C     -1.134252   -0.429836    0.625513
  H     -1.033921   -0.356027    1.719063
  C     -0.821609    0.947421    0.025723
  H     -1.053173    0.929752   -1.049769
  C      0.665890    1.282954    0.196773
  H      0.876031    1.423707    1.269799
  C      1.537785    0.133323   -0.312954
  H      1.393457    0.019554   -1.397707
  C      1.097655   -1.174073    0.362568
  H      1.267556   -1.082503    1.456717
  O     -0.265334   -1.429087    0.124688
  O      1.837871   -2.206605   -0.177315
  O      2.875057    0.441643   -0.015125
  O      0.916615    2.476172   -0.503112
  O     -1.627178    1.886204    0.689948
  O     -2.739159   -1.048480   -1.104831
  H     -3.252690   -0.083358    0.583443
  H     -2.789402   -1.794849    0.817633
  H      1.469079   -3.059735    0.100097
  H      3.437565   -0.299344   -0.285152
  H      1.868154    2.655596   -0.475921
  H     -1.415316    2.766071    0.342892
  H     -2.104375   -1.715239   -1.406562

 Total Charge           Charge          ....    0
 Multiplicity           Mult            ....    1
 Number of Electrons    NEL             ....   96
 Basis Dimension        Dim             ....  318

ORBITAL ENERGIES
----------------

  NO   OCC          E(Eh)            E(eV)
   0   2.0000     -18.975908      -516.3607
   1   2.0000     -18.970057      -516.2015
   2   2.0000     -18.963918      -516.0344
   3   2.0000     -18.960796      -515.9495
   4   2.0000     -18.960703      -515.9470
   5   2.0000     -18.956650      -515.8367
   6   2.0000     -10.136796      -275.8362
   7   2.0000     -10.090021      -274.5634
   8   2.0000     -10.086808      -274.4760
   9   2.0000     -10.086619      -274.4708
  10   2.0000     -10.086340      -274.4633
  11   2.0000     -10.076451      -274.1942
  12   2.0000      -1.055198       -28.7134
  13   2.0000      -1.014270       -27.5997
  14   2.0000      -1.006598       -27.3909
  15   2.0000      -0.995394       -27.0860
  16   2.0000      -0.986558       -26.8456
  17   2.0000      -0.981631       -26.7115
  18   2.0000      -0.749752       -20.4018
  19   2.0000      -0.735472       -20.0132
  20   2.0000      -0.656009       -17.8509
  21   2.0000      -0.614687       -16.7265
  22   2.0000      -0.591903       -16.1065
  23   2.0000      -0.551552       -15.0085
  24   2.0000      -0.535946       -14.5838
  25   2.0000      -0.502869       -13.6838
  26   2.0000      -0.488498       -13.2927
  27   2.0000      -0.481673       -13.1070
  28   2.0000      -0.463982       -12.6256
  29   2.0000      -0.461179       -12.5493
  30   2.0000      -0.438844       -11.9416
  31   2.0000      -0.427960       -11.6454
  32   2.0000      -0.404637       -11.0107
  33   2.0000      -0.398726       -10.8499
  34   2.0000      -0.381991       -10.3945
  35   2.0000      -0.375111       -10.2073
  36   2.0000      -0.354893        -9.6571
  37   2.0000      -0.346672        -9.4334
  38   2.0000      -0.333395        -9.0721
  39   2.0000      -0.316656        -8.6167
  40   2.0000      -0.309009        -8.4086
  41   2.0000      -0.301555        -8.2057
  42   2.0000      -0.277784        -7.5589
  43   2.0000      -0.267314        -7.2740
  44   2.0000      -0.253375        -6.8947
  45   2.0000      -0.246886        -6.7181
  46   2.0000      -0.245164        -6.6713
  47   2.0000      -0.228853        -6.2274
  48   0.0000       0.040554         1.1035
  49   0.0000       0.063608         1.7309
  50   0.0000       0.069581         1.8934
  51   0.0000       0.088064         2.3964
  52   0.0000       0.100498         2.7347

MULLIKEN ATOMIC CHARGES
-----------------------
   0 C :   -0.245014
   1 C :    0.041570
   2 H :    0.193506
   3 C :   -0.073454
   4 H :    0.193977
   5 C :   -0.016585
   6 H :    0.183156
   7 C :    0.038055
   8 H :    0.186225
   9 C :   -0.060405
  10 H :    0.168032
  11 O :   -0.260762
  12 O :   -0.454002
  13 O :   -0.494109
  14 O :   -0.498389
  15 O :   -0.502172
  16 O :   -0.493289
  17 H :    0.166397
  18 H :    0.159033
  19 H :    0.358871
  20 H :    0.353107
  21 H :    0.352135
  22 H :    0.351429
  23 H :    0.352686
Sum of atomic charges:    0.0000000

LOEWDIN ATOMIC CHARGES
----------------------
   0 C :    0.042834
   1 C :    0.119705
   2 H :    0.199569
   3 C :    0.112723
   4 H :    0.194467
   5 C :    0.109823
   6 H :    0.193647
   7 C :    0.116834
   8 H :    0.193652
   9 C :    0.300705
  10 H :    0.191497
  11 O :   -0.696768
  12 O :   -0.517573
  13 O :   -0.589502
  14 O :   -0.596644
  15 O :   -0.602572
  16 O :   -0.624283
  17 H :    0.197250
  18 H :    0.175145
  19 H :    0.302615
  20 H :    0.296620
  21 H :    0.295489
  22 H :    0.296112
  23 H :    0.288656

  Mayer bond orders larger than 0.100000
B(  0-C ,  1-C ) :   0.9437 B(  0-C , 16-O ) :   1.0088 B(  0-C , 17-H ) :   0.9628
B(  0-C , 18-H ) :   0.9706 B(  1-C ,  2-H ) :   0.9207 B(  1-C ,  3-C ) :   0.8849
B(  1-C , 11-O ) :   0.7695 B(  3-C ,  4-H ) :   0.9841 B(  3-C ,  5-C ) :   0.8674
B(  3-C , 15-O ) :   0.8443 B(  5-C ,  6-H ) :   0.9668 B(  5-C ,  7-C ) :   0.8878
B(  5-C , 14-O ) :   0.8920 B(  7-C ,  8-H ) :   0.9639 B(  7-C ,  9-C ) :   0.8189
B(  7-C , 13-O ) :   0.8966 B(  9-C , 10-H ) :   1.0011 B(  9-C , 11-O ) :   0.9502
B(  9-C , 12-O ) :   1.0416 B( 12-O , 19-H ) :   0.8543 B( 13-O , 20-H ) :   0.8609
B( 14-O , 21-H ) :   0.8591 B( 15-O , 22-H ) :   0.8626 B( 16-O , 23-H ) :   0.8546

Dispersion correction           -0.008040614
FINAL SINGLE POINT ENERGY      -687.110964077903

DIPOLE MOMENT
-------------

Method             : SCF
Type of density    : Electron Density
Multiplicity       :   1
Irrep              :   0
Energy             :  -687.1223494084063077 Eh
Relativity type    :
Basis              : AO
                                X                 Y                 Z
Electronic contribution:      2.330443454      -0.408521965      -0.901117334
Nuclear contribution   :     -1.239584058      -0.557725755       1.556393671
                        -----------------------------------------
Total Dipole Moment    :      1.090859396      -0.966247720       0.655276336
                        -----------------------------------------
Magnitude (a.u.)       :      1.597809737
Magnitude (Debye)      :      4.061309593

Rotational constants in cm-1:             0.039037             0.027258             0.017871
Rotational constants in MHz :          1170.300348           817.172431           535.749592

                             ****ORCA TERMINATED NORMALLY****
TOTAL RUN TIME: 0 days 0 hours 0 minutes 58 seconds 499 msec
