                         Program Version 6.0.0  -   RELEASE  -
|  1> ! pbe def2-sv(p) def2/J RI DEFGRID1 loosescf d4 GCP(DFT/SV(P)) printgap
|  2> %output
|  3>     printlevel normal
|  4> end
|  5> * xyz 0 1
|  6> C -1.5590327202 -1.0287820523 -0.8464715197
|  7> C -1.2197747377 -0.5532450416 0.5830923582
|  8> H -2.0392078439 -0.7860660406 1.2718300442
|  9> C -0.9173855987 0.9485794979 0.6890212422
| 10> H -1.7563836757 1.5479495652 0.32404316
| 11> C 0.3239787683 1.3218614232 -0.1480809163
| 12> H 0.8348203419 2.135631334 0.3824031861
| 13> C 1.3550429762 0.1734512751 -0.3332047276
| 14> H 1.3333082659 -0.1175462448 -1.3938244306
| 15> C 1.1215845604 -1.1201685972 0.4759423683
| 16> H 1.8824607054 -1.1473472593 1.2711277724
| 17> O -0.1094618479 -1.2443664471 1.1452410232
| 18> O 1.3058833956 -2.1848764465 -0.4106647424
| 19> O 2.6538185308 0.5986836363 0.0140105992
| 20> O -0.0413378407 1.8551229588 -1.3994046784
| 21> O -0.7663645594 1.3042449827 2.041766746
| 22> O -2.2222005968 -0.0511918229 -1.6126656497
| 23> H -2.1456586422 -1.9506702859 -0.7875204661
| 24> H -0.6345774661 -1.2566754946 -1.3802101146
| 25> H 1.3152135709 -3.0248129463 0.0734016264
| 26> H 2.9388732809 1.292259861 -0.598695458
| 27> H -0.7400292039 1.3036670363 -1.7949644831
| 28> H -0.1932721997 0.6533762789 2.4750058136
| 29> H -3.1449951243 0.0215111727 -1.3317074213
| 30> *
| 31>
| 32>                          ****END OF INPUT****

CARTESIAN COORDINATES (ANGSTROEM)
---------------------------------
  C     -1.559033   -1.028782   -0.846472
  C     -1.219775   -0.553245    0.583092
  H     -2.039208   -0.786066    1.271830
  C     -0.917386    0.948579    0.689021
  H     -1.756384    1.547950    0.324043
  C      0.323979    1.321861   -0.148081
  H      0.834820    2.135631    0.382403
  C      1.355043    0.173451   -0.333205
  H      1.333308   -0.117546   -1.393824
  C      1.121585   -1.120169    0.475942
  H      1.882461   -1.147347    1.271128
  O     -0.109462   -1.244366    1.145241
  O      1.305883   -2.184876   -0.410665
  O      2.653819    0.598684    0.014011
  O     -0.041338    1.855123   -1.399405
  O     -0.766365    1.304245    2.041767
  O     -2.222201   -0.051192   -1.612666
  H     -2.145659   -1.950670   -0.787520
  H     -0.634577   -1.256675   -1.380210
  H      1.315214   -3.024813    0.073402
  H      2.938873    1.292260   -0.598695
  H     -0.740029    1.303667   -1.794964
  H     -0.193272    0.653376    2.475006
  H     -3.144995    0.021511   -1.331707

 Total Charge           Charge          ....    0
 Multiplicity           Mult            ....    1
 Number of Electrons    NEL             ....   96
 Basis Dimension        Dim             ....  192

ORBITAL ENERGIES
----------------

  NO   OCC          E(Eh)            E(eV)
   0   2.0000     -18.783532      -511.1259
   1   2.0000     -18.779866      -511.0261
   2   2.0000     -18.763450      -510.5794
   3   2.0000     -18.749760      -510.2069
   4   2.0000     -18.744285      -510.0579
   5   2.0000     -18.733841      -509.7737
   6   2.0000      -9.988541      -271.8020
   7   2.0000      -9.949958      -270.7521
   8   2.0000      -9.947121      -270.6749
   9   2.0000      -9.938798      -270.4485
  10   2.0000      -9.937811      -270.4216
  11   2.0000      -9.930690      -270.2278
  12   2.0000      -0.986427       -26.8420
  13   2.0000      -0.955416       -25.9982
  14   2.0000      -0.931242       -25.3404
  15   2.0000      -0.929994       -25.3064
  16   2.0000      -0.910669       -24.7806
  17   2.0000      -0.907195       -24.6860
  18   2.0000      -0.701699       -19.0942
  19   2.0000      -0.682730       -18.5780
  20   2.0000      -0.632003       -17.1977
  21   2.0000      -0.584232       -15.8978
  22   2.0000      -0.582890       -15.8612
  23   2.0000      -0.516400       -14.0519
  24   2.0000      -0.507101       -13.7989
  25   2.0000      -0.494469       -13.4552
  26   2.0000      -0.479751       -13.0547
  27   2.0000      -0.463823       -12.6213
  28   2.0000      -0.437669       -11.9096
  29   2.0000      -0.423913       -11.5353
  30   2.0000      -0.415750       -11.3131
  31   2.0000      -0.406405       -11.0588
  32   2.0000      -0.395842       -10.7714
  33   2.0000      -0.374290       -10.1849
  34   2.0000      -0.362203        -9.8560
  35   2.0000      -0.352007        -9.5786
  36   2.0000      -0.339961        -9.2508
  37   2.0000      -0.314063        -8.5461
  38   2.0000      -0.298538        -8.1236
  39   2.0000      -0.291828        -7.9411
  40   2.0000      -0.281322        -7.6552
  41   2.0000      -0.270247        -7.3538
  42   2.0000      -0.258994        -7.0476
  43   2.0000      -0.247654        -6.7390
  44   2.0000      -0.233241        -6.3468
  45   2.0000      -0.231091        -6.2883
  46   2.0000      -0.218436        -5.9440
  47   2.0000      -0.192134        -5.2282
  48   0.0000      -0.000661        -0.0180
  49   0.0000       0.024684         0.6717
  50   0.0000       0.038412         1.0452
  51   0.0000       0.043119         1.1733
  52   0.0000       0.052172         1.4197

MULLIKEN ATOMIC CHARGES
-----------------------
   0 C :    0.014532
   1 C :   -0.041814
   2 H :    0.071795
   3 C :    0.056604
   4 H :    0.059610
   5 C :    0.082660
   6 H :    0.064900
   7 C :    0.031412
   8 H :    0.081804
   9 C :    0.182566
  10 H :    0.076560
  11 O :   -0.315470
  12 O :   -0.392559
  13 O :   -0.424800
  14 O :   -0.442365
  15 O :   -0.418163
  16 O :   -0.429555
  17 H :    0.093143
  18 H :    0.122228
  19 H :    0.299848
  20 H :    0.307237
  21 H :    0.307555
  22 H :    0.298830
  23 H :    0.313444
Sum of atomic charges:   -0.0000000

LOEWDIN ATOMIC CHARGES
----------------------
   0 C :   -0.149999
   1 C :   -0.081073
   2 H :    0.113360
   3 C :   -0.080364
   4 H :    0.112778
   5 C :   -0.077083
   6 H :    0.117604
   7 C :   -0.083624
   8 H :    0.112805
   9 C :   -0.006413
  10 H :    0.104487
  11 O :   -0.147378
  12 O :   -0.307894
  13 O :   -0.318779
  14 O :   -0.328924
  15 O :   -0.315720
  16 O :   -0.317988
  17 H :    0.110701
  18 H :    0.124083
  19 H :    0.284884
  20 H :    0.290515
  21 H :    0.270941
  22 H :    0.278534
  23 H :    0.294547

  Mayer bond orders larger than 0.100000
B(  0-C ,  1-C ) :   1.0033 B(  0-C , 16-O ) :   1.0429 B(  0-C , 17-H ) :   0.9212
B(  0-C , 18-H ) :   0.8989 B(  1-C ,  2-H ) :   0.8946 B(  1-C ,  3-C ) :   1.0236
B(  1-C , 11-O ) :   0.9786 B(  3-C ,  4-H ) :   0.8791 B(  3-C ,  5-C ) :   0.9716
B(  3-C , 15-O ) :   1.0559 B(  5-C ,  6-H ) :   0.8739 B(  5-C ,  7-C ) :   0.9590
B(  5-C , 14-O ) :   1.0559 B(  7-C ,  8-H ) :   0.8943 B(  7-C ,  9-C ) :   0.9816
B(  7-C , 13-O ) :   1.0623 B(  9-C , 10-H ) :   0.8941 B(  9-C , 11-O ) :   1.0252
B(  9-C , 12-O ) :   1.1160 B( 12-O , 19-H ) :   0.8422 B( 13-O , 20-H ) :   0.8464
B( 14-O , 21-H ) :   0.8085 B( 15-O , 22-H ) :   0.8354 B( 16-O , 23-H ) :   0.8410

Dispersion correction           -0.025593254
FINAL SINGLE POINT ENERGY      -685.683477276056

DIPOLE MOMENT
-------------

Method             : SCF
Type of density    : Electron Density
Multiplicity       :   1
Irrep              :   0
Energy             :  -685.8156538316981141 Eh
Relativity type    :
Basis              : AO
                                X                 Y                 Z
Electronic contribution:      1.508463062       0.216804065       1.367564466
Nuclear contribution   :     -2.192029022      -1.242455483      -1.400323848
                        -----------------------------------------
Total Dipole Moment    :     -0.683565961      -1.025651418      -0.032759382
                        -----------------------------------------
Magnitude (a.u.)       :      1.233003013
Magnitude (Debye)      :      3.134044593

Rotational constants in cm-1:             0.035382             0.029367             0.025995
Rotational constants in MHz :          1060.712446           880.390409           779.307533

                             ****ORCA TERMINATED NORMALLY****
TOTAL RUN TIME: 0 days 0 hours 0 minutes 12 seconds 26 msec
