                         Program Version 6.0.0  -   RELEASE  -
|  1> ! pbe def2-sv(p) def2/J RI DEFGRID1 loosescf d4 GCP(DFT/SV(P)) printgap
|  2> %output
|  3>     printlevel normal
|  4> end
|  5> * xyz 0 1
|  6> C 2.3936837248 0.0551607497 -0.0002022181
|  7> C 0.9033362565 0.0146528244 0.0007963477
|  8> C 0.1324435304 1.1815640361 0.0001419691
|  9> N -1.1891024027 1.1565898736 -0.0002178968
| 10> C -1.7694411426 -0.0387342603 -7.25594e-05
| 11> C -1.0165785997 -1.2025804245 -0.0002053331
| 12> N 0.3093098107 -1.1755539709 0.0002508327
| 13> H 2.7520668876 0.6166601576 0.8596791484
| 14> H 2.786953178 -0.9555783658 0.0344938947
| 15> H 2.750899898 0.552467262 -0.8995682206
| 16> H 0.591346107 2.1604599639 0.0001919836
| 17> H -2.8492495642 -0.0484620933 0.000214989
| 18> H -1.4734543666 -2.1819260408 -0.000929522
| 19> *
| 20>
| 21>                          ****END OF INPUT****

CARTESIAN COORDINATES (ANGSTROEM)
---------------------------------
  C      2.393684    0.055161   -0.000202
  C      0.903336    0.014653    0.000796
  C      0.132444    1.181564    0.000142
  N     -1.189102    1.156590   -0.000218
  C     -1.769441   -0.038734   -0.000073
  C     -1.016579   -1.202580   -0.000205
  N      0.309310   -1.175554    0.000251
  H      2.752067    0.616660    0.859679
  H      2.786953   -0.955578    0.034494
  H      2.750900    0.552467   -0.899568
  H      0.591346    2.160460    0.000192
  H     -2.849250   -0.048462    0.000215
  H     -1.473454   -2.181926   -0.000930

 Total Charge           Charge          ....    0
 Multiplicity           Mult            ....    1
 Number of Electrons    NEL             ....   50
 Basis Dimension        Dim             ....  110

ORBITAL ENERGIES
----------------

  NO   OCC          E(Eh)            E(eV)
   0   2.0000     -14.001235      -380.9930
   1   2.0000     -14.000527      -380.9737
   2   2.0000      -9.945647      -270.6348
   3   2.0000      -9.931700      -270.2553
   4   2.0000      -9.930651      -270.2267
   5   2.0000      -9.929390      -270.1924
   6   2.0000      -9.891168      -269.1524
   7   2.0000      -0.898514       -24.4498
   8   2.0000      -0.824166       -22.4267
   9   2.0000      -0.721381       -19.6298
  10   2.0000      -0.648294       -17.6410
  11   2.0000      -0.594330       -16.1725
  12   2.0000      -0.563570       -15.3355
  13   2.0000      -0.476311       -12.9611
  14   2.0000      -0.465628       -12.6704
  15   2.0000      -0.423487       -11.5237
  16   2.0000      -0.407690       -11.0938
  17   2.0000      -0.382066       -10.3965
  18   2.0000      -0.363938        -9.9032
  19   2.0000      -0.357429        -9.7261
  20   2.0000      -0.339538        -9.2393
  21   2.0000      -0.299941        -8.1618
  22   2.0000      -0.251086        -6.8324
  23   2.0000      -0.245257        -6.6738
  24   2.0000      -0.199247        -5.4218
  25   0.0000      -0.076818        -2.0903
  26   0.0000      -0.057475        -1.5640
  27   0.0000       0.052053         1.4164
  28   0.0000       0.068257         1.8574
  29   0.0000       0.073771         2.0074

MULLIKEN ATOMIC CHARGES
-----------------------
   0 C :   -0.201520
   1 C :   -0.101636
   2 C :   -0.068334
   3 N :   -0.041059
   4 C :   -0.060447
   5 C :   -0.048024
   6 N :   -0.049358
   7 H :    0.120440
   8 H :    0.114660
   9 H :    0.121851
  10 H :    0.061248
  11 H :    0.076557
  12 H :    0.075621
Sum of atomic charges:    0.0000000

LOEWDIN ATOMIC CHARGES
----------------------
   0 C :   -0.334223
   1 C :   -0.032127
   2 C :   -0.095405
   3 N :   -0.049881
   4 C :   -0.104339
   5 C :   -0.095483
   6 N :   -0.056866
   7 H :    0.137520
   8 H :    0.135271
   9 H :    0.138465
  10 H :    0.117536
  11 H :    0.119737
  12 H :    0.119795

  Mayer bond orders larger than 0.100000
B(  0-C ,  1-C ) :   1.0964 B(  0-C ,  7-H ) :   0.9341 B(  0-C ,  8-H ) :   0.9352
B(  0-C ,  9-H ) :   0.9329 B(  1-C ,  2-C ) :   1.3183 B(  1-C ,  4-C ) :   0.1042
B(  1-C ,  6-N ) :   1.5784 B(  2-C ,  3-N ) :   1.5770 B(  2-C ,  5-C ) :   0.1005
B(  2-C , 10-H ) :   0.9530 B(  3-N ,  4-C ) :   1.5284 B(  4-C ,  5-C ) :   1.3702
B(  4-C , 11-H ) :   0.9476 B(  5-C ,  6-N ) :   1.5240 B(  5-C , 12-H ) :   0.9459

Dispersion correction           -0.011959223
FINAL SINGLE POINT ENERGY      -302.985526054679

DIPOLE MOMENT
-------------

Method             : SCF
Type of density    : Electron Density
Multiplicity       :   1
Irrep              :   0
Energy             :  -303.0239522983143274 Eh
Relativity type    :
Basis              : AO
                                X                 Y                 Z
Electronic contribution:     -4.032214001      -0.129979496       0.002320317
Nuclear contribution   :      4.271880057       0.134636965      -0.005551677
                        -----------------------------------------
Total Dipole Moment    :      0.239666056       0.004657470      -0.003231360
                        -----------------------------------------
Magnitude (a.u.)       :      0.239733085
Magnitude (Debye)      :      0.609353077

Rotational constants in cm-1:             0.198397             0.090939             0.063086
Rotational constants in MHz :          5947.795524          2726.287854          1891.261281

                             ****ORCA TERMINATED NORMALLY****
TOTAL RUN TIME: 0 days 0 hours 0 minutes 6 seconds 181 msec
