                         Program Version 6.0.0  -   RELEASE  -
|  1> ! r2scan-3c def2/J RI DEFGRID2 scfconv6 printgap
|  2> %output
|  3>     printlevel normal
|  4> end
|  5> * xyz 0 1
|  6> C -1.9464718733 -0.1007945054 -0.0376157525
|  7> C -0.5623961327 0.5334757377 0.0108198183
|  8> C 0.5440580795 -0.5192289071 0.0154304484
|  9> N 1.8529581817 0.1206068312 -0.0395915419
| 10> H -2.0998784332 -0.7486878033 0.8228627353
| 11> H -2.7154906557 0.6670101382 -0.0322389568
| 12> H -2.0599952546 -0.6971442686 -0.9397529397
| 13> H -0.4720454359 1.1494229441 0.9087022233
| 14> H -0.4176100205 1.1823899548 -0.8535745681
| 15> H 0.4183401981 -1.1690281853 0.8997498172
| 16> H 0.4497018618 -1.1489344769 -0.8742320005
| 17> H 2.5814043106 -0.58419569 -0.0267768725
| 18> H 1.9791045551 0.7044838347 0.7808711244
| 19> *
| 20>
| 21>                          ****END OF INPUT****

CARTESIAN COORDINATES (ANGSTROEM)
---------------------------------
  C     -1.946472   -0.100795   -0.037616
  C     -0.562396    0.533476    0.010820
  C      0.544058   -0.519229    0.015430
  N      1.852958    0.120607   -0.039592
  H     -2.099878   -0.748688    0.822863
  H     -2.715491    0.667010   -0.032239
  H     -2.059995   -0.697144   -0.939753
  H     -0.472045    1.149423    0.908702
  H     -0.417610    1.182390   -0.853575
  H      0.418340   -1.169028    0.899750
  H      0.449702   -1.148934   -0.874232
  H      2.581404   -0.584196   -0.026777
  H      1.979105    0.704484    0.780871

 Total Charge           Charge          ....    0
 Multiplicity           Mult            ....    1
 Number of Electrons    NEL             ....   34
 Basis Dimension        Dim             ....  126

ORBITAL ENERGIES
----------------

  NO   OCC          E(Eh)            E(eV)
   0   2.0000     -14.133189      -384.5836
   1   2.0000     -10.047057      -273.3943
   2   2.0000     -10.021551      -272.7003
   3   2.0000     -10.016111      -272.5522
   4   2.0000      -0.844602       -22.9828
   5   2.0000      -0.732944       -19.9444
   6   2.0000      -0.623481       -16.9658
   7   2.0000      -0.549443       -14.9511
   8   2.0000      -0.452163       -12.3040
   9   2.0000      -0.431026       -11.7288
  10   2.0000      -0.410374       -11.1669
  11   2.0000      -0.374548       -10.1920
  12   2.0000      -0.347507        -9.4561
  13   2.0000      -0.320819        -8.7299
  14   2.0000      -0.302162        -8.2222
  15   2.0000      -0.298234        -8.1154
  16   2.0000      -0.203685        -5.5425
  17   0.0000       0.076552         2.0831
  18   0.0000       0.102247         2.7823
  19   0.0000       0.129502         3.5239
  20   0.0000       0.143682         3.9098
  21   0.0000       0.148543         4.0421

MULLIKEN ATOMIC CHARGES
-----------------------
   0 C :   -0.471733
   1 C :   -0.204482
   2 C :   -0.205474
   3 N :   -0.546609
   4 H :    0.139375
   5 H :    0.145789
   6 H :    0.142078
   7 H :    0.122837
   8 H :    0.151540
   9 H :    0.117711
  10 H :    0.134442
  11 H :    0.237716
  12 H :    0.236810
Sum of atomic charges:    0.0000000

LOEWDIN ATOMIC CHARGES
----------------------
   0 C :   -0.425145
   1 C :   -0.292652
   2 C :   -0.076522
   3 N :   -0.748280
   4 H :    0.149377
   5 H :    0.151191
   6 H :    0.150358
   7 H :    0.148588
   8 H :    0.159144
   9 H :    0.145393
  10 H :    0.168787
  11 H :    0.235294
  12 H :    0.234468

  Mayer bond orders larger than 0.100000
B(  0-C ,  1-C ) :   0.9096 B(  0-C ,  4-H ) :   0.9793 B(  0-C ,  5-H ) :   0.9716
B(  0-C ,  6-H ) :   0.9837 B(  1-C ,  2-C ) :   0.9316 B(  1-C ,  7-H ) :   0.9549
B(  1-C ,  8-H ) :   0.9658 B(  2-C ,  3-N ) :   0.9299 B(  2-C ,  9-H ) :   0.9686
B(  2-C , 10-H ) :   0.9859 B(  3-N , 11-H ) :   0.9203 B(  3-N , 12-H ) :   0.9213

Dispersion correction           -0.002375650
FINAL SINGLE POINT ENERGY      -174.424278871533

DIPOLE MOMENT
-------------

Method             : SCF
Type of density    : Electron Density
Multiplicity       :   1
Irrep              :   0
Energy             :  -174.4310548959768141 Eh
Relativity type    :
Basis              : AO
                                X                 Y                 Z
Electronic contribution:      2.170461474       0.364829935      -0.241956225
Nuclear contribution   :     -2.181801046      -0.604159155       0.643001946
                        -----------------------------------------
Total Dipole Moment    :     -0.011339572      -0.239329220       0.401045721
                        -----------------------------------------
Magnitude (a.u.)       :      0.467166706
Magnitude (Debye)      :      1.187443400

Rotational constants in cm-1:             0.839072             0.125841             0.117568
Rotational constants in MHz :         25154.738565          3772.611633          3524.590770

                             ****ORCA TERMINATED NORMALLY****
TOTAL RUN TIME: 0 days 0 hours 0 minutes 10 seconds 994 msec
