                         Program Version 6.0.0  -   RELEASE  -
|  1> ! r2scan-3c def2/J RI DEFGRID2 scfconv6 printgap
|  2> %output
|  3>     printlevel normal
|  4> end
|  5> %cpcm
|  6>     smd true
|  7>     smdsolvent "water"
|  8> end
|  9> * xyz 0 1
| 10> C -1.9464718733 -0.1007945054 -0.0376157525
| 11> C -0.5623961327 0.5334757377 0.0108198183
| 12> C 0.5440580795 -0.5192289071 0.0154304484
| 13> N 1.8529581817 0.1206068312 -0.0395915419
| 14> H -2.0998784332 -0.7486878033 0.8228627353
| 15> H -2.7154906557 0.6670101382 -0.0322389568
| 16> H -2.0599952546 -0.6971442686 -0.9397529397
| 17> H -0.4720454359 1.1494229441 0.9087022233
| 18> H -0.4176100205 1.1823899548 -0.8535745681
| 19> H 0.4183401981 -1.1690281853 0.8997498172
| 20> H 0.4497018618 -1.1489344769 -0.8742320005
| 21> H 2.5814043106 -0.58419569 -0.0267768725
| 22> H 1.9791045551 0.7044838347 0.7808711244
| 23> *
| 24>
| 25>                          ****END OF INPUT****

CARTESIAN COORDINATES (ANGSTROEM)
---------------------------------
  C     -1.946472   -0.100795   -0.037616
  C     -0.562396    0.533476    0.010820
  C      0.544058   -0.519229    0.015430
  N      1.852958    0.120607   -0.039592
  H     -2.099878   -0.748688    0.822863
  H     -2.715491    0.667010   -0.032239
  H     -2.059995   -0.697144   -0.939753
  H     -0.472045    1.149423    0.908702
  H     -0.417610    1.182390   -0.853575
  H      0.418340   -1.169028    0.899750
  H      0.449702   -1.148934   -0.874232
  H      2.581404   -0.584196   -0.026777
  H      1.979105    0.704484    0.780871

 Total Charge           Charge          ....    0
 Multiplicity           Mult            ....    1
 Number of Electrons    NEL             ....   34
 Basis Dimension        Dim             ....  126

ORBITAL ENERGIES
----------------

  NO   OCC          E(Eh)            E(eV)
   0   2.0000     -14.127483      -384.4284
   1   2.0000     -10.040691      -273.2211
   2   2.0000     -10.015611      -272.5386
   3   2.0000     -10.008635      -272.3488
   4   2.0000      -0.839046       -22.8316
   5   2.0000      -0.726633       -19.7727
   6   2.0000      -0.617087       -16.7918
   7   2.0000      -0.543344       -14.7851
   8   2.0000      -0.445472       -12.1219
   9   2.0000      -0.424913       -11.5625
  10   2.0000      -0.403820       -10.9885
  11   2.0000      -0.367993       -10.0136
  12   2.0000      -0.340643        -9.2694
  13   2.0000      -0.315009        -8.5718
  14   2.0000      -0.296280        -8.0622
  15   2.0000      -0.290982        -7.9180
  16   2.0000      -0.204687        -5.5698
  17   0.0000       0.087331         2.3764
  18   0.0000       0.109558         2.9812
  19   0.0000       0.140968         3.8359
  20   0.0000       0.147250         4.0069
  21   0.0000       0.154284         4.1983

MULLIKEN ATOMIC CHARGES
-----------------------
   0 C :   -0.513099
   1 C :   -0.210419
   2 C :   -0.225760
   3 N :   -0.636738
   4 H :    0.152406
   5 H :    0.156153
   6 H :    0.153621
   7 H :    0.142660
   8 H :    0.144692
   9 H :    0.128582
  10 H :    0.147760
  11 H :    0.279938
  12 H :    0.280204
Sum of atomic charges:    0.0000000

LOEWDIN ATOMIC CHARGES
----------------------
   0 C :   -0.432657
   1 C :   -0.297078
   2 C :   -0.078866
   3 N :   -0.771183
   4 H :    0.152948
   5 H :    0.153639
   6 H :    0.153006
   7 H :    0.154084
   8 H :    0.155351
   9 H :    0.150793
  10 H :    0.171261
  11 H :    0.244752
  12 H :    0.243950

  Mayer bond orders larger than 0.100000
B(  0-C ,  1-C ) :   0.9038 B(  0-C ,  4-H ) :   0.9776 B(  0-C ,  5-H ) :   0.9688
B(  0-C ,  6-H ) :   0.9809 B(  1-C ,  2-C ) :   0.9160 B(  1-C ,  7-H ) :   0.9556
B(  1-C ,  8-H ) :   0.9639 B(  2-C ,  3-N ) :   0.9436 B(  2-C ,  9-H ) :   0.9731
B(  2-C , 10-H ) :   0.9857 B(  3-N , 11-H ) :   0.9040 B(  3-N , 12-H ) :   0.9049

Dispersion correction           -0.002375650
FINAL SINGLE POINT ENERGY      -174.429633529870

DIPOLE MOMENT
-------------

Method             : SCF
Type of density    : Electron Density
Multiplicity       :   1
Irrep              :   0
Energy             :  -174.4364095543142810 Eh
Relativity type    :
Basis              : AO
                                X                 Y                 Z
Electronic contribution:      2.163865613       0.257194901      -0.068726385
Nuclear contribution   :     -2.181801046      -0.604159155       0.643001946
                        -----------------------------------------
Total Dipole Moment    :     -0.017935432      -0.346964253       0.574275561
                        -----------------------------------------
Magnitude (a.u.)       :      0.671191696
Magnitude (Debye)      :      1.706033710

Rotational constants in cm-1:             0.839072             0.125841             0.117568
Rotational constants in MHz :         25154.738565          3772.611633          3524.590770

                             ****ORCA TERMINATED NORMALLY****
TOTAL RUN TIME: 0 days 0 hours 0 minutes 14 seconds 541 msec
