                         Program Version 6.0.0  -   RELEASE  -
|  1> ! wb97x-v def2-tzvp def2/J RIJCOSX DEFGRID2 scfconv7 GCP(DFT/TZ) printgap
|  2> %output
|  3>     printlevel normal
|  4> end
|  5> * xyz 0 1
|  6> C -1.4481853757587755 0.5569051974247342 1.367018938260252
|  7> C -0.9599017940011069 -0.31917837640876723 0.22742845658655791
|  8> H -1.0553284303045611 -1.3825754596870738 0.49080181485638674
|  9> C 0.517135703566082 -0.09561883792120035 -0.05651405425542089
| 10> F 0.7966541771513262 1.1867752451861198 -0.3924149339869032
| 11> F 1.2658944814499233 -0.3969029638473653 1.0304187674240548
| 12> F 0.9615527159867752 -0.8716741350775277 -1.0742362401923478
| 13> O -1.6264086001879157 -0.03924052247435304 -1.0039508406564592
| 14> H -0.9168873884732335 0.32632284085794716 2.294339151579781
| 15> H -2.511797807413605 0.361077776412515 1.5287076577151542
| 16> H -1.3181231244978666 1.6160335566757296 1.1277952722945679
| 17> H -2.5721524773726228 -0.16191418277128974 -0.8474630703170797
| 18> *
| 19>
| 20>                          ****END OF INPUT****

CARTESIAN COORDINATES (ANGSTROEM)
---------------------------------
  C     -1.448185    0.556905    1.367019
  C     -0.959902   -0.319178    0.227428
  H     -1.055328   -1.382575    0.490802
  C      0.517136   -0.095619   -0.056514
  F      0.796654    1.186775   -0.392415
  F      1.265894   -0.396903    1.030419
  F      0.961553   -0.871674   -1.074236
  O     -1.626409   -0.039241   -1.003951
  H     -0.916887    0.326323    2.294339
  H     -2.511798    0.361078    1.528708
  H     -1.318123    1.616034    1.127795
  H     -2.572152   -0.161914   -0.847463

 Total Charge           Charge          ....    0
 Multiplicity           Mult            ....    1
 Number of Electrons    NEL             ....   58
 Basis Dimension        Dim             ....  247

ORBITAL ENERGIES
----------------

  NO   OCC          E(Eh)            E(eV)
   0   2.0000     -27.598361      -750.9896
   1   2.0000     -27.592360      -750.8263
   2   2.0000     -27.590316      -750.7707
   3   2.0000     -21.698403      -590.4436
   4   2.0000     -12.296367      -334.6012
   5   2.0000     -12.137557      -330.2797
   6   2.0000     -12.063917      -328.2759
   7   2.0000      -2.054550       -55.9071
   8   2.0000      -2.008282       -54.6481
   9   2.0000      -2.002883       -54.5012
  10   2.0000      -1.703729       -46.3608
  11   2.0000      -1.392938       -37.9038
  12   2.0000      -1.303008       -35.4567
  13   2.0000      -1.252361       -34.0785
  14   2.0000      -1.248768       -33.9807
  15   2.0000      -1.205067       -32.7915
  16   2.0000      -1.159873       -31.5618
  17   2.0000      -1.159026       -31.5387
  18   2.0000      -1.152887       -31.3716
  19   2.0000      -1.144389       -31.1404
  20   2.0000      -1.142259       -31.0824
  21   2.0000      -1.139449       -31.0060
  22   2.0000      -1.053033       -28.6545
  23   2.0000      -1.009036       -27.4573
  24   2.0000      -0.966484       -26.2994
  25   2.0000      -0.911466       -24.8022
  26   2.0000      -0.854997       -23.2656
  27   2.0000      -0.844560       -22.9816
  28   2.0000      -0.816621       -22.2214
  29   0.0000      -0.271497        -7.3878
  30   0.0000      -0.260081        -7.0772
  31   0.0000      -0.228590        -6.2203
  32   0.0000      -0.122213        -3.3256
  33   0.0000      -0.068419        -1.8618

MULLIKEN ATOMIC CHARGES
-----------------------
   0 C :   -0.393748
   1 C :    0.063818
   2 H :    0.094801
   3 C :    0.445314
   4 F :   -0.161743
   5 F :   -0.168499
   6 F :   -0.156670
   7 O :   -0.419763
   8 H :    0.131740
   9 H :    0.115457
  10 H :    0.144017
  11 H :    0.305276
Sum of atomic charges:   -0.0000000

LOEWDIN ATOMIC CHARGES
----------------------
   0 C :   -0.278034
   1 C :   -0.352521
   2 H :    0.146865
   3 C :   -0.628378
   4 F :    0.185752
   5 F :    0.182226
   6 F :    0.185038
   7 O :   -0.001044
   8 H :    0.130805
   9 H :    0.122196
  10 H :    0.130385
  11 H :    0.176710

  Mayer bond orders larger than 0.100000
B(  0-C ,  1-C ) :   0.9810 B(  0-C ,  8-H ) :   0.9655 B(  0-C ,  9-H ) :   0.9721
B(  0-C , 10-H ) :   0.9700 B(  1-C ,  2-H ) :   0.9532 B(  1-C ,  3-C ) :   0.9773
B(  1-C ,  7-O ) :   1.0389 B(  3-C ,  4-F ) :   1.1526 B(  3-C ,  5-F ) :   1.1355
B(  3-C ,  6-F ) :   1.1657 B(  7-O , 11-H ) :   0.8974

FINAL SINGLE POINT ENERGY      -492.135897454926

DIPOLE MOMENT
-------------

Method             : SCF
Type of density    : Electron Density
Multiplicity       :   1
Irrep              :   0
Energy             :  -492.1497285285257703 Eh
Relativity type    :
Basis              : AO
                                X                 Y                 Z
Electronic contribution:      9.471802136      -1.002030031      -3.951866548
Nuclear contribution   :    -10.687231327       0.782338980       4.720539701
                        -----------------------------------------
Total Dipole Moment    :     -1.215429191      -0.219691051       0.768673154
                        -----------------------------------------
Magnitude (a.u.)       :      1.454782009
Magnitude (Debye)      :      3.697762001

Rotational constants in cm-1:             0.116210             0.079959             0.065390
Rotational constants in MHz :          3483.888440          2397.112065          1960.348500

                             ****ORCA TERMINATED NORMALLY****
TOTAL RUN TIME: 0 days 0 hours 1 minutes 18 seconds 386 msec
