                         Program Version 6.0.0  -   RELEASE  -
|  1> ! wb97x-v def2-tzvp def2/J RIJCOSX DEFGRID2 scfconv7 GCP(DFT/TZ) printgap
|  2> %output
|  3>     printlevel normal
|  4> end
|  5> %cpcm
|  6>     smd true
|  7>     smdsolvent "water"
|  8> end
|  9> * xyz 0 1
| 10> C -1.4481853757587755 0.5569051974247342 1.367018938260252
| 11> C -0.9599017940011069 -0.31917837640876723 0.22742845658655791
| 12> H -1.0553284303045611 -1.3825754596870738 0.49080181485638674
| 13> C 0.517135703566082 -0.09561883792120035 -0.05651405425542089
| 14> F 0.7966541771513262 1.1867752451861198 -0.3924149339869032
| 15> F 1.2658944814499233 -0.3969029638473653 1.0304187674240548
| 16> F 0.9615527159867752 -0.8716741350775277 -1.0742362401923478
| 17> O -1.6264086001879157 -0.03924052247435304 -1.0039508406564592
| 18> H -0.9168873884732335 0.32632284085794716 2.294339151579781
| 19> H -2.511797807413605 0.361077776412515 1.5287076577151542
| 20> H -1.3181231244978666 1.6160335566757296 1.1277952722945679
| 21> H -2.5721524773726228 -0.16191418277128974 -0.8474630703170797
| 22> *
| 23>
| 24>                          ****END OF INPUT****

CARTESIAN COORDINATES (ANGSTROEM)
---------------------------------
  C     -1.448185    0.556905    1.367019
  C     -0.959902   -0.319178    0.227428
  H     -1.055328   -1.382575    0.490802
  C      0.517136   -0.095619   -0.056514
  F      0.796654    1.186775   -0.392415
  F      1.265894   -0.396903    1.030419
  F      0.961553   -0.871674   -1.074236
  O     -1.626409   -0.039241   -1.003951
  H     -0.916887    0.326323    2.294339
  H     -2.511798    0.361078    1.528708
  H     -1.318123    1.616034    1.127795
  H     -2.572152   -0.161914   -0.847463

 Total Charge           Charge          ....    0
 Multiplicity           Mult            ....    1
 Number of Electrons    NEL             ....   58
 Basis Dimension        Dim             ....  247

ORBITAL ENERGIES
----------------

  NO   OCC          E(Eh)            E(eV)
   0   2.0000     -27.601823      -751.0838
   1   2.0000     -27.600279      -751.0418
   2   2.0000     -27.599562      -751.0223
   3   2.0000     -21.688548      -590.1754
   4   2.0000     -12.297787      -334.6398
   5   2.0000     -12.122992      -329.8834
   6   2.0000     -12.040827      -327.6475
   7   2.0000      -2.061255       -56.0896
   8   2.0000      -2.013877       -54.8004
   9   2.0000      -2.012138       -54.7530
  10   2.0000      -1.693950       -46.0947
  11   2.0000      -1.395470       -37.9727
  12   2.0000      -1.293120       -35.1876
  13   2.0000      -1.258251       -34.2388
  14   2.0000      -1.257308       -34.2131
  15   2.0000      -1.199730       -32.6463
  16   2.0000      -1.166080       -31.7306
  17   2.0000      -1.165821       -31.7236
  18   2.0000      -1.153197       -31.3801
  19   2.0000      -1.151695       -31.3392
  20   2.0000      -1.148699       -31.2577
  21   2.0000      -1.144050       -31.1312
  22   2.0000      -1.041912       -28.3519
  23   2.0000      -1.003566       -27.3084
  24   2.0000      -0.956250       -26.0209
  25   2.0000      -0.898632       -24.4530
  26   2.0000      -0.837986       -22.8028
  27   2.0000      -0.820818       -22.3356
  28   2.0000      -0.796716       -21.6797
  29   0.0000      -0.276463        -7.5229
  30   0.0000      -0.257663        -7.0114
  31   0.0000      -0.227576        -6.1927
  32   0.0000      -0.111382        -3.0309
  33   0.0000      -0.050373        -1.3707

MULLIKEN ATOMIC CHARGES
-----------------------
   0 C :   -0.419825
   1 C :    0.081083
   2 H :    0.131777
   3 C :    0.449319
   4 F :   -0.176393
   5 F :   -0.175644
   6 F :   -0.175437
   7 O :   -0.523142
   8 H :    0.143949
   9 H :    0.153063
  10 H :    0.139774
  11 H :    0.371476
Sum of atomic charges:   -0.0000000

LOEWDIN ATOMIC CHARGES
----------------------
   0 C :   -0.275000
   1 C :   -0.343577
   2 H :    0.160199
   3 C :   -0.628516
   4 F :    0.174999
   5 F :    0.178666
   6 F :    0.172335
   7 O :   -0.038172
   8 H :    0.134212
   9 H :    0.134237
  10 H :    0.128723
  11 H :    0.201893

  Mayer bond orders larger than 0.100000
B(  0-C ,  1-C ) :   0.9916 B(  0-C ,  8-H ) :   0.9611 B(  0-C ,  9-H ) :   0.9684
B(  0-C , 10-H ) :   0.9630 B(  1-C ,  2-H ) :   0.9472 B(  1-C ,  3-C ) :   0.9804
B(  1-C ,  7-O ) :   1.0109 B(  3-C ,  4-F ) :   1.1396 B(  3-C ,  5-F ) :   1.1393
B(  3-C ,  6-F ) :   1.1454 B(  7-O , 11-H ) :   0.8572

FINAL SINGLE POINT ENERGY      -492.144964309500

DIPOLE MOMENT
-------------

Method             : SCF
Type of density    : Electron Density
Multiplicity       :   1
Irrep              :   0
Energy             :  -492.1587953831001414 Eh
Relativity type    :
Basis              : AO
                                X                 Y                 Z
Electronic contribution:      9.151523894      -1.136138515      -3.682933198
Nuclear contribution   :    -10.687231327       0.782338980       4.720539701
                        -----------------------------------------
Total Dipole Moment    :     -1.535707433      -0.353799534       1.037606503
                        -----------------------------------------
Magnitude (a.u.)       :      1.886848877
Magnitude (Debye)      :      4.795988702

Rotational constants in cm-1:             0.116210             0.079959             0.065390
Rotational constants in MHz :          3483.888440          2397.112065          1960.348500

                             ****ORCA TERMINATED NORMALLY****
TOTAL RUN TIME: 0 days 0 hours 1 minutes 23 seconds 577 msec
