                         Program Version 6.0.0  -   RELEASE  -
|  1> ! r2scan-3c def2/J RI DEFGRID2 scfconv6 printgap
|  2> %output
|  3>     printlevel normal
|  4> end
|  5> * xyz 0 1
|  6> C -3.4154501912 -0.4081361076 1.7478068598
|  7> N -2.3421904391 -0.0667302274 0.8400993454
|  8> C -2.3956522525 -0.320322339 -0.4725331573
|  9> O -3.3331809112 -0.8547991946 -1.0381343307
| 10> O -1.3251233145 0.0451124509 -1.2132601347
| 11> C -0.2118645349 0.6614317354 -0.6261878446
| 12> C -0.1858252772 2.0240489764 -0.4782218977
| 13> C 0.9538574907 2.6502518259 0.0487522061
| 14> C 2.0413559582 1.9101423201 0.4192478879
| 15> C 2.0438137648 0.5065002136 0.274815279
| 16> C 0.8979929978 -0.1417220874 -0.2593068548
| 17> C 0.902364008 -1.5439446764 -0.4089520933
| 18> C 1.9971889813 -2.276011547 -0.042458474
| 19> C 3.1308188186 -1.6403790106 0.4883275606
| 20> C 3.1542038028 -0.2823407 0.6430276666
| 21> H -3.7851846877 0.4890246291 2.2422831649
| 22> H -3.0639858226 -1.1200863085 2.4935069026
| 23> H -4.2153531341 -0.8582648229 1.1636871703
| 24> H -1.518120056 0.3683536114 1.2292239028
| 25> H -1.043411468 2.6066165594 -0.7774055886
| 26> H 0.9563468935 3.7231585546 0.1551583802
| 27> H 2.9188368174 2.3893418833 0.8249557603
| 28> H 0.0280801509 -2.0231305173 -0.8259249789
| 29> H 1.9950643097 -3.3485499109 -0.161530533
| 30> H 3.9852006145 -2.2358451731 0.7709299185
| 31> H 4.025042321 0.2102093718 1.0480863947
| 32> *
| 33>
| 34>                          ****END OF INPUT****

CARTESIAN COORDINATES (ANGSTROEM)
---------------------------------
  C     -3.415450   -0.408136    1.747807
  N     -2.342190   -0.066730    0.840099
  C     -2.395652   -0.320322   -0.472533
  O     -3.333181   -0.854799   -1.038134
  O     -1.325123    0.045112   -1.213260
  C     -0.211865    0.661432   -0.626188
  C     -0.185825    2.024049   -0.478222
  C      0.953857    2.650252    0.048752
  C      2.041356    1.910142    0.419248
  C      2.043814    0.506500    0.274815
  C      0.897993   -0.141722   -0.259307
  C      0.902364   -1.543945   -0.408952
  C      1.997189   -2.276012   -0.042458
  C      3.130819   -1.640379    0.488328
  C      3.154204   -0.282341    0.643028
  H     -3.785185    0.489025    2.242283
  H     -3.063986   -1.120086    2.493507
  H     -4.215353   -0.858265    1.163687
  H     -1.518120    0.368354    1.229224
  H     -1.043411    2.606617   -0.777406
  H      0.956347    3.723159    0.155158
  H      2.918837    2.389342    0.824956
  H      0.028080   -2.023131   -0.825925
  H      1.995064   -3.348550   -0.161531
  H      3.985201   -2.235845    0.770930
  H      4.025042    0.210209    1.048086

 Total Charge           Charge          ....    0
 Multiplicity           Mult            ....    1
 Number of Electrons    NEL             ....  106
 Basis Dimension        Dim             ....  355

ORBITAL ENERGIES
----------------

  NO   OCC          E(Eh)            E(eV)
   0   2.0000     -19.004498      -517.1387
   1   2.0000     -18.907399      -514.4965
   2   2.0000     -14.195233      -386.2719
   3   2.0000     -10.172459      -276.8067
   4   2.0000     -10.113508      -275.2026
   5   2.0000     -10.068470      -273.9770
   6   2.0000     -10.063378      -273.8384
   7   2.0000     -10.062821      -273.8233
   8   2.0000     -10.054568      -273.5987
   9   2.0000     -10.054057      -273.5848
  10   2.0000     -10.051352      -273.5112
  11   2.0000     -10.050441      -273.4864
  12   2.0000     -10.049347      -273.4566
  13   2.0000     -10.048964      -273.4462
  14   2.0000     -10.048369      -273.4300
  15   2.0000      -1.079440       -29.3731
  16   2.0000      -0.978278       -26.6203
  17   2.0000      -0.899651       -24.4808
  18   2.0000      -0.861483       -23.4421
  19   2.0000      -0.809391       -22.0246
  20   2.0000      -0.758661       -20.6442
  21   2.0000      -0.730777       -19.8854
  22   2.0000      -0.708770       -19.2866
  23   2.0000      -0.685649       -18.6575
  24   2.0000      -0.623695       -16.9716
  25   2.0000      -0.603575       -16.4241
  26   2.0000      -0.599444       -16.3117
  27   2.0000      -0.561692       -15.2844
  28   2.0000      -0.541959       -14.7475
  29   2.0000      -0.503779       -13.7085
  30   2.0000      -0.487158       -13.2562
  31   2.0000      -0.480565       -13.0768
  32   2.0000      -0.459534       -12.5046
  33   2.0000      -0.445899       -12.1335
  34   2.0000      -0.427693       -11.6381
  35   2.0000      -0.413163       -11.2427
  36   2.0000      -0.409334       -11.1385
  37   2.0000      -0.401150       -10.9159
  38   2.0000      -0.390578       -10.6282
  39   2.0000      -0.388845       -10.5810
  40   2.0000      -0.379212       -10.3189
  41   2.0000      -0.373169       -10.1544
  42   2.0000      -0.366100        -9.9621
  43   2.0000      -0.354690        -9.6516
  44   2.0000      -0.328261        -8.9324
  45   2.0000      -0.324603        -8.8329
  46   2.0000      -0.318621        -8.6701
  47   2.0000      -0.278354        -7.5744
  48   2.0000      -0.275468        -7.4959
  49   2.0000      -0.250275        -6.8103
  50   2.0000      -0.238793        -6.4979
  51   2.0000      -0.233497        -6.3538
  52   2.0000      -0.214979        -5.8499
  53   0.0000      -0.083002        -2.2586
  54   0.0000      -0.053257        -1.4492
  55   0.0000      -0.015068        -0.4100
  56   0.0000       0.029066         0.7909
  57   0.0000       0.045786         1.2459

MULLIKEN ATOMIC CHARGES
-----------------------
   0 C :   -0.397329
   1 N :   -0.168450
   2 C :    0.326298
   3 O :   -0.447763
   4 O :   -0.146281
   5 C :    0.176410
   6 C :   -0.195077
   7 C :   -0.132907
   8 C :   -0.261457
   9 C :    0.174496
  10 C :   -0.005929
  11 C :   -0.233306
  12 C :   -0.144824
  13 C :   -0.137349
  14 C :   -0.213523
  15 H :    0.144508
  16 H :    0.146053
  17 H :    0.199243
  18 H :    0.247109
  19 H :    0.164282
  20 H :    0.149993
  21 H :    0.146676
  22 H :    0.167729
  23 H :    0.148734
  24 H :    0.147495
  25 H :    0.145169
Sum of atomic charges:   -0.0000000

LOEWDIN ATOMIC CHARGES
----------------------
   0 C :   -0.108426
   1 N :   -0.621858
   2 C :    0.450586
   3 O :   -0.397452
   4 O :   -0.489069
   5 C :    0.195420
   6 C :   -0.128391
   7 C :   -0.155820
   8 C :   -0.144307
   9 C :   -0.054842
  10 C :   -0.029838
  11 C :   -0.122313
  12 C :   -0.154276
  13 C :   -0.155618
  14 C :   -0.140987
  15 H :    0.169660
  16 H :    0.170110
  17 H :    0.207068
  18 H :    0.279754
  19 H :    0.185298
  20 H :    0.171534
  21 H :    0.172715
  22 H :    0.188631
  23 H :    0.170697
  24 H :    0.169504
  25 H :    0.172219

  Mayer bond orders larger than 0.100000
B(  0-C ,  1-N ) :   0.8946 B(  0-C , 15-H ) :   0.9632 B(  0-C , 16-H ) :   0.9613
B(  0-C , 17-H ) :   0.9538 B(  1-N ,  2-C ) :   1.1598 B(  1-N , 18-H ) :   0.9163
B(  2-C ,  3-O ) :   1.9456 B(  2-C ,  4-O ) :   1.0336 B(  4-O ,  5-C ) :   0.8960
B(  5-C ,  6-C ) :   1.5346 B(  5-C , 10-C ) :   1.2696 B(  5-C , 11-C ) :  -0.1002
B(  6-C ,  7-C ) :   1.2129 B(  6-C , 19-H ) :   0.9363 B(  7-C ,  8-C ) :   1.4944
B(  7-C , 20-H ) :   0.9576 B(  8-C ,  9-C ) :   1.1774 B(  8-C , 21-H ) :   0.9479
B(  9-C , 10-C ) :   1.3931 B(  9-C , 14-C ) :   1.1857 B( 10-C , 11-C ) :   1.2948
B( 11-C , 12-C ) :   1.4829 B( 11-C , 22-H ) :   0.9584 B( 12-C , 13-C ) :   1.2558
B( 12-C , 23-H ) :   0.9536 B( 13-C , 14-C ) :   1.5094 B( 13-C , 24-H ) :   0.9497
B( 14-C , 25-H ) :   0.9505

Dispersion correction           -0.011039755
FINAL SINGLE POINT ENERGY      -668.974716280504

DIPOLE MOMENT
-------------

Method             : SCF
Type of density    : Electron Density
Multiplicity       :   1
Irrep              :   0
Energy             :  -668.9783705402206806 Eh
Relativity type    :
Basis              : AO
                                X                 Y                 Z
Electronic contribution:      1.020420550       0.447389803      -6.072389459
Nuclear contribution   :      0.183197930       0.176053149       7.629534678
                        -----------------------------------------
Total Dipole Moment    :      1.203618480       0.623442953       1.557145219
                        -----------------------------------------
Magnitude (a.u.)       :      2.064480514
Magnitude (Debye)      :      5.247492442

Rotational constants in cm-1:             0.033577             0.014934             0.012253
Rotational constants in MHz :          1006.625845           447.703771           367.347499

                             ****ORCA TERMINATED NORMALLY****
TOTAL RUN TIME: 0 days 0 hours 0 minutes 45 seconds 276 msec
