                         Program Version 6.0.0  -   RELEASE  -
|  1> ! r2scan-3c def2/J RI DEFGRID2 scfconv6 printgap
|  2> %output
|  3>     printlevel normal
|  4> end
|  5> %cpcm
|  6>     smd true
|  7>     smdsolvent "water"
|  8> end
|  9> * xyz 0 1
| 10> C -3.4154501912 -0.4081361076 1.7478068598
| 11> N -2.3421904391 -0.0667302274 0.8400993454
| 12> C -2.3956522525 -0.320322339 -0.4725331573
| 13> O -3.3331809112 -0.8547991946 -1.0381343307
| 14> O -1.3251233145 0.0451124509 -1.2132601347
| 15> C -0.2118645349 0.6614317354 -0.6261878446
| 16> C -0.1858252772 2.0240489764 -0.4782218977
| 17> C 0.9538574907 2.6502518259 0.0487522061
| 18> C 2.0413559582 1.9101423201 0.4192478879
| 19> C 2.0438137648 0.5065002136 0.274815279
| 20> C 0.8979929978 -0.1417220874 -0.2593068548
| 21> C 0.902364008 -1.5439446764 -0.4089520933
| 22> C 1.9971889813 -2.276011547 -0.042458474
| 23> C 3.1308188186 -1.6403790106 0.4883275606
| 24> C 3.1542038028 -0.2823407 0.6430276666
| 25> H -3.7851846877 0.4890246291 2.2422831649
| 26> H -3.0639858226 -1.1200863085 2.4935069026
| 27> H -4.2153531341 -0.8582648229 1.1636871703
| 28> H -1.518120056 0.3683536114 1.2292239028
| 29> H -1.043411468 2.6066165594 -0.7774055886
| 30> H 0.9563468935 3.7231585546 0.1551583802
| 31> H 2.9188368174 2.3893418833 0.8249557603
| 32> H 0.0280801509 -2.0231305173 -0.8259249789
| 33> H 1.9950643097 -3.3485499109 -0.161530533
| 34> H 3.9852006145 -2.2358451731 0.7709299185
| 35> H 4.025042321 0.2102093718 1.0480863947
| 36> *
| 37>
| 38>                          ****END OF INPUT****

CARTESIAN COORDINATES (ANGSTROEM)
---------------------------------
  C     -3.415450   -0.408136    1.747807
  N     -2.342190   -0.066730    0.840099
  C     -2.395652   -0.320322   -0.472533
  O     -3.333181   -0.854799   -1.038134
  O     -1.325123    0.045112   -1.213260
  C     -0.211865    0.661432   -0.626188
  C     -0.185825    2.024049   -0.478222
  C      0.953857    2.650252    0.048752
  C      2.041356    1.910142    0.419248
  C      2.043814    0.506500    0.274815
  C      0.897993   -0.141722   -0.259307
  C      0.902364   -1.543945   -0.408952
  C      1.997189   -2.276012   -0.042458
  C      3.130819   -1.640379    0.488328
  C      3.154204   -0.282341    0.643028
  H     -3.785185    0.489025    2.242283
  H     -3.063986   -1.120086    2.493507
  H     -4.215353   -0.858265    1.163687
  H     -1.518120    0.368354    1.229224
  H     -1.043411    2.606617   -0.777406
  H      0.956347    3.723159    0.155158
  H      2.918837    2.389342    0.824956
  H      0.028080   -2.023131   -0.825925
  H      1.995064   -3.348550   -0.161531
  H      3.985201   -2.235845    0.770930
  H      4.025042    0.210209    1.048086

 Total Charge           Charge          ....    0
 Multiplicity           Mult            ....    1
 Number of Electrons    NEL             ....  106
 Basis Dimension        Dim             ....  355

ORBITAL ENERGIES
----------------

  NO   OCC          E(Eh)            E(eV)
   0   2.0000     -19.013766      -517.3909
   1   2.0000     -18.931557      -515.1538
   2   2.0000     -14.194505      -386.2521
   3   2.0000     -10.187523      -277.2166
   4   2.0000     -10.108824      -275.0751
   5   2.0000     -10.057552      -273.6799
   6   2.0000     -10.056757      -273.6583
   7   2.0000     -10.054725      -273.6030
   8   2.0000     -10.045348      -273.3478
   9   2.0000     -10.042719      -273.2763
  10   2.0000     -10.041449      -273.2417
  11   2.0000     -10.040460      -273.2148
  12   2.0000     -10.039928      -273.2003
  13   2.0000     -10.039430      -273.1868
  14   2.0000     -10.038491      -273.1612
  15   2.0000      -1.090379       -29.6707
  16   2.0000      -0.997650       -27.1474
  17   2.0000      -0.900868       -24.5139
  18   2.0000      -0.854699       -23.2575
  19   2.0000      -0.801353       -21.8059
  20   2.0000      -0.752364       -20.4729
  21   2.0000      -0.722072       -19.6486
  22   2.0000      -0.702308       -19.1108
  23   2.0000      -0.678732       -18.4692
  24   2.0000      -0.620080       -16.8732
  25   2.0000      -0.594853       -16.1868
  26   2.0000      -0.592808       -16.1311
  27   2.0000      -0.559363       -15.2210
  28   2.0000      -0.536206       -14.5909
  29   2.0000      -0.494606       -13.4589
  30   2.0000      -0.478213       -13.0128
  31   2.0000      -0.473554       -12.8860
  32   2.0000      -0.455704       -12.4003
  33   2.0000      -0.444855       -12.1051
  34   2.0000      -0.419435       -11.4134
  35   2.0000      -0.415648       -11.3104
  36   2.0000      -0.402495       -10.9524
  37   2.0000      -0.399627       -10.8744
  38   2.0000      -0.394307       -10.7296
  39   2.0000      -0.383569       -10.4375
  40   2.0000      -0.372375       -10.1328
  41   2.0000      -0.370321       -10.0769
  42   2.0000      -0.357966        -9.7408
  43   2.0000      -0.349767        -9.5176
  44   2.0000      -0.320125        -8.7111
  45   2.0000      -0.317301        -8.6342
  46   2.0000      -0.310606        -8.4520
  47   2.0000      -0.285976        -7.7818
  48   2.0000      -0.275770        -7.5041
  49   2.0000      -0.263941        -7.1822
  50   2.0000      -0.245369        -6.6768
  51   2.0000      -0.237742        -6.4693
  52   2.0000      -0.210108        -5.7173
  53   0.0000      -0.076430        -2.0798
  54   0.0000      -0.046026        -1.2524
  55   0.0000      -0.008921        -0.2428
  56   0.0000       0.015963         0.4344
  57   0.0000       0.053712         1.4616

MULLIKEN ATOMIC CHARGES
-----------------------
   0 C :   -0.408866
   1 N :   -0.194928
   2 C :    0.363574
   3 O :   -0.553446
   4 O :   -0.165981
   5 C :    0.186970
   6 C :   -0.197080
   7 C :   -0.172727
   8 C :   -0.270599
   9 C :    0.117383
  10 C :    0.021374
  11 C :   -0.269369
  12 C :   -0.184532
  13 C :   -0.171324
  14 C :   -0.227184
  15 H :    0.172192
  16 H :    0.172435
  17 H :    0.186636
  18 H :    0.301901
  19 H :    0.195358
  20 H :    0.184403
  21 H :    0.182522
  22 H :    0.188486
  23 H :    0.180529
  24 H :    0.180712
  25 H :    0.181560
Sum of atomic charges:    0.0000000

LOEWDIN ATOMIC CHARGES
----------------------
   0 C :   -0.103520
   1 N :   -0.591851
   2 C :    0.451035
   3 O :   -0.481238
   4 O :   -0.507370
   5 C :    0.188682
   6 C :   -0.119073
   7 C :   -0.157244
   8 C :   -0.142482
   9 C :   -0.063846
  10 C :   -0.033049
  11 C :   -0.137319
  12 C :   -0.160411
  13 C :   -0.163824
  14 C :   -0.143244
  15 H :    0.182258
  16 H :    0.182094
  17 H :    0.200912
  18 H :    0.294690
  19 H :    0.195977
  20 H :    0.183655
  21 H :    0.185628
  22 H :    0.192666
  23 H :    0.181123
  24 H :    0.180566
  25 H :    0.185185

  Mayer bond orders larger than 0.100000
B(  0-C ,  1-N ) :   0.8869 B(  0-C , 15-H ) :   0.9544 B(  0-C , 16-H ) :   0.9526
B(  0-C , 17-H ) :   0.9552 B(  1-N ,  2-C ) :   1.2170 B(  1-N , 18-H ) :   0.8976
B(  2-C ,  3-O ) :   1.8576 B(  2-C ,  4-O ) :   1.0573 B(  4-O ,  5-C ) :   0.8865
B(  5-C ,  6-C ) :   1.5059 B(  5-C , 10-C ) :   1.2529 B(  6-C ,  7-C ) :   1.1987
B(  6-C , 19-H ) :   0.9414 B(  7-C ,  8-C ) :   1.4651 B(  7-C , 20-H ) :   0.9661
B(  8-C ,  9-C ) :   1.1818 B(  8-C , 21-H ) :   0.9553 B(  9-C , 10-C ) :   1.3344
B(  9-C , 14-C ) :   1.1899 B( 10-C , 11-C ) :   1.2392 B( 11-C , 12-C ) :   1.4684
B( 11-C , 22-H ) :   0.9665 B( 12-C , 13-C ) :   1.2329 B( 12-C , 23-H ) :   0.9615
B( 13-C , 14-C ) :   1.4746 B( 13-C , 24-H ) :   0.9597 B( 14-C , 25-H ) :   0.9564

Dispersion correction           -0.011039755
FINAL SINGLE POINT ENERGY      -668.990618524947

DIPOLE MOMENT
-------------

Method             : SCF
Type of density    : Electron Density
Multiplicity       :   1
Irrep              :   0
Energy             :  -668.9942727846639627 Eh
Relativity type    :
Basis              : AO
                                X                 Y                 Z
Electronic contribution:      1.509829416       0.865090072      -5.295295548
Nuclear contribution   :      0.183197930       0.176053149       7.629534678
                        -----------------------------------------
Total Dipole Moment    :      1.693027346       1.041143221       2.334239130
                        -----------------------------------------
Magnitude (a.u.)       :      3.065777735
Magnitude (Debye)      :      7.792587715

Rotational constants in cm-1:             0.033577             0.014934             0.012253
Rotational constants in MHz :          1006.625845           447.703771           367.347499

                             ****ORCA TERMINATED NORMALLY****
TOTAL RUN TIME: 0 days 0 hours 0 minutes 57 seconds 472 msec
