                         Program Version 6.0.0  -   RELEASE  -
|  1> ! pbe def2-sv(p) def2/J RI DEFGRID1 loosescf d4 GCP(DFT/SV(P)) printgap
|  2> %output
|  3>     printlevel normal
|  4> end
|  5> * xyz 0 1
|  6> C -2.5416011801 -0.9290135605 0.2394672748
|  7> C -1.1254039937 -0.4832393645 0.6086351619
|  8> H -1.045785944 -0.435186333 1.7064835142
|  9> C -0.8339670499 0.9176642445 0.0502634433
| 10> H -1.0640237053 0.922015586 -1.0245668307
| 11> C 0.6482485025 1.2678484828 0.2318066505
| 12> H 0.8500369756 1.3809221934 1.3115535961
| 13> C 1.5267176845 0.1409527174 -0.3294452824
| 14> H 1.341298714 0.0519811978 -1.4058762891
| 15> C 1.1274957846 -1.1774893828 0.3616918031
| 16> H 1.2944541552 -1.078964212 1.4504304769
| 17> O -0.2296242698 -1.4533108737 0.1057055866
| 18> O 1.8803610371 -2.2579252722 -0.0439075823
| 19> O 2.8919039761 0.4432391564 -0.1950194761
| 20> O 0.8934818252 2.4895872779 -0.4233166069
| 21> O -1.6563972966 1.8236385153 0.7410254521
| 22> O -2.6965762863 -0.8762348261 -1.1588748534
| 23> H -3.2421146389 -0.2495688416 0.7387372699
| 24> H -2.6790394741 -1.9515144018 0.6086244636
| 25> H 1.6238442335 -2.5142572007 -0.9437469232
| 26> H 3.1970750612 0.2350456678 0.6997799744
| 27> H 1.8500508878 2.5815087884 -0.5544229002
| 28> H -1.459647479 2.7158703471 0.4175249318
| 29> H -3.5775757574 -1.203029735 -1.3894802846
| 30> *
| 31>
| 32>                          ****END OF INPUT****

CARTESIAN COORDINATES (ANGSTROEM)
---------------------------------
  C     -2.541601   -0.929014    0.239467
  C     -1.125404   -0.483239    0.608635
  H     -1.045786   -0.435186    1.706484
  C     -0.833967    0.917664    0.050263
  H     -1.064024    0.922016   -1.024567
  C      0.648249    1.267848    0.231807
  H      0.850037    1.380922    1.311554
  C      1.526718    0.140953   -0.329445
  H      1.341299    0.051981   -1.405876
  C      1.127496   -1.177489    0.361692
  H      1.294454   -1.078964    1.450430
  O     -0.229624   -1.453311    0.105706
  O      1.880361   -2.257925   -0.043908
  O      2.891904    0.443239   -0.195019
  O      0.893482    2.489587   -0.423317
  O     -1.656397    1.823639    0.741025
  O     -2.696576   -0.876235   -1.158875
  H     -3.242115   -0.249569    0.738737
  H     -2.679039   -1.951514    0.608624
  H      1.623844   -2.514257   -0.943747
  H      3.197075    0.235046    0.699780
  H      1.850051    2.581509   -0.554423
  H     -1.459647    2.715870    0.417525
  H     -3.577576   -1.203030   -1.389480

 Total Charge           Charge          ....    0
 Multiplicity           Mult            ....    1
 Number of Electrons    NEL             ....   96
 Basis Dimension        Dim             ....  192

ORBITAL ENERGIES
----------------

  NO   OCC          E(Eh)            E(eV)
   0   2.0000     -18.769434      -510.7423
   1   2.0000     -18.762625      -510.5570
   2   2.0000     -18.760120      -510.4888
   3   2.0000     -18.750185      -510.2185
   4   2.0000     -18.749482      -510.1993
   5   2.0000     -18.747951      -510.1577
   6   2.0000      -9.990441      -271.8537
   7   2.0000      -9.945714      -270.6366
   8   2.0000      -9.940618      -270.4980
   9   2.0000      -9.937158      -270.4038
  10   2.0000      -9.934957      -270.3439
  11   2.0000      -9.931249      -270.2430
  12   2.0000      -0.984703       -26.7951
  13   2.0000      -0.945333       -25.7238
  14   2.0000      -0.935700       -25.4617
  15   2.0000      -0.924045       -25.1445
  16   2.0000      -0.913161       -24.8484
  17   2.0000      -0.912172       -24.8215
  18   2.0000      -0.701325       -19.0840
  19   2.0000      -0.692714       -18.8497
  20   2.0000      -0.615256       -16.7420
  21   2.0000      -0.585463       -15.9313
  22   2.0000      -0.558793       -15.2055
  23   2.0000      -0.534322       -14.5397
  24   2.0000      -0.502257       -13.6671
  25   2.0000      -0.494016       -13.4428
  26   2.0000      -0.470191       -12.7946
  27   2.0000      -0.446217       -12.1422
  28   2.0000      -0.444751       -12.1023
  29   2.0000      -0.435495       -11.8504
  30   2.0000      -0.420834       -11.4515
  31   2.0000      -0.408649       -11.1199
  32   2.0000      -0.390766       -10.6333
  33   2.0000      -0.366097        -9.9620
  34   2.0000      -0.355472        -9.6729
  35   2.0000      -0.345564        -9.4033
  36   2.0000      -0.320364        -8.7175
  37   2.0000      -0.313042        -8.5183
  38   2.0000      -0.302807        -8.2398
  39   2.0000      -0.300732        -8.1833
  40   2.0000      -0.290078        -7.8934
  41   2.0000      -0.268220        -7.2986
  42   2.0000      -0.249874        -6.7994
  43   2.0000      -0.244524        -6.6538
  44   2.0000      -0.230754        -6.2791
  45   2.0000      -0.220832        -6.0091
  46   2.0000      -0.209911        -5.7120
  47   2.0000      -0.201510        -5.4834
  48   0.0000       0.017306         0.4709
  49   0.0000       0.026281         0.7152
  50   0.0000       0.031745         0.8638
  51   0.0000       0.036658         0.9975
  52   0.0000       0.060683         1.6513

MULLIKEN ATOMIC CHARGES
-----------------------
   0 C :    0.072919
   1 C :    0.019700
   2 H :    0.059893
   3 C :    0.054342
   4 H :    0.073036
   5 C :    0.067724
   6 H :    0.032193
   7 C :    0.031336
   8 H :    0.060253
   9 C :    0.172611
  10 H :    0.035610
  11 O :   -0.302022
  12 O :   -0.370072
  13 O :   -0.410771
  14 O :   -0.425563
  15 O :   -0.424443
  16 O :   -0.437718
  17 H :    0.082461
  18 H :    0.078784
  19 H :    0.307250
  20 H :    0.301983
  21 H :    0.305636
  22 H :    0.311773
  23 H :    0.303083
Sum of atomic charges:   -0.0000000

LOEWDIN ATOMIC CHARGES
----------------------
   0 C :   -0.122836
   1 C :   -0.055405
   2 H :    0.107719
   3 C :   -0.069784
   4 H :    0.113087
   5 C :   -0.087068
   6 H :    0.092998
   7 C :   -0.104657
   8 H :    0.117340
   9 C :   -0.005247
  10 H :    0.089088
  11 O :   -0.144617
  12 O :   -0.287932
  13 O :   -0.309862
  14 O :   -0.330309
  15 O :   -0.319667
  16 O :   -0.338539
  17 H :    0.107380
  18 H :    0.102686
  19 H :    0.292402
  20 H :    0.287507
  21 H :    0.284902
  22 H :    0.291787
  23 H :    0.289027

  Mayer bond orders larger than 0.100000
B(  0-C ,  1-C ) :   1.0691 B(  0-C , 16-O ) :   1.0881 B(  0-C , 17-H ) :   0.9065
B(  0-C , 18-H ) :   0.9125 B(  1-C ,  2-H ) :   0.8756 B(  1-C ,  3-C ) :   1.0221
B(  1-C , 11-O ) :   0.9890 B(  3-C ,  4-H ) :   0.8632 B(  3-C ,  5-C ) :   1.0266
B(  3-C , 15-O ) :   1.0531 B(  5-C ,  6-H ) :   0.8683 B(  5-C ,  7-C ) :   0.9894
B(  5-C , 14-O ) :   1.0898 B(  7-C ,  8-H ) :   0.8566 B(  7-C ,  9-C ) :   0.9775
B(  7-C , 13-O ) :   1.0420 B(  9-C , 10-H ) :   0.8731 B(  9-C , 11-O ) :   1.0195
B(  9-C , 12-O ) :   1.1608 B( 12-O , 19-H ) :   0.8422 B( 13-O , 20-H ) :   0.8445
B( 14-O , 21-H ) :   0.8299 B( 15-O , 22-H ) :   0.8394 B( 16-O , 23-H ) :   0.8500

Dispersion correction           -0.023871003
FINAL SINGLE POINT ENERGY      -685.697019828002

DIPOLE MOMENT
-------------

Method             : SCF
Type of density    : Electron Density
Multiplicity       :   1
Irrep              :   0
Energy             :  -685.8262517330636001 Eh
Relativity type    :
Basis              : AO
                                X                 Y                 Z
Electronic contribution:      2.463971280      -0.456752404      -1.347816094
Nuclear contribution   :     -2.715367484       0.429204960       1.500748150
                        -----------------------------------------
Total Dipole Moment    :     -0.251396204      -0.027547444       0.152932056
                        -----------------------------------------
Magnitude (a.u.)       :      0.295545473
Magnitude (Debye)      :      0.751216893

Rotational constants in cm-1:             0.039279             0.026886             0.017883
Rotational constants in MHz :          1177.545976           806.029575           536.133590

                             ****ORCA TERMINATED NORMALLY****
TOTAL RUN TIME: 0 days 0 hours 0 minutes 11 seconds 837 msec
