                         Program Version 6.0.0  -   RELEASE  -
|  1> ! pbe def2-sv(p) def2/J RI DEFGRID1 loosescf d4 GCP(DFT/SV(P)) printgap
|  2> %output
|  3>     printlevel normal
|  4> end
|  5> * xyz 0 1
|  6> C -2.7812022759 0.219032694 0.999040624
|  7> C -1.7529883136 -0.0484275249 -0.0577951278
|  8> O -2.0458296099 -0.4219594213 -1.1773712895
|  9> C -0.3121763421 0.1656210576 0.36056442
| 10> C 0.3811293577 1.1155076197 -0.6238946792
| 11> C 1.8554186438 1.2796674604 -0.270805023
| 12> C 2.5602554841 -0.0730241132 -0.2702805622
| 13> C 1.8811110309 -1.0205033532 0.7134244657
| 14> C 0.4070321894 -1.1917428633 0.3618611231
| 15> H -2.5662152321 -0.3904002319 1.873533252
| 16> H -2.7203344205 1.2636633779 1.2960379567
| 17> H -3.7782546935 -0.0005195849 0.6274363737
| 18> H -0.2761250642 0.5922765893 1.3658976986
| 19> H 0.2800719224 0.7064526762 -1.6316874409
| 20> H -0.1188601499 2.0866968584 -0.6063754149
| 21> H 2.3292526016 1.9480503803 -0.991523445
| 22> H 1.9425288558 1.734747826 0.7182150538
| 23> H 2.5187067318 -0.5025815647 -1.2735287988
| 24> H 3.610265862 0.0537492136 -0.0013252114
| 25> H 2.3734233359 -1.9941814479 0.6950851081
| 26> H 1.9683057976 -0.6175422473 1.7246464604
| 27> H 0.3096154065 -1.6379502358 -0.6305479215
| 28> H -0.0737257367 -1.8607586643 1.0791190207
| 29> *
| 30>
| 31>                          ****END OF INPUT****

CARTESIAN COORDINATES (ANGSTROEM)
---------------------------------
  C     -2.781202    0.219033    0.999041
  C     -1.752988   -0.048428   -0.057795
  O     -2.045830   -0.421959   -1.177371
  C     -0.312176    0.165621    0.360564
  C      0.381129    1.115508   -0.623895
  C      1.855419    1.279667   -0.270805
  C      2.560255   -0.073024   -0.270281
  C      1.881111   -1.020503    0.713424
  C      0.407032   -1.191743    0.361861
  H     -2.566215   -0.390400    1.873533
  H     -2.720334    1.263663    1.296038
  H     -3.778255   -0.000520    0.627436
  H     -0.276125    0.592277    1.365898
  H      0.280072    0.706453   -1.631687
  H     -0.118860    2.086697   -0.606375
  H      2.329253    1.948050   -0.991523
  H      1.942529    1.734748    0.718215
  H      2.518707   -0.502582   -1.273529
  H      3.610266    0.053749   -0.001325
  H      2.373423   -1.994181    0.695085
  H      1.968306   -0.617542    1.724646
  H      0.309615   -1.637950   -0.630548
  H     -0.073726   -1.860759    1.079119

 Total Charge           Charge          ....    0
 Multiplicity           Mult            ....    1
 Number of Electrons    NEL             ....   70
 Basis Dimension        Dim             ....  154

ORBITAL ENERGIES
----------------

  NO   OCC          E(Eh)            E(eV)
   0   2.0000     -18.734117      -509.7813
   1   2.0000      -9.969422      -271.2818
   2   2.0000      -9.898155      -269.3425
   3   2.0000      -9.889969      -269.1197
   4   2.0000      -9.886650      -269.0294
   5   2.0000      -9.886461      -269.0243
   6   2.0000      -9.885983      -269.0113
   7   2.0000      -9.884768      -268.9782
   8   2.0000      -9.883491      -268.9435
   9   2.0000      -0.932169       -25.3656
  10   2.0000      -0.761918       -20.7329
  11   2.0000      -0.693615       -18.8742
  12   2.0000      -0.670240       -18.2382
  13   2.0000      -0.657754       -17.8984
  14   2.0000      -0.558720       -15.2036
  15   2.0000      -0.546716       -14.8769
  16   2.0000      -0.501849       -13.6560
  17   2.0000      -0.469802       -12.7840
  18   2.0000      -0.426961       -11.6182
  19   2.0000      -0.416843       -11.3429
  20   2.0000      -0.405161       -11.0250
  21   2.0000      -0.400258       -10.8916
  22   2.0000      -0.392263       -10.6740
  23   2.0000      -0.375749       -10.2246
  24   2.0000      -0.356442        -9.6993
  25   2.0000      -0.345029        -9.3887
  26   2.0000      -0.338981        -9.2241
  27   2.0000      -0.332245        -9.0408
  28   2.0000      -0.308485        -8.3943
  29   2.0000      -0.306428        -8.3383
  30   2.0000      -0.300631        -8.1806
  31   2.0000      -0.285022        -7.7558
  32   2.0000      -0.271394        -7.3850
  33   2.0000      -0.261695        -7.1211
  34   2.0000      -0.191715        -5.2168
  35   0.0000      -0.047182        -1.2839
  36   0.0000       0.025463         0.6929
  37   0.0000       0.046092         1.2542
  38   0.0000       0.058241         1.5848
  39   0.0000       0.063942         1.7399

MULLIKEN ATOMIC CHARGES
-----------------------
   0 C :   -0.250566
   1 C :    0.046424
   2 O :   -0.175303
   3 C :   -0.181906
   4 C :   -0.135523
   5 C :   -0.129828
   6 C :   -0.162786
   7 C :   -0.125348
   8 C :   -0.142269
   9 H :    0.123074
  10 H :    0.125540
  11 H :    0.115038
  12 H :    0.054688
  13 H :    0.094063
  14 H :    0.083248
  15 H :    0.087536
  16 H :    0.071075
  17 H :    0.079634
  18 H :    0.086648
  19 H :    0.087915
  20 H :    0.071786
  21 H :    0.093724
  22 H :    0.083137
Sum of atomic charges:    0.0000000

LOEWDIN ATOMIC CHARGES
----------------------
   0 C :   -0.360863
   1 C :    0.054409
   2 O :   -0.132316
   3 C :   -0.169884
   4 C :   -0.210579
   5 C :   -0.225555
   6 C :   -0.227182
   7 C :   -0.225217
   8 C :   -0.208386
   9 H :    0.140680
  10 H :    0.142526
  11 H :    0.131961
  12 H :    0.114836
  13 H :    0.123201
  14 H :    0.116228
  15 H :    0.118468
  16 H :    0.113086
  17 H :    0.116755
  18 H :    0.116755
  19 H :    0.118644
  20 H :    0.113589
  21 H :    0.123262
  22 H :    0.115580

  Mayer bond orders larger than 0.100000
B(  0-C ,  1-C ) :   1.0895 B(  0-C ,  9-H ) :   0.9232 B(  0-C , 10-H ) :   0.9233
B(  0-C , 11-H ) :   0.9326 B(  1-C ,  2-O ) :   2.1804 B(  1-C ,  3-C ) :   0.9032
B(  3-C ,  4-C ) :   1.0717 B(  3-C ,  8-C ) :   1.0704 B(  3-C , 12-H ) :   0.8886
B(  4-C ,  5-C ) :   1.1378 B(  4-C , 13-H ) :   0.9022 B(  4-C , 14-H ) :   0.9210
B(  5-C ,  6-C ) :   1.1356 B(  5-C , 15-H ) :   0.9179 B(  5-C , 16-H ) :   0.9112
B(  6-C ,  7-C ) :   1.1365 B(  6-C , 17-H ) :   0.9153 B(  6-C , 18-H ) :   0.9199
B(  7-C ,  8-C ) :   1.1373 B(  7-C , 19-H ) :   0.9176 B(  7-C , 20-H ) :   0.9112
B(  8-C , 21-H ) :   0.9046 B(  8-C , 22-H ) :   0.9185

Dispersion correction           -0.021720084
FINAL SINGLE POINT ENERGY      -387.610195883539

DIPOLE MOMENT
-------------

Method             : SCF
Type of density    : Electron Density
Multiplicity       :   1
Irrep              :   0
Energy             :  -387.6879281113992306 Eh
Relativity type    :
Basis              : AO
                                X                 Y                 Z
Electronic contribution:     -5.041517788      -1.009635150      -3.097321711
Nuclear contribution   :      5.409759502       1.290008651       3.965036853
                        -----------------------------------------
Total Dipole Moment    :      0.368241714       0.280373501       0.867715143
                        -----------------------------------------
Magnitude (a.u.)       :      0.983433185
Magnitude (Debye)      :      2.499688503

Rotational constants in cm-1:             0.104605             0.034419             0.031528
Rotational constants in MHz :          3135.978503          1031.852129           945.190983

                             ****ORCA TERMINATED NORMALLY****
TOTAL RUN TIME: 0 days 0 hours 0 minutes 10 seconds 170 msec
