                         Program Version 6.0.0  -   RELEASE  -
|  1> ! r2scan-3c def2/J RI DEFGRID2 scfconv6 printgap
|  2> %output
|  3>     printlevel normal
|  4> end
|  5> * xyz 0 1
|  6> C 1.2203948325 0.8853959007 -1.3688100568
|  7> C 2.5921163971 0.995857883 -1.500218341
|  8> C 3.4272484994 0.4289490703 -0.5498096217
|  9> C 2.8820693602 -0.2516981786 0.5335716661
| 10> C 1.5087863586 -0.3670794827 0.6635661666
| 11> C 0.6718022619 0.2025102275 -0.2885919636
| 12> C -0.7948967457 0.073802299 -0.1478770574
| 13> C -1.5918503677 1.2021025334 0.0485081291
| 14> C -2.9729633425 1.0775521633 0.1798852951
| 15> C -3.5731079389 -0.1697038673 0.1135281703
| 16> C -2.7895056692 -1.2956708406 -0.0821849051
| 17> C -1.4075340801 -1.1781934899 -0.2108630314
| 18> Cl -0.4475967371 -2.5851396404 -0.4806210577
| 19> Cl -3.5344185392 -2.845080071 -0.1676836526
| 20> Cl -3.9447085312 2.4760140163 0.4297109291
| 21> Cl -0.8552913513 2.755432508 0.1649074299
| 22> Cl 3.9161060985 -0.9617440706 1.7286892325
| 23> Cl 5.1447377811 0.5692421124 -0.7135306097
| 24> H 0.5735037767 1.3208703683 -2.1126713979
| 25> H 3.0236026108 1.5195839074 -2.3369271354
| 26> H 1.0970729988 -0.8913079913 1.5103904584
| 27> H -4.6415229528 -0.2635177121 0.2139103346
| 28> *
| 29>
| 30>                          ****END OF INPUT****

CARTESIAN COORDINATES (ANGSTROEM)
---------------------------------
  C      1.220395    0.885396   -1.368810
  C      2.592116    0.995858   -1.500218
  C      3.427248    0.428949   -0.549810
  C      2.882069   -0.251698    0.533572
  C      1.508786   -0.367079    0.663566
  C      0.671802    0.202510   -0.288592
  C     -0.794897    0.073802   -0.147877
  C     -1.591850    1.202103    0.048508
  C     -2.972963    1.077552    0.179885
  C     -3.573108   -0.169704    0.113528
  C     -2.789506   -1.295671   -0.082185
  C     -1.407534   -1.178193   -0.210863
  Cl    -0.447597   -2.585140   -0.480621
  Cl    -3.534419   -2.845080   -0.167684
  Cl    -3.944709    2.476014    0.429711
  Cl    -0.855291    2.755433    0.164907
  Cl     3.916106   -0.961744    1.728689
  Cl     5.144738    0.569242   -0.713531
  H      0.573504    1.320870   -2.112671
  H      3.023603    1.519584   -2.336927
  H      1.097073   -0.891308    1.510390
  H     -4.641523   -0.263518    0.213910

 Total Charge           Charge          ....    0
 Multiplicity           Mult            ....    1
 Number of Electrons    NEL             ....  178
 Basis Dimension        Dim             ....  410

ORBITAL ENERGIES
----------------

  NO   OCC          E(Eh)            E(eV)
   0   2.0000    -101.244732     -2755.0092
   1   2.0000    -101.244519     -2755.0034
   2   2.0000    -101.244041     -2754.9904
   3   2.0000    -101.243724     -2754.9818
   4   2.0000    -101.233989     -2754.7169
   5   2.0000    -101.233295     -2754.6980
   6   2.0000     -10.136680      -275.8331
   7   2.0000     -10.136639      -275.8320
   8   2.0000     -10.136247      -275.8213
   9   2.0000     -10.136210      -275.8203
  10   2.0000     -10.123418      -275.4722
  11   2.0000     -10.122920      -275.4587
  12   2.0000     -10.099846      -274.8308
  13   2.0000     -10.085766      -274.4477
  14   2.0000     -10.081249      -274.3247
  15   2.0000     -10.070874      -274.0424
  16   2.0000     -10.068907      -273.9889
  17   2.0000     -10.066396      -273.9206
  18   2.0000      -9.400534      -255.8015
  19   2.0000      -9.400317      -255.7956
  20   2.0000      -9.399874      -255.7836
  21   2.0000      -9.399516      -255.7738
  22   2.0000      -9.389697      -255.5066
  23   2.0000      -9.388974      -255.4870
  24   2.0000      -7.147057      -194.4813
  25   2.0000      -7.146845      -194.4755
  26   2.0000      -7.146456      -194.4650
  27   2.0000      -7.146104      -194.4554
  28   2.0000      -7.136799      -194.2022
  29   2.0000      -7.136581      -194.1962
  30   2.0000      -7.136221      -194.1864
  31   2.0000      -7.136158      -194.1847
  32   2.0000      -7.136013      -194.1808
  33   2.0000      -7.135862      -194.1767
  34   2.0000      -7.135793      -194.1748
  35   2.0000      -7.135463      -194.1658
  36   2.0000      -7.135190      -194.1584
  37   2.0000      -7.134837      -194.1488
  38   2.0000      -7.126015      -193.9087
  39   2.0000      -7.125252      -193.8880
  40   2.0000      -7.125217      -193.8870
  41   2.0000      -7.124517      -193.8680
  42   2.0000      -0.927456       -25.2374
  43   2.0000      -0.898918       -24.4608
  44   2.0000      -0.888579       -24.1795
  45   2.0000      -0.860846       -23.4248
  46   2.0000      -0.841089       -22.8872
  47   2.0000      -0.834304       -22.7026
  48   2.0000      -0.825895       -22.4737
  49   2.0000      -0.804100       -21.8807
  50   2.0000      -0.758493       -20.6396
  51   2.0000      -0.733347       -19.9554
  52   2.0000      -0.709994       -19.3199
  53   2.0000      -0.704242       -19.1634
  54   2.0000      -0.635603       -17.2956
  55   2.0000      -0.612536       -16.6680
  56   2.0000      -0.589160       -16.0319
  57   2.0000      -0.576792       -15.6953
  58   2.0000      -0.518662       -14.1135
  59   2.0000      -0.516112       -14.0441
  60   2.0000      -0.499563       -13.5938
  61   2.0000      -0.480558       -13.0767
  62   2.0000      -0.467095       -12.7103
  63   2.0000      -0.453684       -12.3454
  64   2.0000      -0.444322       -12.0906
  65   2.0000      -0.433170       -11.7872
  66   2.0000      -0.432381       -11.7657
  67   2.0000      -0.424465       -11.5503
  68   2.0000      -0.410314       -11.1652
  69   2.0000      -0.404186       -10.9985
  70   2.0000      -0.397514       -10.8169
  71   2.0000      -0.384432       -10.4609
  72   2.0000      -0.369947       -10.0668
  73   2.0000      -0.364763        -9.9257
  74   2.0000      -0.350441        -9.5360
  75   2.0000      -0.335350        -9.1253
  76   2.0000      -0.333059        -9.0630
  77   2.0000      -0.330782        -9.0010
  78   2.0000      -0.323821        -8.8116
  79   2.0000      -0.314831        -8.5670
  80   2.0000      -0.309309        -8.4167
  81   2.0000      -0.301385        -8.2011
  82   2.0000      -0.300793        -8.1850
  83   2.0000      -0.292444        -7.9578
  84   2.0000      -0.286811        -7.8045
  85   2.0000      -0.264034        -7.1847
  86   2.0000      -0.252516        -6.8713
  87   2.0000      -0.239976        -6.5301
  88   2.0000      -0.236630        -6.4390
  89   0.0000      -0.088469        -2.4074
  90   0.0000      -0.075203        -2.0464
  91   0.0000      -0.062666        -1.7052
  92   0.0000      -0.055238        -1.5031
  93   0.0000      -0.052493        -1.4284

MULLIKEN ATOMIC CHARGES
-----------------------
   0 C :   -0.140276
   1 C :   -0.231871
   2 C :    0.156776
   3 C :    0.073295
   4 C :   -0.210739
   5 C :    0.126080
   6 C :    0.203896
   7 C :   -0.036837
   8 C :    0.159447
   9 C :   -0.379356
  10 C :    0.159338
  11 C :   -0.032343
  12 Cl:   -0.064928
  13 Cl:   -0.089492
  14 Cl:   -0.089815
  15 Cl:   -0.066675
  16 Cl:   -0.108261
  17 Cl:   -0.107252
  18 H :    0.161348
  19 H :    0.164052
  20 H :    0.173422
  21 H :    0.180190
Sum of atomic charges:   -0.0000000

LOEWDIN ATOMIC CHARGES
----------------------
   0 C :   -0.133122
   1 C :   -0.155417
   2 C :   -0.175734
   3 C :   -0.175835
   4 C :   -0.139644
   5 C :   -0.088304
   6 C :   -0.080438
   7 C :   -0.162732
   8 C :   -0.178253
   9 C :   -0.165941
  10 C :   -0.178039
  11 C :   -0.162053
  12 Cl:    0.197311
  13 Cl:    0.171446
  14 Cl:    0.171228
  15 Cl:    0.196573
  16 Cl:    0.154876
  17 Cl:    0.155808
  18 H :    0.181612
  19 H :    0.183078
  20 H :    0.189960
  21 H :    0.193620

  Mayer bond orders larger than 0.100000
B(  0-C ,  1-C ) :   1.3985 B(  0-C ,  5-C ) :   1.3802 B(  0-C , 18-H ) :   0.9402
B(  1-C ,  2-C ) :   1.3392 B(  1-C , 19-H ) :   0.9457 B(  2-C ,  3-C ) :   1.2921
B(  2-C , 17-Cl) :   1.0430 B(  3-C ,  4-C ) :   1.3472 B(  3-C , 16-Cl) :   1.0597
B(  4-C ,  5-C ) :   1.3891 B(  4-C , 20-H ) :   0.9292 B(  5-C ,  6-C ) :   0.7618
B(  6-C ,  7-C ) :   1.2028 B(  6-C , 11-C ) :   1.2049 B(  7-C ,  8-C ) :   1.2025
B(  7-C , 15-Cl) :   1.2439 B(  8-C ,  9-C ) :   1.3163 B(  8-C , 14-Cl) :   1.0591
B(  9-C , 10-C ) :   1.3165 B(  9-C , 21-H ) :   0.9285 B( 10-C , 11-C ) :   1.2032
B( 10-C , 13-Cl) :   1.0598 B( 11-C , 12-Cl) :   1.2452

Dispersion correction           -0.014681586
FINAL SINGLE POINT ENERGY     -3220.643439446663

DIPOLE MOMENT
-------------

Method             : SCF
Type of density    : Electron Density
Multiplicity       :   1
Irrep              :   0
Energy             : -3220.6407933971177044 Eh
Relativity type    :
Basis              : AO
                                X                 Y                 Z
Electronic contribution:     -0.298414156      -2.185264728       3.503029001
Nuclear contribution   :     -0.324844899       2.375032885      -3.847308558
                        -----------------------------------------
Total Dipole Moment    :     -0.623259054       0.189768158      -0.344279557
                        -----------------------------------------
Magnitude (a.u.)       :      0.736880055
Magnitude (Debye)      :      1.873000251

Rotational constants in cm-1:             0.012287             0.004753             0.003760
Rotational constants in MHz :           368.353999           142.500290           112.713035

                             ****ORCA TERMINATED NORMALLY****
TOTAL RUN TIME: 0 days 0 hours 1 minutes 13 seconds 308 msec
