                         Program Version 6.0.0  -   RELEASE  -
|  1> ! r2scan-3c def2/J RI DEFGRID2 scfconv6 printgap
|  2> %output
|  3>     printlevel normal
|  4> end
|  5> %cpcm
|  6>     smd true
|  7>     smdsolvent "water"
|  8> end
|  9> * xyz 0 1
| 10> C 1.2203948325 0.8853959007 -1.3688100568
| 11> C 2.5921163971 0.995857883 -1.500218341
| 12> C 3.4272484994 0.4289490703 -0.5498096217
| 13> C 2.8820693602 -0.2516981786 0.5335716661
| 14> C 1.5087863586 -0.3670794827 0.6635661666
| 15> C 0.6718022619 0.2025102275 -0.2885919636
| 16> C -0.7948967457 0.073802299 -0.1478770574
| 17> C -1.5918503677 1.2021025334 0.0485081291
| 18> C -2.9729633425 1.0775521633 0.1798852951
| 19> C -3.5731079389 -0.1697038673 0.1135281703
| 20> C -2.7895056692 -1.2956708406 -0.0821849051
| 21> C -1.4075340801 -1.1781934899 -0.2108630314
| 22> Cl -0.4475967371 -2.5851396404 -0.4806210577
| 23> Cl -3.5344185392 -2.845080071 -0.1676836526
| 24> Cl -3.9447085312 2.4760140163 0.4297109291
| 25> Cl -0.8552913513 2.755432508 0.1649074299
| 26> Cl 3.9161060985 -0.9617440706 1.7286892325
| 27> Cl 5.1447377811 0.5692421124 -0.7135306097
| 28> H 0.5735037767 1.3208703683 -2.1126713979
| 29> H 3.0236026108 1.5195839074 -2.3369271354
| 30> H 1.0970729988 -0.8913079913 1.5103904584
| 31> H -4.6415229528 -0.2635177121 0.2139103346
| 32> *
| 33>
| 34>                          ****END OF INPUT****

CARTESIAN COORDINATES (ANGSTROEM)
---------------------------------
  C      1.220395    0.885396   -1.368810
  C      2.592116    0.995858   -1.500218
  C      3.427248    0.428949   -0.549810
  C      2.882069   -0.251698    0.533572
  C      1.508786   -0.367079    0.663566
  C      0.671802    0.202510   -0.288592
  C     -0.794897    0.073802   -0.147877
  C     -1.591850    1.202103    0.048508
  C     -2.972963    1.077552    0.179885
  C     -3.573108   -0.169704    0.113528
  C     -2.789506   -1.295671   -0.082185
  C     -1.407534   -1.178193   -0.210863
  Cl    -0.447597   -2.585140   -0.480621
  Cl    -3.534419   -2.845080   -0.167684
  Cl    -3.944709    2.476014    0.429711
  Cl    -0.855291    2.755433    0.164907
  Cl     3.916106   -0.961744    1.728689
  Cl     5.144738    0.569242   -0.713531
  H      0.573504    1.320870   -2.112671
  H      3.023603    1.519584   -2.336927
  H      1.097073   -0.891308    1.510390
  H     -4.641523   -0.263518    0.213910

 Total Charge           Charge          ....    0
 Multiplicity           Mult            ....    1
 Number of Electrons    NEL             ....  178
 Basis Dimension        Dim             ....  410

ORBITAL ENERGIES
----------------

  NO   OCC          E(Eh)            E(eV)
   0   2.0000    -101.239064     -2754.8550
   1   2.0000    -101.239029     -2754.8540
   2   2.0000    -101.238997     -2754.8532
   3   2.0000    -101.238834     -2754.8487
   4   2.0000    -101.233380     -2754.7003
   5   2.0000    -101.233120     -2754.6932
   6   2.0000     -10.128367      -275.6069
   7   2.0000     -10.128271      -275.6043
   8   2.0000     -10.127556      -275.5848
   9   2.0000     -10.127525      -275.5840
  10   2.0000     -10.117937      -275.3231
  11   2.0000     -10.117504      -275.3113
  12   2.0000     -10.090987      -274.5897
  13   2.0000     -10.073939      -274.1258
  14   2.0000     -10.072631      -274.0902
  15   2.0000     -10.061812      -273.7958
  16   2.0000     -10.058463      -273.7047
  17   2.0000     -10.055089      -273.6129
  18   2.0000      -9.394973      -255.6502
  19   2.0000      -9.394938      -255.6493
  20   2.0000      -9.394903      -255.6483
  21   2.0000      -9.394766      -255.6446
  22   2.0000      -9.389256      -255.4946
  23   2.0000      -9.388969      -255.4868
  24   2.0000      -7.141403      -194.3275
  25   2.0000      -7.141389      -194.3271
  26   2.0000      -7.141371      -194.3266
  27   2.0000      -7.141256      -194.3234
  28   2.0000      -7.135574      -194.1688
  29   2.0000      -7.135315      -194.1618
  30   2.0000      -7.131277      -194.0519
  31   2.0000      -7.131257      -194.0514
  32   2.0000      -7.131240      -194.0509
  33   2.0000      -7.131119      -194.0476
  34   2.0000      -7.130485      -194.0304
  35   2.0000      -7.130450      -194.0294
  36   2.0000      -7.130294      -194.0252
  37   2.0000      -7.130149      -194.0212
  38   2.0000      -7.125625      -193.8981
  39   2.0000      -7.125294      -193.8891
  40   2.0000      -7.124835      -193.8766
  41   2.0000      -7.124575      -193.8695
  42   2.0000      -0.919304       -25.0155
  43   2.0000      -0.894676       -24.3454
  44   2.0000      -0.882211       -24.0062
  45   2.0000      -0.854103       -23.2413
  46   2.0000      -0.835478       -22.7345
  47   2.0000      -0.832791       -22.6614
  48   2.0000      -0.820097       -22.3160
  49   2.0000      -0.797108       -21.6904
  50   2.0000      -0.750749       -20.4289
  51   2.0000      -0.725438       -19.7402
  52   2.0000      -0.702487       -19.1156
  53   2.0000      -0.696828       -18.9617
  54   2.0000      -0.626816       -17.0565
  55   2.0000      -0.603334       -16.4176
  56   2.0000      -0.581292       -15.8178
  57   2.0000      -0.568716       -15.4756
  58   2.0000      -0.510839       -13.9006
  59   2.0000      -0.507506       -13.8100
  60   2.0000      -0.490814       -13.3557
  61   2.0000      -0.472507       -12.8576
  62   2.0000      -0.460149       -12.5213
  63   2.0000      -0.446073       -12.1383
  64   2.0000      -0.438055       -11.9201
  65   2.0000      -0.425637       -11.5822
  66   2.0000      -0.422685       -11.5018
  67   2.0000      -0.414314       -11.2741
  68   2.0000      -0.405505       -11.0344
  69   2.0000      -0.394402       -10.7322
  70   2.0000      -0.391652       -10.6574
  71   2.0000      -0.377897       -10.2831
  72   2.0000      -0.362455        -9.8629
  73   2.0000      -0.354302        -9.6410
  74   2.0000      -0.343576        -9.3492
  75   2.0000      -0.332894        -9.0585
  76   2.0000      -0.329812        -8.9746
  77   2.0000      -0.326393        -8.8816
  78   2.0000      -0.318753        -8.6737
  79   2.0000      -0.310093        -8.4381
  80   2.0000      -0.308325        -8.3900
  81   2.0000      -0.296600        -8.0709
  82   2.0000      -0.295132        -8.0310
  83   2.0000      -0.288050        -7.8382
  84   2.0000      -0.286738        -7.8025
  85   2.0000      -0.256368        -6.9761
  86   2.0000      -0.246248        -6.7008
  87   2.0000      -0.233122        -6.3436
  88   2.0000      -0.231661        -6.3038
  89   0.0000      -0.079239        -2.1562
  90   0.0000      -0.066924        -1.8211
  91   0.0000      -0.054721        -1.4890
  92   0.0000      -0.047694        -1.2978
  93   0.0000      -0.045269        -1.2318

MULLIKEN ATOMIC CHARGES
-----------------------
   0 C :   -0.159027
   1 C :   -0.248945
   2 C :    0.158911
   3 C :    0.063419
   4 C :   -0.207744
   5 C :    0.063317
   6 C :    0.275476
   7 C :   -0.027073
   8 C :    0.138732
   9 C :   -0.355266
  10 C :    0.139033
  11 C :   -0.023333
  12 Cl:   -0.086598
  13 Cl:   -0.105360
  14 Cl:   -0.105175
  15 Cl:   -0.086570
  16 Cl:   -0.128637
  17 Cl:   -0.127693
  18 H :    0.200055
  19 H :    0.200001
  20 H :    0.206889
  21 H :    0.215588
Sum of atomic charges:   -0.0000000

LOEWDIN ATOMIC CHARGES
----------------------
   0 C :   -0.128137
   1 C :   -0.152558
   2 C :   -0.181956
   3 C :   -0.182855
   4 C :   -0.138607
   5 C :   -0.090602
   6 C :   -0.070934
   7 C :   -0.158297
   8 C :   -0.177328
   9 C :   -0.154783
  10 C :   -0.177263
  11 C :   -0.157864
  12 Cl:    0.185770
  13 Cl:    0.160862
  14 Cl:    0.161001
  15 Cl:    0.186257
  16 Cl:    0.138627
  17 Cl:    0.139985
  18 H :    0.194702
  19 H :    0.195868
  20 H :    0.201130
  21 H :    0.206981

  Mayer bond orders larger than 0.100000
B(  0-C ,  1-C ) :   1.4064 B(  0-C ,  5-C ) :   1.3667 B(  0-C , 18-H ) :   0.9406
B(  1-C ,  2-C ) :   1.3121 B(  1-C , 19-H ) :   0.9435 B(  2-C ,  3-C ) :   1.2694
B(  2-C , 17-Cl) :   1.0279 B(  3-C ,  4-C ) :   1.3307 B(  3-C , 16-Cl) :   1.0502
B(  4-C ,  5-C ) :   1.3954 B(  4-C , 20-H ) :   0.9238 B(  5-C ,  6-C ) :   0.7457
B(  6-C ,  7-C ) :   1.2128 B(  6-C , 11-C ) :   1.2134 B(  7-C ,  8-C ) :   1.1959
B(  7-C , 15-Cl) :   1.2073 B(  8-C ,  9-C ) :   1.3354 B(  8-C , 14-Cl) :   1.0572
B(  9-C , 10-C ) :   1.3350 B(  9-C , 21-H ) :   0.9084 B( 10-C , 11-C ) :   1.1973
B( 10-C , 13-Cl) :   1.0573 B( 11-C , 12-Cl) :   1.2065

Dispersion correction           -0.014681586
FINAL SINGLE POINT ENERGY     -3220.645144695874

DIPOLE MOMENT
-------------

Method             : SCF
Type of density    : Electron Density
Multiplicity       :   1
Irrep              :   0
Energy             : -3220.6424986463284768 Eh
Relativity type    :
Basis              : AO
                                X                 Y                 Z
Electronic contribution:     -0.696648118      -2.080888438       3.332871580
Nuclear contribution   :     -0.324844899       2.375032885      -3.847308558
                        -----------------------------------------
Total Dipole Moment    :     -1.021493017       0.294144447      -0.514436979
                        -----------------------------------------
Magnitude (a.u.)       :      1.180937909
Magnitude (Debye)      :      3.001705615

Rotational constants in cm-1:             0.012287             0.004753             0.003760
Rotational constants in MHz :           368.353999           142.500290           112.713035

                             ****ORCA TERMINATED NORMALLY****
TOTAL RUN TIME: 0 days 0 hours 1 minutes 35 seconds 213 msec
