                         Program Version 6.0.0  -   RELEASE  -
|  1> ! r2scan-3c def2/J RI DEFGRID2 scfconv6 printgap
|  2> %output
|  3>     printlevel normal
|  4> end
|  5> * xyz 0 1
|  6> C -2.5535192608 -0.898247331 0.2916355539
|  7> C -1.1218007409 -0.4492974117 0.6197657475
|  8> H -1.0015495552 -0.3938744413 1.7115313228
|  9> C -0.8400262569 0.941773424 0.0326723892
| 10> H -1.1103886242 0.9244130542 -1.0363193439
| 11> C 0.6484754948 1.2879333803 0.1804472024
| 12> H 0.8665170406 1.4503644507 1.2428246148
| 13> C 1.540215888 0.1486344543 -0.332659595
| 14> H 1.3966205786 0.0360051476 -1.4215647052
| 15> C 1.1203089675 -1.169816603 0.345939404
| 16> H 1.2889489173 -1.0801950865 1.4307307115
| 17> O -0.2447987289 -1.4189532289 0.0779145678
| 18> O 1.8492742387 -2.2604639056 -0.0625222397
| 19> O 2.8924445133 0.388717201 -0.044998328
| 20> O 0.9650806343 2.5068465377 -0.450805101
| 21> O -1.6435227527 1.8646935961 0.7237221176
| 22> O -2.7543381591 -1.0612110295 -1.0872277883
| 23> H -3.2425869123 -0.1196686348 0.6217378163
| 24> H -2.7630941529 -1.8295096092 0.8293525058
| 25> H 1.729171926 -2.409685173 -1.0139504797
| 26> H 3.0859961246 1.323996254 -0.2211216625
| 27> H 0.7663300683 2.4490613428 -1.3981436234
| 28> H -1.3630207158 2.7627260948 0.4874754398
| 29> H -2.1692426834 -1.7685442932 -1.3952296826
| 30> *
| 31>
| 32>                          ****END OF INPUT****

CARTESIAN COORDINATES (ANGSTROEM)
---------------------------------
  C     -2.553519   -0.898247    0.291636
  C     -1.121801   -0.449297    0.619766
  H     -1.001550   -0.393874    1.711531
  C     -0.840026    0.941773    0.032672
  H     -1.110389    0.924413   -1.036319
  C      0.648475    1.287933    0.180447
  H      0.866517    1.450364    1.242825
  C      1.540216    0.148634   -0.332660
  H      1.396621    0.036005   -1.421565
  C      1.120309   -1.169817    0.345939
  H      1.288949   -1.080195    1.430731
  O     -0.244799   -1.418953    0.077915
  O      1.849274   -2.260464   -0.062522
  O      2.892445    0.388717   -0.044998
  O      0.965081    2.506847   -0.450805
  O     -1.643523    1.864694    0.723722
  O     -2.754338   -1.061211   -1.087228
  H     -3.242587   -0.119669    0.621738
  H     -2.763094   -1.829510    0.829353
  H      1.729172   -2.409685   -1.013950
  H      3.085996    1.323996   -0.221122
  H      0.766330    2.449061   -1.398144
  H     -1.363021    2.762726    0.487475
  H     -2.169243   -1.768544   -1.395230

 Total Charge           Charge          ....    0
 Multiplicity           Mult            ....    1
 Number of Electrons    NEL             ....   96
 Basis Dimension        Dim             ....  318

ORBITAL ENERGIES
----------------

  NO   OCC          E(Eh)            E(eV)
   0   2.0000     -18.983379      -516.5640
   1   2.0000     -18.977168      -516.3950
   2   2.0000     -18.969956      -516.1987
   3   2.0000     -18.964427      -516.0483
   4   2.0000     -18.962040      -515.9833
   5   2.0000     -18.954574      -515.7802
   6   2.0000     -10.145153      -276.0637
   7   2.0000     -10.101406      -274.8732
   8   2.0000     -10.098333      -274.7896
   9   2.0000     -10.097602      -274.7697
  10   2.0000     -10.095852      -274.7221
  11   2.0000     -10.081526      -274.3323
  12   2.0000      -1.056758       -28.7559
  13   2.0000      -1.028555       -27.9884
  14   2.0000      -1.007591       -27.4179
  15   2.0000      -0.996015       -27.1029
  16   2.0000      -0.993996       -27.0480
  17   2.0000      -0.983047       -26.7501
  18   2.0000      -0.756847       -20.5949
  19   2.0000      -0.741272       -20.1710
  20   2.0000      -0.662711       -18.0333
  21   2.0000      -0.625479       -17.0202
  22   2.0000      -0.605578       -16.4786
  23   2.0000      -0.575519       -15.6607
  24   2.0000      -0.521710       -14.1965
  25   2.0000      -0.517720       -14.0879
  26   2.0000      -0.499246       -13.5852
  27   2.0000      -0.481741       -13.1088
  28   2.0000      -0.475926       -12.9506
  29   2.0000      -0.459074       -12.4920
  30   2.0000      -0.453563       -12.3421
  31   2.0000      -0.445542       -12.1238
  32   2.0000      -0.400979       -10.9112
  33   2.0000      -0.397699       -10.8219
  34   2.0000      -0.391767       -10.6605
  35   2.0000      -0.383908       -10.4467
  36   2.0000      -0.349260        -9.5038
  37   2.0000      -0.342977        -9.3329
  38   2.0000      -0.334921        -9.1137
  39   2.0000      -0.319293        -8.6884
  40   2.0000      -0.314933        -8.5698
  41   2.0000      -0.304745        -8.2925
  42   2.0000      -0.292407        -7.9568
  43   2.0000      -0.267151        -7.2696
  44   2.0000      -0.263963        -7.1828
  45   2.0000      -0.248880        -6.7724
  46   2.0000      -0.238508        -6.4901
  47   2.0000      -0.236070        -6.4238
  48   0.0000       0.022050         0.6000
  49   0.0000       0.048723         1.3258
  50   0.0000       0.051452         1.4001
  51   0.0000       0.069205         1.8832
  52   0.0000       0.075888         2.0650

MULLIKEN ATOMIC CHARGES
-----------------------
   0 C :   -0.252939
   1 C :    0.038092
   2 H :    0.169195
   3 C :   -0.036502
   4 H :    0.190047
   5 C :   -0.132243
   6 H :    0.181165
   7 C :    0.115484
   8 H :    0.155055
   9 C :   -0.177003
  10 H :    0.156795
  11 O :   -0.210216
  12 O :   -0.345728
  13 O :   -0.410461
  14 O :   -0.429180
  15 O :   -0.433294
  16 O :   -0.425553
  17 H :    0.160107
  18 H :    0.143072
  19 H :    0.310050
  20 H :    0.313827
  21 H :    0.304072
  22 H :    0.308053
  23 H :    0.308104
Sum of atomic charges:    0.0000000

LOEWDIN ATOMIC CHARGES
----------------------
   0 C :    0.044510
   1 C :    0.116858
   2 H :    0.188938
   3 C :    0.101063
   4 H :    0.186169
   5 C :    0.091938
   6 H :    0.204225
   7 C :    0.105746
   8 H :    0.173926
   9 C :    0.300718
  10 H :    0.200269
  11 O :   -0.685154
  12 O :   -0.463444
  13 O :   -0.563265
  14 O :   -0.581289
  15 O :   -0.583655
  16 O :   -0.591552
  17 H :    0.196541
  18 H :    0.166843
  19 H :    0.279436
  20 H :    0.282919
  21 H :    0.273496
  22 H :    0.281186
  23 H :    0.273579

  Mayer bond orders larger than 0.100000
B(  0-C ,  1-C ) :   0.9359 B(  0-C , 16-O ) :   1.0326 B(  0-C , 17-H ) :   0.9624
B(  0-C , 18-H ) :   0.9828 B(  1-C ,  2-H ) :   0.9330 B(  1-C ,  3-C ) :   0.8246
B(  1-C , 11-O ) :   0.7668 B(  1-C , 16-O ) :  -0.1176 B(  3-C ,  4-H ) :   0.9988
B(  3-C ,  5-C ) :   0.8398 B(  3-C , 15-O ) :   0.8530 B(  5-C ,  6-H ) :   0.9744
B(  5-C ,  7-C ) :   0.8994 B(  5-C , 14-O ) :   1.0561 B(  7-C ,  8-H ) :   0.9367
B(  7-C ,  9-C ) :   0.8185 B(  7-C , 13-O ) :   0.8771 B(  9-C , 10-H ) :   1.0095
B(  9-C , 11-O ) :   0.9398 B(  9-C , 12-O ) :   1.1425 B( 12-O , 19-H ) :   0.8765
B( 13-O , 20-H ) :   0.8720 B( 14-O , 21-H ) :   0.8852 B( 15-O , 22-H ) :   0.8795
B( 16-O , 23-H ) :   0.8801

Dispersion correction           -0.008074825
FINAL SINGLE POINT ENERGY      -687.075741053274

DIPOLE MOMENT
-------------

Method             : SCF
Type of density    : Electron Density
Multiplicity       :   1
Irrep              :   0
Energy             :  -687.0870045630432514 Eh
Relativity type    :
Basis              : AO
                                X                 Y                 Z
Electronic contribution:      2.406926614      -0.733079275      -0.477666837
Nuclear contribution   :     -2.344950892       1.262213202      -0.165120979
                        -----------------------------------------
Total Dipole Moment    :      0.061975723       0.529133927      -0.642787816
                        -----------------------------------------
Magnitude (a.u.)       :      0.834865186
Magnitude (Debye)      :      2.122058660

Rotational constants in cm-1:             0.038721             0.027116             0.017800
Rotational constants in MHz :          1160.824443           812.904963           533.623935

                             ****ORCA TERMINATED NORMALLY****
TOTAL RUN TIME: 0 days 0 hours 0 minutes 48 seconds 451 msec
