                         Program Version 6.0.0  -   RELEASE  -
|  1> ! r2scan-3c def2/J RI DEFGRID2 scfconv6 printgap
|  2> %output
|  3>     printlevel normal
|  4> end
|  5> %cpcm
|  6>     smd true
|  7>     smdsolvent "water"
|  8> end
|  9> * xyz 0 1
| 10> C -2.5535192608 -0.898247331 0.2916355539
| 11> C -1.1218007409 -0.4492974117 0.6197657475
| 12> H -1.0015495552 -0.3938744413 1.7115313228
| 13> C -0.8400262569 0.941773424 0.0326723892
| 14> H -1.1103886242 0.9244130542 -1.0363193439
| 15> C 0.6484754948 1.2879333803 0.1804472024
| 16> H 0.8665170406 1.4503644507 1.2428246148
| 17> C 1.540215888 0.1486344543 -0.332659595
| 18> H 1.3966205786 0.0360051476 -1.4215647052
| 19> C 1.1203089675 -1.169816603 0.345939404
| 20> H 1.2889489173 -1.0801950865 1.4307307115
| 21> O -0.2447987289 -1.4189532289 0.0779145678
| 22> O 1.8492742387 -2.2604639056 -0.0625222397
| 23> O 2.8924445133 0.388717201 -0.044998328
| 24> O 0.9650806343 2.5068465377 -0.450805101
| 25> O -1.6435227527 1.8646935961 0.7237221176
| 26> O -2.7543381591 -1.0612110295 -1.0872277883
| 27> H -3.2425869123 -0.1196686348 0.6217378163
| 28> H -2.7630941529 -1.8295096092 0.8293525058
| 29> H 1.729171926 -2.409685173 -1.0139504797
| 30> H 3.0859961246 1.323996254 -0.2211216625
| 31> H 0.7663300683 2.4490613428 -1.3981436234
| 32> H -1.3630207158 2.7627260948 0.4874754398
| 33> H -2.1692426834 -1.7685442932 -1.3952296826
| 34> *
| 35>
| 36>                          ****END OF INPUT****

CARTESIAN COORDINATES (ANGSTROEM)
---------------------------------
  C     -2.553519   -0.898247    0.291636
  C     -1.121801   -0.449297    0.619766
  H     -1.001550   -0.393874    1.711531
  C     -0.840026    0.941773    0.032672
  H     -1.110389    0.924413   -1.036319
  C      0.648475    1.287933    0.180447
  H      0.866517    1.450364    1.242825
  C      1.540216    0.148634   -0.332660
  H      1.396621    0.036005   -1.421565
  C      1.120309   -1.169817    0.345939
  H      1.288949   -1.080195    1.430731
  O     -0.244799   -1.418953    0.077915
  O      1.849274   -2.260464   -0.062522
  O      2.892445    0.388717   -0.044998
  O      0.965081    2.506847   -0.450805
  O     -1.643523    1.864694    0.723722
  O     -2.754338   -1.061211   -1.087228
  H     -3.242587   -0.119669    0.621738
  H     -2.763094   -1.829510    0.829353
  H      1.729172   -2.409685   -1.013950
  H      3.085996    1.323996   -0.221122
  H      0.766330    2.449061   -1.398144
  H     -1.363021    2.762726    0.487475
  H     -2.169243   -1.768544   -1.395230

 Total Charge           Charge          ....    0
 Multiplicity           Mult            ....    1
 Number of Electrons    NEL             ....   96
 Basis Dimension        Dim             ....  318

ORBITAL ENERGIES
----------------

  NO   OCC          E(Eh)            E(eV)
   0   2.0000     -18.973969      -516.3079
   1   2.0000     -18.970361      -516.2098
   2   2.0000     -18.963972      -516.0359
   3   2.0000     -18.960424      -515.9394
   4   2.0000     -18.959665      -515.9187
   5   2.0000     -18.956874      -515.8428
   6   2.0000     -10.137886      -275.8659
   7   2.0000     -10.088419      -274.5198
   8   2.0000     -10.086647      -274.4716
   9   2.0000     -10.085618      -274.4436
  10   2.0000     -10.084549      -274.4145
  11   2.0000     -10.076084      -274.1842
  12   2.0000      -1.053586       -28.6695
  13   2.0000      -1.014295       -27.6004
  14   2.0000      -1.004668       -27.3384
  15   2.0000      -0.994735       -27.0681
  16   2.0000      -0.985192       -26.8084
  17   2.0000      -0.981914       -26.7192
  18   2.0000      -0.745842       -20.2954
  19   2.0000      -0.733149       -19.9500
  20   2.0000      -0.655081       -17.8257
  21   2.0000      -0.615499       -16.7486
  22   2.0000      -0.595930       -16.2161
  23   2.0000      -0.566763       -15.4224
  24   2.0000      -0.513861       -13.9829
  25   2.0000      -0.507230       -13.8024
  26   2.0000      -0.491229       -13.3670
  27   2.0000      -0.475466       -12.9381
  28   2.0000      -0.466286       -12.6883
  29   2.0000      -0.451253       -12.2792
  30   2.0000      -0.444725       -12.1016
  31   2.0000      -0.436426       -11.8757
  32   2.0000      -0.397830       -10.8255
  33   2.0000      -0.393986       -10.7209
  34   2.0000      -0.383773       -10.4430
  35   2.0000      -0.378866       -10.3095
  36   2.0000      -0.347570        -9.4579
  37   2.0000      -0.341753        -9.2996
  38   2.0000      -0.328387        -8.9359
  39   2.0000      -0.314863        -8.5679
  40   2.0000      -0.309662        -8.4263
  41   2.0000      -0.306071        -8.3286
  42   2.0000      -0.288762        -7.8576
  43   2.0000      -0.262704        -7.1485
  44   2.0000      -0.260822        -7.0973
  45   2.0000      -0.247547        -6.7361
  46   2.0000      -0.235202        -6.4002
  47   2.0000      -0.230245        -6.2653
  48   0.0000       0.041755         1.1362
  49   0.0000       0.066741         1.8161
  50   0.0000       0.070807         1.9268
  51   0.0000       0.089989         2.4487
  52   0.0000       0.093940         2.5562

MULLIKEN ATOMIC CHARGES
-----------------------
   0 C :   -0.251924
   1 C :    0.029575
   2 H :    0.193753
   3 C :   -0.029809
   4 H :    0.195795
   5 C :   -0.097812
   6 H :    0.193568
   7 C :    0.079781
   8 H :    0.186996
   9 C :   -0.134097
  10 H :    0.177331
  11 O :   -0.255521
  12 O :   -0.428216
  13 O :   -0.489885
  14 O :   -0.480017
  15 O :   -0.501976
  16 O :   -0.493203
  17 H :    0.166839
  18 H :    0.160675
  19 H :    0.368427
  20 H :    0.352789
  21 H :    0.355401
  22 H :    0.348392
  23 H :    0.353139
Sum of atomic charges:    0.0000000

LOEWDIN ATOMIC CHARGES
----------------------
   0 C :    0.042066
   1 C :    0.118603
   2 H :    0.198893
   3 C :    0.105339
   4 H :    0.192504
   5 C :    0.098774
   6 H :    0.208474
   7 C :    0.111545
   8 H :    0.190897
   9 C :    0.297150
  10 H :    0.207896
  11 O :   -0.696146
  12 O :   -0.497729
  13 O :   -0.597543
  14 O :   -0.591349
  15 O :   -0.610412
  16 O :   -0.623887
  17 H :    0.197287
  18 H :    0.175150
  19 H :    0.299289
  20 H :    0.296884
  21 H :    0.292911
  22 H :    0.295134
  23 H :    0.288270

  Mayer bond orders larger than 0.100000
B(  0-C ,  1-C ) :   0.9377 B(  0-C , 16-O ) :   1.0108 B(  0-C , 17-H ) :   0.9640
B(  0-C , 18-H ) :   0.9724 B(  1-C ,  2-H ) :   0.9224 B(  1-C ,  3-C ) :   0.8611
B(  1-C , 11-O ) :   0.7744 B(  1-C , 16-O ) :  -0.1062 B(  3-C ,  4-H ) :   0.9804
B(  3-C ,  5-C ) :   0.8623 B(  3-C , 15-O ) :   0.8396 B(  5-C ,  6-H ) :   0.9677
B(  5-C ,  7-C ) :   0.9035 B(  5-C , 14-O ) :   1.0380 B(  7-C ,  8-H ) :   0.9412
B(  7-C ,  9-C ) :   0.8399 B(  7-C , 13-O ) :   0.8683 B(  9-C , 10-H ) :   0.9940
B(  9-C , 11-O ) :   0.9406 B(  9-C , 12-O ) :   1.1187 B( 12-O , 19-H ) :   0.8468
B( 13-O , 20-H ) :   0.8540 B( 14-O , 21-H ) :   0.8608 B( 15-O , 22-H ) :   0.8611
B( 16-O , 23-H ) :   0.8572

Dispersion correction           -0.008074825
FINAL SINGLE POINT ENERGY      -687.112305073160

DIPOLE MOMENT
-------------

Method             : SCF
Type of density    : Electron Density
Multiplicity       :   1
Irrep              :   0
Energy             :  -687.1235685829290105 Eh
Relativity type    :
Basis              : AO
                                X                 Y                 Z
Electronic contribution:      2.425195769      -0.510221975      -0.800219809
Nuclear contribution   :     -2.344950892       1.262213202      -0.165120979
                        -----------------------------------------
Total Dipole Moment    :      0.080244878       0.751991226      -0.965340787
                        -----------------------------------------
Magnitude (a.u.)       :      1.226300486
Magnitude (Debye)      :      3.117008122

Rotational constants in cm-1:             0.038721             0.027116             0.017800
Rotational constants in MHz :          1160.824443           812.904963           533.623935

                             ****ORCA TERMINATED NORMALLY****
TOTAL RUN TIME: 0 days 0 hours 0 minutes 57 seconds 590 msec
