                         Program Version 6.0.0  -   RELEASE  -
|  1> ! r2scan-3c def2/J RI DEFGRID2 scfconv6 printgap
|  2> %output
|  3>     printlevel normal
|  4> end
|  5> * xyz 0 1
|  6> C 1.0969296911 -0.0011097903 0.0542052493
|  7> C -0.0130051747 1.0512547343 -0.06895012
|  8> N -1.0200216342 0.0010249876 0.1377235139
|  9> C -0.0151364372 -1.0512179181 -0.0689631004
| 10> H 1.5838383811 -0.0016925076 1.0244402926
| 11> H 1.8442515313 -0.0018243211 -0.7341579417
| 12> H -0.0478732986 1.8193125156 0.7057161787
| 13> H -0.0456920559 1.5331268988 -1.0520612705
| 14> H -1.7952440385 0.0018453242 -0.5140005252
| 15> H -0.0516676722 -1.8191786632 0.7057275335
| 16> H -0.0488289246 -1.5330471588 -1.0520455642
| 17> *
| 18>
| 19>                          ****END OF INPUT****

CARTESIAN COORDINATES (ANGSTROEM)
---------------------------------
  C      1.096930   -0.001110    0.054205
  C     -0.013005    1.051255   -0.068950
  N     -1.020022    0.001025    0.137724
  C     -0.015136   -1.051218   -0.068963
  H      1.583838   -0.001693    1.024440
  H      1.844252   -0.001824   -0.734158
  H     -0.047873    1.819313    0.705716
  H     -0.045692    1.533127   -1.052061
  H     -1.795244    0.001845   -0.514001
  H     -0.051668   -1.819179    0.705728
  H     -0.048829   -1.533047   -1.052046

 Total Charge           Charge          ....    0
 Multiplicity           Mult            ....    1
 Number of Electrons    NEL             ....   32
 Basis Dimension        Dim             ....  116

ORBITAL ENERGIES
----------------

  NO   OCC          E(Eh)            E(eV)
   0   2.0000     -14.134828      -384.6282
   1   2.0000     -10.049477      -273.4602
   2   2.0000     -10.049470      -273.4600
   3   2.0000     -10.026929      -272.8466
   4   2.0000      -0.892544       -24.2874
   5   2.0000      -0.683406       -18.5964
   6   2.0000      -0.638135       -17.3645
   7   2.0000      -0.520255       -14.1569
   8   2.0000      -0.481637       -13.1060
   9   2.0000      -0.446570       -12.1518
  10   2.0000      -0.372955       -10.1486
  11   2.0000      -0.355952        -9.6859
  12   2.0000      -0.334399        -9.0995
  13   2.0000      -0.299718        -8.1558
  14   2.0000      -0.287631        -7.8268
  15   2.0000      -0.188044        -5.1169
  16   0.0000       0.060230         1.6390
  17   0.0000       0.092755         2.5240
  18   0.0000       0.095822         2.6075
  19   0.0000       0.116386         3.1670
  20   0.0000       0.165624         4.5069

MULLIKEN ATOMIC CHARGES
-----------------------
   0 C :   -0.213004
   1 C :   -0.251059
   2 N :   -0.313012
   3 C :   -0.251066
   4 H :    0.153817
   5 H :    0.142919
   6 H :    0.133356
   7 H :    0.121743
   8 H :    0.221199
   9 H :    0.133364
  10 H :    0.121743
Sum of atomic charges:    0.0000000

LOEWDIN ATOMIC CHARGES
----------------------
   0 C :   -0.239955
   1 C :   -0.056671
   2 N :   -0.819703
   3 C :   -0.056672
   4 H :    0.158839
   5 H :    0.153768
   6 H :    0.158769
   7 H :    0.153457
   8 H :    0.235936
   9 H :    0.158775
  10 H :    0.153456

  Mayer bond orders larger than 0.100000
B(  0-C ,  1-C ) :   0.9707 B(  0-C ,  2-N ) :  -0.1442 B(  0-C ,  3-C ) :   0.9707
B(  0-C ,  4-H ) :   0.9626 B(  0-C ,  5-H ) :   0.9654 B(  1-C ,  2-N ) :   0.9851
B(  1-C ,  6-H ) :   0.9595 B(  1-C ,  7-H ) :   0.9585 B(  2-N ,  3-C ) :   0.9851
B(  2-N ,  8-H ) :   0.9122 B(  3-C ,  9-H ) :   0.9595 B(  3-C , 10-H ) :   0.9585

Dispersion correction           -0.002021151
FINAL SINGLE POINT ENERGY      -173.177833636242

DIPOLE MOMENT
-------------

Method             : SCF
Type of density    : Electron Density
Multiplicity       :   1
Irrep              :   0
Energy             :  -173.1838997748561155 Eh
Relativity type    :
Basis              : AO
                                X                 Y                 Z
Electronic contribution:     -1.145592648       0.001173122       0.387249455
Nuclear contribution   :      1.344208781      -0.001362127      -0.858964835
                        -----------------------------------------
Total Dipole Moment    :      0.198616133      -0.000189005      -0.471715380
                        -----------------------------------------
Magnitude (a.u.)       :      0.511823997
Magnitude (Debye)      :      1.300953212

Rotational constants in cm-1:             0.387752             0.385195             0.221220
Rotational constants in MHz :         11624.504185         11547.852893          6632.003671

                             ****ORCA TERMINATED NORMALLY****
TOTAL RUN TIME: 0 days 0 hours 0 minutes 10 seconds 535 msec
