                         Program Version 6.0.0  -   RELEASE  -
|  1> ! r2scan-3c def2/J RI DEFGRID2 scfconv6 printgap
|  2> %output
|  3>     printlevel normal
|  4> end
|  5> %cpcm
|  6>     smd true
|  7>     smdsolvent "water"
|  8> end
|  9> * xyz 0 1
| 10> C 1.0969296911 -0.0011097903 0.0542052493
| 11> C -0.0130051747 1.0512547343 -0.06895012
| 12> N -1.0200216342 0.0010249876 0.1377235139
| 13> C -0.0151364372 -1.0512179181 -0.0689631004
| 14> H 1.5838383811 -0.0016925076 1.0244402926
| 15> H 1.8442515313 -0.0018243211 -0.7341579417
| 16> H -0.0478732986 1.8193125156 0.7057161787
| 17> H -0.0456920559 1.5331268988 -1.0520612705
| 18> H -1.7952440385 0.0018453242 -0.5140005252
| 19> H -0.0516676722 -1.8191786632 0.7057275335
| 20> H -0.0488289246 -1.5330471588 -1.0520455642
| 21> *
| 22>
| 23>                          ****END OF INPUT****

CARTESIAN COORDINATES (ANGSTROEM)
---------------------------------
  C      1.096930   -0.001110    0.054205
  C     -0.013005    1.051255   -0.068950
  N     -1.020022    0.001025    0.137724
  C     -0.015136   -1.051218   -0.068963
  H      1.583838   -0.001693    1.024440
  H      1.844252   -0.001824   -0.734158
  H     -0.047873    1.819313    0.705716
  H     -0.045692    1.533127   -1.052061
  H     -1.795244    0.001845   -0.514001
  H     -0.051668   -1.819179    0.705728
  H     -0.048829   -1.533047   -1.052046

 Total Charge           Charge          ....    0
 Multiplicity           Mult            ....    1
 Number of Electrons    NEL             ....   32
 Basis Dimension        Dim             ....  116

ORBITAL ENERGIES
----------------

  NO   OCC          E(Eh)            E(eV)
   0   2.0000     -14.131335      -384.5332
   1   2.0000     -10.043333      -273.2930
   2   2.0000     -10.043326      -273.2928
   3   2.0000     -10.018580      -272.6194
   4   2.0000      -0.888202       -24.1692
   5   2.0000      -0.677230       -18.4284
   6   2.0000      -0.632649       -17.2153
   7   2.0000      -0.513441       -13.9714
   8   2.0000      -0.475019       -12.9259
   9   2.0000      -0.441420       -12.0116
  10   2.0000      -0.368472       -10.0266
  11   2.0000      -0.349294        -9.5048
  12   2.0000      -0.327241        -8.9047
  13   2.0000      -0.292926        -7.9709
  14   2.0000      -0.281673        -7.6647
  15   2.0000      -0.188915        -5.1406
  16   0.0000       0.067202         1.8287
  17   0.0000       0.101254         2.7553
  18   0.0000       0.102446         2.7877
  19   0.0000       0.120894         3.2897
  20   0.0000       0.171957         4.6792

MULLIKEN ATOMIC CHARGES
-----------------------
   0 C :   -0.224814
   1 C :   -0.274186
   2 N :   -0.374515
   3 C :   -0.274192
   4 H :    0.166462
   5 H :    0.158919
   6 H :    0.138304
   7 H :    0.140331
   8 H :    0.265054
   9 H :    0.138310
  10 H :    0.140328
Sum of atomic charges:    0.0000000

LOEWDIN ATOMIC CHARGES
----------------------
   0 C :   -0.242655
   1 C :   -0.060319
   2 N :   -0.843678
   3 C :   -0.060318
   4 H :    0.161382
   5 H :    0.159283
   6 H :    0.159095
   7 H :    0.161127
   8 H :    0.245858
   9 H :    0.159101
  10 H :    0.161124

  Mayer bond orders larger than 0.100000
B(  0-C ,  1-C ) :   0.9623 B(  0-C ,  2-N ) :  -0.1555 B(  0-C ,  3-C ) :   0.9623
B(  0-C ,  4-H ) :   0.9642 B(  0-C ,  5-H ) :   0.9618 B(  1-C ,  2-N ) :   1.0028
B(  1-C ,  6-H ) :   0.9558 B(  1-C ,  7-H ) :   0.9584 B(  2-N ,  3-C ) :   1.0027
B(  2-N ,  8-H ) :   0.8989 B(  3-C ,  9-H ) :   0.9558 B(  3-C , 10-H ) :   0.9584

Dispersion correction           -0.002021151
FINAL SINGLE POINT ENERGY      -173.185580717273

DIPOLE MOMENT
-------------

Method             : SCF
Type of density    : Electron Density
Multiplicity       :   1
Irrep              :   0
Energy             :  -173.1916468558868587 Eh
Relativity type    :
Basis              : AO
                                X                 Y                 Z
Electronic contribution:     -1.071509760       0.001099031       0.191095397
Nuclear contribution   :      1.344208781      -0.001362127      -0.858964835
                        -----------------------------------------
Total Dipole Moment    :      0.272699021      -0.000263096      -0.667869438
                        -----------------------------------------
Magnitude (a.u.)       :      0.721397541
Magnitude (Debye)      :      1.833646826

Rotational constants in cm-1:             0.387752             0.385195             0.221220
Rotational constants in MHz :         11624.504185         11547.852893          6632.003671

                             ****ORCA TERMINATED NORMALLY****
TOTAL RUN TIME: 0 days 0 hours 0 minutes 12 seconds 822 msec
