                         Program Version 6.0.0  -   RELEASE  -
|  1> ! r2scan-3c def2/J RI DEFGRID2 scfconv6 printgap
|  2> %output
|  3>     printlevel normal
|  4> end
|  5> * xyz 0 1
|  6> C 1.6761129572 -1.0988963838 0.0026085799
|  7> C 1.0519199755 0.2916506087 -0.0036637877
|  8> C -0.457749381 0.3475120025 -0.0004220997
|  9> O -1.0585211827 1.4018497048 -0.0005912637
| 10> O -1.1343607995 -0.7936895301 0.0018381662
| 11> H 2.7580358364 -0.998718467 0.0019829499
| 12> H 1.3997204119 -1.6534990503 0.8966283438
| 13> H 1.3998454319 -1.6617413103 -0.8862729663
| 14> H 1.3802883699 0.8654358851 0.8659723022
| 15> H 1.3762994774 0.8552583274 -0.8814124232
| 16> H -0.5587429719 -1.582040296 0.0009130264
| 17> *
| 18>
| 19>                          ****END OF INPUT****

CARTESIAN COORDINATES (ANGSTROEM)
---------------------------------
  C      1.676113   -1.098896    0.002609
  C      1.051920    0.291651   -0.003664
  C     -0.457749    0.347512   -0.000422
  O     -1.058521    1.401850   -0.000591
  O     -1.134361   -0.793690    0.001838
  H      2.758036   -0.998718    0.001983
  H      1.399720   -1.653499    0.896628
  H      1.399845   -1.661741   -0.886273
  H      1.380288    0.865436    0.865972
  H      1.376299    0.855258   -0.881412
  H     -0.558743   -1.582040    0.000913

 Total Charge           Charge          ....    0
 Multiplicity           Mult            ....    1
 Number of Electrons    NEL             ....   40
 Basis Dimension        Dim             ....  135

ORBITAL ENERGIES
----------------

  NO   OCC          E(Eh)            E(eV)
   0   2.0000     -19.007811      -517.2288
   1   2.0000     -18.925638      -514.9928
   2   2.0000     -10.161250      -276.5017
   3   2.0000     -10.060435      -273.7583
   4   2.0000     -10.054573      -273.5988
   5   2.0000      -1.075740       -29.2724
   6   2.0000      -0.978138       -26.6165
   7   2.0000      -0.769972       -20.9520
   8   2.0000      -0.646267       -17.5858
   9   2.0000      -0.593321       -16.1451
  10   2.0000      -0.495815       -13.4918
  11   2.0000      -0.463062       -12.6006
  12   2.0000      -0.422188       -11.4883
  13   2.0000      -0.401314       -10.9203
  14   2.0000      -0.384912       -10.4740
  15   2.0000      -0.369399       -10.0519
  16   2.0000      -0.348443        -9.4816
  17   2.0000      -0.341102        -9.2819
  18   2.0000      -0.284896        -7.7524
  19   2.0000      -0.235316        -6.4033
  20   0.0000      -0.019372        -0.5271
  21   0.0000       0.039146         1.0652
  22   0.0000       0.095562         2.6004
  23   0.0000       0.107348         2.9211
  24   0.0000       0.135270         3.6809

MULLIKEN ATOMIC CHARGES
-----------------------
   0 C :   -0.528668
   1 C :   -0.233647
   2 C :    0.323439
   3 O :   -0.381393
   4 O :   -0.342552
   5 H :    0.163872
   6 H :    0.157253
   7 H :    0.156672
   8 H :    0.173537
   9 H :    0.173611
  10 H :    0.337876
Sum of atomic charges:   -0.0000000

LOEWDIN ATOMIC CHARGES
----------------------
   0 C :   -0.423240
   1 C :   -0.259309
   2 C :    0.342090
   3 O :   -0.400358
   4 O :   -0.397570
   5 H :    0.163772
   6 H :    0.153552
   7 H :    0.153406
   8 H :    0.185686
   9 H :    0.185672
  10 H :    0.296300

  Mayer bond orders larger than 0.100000
B(  0-C ,  1-C ) :   0.8596 B(  0-C ,  5-H ) :   0.9508 B(  0-C ,  6-H ) :   0.9763
B(  0-C ,  7-H ) :   0.9759 B(  1-C ,  2-C ) :   1.0039 B(  1-C ,  8-H ) :   0.9299
B(  1-C ,  9-H ) :   0.9295 B(  2-C ,  3-O ) :   1.9718 B(  2-C ,  4-O ) :   1.0874
B(  4-O , 10-H ) :   0.8461

Dispersion correction           -0.002145721
FINAL SINGLE POINT ENERGY      -268.341045074359

DIPOLE MOMENT
-------------

Method             : SCF
Type of density    : Electron Density
Multiplicity       :   1
Irrep              :   0
Energy             :  -268.3454531358510735 Eh
Relativity type    :
Basis              : AO
                                X                 Y                 Z
Electronic contribution:     -5.845132450       2.686999944       0.000494605
Nuclear contribution   :      7.243397145      -3.908131354      -0.002034931
                        -----------------------------------------
Total Dipole Moment    :      1.398264694      -1.221131410      -0.001540326
                        -----------------------------------------
Magnitude (a.u.)       :      1.856423564
Magnitude (Debye)      :      4.718653702

Rotational constants in cm-1:             0.327192             0.132069             0.097509
Rotational constants in MHz :          9808.954884          3959.340504          2923.260724

                             ****ORCA TERMINATED NORMALLY****
TOTAL RUN TIME: 0 days 0 hours 0 minutes 12 seconds 922 msec
