                         Program Version 6.0.0  -   RELEASE  -
|  1> ! r2scan-3c def2/J RI DEFGRID2 scfconv6 printgap
|  2> %output
|  3>     printlevel normal
|  4> end
|  5> %cpcm
|  6>     smd true
|  7>     smdsolvent "water"
|  8> end
|  9> * xyz 0 1
| 10> C 1.6761129572 -1.0988963838 0.0026085799
| 11> C 1.0519199755 0.2916506087 -0.0036637877
| 12> C -0.457749381 0.3475120025 -0.0004220997
| 13> O -1.0585211827 1.4018497048 -0.0005912637
| 14> O -1.1343607995 -0.7936895301 0.0018381662
| 15> H 2.7580358364 -0.998718467 0.0019829499
| 16> H 1.3997204119 -1.6534990503 0.8966283438
| 17> H 1.3998454319 -1.6617413103 -0.8862729663
| 18> H 1.3802883699 0.8654358851 0.8659723022
| 19> H 1.3762994774 0.8552583274 -0.8814124232
| 20> H -0.5587429719 -1.582040296 0.0009130264
| 21> *
| 22>
| 23>                          ****END OF INPUT****

CARTESIAN COORDINATES (ANGSTROEM)
---------------------------------
  C      1.676113   -1.098896    0.002609
  C      1.051920    0.291651   -0.003664
  C     -0.457749    0.347512   -0.000422
  O     -1.058521    1.401850   -0.000591
  O     -1.134361   -0.793690    0.001838
  H      2.758036   -0.998718    0.001983
  H      1.399720   -1.653499    0.896628
  H      1.399845   -1.661741   -0.886273
  H      1.380288    0.865436    0.865972
  H      1.376299    0.855258   -0.881412
  H     -0.558743   -1.582040    0.000913

 Total Charge           Charge          ....    0
 Multiplicity           Mult            ....    1
 Number of Electrons    NEL             ....   40
 Basis Dimension        Dim             ....  135

ORBITAL ENERGIES
----------------

  NO   OCC          E(Eh)            E(eV)
   0   2.0000     -19.005427      -517.1640
   1   2.0000     -18.941943      -515.4365
   2   2.0000     -10.169308      -276.7209
   3   2.0000     -10.042444      -273.2688
   4   2.0000     -10.022907      -272.7372
   5   2.0000      -1.077793       -29.3282
   6   2.0000      -0.990429       -26.9509
   7   2.0000      -0.748384       -20.3646
   8   2.0000      -0.627384       -17.0720
   9   2.0000      -0.586579       -15.9616
  10   2.0000      -0.482879       -13.1398
  11   2.0000      -0.449575       -12.2336
  12   2.0000      -0.436542       -11.8789
  13   2.0000      -0.390372       -10.6226
  14   2.0000      -0.364452        -9.9172
  15   2.0000      -0.360925        -9.8213
  16   2.0000      -0.329544        -8.9673
  17   2.0000      -0.326436        -8.8828
  18   2.0000      -0.294837        -8.0229
  19   2.0000      -0.252630        -6.8744
  20   0.0000      -0.023722        -0.6455
  21   0.0000       0.069379         1.8879
  22   0.0000       0.121671         3.3108
  23   0.0000       0.129194         3.5155
  24   0.0000       0.151868         4.1325

MULLIKEN ATOMIC CHARGES
-----------------------
   0 C :   -0.557816
   1 C :   -0.234800
   2 C :    0.357571
   3 O :   -0.494178
   4 O :   -0.378230
   5 H :    0.174620
   6 H :    0.176771
   7 H :    0.176514
   8 H :    0.190094
   9 H :    0.190371
  10 H :    0.399083
Sum of atomic charges:    0.0000000

LOEWDIN ATOMIC CHARGES
----------------------
   0 C :   -0.419846
   1 C :   -0.252182
   2 C :    0.354586
   3 O :   -0.489433
   4 O :   -0.393022
   5 H :    0.166975
   6 H :    0.162476
   7 H :    0.162432
   8 H :    0.193257
   9 H :    0.193357
  10 H :    0.321401

  Mayer bond orders larger than 0.100000
B(  0-C ,  1-C ) :   0.8733 B(  0-C ,  5-H ) :   0.9486 B(  0-C ,  6-H ) :   0.9714
B(  0-C ,  7-H ) :   0.9711 B(  1-C ,  2-C ) :   1.0130 B(  1-C ,  8-H ) :   0.9217
B(  1-C ,  9-H ) :   0.9211 B(  2-C ,  3-O ) :   1.8855 B(  2-C ,  4-O ) :   1.1357
B(  4-O , 10-H ) :   0.8175

Dispersion correction           -0.002145721
FINAL SINGLE POINT ENERGY      -268.357328957837

DIPOLE MOMENT
-------------

Method             : SCF
Type of density    : Electron Density
Multiplicity       :   1
Irrep              :   0
Energy             :  -268.3617370193296097 Eh
Relativity type    :
Basis              : AO
                                X                 Y                 Z
Electronic contribution:     -5.413145441       2.160849170      -0.000234727
Nuclear contribution   :      7.243397145      -3.908131354      -0.002034931
                        -----------------------------------------
Total Dipole Moment    :      1.830251703      -1.747282185      -0.002269658
                        -----------------------------------------
Magnitude (a.u.)       :      2.530379711
Magnitude (Debye)      :      6.431714089

Rotational constants in cm-1:             0.327192             0.132069             0.097509
Rotational constants in MHz :          9808.954884          3959.340504          2923.260724

                             ****ORCA TERMINATED NORMALLY****
TOTAL RUN TIME: 0 days 0 hours 0 minutes 14 seconds 623 msec
