                         Program Version 6.0.0  -   RELEASE  -
|  1> ! wb97x-v def2-tzvp def2/J RIJCOSX DEFGRID2 scfconv7 GCP(DFT/TZ) printgap
|  2> %output
|  3>     printlevel normal
|  4> end
|  5> * xyz 0 1
|  6> C -2.6418187684325694 1.05060121726778 0.06589923778454906
|  7> C -1.7328402200191717 -0.07343925812827372 -0.34363388038323534
|  8> O -2.141092254209063 -0.9727860134192944 -1.0738152414719553
|  9> C -0.30702153289157014 -0.03564286171311819 0.1544679761386324
| 10> C 0.3836040278600558 1.2729907291059963 -0.29226748544625836
| 11> C 1.820710747319026 1.3347040517492528 0.22890924037411978
| 12> C 2.6271082848139256 0.10684426635847229 -0.19387857121422655
| 13> C 1.9375101426845085 -1.1798249079414898 0.2609357266160811
| 14> C 0.5059446450988311 -1.2561467883924082 -0.27243080090146055
| 15> H -3.682520439601135 0.7215332730271757 0.03970023782592524
| 16> H -2.3852912107140005 1.4476782019695007 1.050950999866388
| 17> H -2.5251787904352447 1.8666513533658557 -0.6584458348480497
| 18> H -0.3744553006827716 -0.004715996300893011 1.254142380780542
| 19> H 0.386612216228041 1.3089736351347396 -1.3904705389489727
| 20> H -0.17994795547787368 2.1417193081865977 0.062301641891444215
| 21> H 2.3005681851322004 2.2512307978273323 -0.13355799849976854
| 22> H 1.8003470608621293 1.3942349210012748 1.325883753444025
| 23> H 2.7242205669317108 0.09715324048987284 -1.288571109748634
| 24> H 3.64166013039349 0.1612042826222642 0.21759016436959144
| 25> H 2.5054256450988768 -2.055695985749567 -0.07339399002823128
| 26> H 1.917638467035561 -1.211057226299866 1.3592115313175577
| 27> H 0.5276662092436752 -1.3027776061807907 -1.3692321943208077
| 28> H 0.01557813108033202 -2.1717438718419713 0.07600887229575715
| 29> *
| 30>
| 31>                          ****END OF INPUT****

CARTESIAN COORDINATES (ANGSTROEM)
---------------------------------
  C     -2.641819    1.050601    0.065899
  C     -1.732840   -0.073439   -0.343634
  O     -2.141092   -0.972786   -1.073815
  C     -0.307022   -0.035643    0.154468
  C      0.383604    1.272991   -0.292267
  C      1.820711    1.334704    0.228909
  C      2.627108    0.106844   -0.193879
  C      1.937510   -1.179825    0.260936
  C      0.505945   -1.256147   -0.272431
  H     -3.682520    0.721533    0.039700
  H     -2.385291    1.447678    1.050951
  H     -2.525179    1.866651   -0.658446
  H     -0.374455   -0.004716    1.254142
  H      0.386612    1.308974   -1.390471
  H     -0.179948    2.141719    0.062302
  H      2.300568    2.251231   -0.133558
  H      1.800347    1.394235    1.325884
  H      2.724221    0.097153   -1.288571
  H      3.641660    0.161204    0.217590
  H      2.505426   -2.055696   -0.073394
  H      1.917638   -1.211057    1.359212
  H      0.527666   -1.302778   -1.369232
  H      0.015578   -2.171744    0.076009

 Total Charge           Charge          ....    0
 Multiplicity           Mult            ....    1
 Number of Electrons    NEL             ....   70
 Basis Dimension        Dim             ....  363

ORBITAL ENERGIES
----------------

  NO   OCC          E(Eh)            E(eV)
   0   2.0000     -21.655420      -589.2739
   1   2.0000     -12.133811      -330.1778
   2   2.0000     -12.058112      -328.1179
   3   2.0000     -12.053925      -328.0040
   4   2.0000     -12.050523      -327.9114
   5   2.0000     -12.046595      -327.8045
   6   2.0000     -12.042000      -327.6795
   7   2.0000     -12.040341      -327.6343
   8   2.0000     -12.037919      -327.5684
   9   2.0000      -1.698445       -46.2170
  10   2.0000      -1.352842       -36.8127
  11   2.0000      -1.287260       -35.0281
  12   2.0000      -1.254304       -34.1314
  13   2.0000      -1.239301       -33.7231
  14   2.0000      -1.134341       -30.8670
  15   2.0000      -1.102400       -29.9978
  16   2.0000      -1.071775       -29.1645
  17   2.0000      -1.023952       -27.8631
  18   2.0000      -0.969526       -26.3821
  19   2.0000      -0.956296       -26.0221
  20   2.0000      -0.914826       -24.8937
  21   2.0000      -0.897022       -24.4092
  22   2.0000      -0.877176       -23.8692
  23   2.0000      -0.874315       -23.7913
  24   2.0000      -0.859869       -23.3982
  25   2.0000      -0.847042       -23.0492
  26   2.0000      -0.833667       -22.6852
  27   2.0000      -0.829290       -22.5661
  28   2.0000      -0.823381       -22.4053
  29   2.0000      -0.805877       -21.9290
  30   2.0000      -0.782975       -21.3058
  31   2.0000      -0.780036       -21.2259
  32   2.0000      -0.760203       -20.6862
  33   2.0000      -0.754961       -20.5435
  34   2.0000      -0.739634       -20.1265
  35   0.0000      -0.306844        -8.3497
  36   0.0000      -0.063741        -1.7345
  37   0.0000      -0.053036        -1.4432
  38   0.0000      -0.036764        -1.0004
  39   0.0000      -0.031012        -0.8439

MULLIKEN ATOMIC CHARGES
-----------------------
   0 C :   -0.376326
   1 C :    0.204868
   2 O :   -0.315415
   3 C :   -0.044853
   4 C :   -0.248792
   5 C :   -0.173802
   6 C :   -0.183792
   7 C :   -0.167301
   8 C :   -0.211298
   9 H :    0.144116
  10 H :    0.126717
  11 H :    0.138827
  12 H :    0.088192
  13 H :    0.109577
  14 H :    0.111531
  15 H :    0.104014
  16 H :    0.090030
  17 H :    0.089788
  18 H :    0.103697
  19 H :    0.104452
  20 H :    0.086751
  21 H :    0.106065
  22 H :    0.112954
Sum of atomic charges:   -0.0000000

LOEWDIN ATOMIC CHARGES
----------------------
   0 C :   -0.262300
   1 C :   -0.313694
   2 O :    0.109362
   3 C :   -0.226795
   4 C :   -0.223472
   5 C :   -0.257264
   6 C :   -0.260156
   7 C :   -0.257999
   8 C :   -0.226046
   9 H :    0.132788
  10 H :    0.126619
  11 H :    0.139584
  12 H :    0.163270
  13 H :    0.140481
  14 H :    0.134780
  15 H :    0.132571
  16 H :    0.134274
  17 H :    0.134518
  18 H :    0.131441
  19 H :    0.132494
  20 H :    0.132670
  21 H :    0.142929
  22 H :    0.139944

  Mayer bond orders larger than 0.100000
B(  0-C ,  1-C ) :   0.9715 B(  0-C ,  9-H ) :   0.9760 B(  0-C , 10-H ) :   0.9749
B(  0-C , 11-H ) :   0.9491 B(  1-C ,  2-O ) :   2.1407 B(  1-C ,  3-C ) :   0.9307
B(  3-C ,  4-C ) :   0.9313 B(  3-C ,  8-C ) :   0.9971 B(  3-C , 12-H ) :   0.9424
B(  4-C ,  5-C ) :   0.9891 B(  4-C , 13-H ) :   0.9675 B(  4-C , 14-H ) :   0.9730
B(  5-C ,  6-C ) :   0.9929 B(  5-C , 15-H ) :   0.9766 B(  5-C , 16-H ) :   0.9743
B(  6-C ,  7-C ) :   0.9848 B(  6-C , 17-H ) :   0.9741 B(  6-C , 18-H ) :   0.9763
B(  7-C ,  8-C ) :   0.9752 B(  7-C , 19-H ) :   0.9792 B(  7-C , 20-H ) :   0.9744
B(  8-C , 21-H ) :   0.9716 B(  8-C , 22-H ) :   0.9755

FINAL SINGLE POINT ENERGY      -388.543150741744

DIPOLE MOMENT
-------------

Method             : SCF
Type of density    : Electron Density
Multiplicity       :   1
Irrep              :   0
Energy             :  -388.5589446602439239 Eh
Relativity type    :
Basis              : AO
                                X                 Y                 Z
Electronic contribution:     -5.333347343      -3.082669319      -2.006136554
Nuclear contribution   :      5.851251694       3.949805096       2.658103048
                        -----------------------------------------
Total Dipole Moment    :      0.517904351       0.867135777       0.651966493
                        -----------------------------------------
Magnitude (a.u.)       :      1.202168740
Magnitude (Debye)      :      3.055670100

Rotational constants in cm-1:             0.102166             0.036444             0.029202
Rotational constants in MHz :          3062.854506          1092.549952           875.451028

                             ****ORCA TERMINATED NORMALLY****
TOTAL RUN TIME: 0 days 0 hours 3 minutes 39 seconds 399 msec
