                         Program Version 6.0.0  -   RELEASE  -
|  1> ! wb97x-v def2-tzvp def2/J RIJCOSX DEFGRID2 scfconv7 GCP(DFT/TZ) printgap
|  2> %output
|  3>     printlevel normal
|  4> end
|  5> %cpcm
|  6>     smd true
|  7>     smdsolvent "water"
|  8> end
|  9> * xyz 0 1
| 10> C -2.6418187684325694 1.05060121726778 0.06589923778454906
| 11> C -1.7328402200191717 -0.07343925812827372 -0.34363388038323534
| 12> O -2.141092254209063 -0.9727860134192944 -1.0738152414719553
| 13> C -0.30702153289157014 -0.03564286171311819 0.1544679761386324
| 14> C 0.3836040278600558 1.2729907291059963 -0.29226748544625836
| 15> C 1.820710747319026 1.3347040517492528 0.22890924037411978
| 16> C 2.6271082848139256 0.10684426635847229 -0.19387857121422655
| 17> C 1.9375101426845085 -1.1798249079414898 0.2609357266160811
| 18> C 0.5059446450988311 -1.2561467883924082 -0.27243080090146055
| 19> H -3.682520439601135 0.7215332730271757 0.03970023782592524
| 20> H -2.3852912107140005 1.4476782019695007 1.050950999866388
| 21> H -2.5251787904352447 1.8666513533658557 -0.6584458348480497
| 22> H -0.3744553006827716 -0.004715996300893011 1.254142380780542
| 23> H 0.386612216228041 1.3089736351347396 -1.3904705389489727
| 24> H -0.17994795547787368 2.1417193081865977 0.062301641891444215
| 25> H 2.3005681851322004 2.2512307978273323 -0.13355799849976854
| 26> H 1.8003470608621293 1.3942349210012748 1.325883753444025
| 27> H 2.7242205669317108 0.09715324048987284 -1.288571109748634
| 28> H 3.64166013039349 0.1612042826222642 0.21759016436959144
| 29> H 2.5054256450988768 -2.055695985749567 -0.07339399002823128
| 30> H 1.917638467035561 -1.211057226299866 1.3592115313175577
| 31> H 0.5276662092436752 -1.3027776061807907 -1.3692321943208077
| 32> H 0.01557813108033202 -2.1717438718419713 0.07600887229575715
| 33> *
| 34>
| 35>                          ****END OF INPUT****

CARTESIAN COORDINATES (ANGSTROEM)
---------------------------------
  C     -2.641819    1.050601    0.065899
  C     -1.732840   -0.073439   -0.343634
  O     -2.141092   -0.972786   -1.073815
  C     -0.307022   -0.035643    0.154468
  C      0.383604    1.272991   -0.292267
  C      1.820711    1.334704    0.228909
  C      2.627108    0.106844   -0.193879
  C      1.937510   -1.179825    0.260936
  C      0.505945   -1.256147   -0.272431
  H     -3.682520    0.721533    0.039700
  H     -2.385291    1.447678    1.050951
  H     -2.525179    1.866651   -0.658446
  H     -0.374455   -0.004716    1.254142
  H      0.386612    1.308974   -1.390471
  H     -0.179948    2.141719    0.062302
  H      2.300568    2.251231   -0.133558
  H      1.800347    1.394235    1.325884
  H      2.724221    0.097153   -1.288571
  H      3.641660    0.161204    0.217590
  H      2.505426   -2.055696   -0.073394
  H      1.917638   -1.211057    1.359212
  H      0.527666   -1.302778   -1.369232
  H      0.015578   -2.171744    0.076009

 Total Charge           Charge          ....    0
 Multiplicity           Mult            ....    1
 Number of Electrons    NEL             ....   70
 Basis Dimension        Dim             ....  363

ORBITAL ENERGIES
----------------

  NO   OCC          E(Eh)            E(eV)
   0   2.0000     -21.666289      -589.5697
   1   2.0000     -12.141112      -330.3765
   2   2.0000     -12.048167      -327.8473
   3   2.0000     -12.038598      -327.5869
   4   2.0000     -12.038127      -327.5741
   5   2.0000     -12.031600      -327.3965
   6   2.0000     -12.031351      -327.3897
   7   2.0000     -12.029889      -327.3499
   8   2.0000     -12.028387      -327.3090
   9   2.0000      -1.712777       -46.6070
  10   2.0000      -1.342129       -36.5212
  11   2.0000      -1.278621       -34.7930
  12   2.0000      -1.242763       -33.8173
  13   2.0000      -1.229549       -33.4577
  14   2.0000      -1.128351       -30.7040
  15   2.0000      -1.091151       -29.6917
  16   2.0000      -1.079063       -29.3628
  17   2.0000      -1.014303       -27.6006
  18   2.0000      -0.970127       -26.3985
  19   2.0000      -0.954325       -25.9685
  20   2.0000      -0.921262       -25.0688
  21   2.0000      -0.889464       -24.2035
  22   2.0000      -0.865186       -23.5429
  23   2.0000      -0.863479       -23.4965
  24   2.0000      -0.851147       -23.1609
  25   2.0000      -0.836263       -22.7559
  26   2.0000      -0.824368       -22.4322
  27   2.0000      -0.820529       -22.3277
  28   2.0000      -0.811861       -22.0919
  29   2.0000      -0.800226       -21.7753
  30   2.0000      -0.772457       -21.0196
  31   2.0000      -0.767720       -20.8907
  32   2.0000      -0.750886       -20.4326
  33   2.0000      -0.743448       -20.2303
  34   2.0000      -0.727332       -19.7917
  35   0.0000      -0.304747        -8.2926
  36   0.0000      -0.055834        -1.5193
  37   0.0000      -0.045869        -1.2482
  38   0.0000      -0.020823        -0.5666
  39   0.0000      -0.017572        -0.4782

MULLIKEN ATOMIC CHARGES
-----------------------
   0 C :   -0.415906
   1 C :    0.285661
   2 O :   -0.458260
   3 C :   -0.037559
   4 C :   -0.258937
   5 C :   -0.193690
   6 C :   -0.206833
   7 C :   -0.196045
   8 C :   -0.234128
   9 H :    0.151207
  10 H :    0.159662
  11 H :    0.170246
  12 H :    0.120043
  13 H :    0.116068
  14 H :    0.132548
  15 H :    0.115082
  16 H :    0.102575
  17 H :    0.097965
  18 H :    0.114540
  19 H :    0.113863
  20 H :    0.100837
  21 H :    0.105250
  22 H :    0.115812
Sum of atomic charges:   -0.0000000

LOEWDIN ATOMIC CHARGES
----------------------
   0 C :   -0.256215
   1 C :   -0.291141
   2 O :    0.028477
   3 C :   -0.219560
   4 C :   -0.218838
   5 C :   -0.257896
   6 C :   -0.262785
   7 C :   -0.258908
   8 C :   -0.234449
   9 H :    0.133670
  10 H :    0.138831
  11 H :    0.150538
  12 H :    0.176056
  13 H :    0.142826
  14 H :    0.141143
  15 H :    0.134628
  16 H :    0.137569
  17 H :    0.135914
  18 H :    0.132847
  19 H :    0.133416
  20 H :    0.136542
  21 H :    0.140154
  22 H :    0.137181

  Mayer bond orders larger than 0.100000
B(  0-C ,  1-C ) :   1.0009 B(  0-C ,  9-H ) :   0.9663 B(  0-C , 10-H ) :   0.9660
B(  0-C , 11-H ) :   0.9372 B(  1-C ,  2-O ) :   1.9742 B(  1-C ,  3-C ) :   0.9453
B(  3-C ,  4-C ) :   0.9364 B(  3-C ,  8-C ) :   0.9875 B(  3-C , 12-H ) :   0.9321
B(  4-C ,  5-C ) :   0.9883 B(  4-C , 13-H ) :   0.9654 B(  4-C , 14-H ) :   0.9679
B(  5-C ,  6-C ) :   0.9928 B(  5-C , 15-H ) :   0.9740 B(  5-C , 16-H ) :   0.9724
B(  6-C ,  7-C ) :   0.9890 B(  6-C , 17-H ) :   0.9727 B(  6-C , 18-H ) :   0.9737
B(  7-C ,  8-C ) :   0.9911 B(  7-C , 19-H ) :   0.9761 B(  7-C , 20-H ) :   0.9731
B(  8-C , 21-H ) :   0.9654 B(  8-C , 22-H ) :   0.9720

FINAL SINGLE POINT ENERGY      -388.550858711042

DIPOLE MOMENT
-------------

Method             : SCF
Type of density    : Electron Density
Multiplicity       :   1
Irrep              :   0
Energy             :  -388.5666526295422045 Eh
Relativity type    :
Basis              : AO
                                X                 Y                 Z
Electronic contribution:     -5.151969378      -2.600101852      -1.639618417
Nuclear contribution   :      5.851251694       3.949805096       2.658103048
                        -----------------------------------------
Total Dipole Moment    :      0.699282316       1.349703244       1.018484630
                        -----------------------------------------
Magnitude (a.u.)       :      1.829755597
Magnitude (Debye)      :      4.650869118

Rotational constants in cm-1:             0.102166             0.036444             0.029202
Rotational constants in MHz :          3062.854506          1092.549952           875.451028

                             ****ORCA TERMINATED NORMALLY****
TOTAL RUN TIME: 0 days 0 hours 3 minutes 44 seconds 283 msec
