                         Program Version 6.0.0  -   RELEASE  -
|  1> ! pbe def2-sv(p) def2/J RI DEFGRID1 loosescf d4 GCP(DFT/SV(P)) printgap
|  2> %output
|  3>     printlevel normal
|  4> end
|  5> * xyz 0 1
|  6> C -2.071246354 0.065052857 -0.0012516061
|  7> C -0.7087920218 0.6934459259 0.001491996
|  8> C 0.4467662666 0.0399271793 0.0039959867
|  9> C 1.7633479033 0.7599975305 -0.0018271467
| 10> C 0.5574147686 -1.4561584254 -0.0002472518
| 11> H -2.2336269184 -0.5164965922 0.9061809563
| 12> H -2.8403783631 0.8302031189 -0.0557777785
| 13> H -2.1912017505 -0.6026504334 -0.853329607
| 14> H -0.6929842154 1.7755354899 0.0023643166
| 15> H 2.3288764875 0.5187593388 0.8978406596
| 16> H 2.3578854259 0.4479465158 -0.8596433138
| 17> H 1.6234263535 1.8368945472 -0.0462922761
| 18> H -0.4007103496 -1.9315855956 0.1810443935
| 19> H 0.9371134897 -1.7970316158 -0.9633517253
| 20> H 1.2606637088 -1.7801768742 0.7652020002
| 21> *
| 22>
| 23>                          ****END OF INPUT****

CARTESIAN COORDINATES (ANGSTROEM)
---------------------------------
  C     -2.071246    0.065053   -0.001252
  C     -0.708792    0.693446    0.001492
  C      0.446766    0.039927    0.003996
  C      1.763348    0.759998   -0.001827
  C      0.557415   -1.456158   -0.000247
  H     -2.233627   -0.516497    0.906181
  H     -2.840378    0.830203   -0.055778
  H     -2.191202   -0.602650   -0.853330
  H     -0.692984    1.775535    0.002364
  H      2.328876    0.518759    0.897841
  H      2.357885    0.447947   -0.859643
  H      1.623426    1.836895   -0.046292
  H     -0.400710   -1.931586    0.181044
  H      0.937113   -1.797032   -0.963352
  H      1.260664   -1.780177    0.765202

 Total Charge           Charge          ....    0
 Multiplicity           Mult            ....    1
 Number of Electrons    NEL             ....   40
 Basis Dimension        Dim             ....   90

ORBITAL ENERGIES
----------------

  NO   OCC          E(Eh)            E(eV)
   0   2.0000      -9.887359      -269.0487
   1   2.0000      -9.875615      -268.7292
   2   2.0000      -9.874034      -268.6861
   3   2.0000      -9.873214      -268.6638
   4   2.0000      -9.873064      -268.6597
   5   2.0000      -0.728218       -19.8158
   6   2.0000      -0.654525       -17.8105
   7   2.0000      -0.615985       -16.7618
   8   2.0000      -0.562355       -15.3025
   9   2.0000      -0.451230       -12.2786
  10   2.0000      -0.409976       -11.1560
  11   2.0000      -0.387814       -10.5530
  12   2.0000      -0.383403       -10.4329
  13   2.0000      -0.357319        -9.7232
  14   2.0000      -0.339540        -9.2394
  15   2.0000      -0.338009        -9.1977
  16   2.0000      -0.320182        -8.7126
  17   2.0000      -0.306668        -8.3449
  18   2.0000      -0.282721        -7.6932
  19   2.0000      -0.198541        -5.4026
  20   0.0000      -0.003138        -0.0854
  21   0.0000       0.041438         1.1276
  22   0.0000       0.067976         1.8497
  23   0.0000       0.074372         2.0238
  24   0.0000       0.104111         2.8330

MULLIKEN ATOMIC CHARGES
-----------------------
   0 C :   -0.235592
   1 C :   -0.197030
   2 C :   -0.105592
   3 C :   -0.224683
   4 C :   -0.227500
   5 H :    0.117241
   6 H :    0.099229
   7 H :    0.114758
   8 H :    0.049190
   9 H :    0.103133
  10 H :    0.101451
  11 H :    0.096355
  12 H :    0.099477
  13 H :    0.108060
  14 H :    0.101500
Sum of atomic charges:   -0.0000000

LOEWDIN ATOMIC CHARGES
----------------------
   0 C :   -0.342297
   1 C :   -0.171092
   2 C :   -0.077986
   3 C :   -0.321682
   4 C :   -0.326082
   5 H :    0.128228
   6 H :    0.123860
   7 H :    0.127242
   8 H :    0.114113
   9 H :    0.123897
  10 H :    0.123263
  11 H :    0.121061
  12 H :    0.122263
  13 H :    0.129647
  14 H :    0.125564

  Mayer bond orders larger than 0.100000
B(  0-C ,  1-C ) :   1.1050 B(  0-C ,  5-H ) :   0.9374 B(  0-C ,  6-H ) :   0.9463
B(  0-C ,  7-H ) :   0.9398 B(  1-C ,  2-C ) :   1.9693 B(  1-C ,  8-H ) :   0.9161
B(  2-C ,  3-C ) :   1.1086 B(  2-C ,  4-C ) :   1.1335 B(  3-C ,  9-H ) :   0.9343
B(  3-C , 10-H ) :   0.9383 B(  3-C , 11-H ) :   0.9441 B(  4-C , 12-H ) :   0.9312
B(  4-C , 13-H ) :   0.9319 B(  4-C , 14-H ) :   0.9366

Dispersion correction           -0.010174381
FINAL SINGLE POINT ENERGY      -196.034769379510

DIPOLE MOMENT
-------------

Method             : SCF
Type of density    : Electron Density
Multiplicity       :   1
Irrep              :   0
Energy             :  -196.0820841759382915 Eh
Relativity type    :
Basis              : AO
                                X                 Y                 Z
Electronic contribution:     -0.094342124       1.029456554       0.017499618
Nuclear contribution   :      0.139847466      -1.143257706      -0.024169524
                        -----------------------------------------
Total Dipole Moment    :      0.045505342      -0.113801152      -0.006669906
                        -----------------------------------------
Magnitude (a.u.)       :      0.122743334
Magnitude (Debye)      :      0.311988760

Rotational constants in cm-1:             0.273986             0.119912             0.087461
Rotational constants in MHz :          8213.896790          3594.861993          2622.021468

                             ****ORCA TERMINATED NORMALLY****
TOTAL RUN TIME: 0 days 0 hours 0 minutes 4 seconds 536 msec
