                         Program Version 6.0.0  -   RELEASE  -
|  1> ! pbe def2-sv(p) def2/J RI DEFGRID1 loosescf d4 GCP(DFT/SV(P)) printgap
|  2> %output
|  3>     printlevel normal
|  4> end
|  5> * xyz 0 1
|  6> C -1.8267799058 -0.7375962328 -1.0272159858
|  7> C -1.2670244048 -0.6260937612 0.4142316996
|  8> H -2.0430442895 -0.9530822185 1.1175516123
|  9> C -0.84935733 0.804206277 0.7815950708
| 10> H -1.6996662958 1.4732949959 0.5952705403
| 11> C 0.3173615163 1.2819113701 -0.0961939122
| 12> H 0.8770026802 2.0276791531 0.4847775903
| 13> C 1.2913380139 0.1342957694 -0.4153915721
| 14> H 1.081566215 -0.2576969904 -1.4229104556
| 15> C 1.1144614612 -1.0271673102 0.5727622402
| 16> H 1.384195058 -0.6698895691 1.5855190798
| 17> O -0.1967584198 -1.5481581217 0.591026807
| 18> O 1.9691655123 -2.0433318252 0.1678421059
| 19> O 2.6006866764 0.6388772708 -0.3581680578
| 20> O -0.2264157882 1.8510098328 -1.2616873543
| 21> O -0.4373138037 0.8961567111 2.1254023813
| 22> O -2.6871726603 0.3126405405 -1.3802033077
| 23> H -2.4113957423 -1.6576504452 -1.0970660757
| 24> H -0.9902166337 -0.8119304032 -1.7285786161
| 25> H 1.7570944015 -2.8547428119 0.6532917661
| 26> H 3.223930287 -0.0980158619 -0.4484840845
| 27> H 0.4737091431 2.2974100834 -1.7590522623
| 28> H -1.1927528533 0.7413916969 2.711357167
| 29> H -2.1481123711 1.0927842292 -1.5920124184
| 30> *
| 31>
| 32>                          ****END OF INPUT****

CARTESIAN COORDINATES (ANGSTROEM)
---------------------------------
  C     -1.826780   -0.737596   -1.027216
  C     -1.267024   -0.626094    0.414232
  H     -2.043044   -0.953082    1.117552
  C     -0.849357    0.804206    0.781595
  H     -1.699666    1.473295    0.595271
  C      0.317362    1.281911   -0.096194
  H      0.877003    2.027679    0.484778
  C      1.291338    0.134296   -0.415392
  H      1.081566   -0.257697   -1.422910
  C      1.114461   -1.027167    0.572762
  H      1.384195   -0.669890    1.585519
  O     -0.196758   -1.548158    0.591027
  O      1.969166   -2.043332    0.167842
  O      2.600687    0.638877   -0.358168
  O     -0.226416    1.851010   -1.261687
  O     -0.437314    0.896157    2.125402
  O     -2.687173    0.312641   -1.380203
  H     -2.411396   -1.657650   -1.097066
  H     -0.990217   -0.811930   -1.728579
  H      1.757094   -2.854743    0.653292
  H      3.223930   -0.098016   -0.448484
  H      0.473709    2.297410   -1.759052
  H     -1.192753    0.741392    2.711357
  H     -2.148112    1.092784   -1.592012

 Total Charge           Charge          ....    0
 Multiplicity           Mult            ....    1
 Number of Electrons    NEL             ....   96
 Basis Dimension        Dim             ....  192

ORBITAL ENERGIES
----------------

  NO   OCC          E(Eh)            E(eV)
   0   2.0000     -18.775355      -510.9034
   1   2.0000     -18.762271      -510.5474
   2   2.0000     -18.761401      -510.5237
   3   2.0000     -18.760969      -510.5119
   4   2.0000     -18.752140      -510.2717
   5   2.0000     -18.736340      -509.8417
   6   2.0000      -9.979020      -271.5429
   7   2.0000      -9.950114      -270.7564
   8   2.0000      -9.948524      -270.7131
   9   2.0000      -9.941498      -270.5219
  10   2.0000      -9.939085      -270.4563
  11   2.0000      -9.924547      -270.0606
  12   2.0000      -0.978869       -26.6364
  13   2.0000      -0.953061       -25.9341
  14   2.0000      -0.938516       -25.5383
  15   2.0000      -0.926532       -25.2122
  16   2.0000      -0.914074       -24.8732
  17   2.0000      -0.905581       -24.6421
  18   2.0000      -0.707984       -19.2652
  19   2.0000      -0.683424       -18.5969
  20   2.0000      -0.619703       -16.8630
  21   2.0000      -0.584741       -15.9116
  22   2.0000      -0.564638       -15.3646
  23   2.0000      -0.524945       -14.2845
  24   2.0000      -0.502240       -13.6667
  25   2.0000      -0.492609       -13.4046
  26   2.0000      -0.479864       -13.0578
  27   2.0000      -0.454924       -12.3791
  28   2.0000      -0.446177       -12.1411
  29   2.0000      -0.429136       -11.6774
  30   2.0000      -0.416461       -11.3325
  31   2.0000      -0.398697       -10.8491
  32   2.0000      -0.382814       -10.4169
  33   2.0000      -0.376077       -10.2336
  34   2.0000      -0.363646        -9.8953
  35   2.0000      -0.354905        -9.6574
  36   2.0000      -0.326275        -8.8784
  37   2.0000      -0.324210        -8.8222
  38   2.0000      -0.310686        -8.4542
  39   2.0000      -0.285270        -7.7626
  40   2.0000      -0.280534        -7.6337
  41   2.0000      -0.271478        -7.3873
  42   2.0000      -0.246837        -6.7168
  43   2.0000      -0.239997        -6.5306
  44   2.0000      -0.237578        -6.4648
  45   2.0000      -0.228354        -6.2138
  46   2.0000      -0.214241        -5.8298
  47   2.0000      -0.191898        -5.2218
  48   0.0000       0.010554         0.2872
  49   0.0000       0.024686         0.6717
  50   0.0000       0.031322         0.8523
  51   0.0000       0.047730         1.2988
  52   0.0000       0.063302         1.7225

MULLIKEN ATOMIC CHARGES
-----------------------
   0 C :    0.047254
   1 C :    0.036837
   2 H :    0.052684
   3 C :   -0.026160
   4 H :    0.078737
   5 C :    0.127722
   6 H :    0.080565
   7 C :    0.001689
   8 H :    0.058468
   9 C :    0.209190
  10 H :    0.052383
  11 O :   -0.327862
  12 O :   -0.398066
  13 O :   -0.425897
  14 O :   -0.430649
  15 O :   -0.411438
  16 O :   -0.442164
  17 H :    0.086879
  18 H :    0.077336
  19 H :    0.309432
  20 H :    0.308314
  21 H :    0.319815
  22 H :    0.306311
  23 H :    0.308622
Sum of atomic charges:   -0.0000000

LOEWDIN ATOMIC CHARGES
----------------------
   0 C :   -0.136815
   1 C :   -0.068707
   2 H :    0.107496
   3 C :   -0.077032
   4 H :    0.111354
   5 C :   -0.054173
   6 H :    0.121561
   7 C :   -0.091005
   8 H :    0.104972
   9 C :   -0.007677
  10 H :    0.088955
  11 O :   -0.160020
  12 O :   -0.311021
  13 O :   -0.320900
  14 O :   -0.309749
  15 O :   -0.311552
  16 O :   -0.341066
  17 H :    0.115137
  18 H :    0.098719
  19 H :    0.291723
  20 H :    0.287706
  21 H :    0.298912
  22 H :    0.290831
  23 H :    0.272352

  Mayer bond orders larger than 0.100000
B(  0-C ,  1-C ) :   0.9991 B(  0-C , 16-O ) :   1.1139 B(  0-C , 17-H ) :   0.9206
B(  0-C , 18-H ) :   0.9123 B(  1-C ,  2-H ) :   0.8774 B(  1-C ,  3-C ) :   1.0444
B(  1-C , 11-O ) :   0.9852 B(  3-C ,  4-H ) :   0.8811 B(  3-C ,  5-C ) :   1.0308
B(  3-C , 15-O ) :   1.0324 B(  5-C ,  6-H ) :   0.8550 B(  5-C ,  7-C ) :   1.0179
B(  5-C , 14-O ) :   1.0287 B(  7-C ,  8-H ) :   0.8440 B(  7-C ,  9-C ) :   1.0687
B(  7-C , 13-O ) :   1.0620 B(  9-C , 10-H ) :   0.8781 B(  9-C , 11-O ) :   1.0288
B(  9-C , 12-O ) :   1.1418 B( 12-O , 19-H ) :   0.8390 B( 13-O , 20-H ) :   0.8358
B( 14-O , 21-H ) :   0.8398 B( 15-O , 22-H ) :   0.8456 B( 16-O , 23-H ) :   0.8103

Dispersion correction           -0.025361216
FINAL SINGLE POINT ENERGY      -685.690707767911

DIPOLE MOMENT
-------------

Method             : SCF
Type of density    : Electron Density
Multiplicity       :   1
Irrep              :   0
Energy             :  -685.8220236664753884 Eh
Relativity type    :
Basis              : AO
                                X                 Y                 Z
Electronic contribution:      1.877587585      -0.341593683       1.127158127
Nuclear contribution   :     -1.568197455       0.310763736      -0.846383810
                        -----------------------------------------
Total Dipole Moment    :      0.309390129      -0.030829947       0.280774316
                        -----------------------------------------
Magnitude (a.u.)       :      0.418935502
Magnitude (Debye)      :      1.064849420

Rotational constants in cm-1:             0.039919             0.026795             0.023782
Rotational constants in MHz :          1196.750416           803.292273           712.959311

                             ****ORCA TERMINATED NORMALLY****
TOTAL RUN TIME: 0 days 0 hours 0 minutes 12 seconds 160 msec
