                         Program Version 6.0.0  -   RELEASE  -
|  1> ! wb97x-v def2-tzvp def2/J RIJCOSX DEFGRID2 scfconv7 GCP(DFT/TZ) printgap
|  2> %output
|  3>     printlevel normal
|  4> end
|  5> * xyz 0 1
|  6> C -0.6806770380725127 -1.2454321177176062 -9.744274439524298e-05
|  7> O -1.2660859894815921 -2.3164716293702265 -8.969784147368646e-05
|  8> N -1.3391423834614358 -0.031268490053263355 -4.511540507455539e-05
|  9> C -0.738437490932985 1.2122916632761578 -5.0104285776893117e-05
| 10> O -1.373409530887596 2.2547435359224317 4.946802594336369e-06
| 11> N 0.6422287554017382 1.1754208353790523 1.393663756626078e-05
| 12> C 1.4190112649080389 0.0333811967077013 -8.340792043175754e-05
| 13> O 2.639373569874206 0.06196690546423483 -0.00012972526152730632
| 14> N 0.6968489976537277 -1.1438424612949387 -4.626286205828877e-05
| 15> H -2.352473244519457 -0.055294021599042474 -9.403590467742922e-06
| 16> H 1.1287063634436163 2.0647842971076478 -2.486600225660512e-05
| 17> H 1.2239199415585393 -2.009804100252567 -0.00023630289901496382
| 18> *
| 19>
| 20>                          ****END OF INPUT****

CARTESIAN COORDINATES (ANGSTROEM)
---------------------------------
  C     -0.680677   -1.245432   -0.000097
  O     -1.266086   -2.316472   -0.000090
  N     -1.339142   -0.031268   -0.000045
  C     -0.738437    1.212292   -0.000050
  O     -1.373410    2.254744    0.000005
  N      0.642229    1.175421    0.000014
  C      1.419011    0.033381   -0.000083
  O      2.639374    0.061967   -0.000130
  N      0.696849   -1.143842   -0.000046
  H     -2.352473   -0.055294   -0.000009
  H      1.128706    2.064784   -0.000025
  H      1.223920   -2.009804   -0.000236

 Total Charge           Charge          ....    0
 Multiplicity           Mult            ....    1
 Number of Electrons    NEL             ....   66
 Basis Dimension        Dim             ....  297

ORBITAL ENERGIES
----------------

  NO   OCC          E(Eh)            E(eV)
   0   2.0000     -21.683055      -590.0259
   1   2.0000     -21.683017      -590.0249
   2   2.0000     -21.683007      -590.0246
   3   2.0000     -16.616977      -452.1709
   4   2.0000     -16.616963      -452.1706
   5   2.0000     -16.616292      -452.1523
   6   2.0000     -12.235945      -332.9570
   7   2.0000     -12.235930      -332.9566
   8   2.0000     -12.235371      -332.9414
   9   2.0000      -1.760990       -47.9190
  10   2.0000      -1.749889       -47.6169
  11   2.0000      -1.749823       -47.6151
  12   2.0000      -1.629583       -44.3432
  13   2.0000      -1.563869       -42.5550
  14   2.0000      -1.563830       -42.5540
  15   2.0000      -1.285237       -34.9731
  16   2.0000      -1.285212       -34.9724
  17   2.0000      -1.186458       -32.2852
  18   2.0000      -1.183728       -32.2109
  19   2.0000      -1.100349       -29.9420
  20   2.0000      -1.085439       -29.5363
  21   2.0000      -1.085437       -29.5362
  22   2.0000      -1.050728       -28.5918
  23   2.0000      -1.050681       -28.5905
  24   2.0000      -1.012511       -27.5518
  25   2.0000      -0.957966       -26.0676
  26   2.0000      -0.957942       -26.0669
  27   2.0000      -0.921071       -25.0636
  28   2.0000      -0.921034       -25.0626
  29   2.0000      -0.895025       -24.3549
  30   2.0000      -0.870496       -23.6874
  31   2.0000      -0.851220       -23.1629
  32   2.0000      -0.851215       -23.1627
  33   0.0000      -0.354138        -9.6366
  34   0.0000      -0.354114        -9.6359
  35   0.0000      -0.238350        -6.4858
  36   0.0000      -0.181998        -4.9524
  37   0.0000      -0.166580        -4.5329

MULLIKEN ATOMIC CHARGES
-----------------------
   0 C :    0.302472
   1 O :   -0.329107
   2 N :   -0.243016
   3 C :    0.302374
   4 O :   -0.329166
   5 N :   -0.243315
   6 C :    0.302404
   7 O :   -0.329272
   8 N :   -0.243359
   9 H :    0.269933
  10 H :    0.270011
  11 H :    0.270041
Sum of atomic charges:   -0.0000000

LOEWDIN ATOMIC CHARGES
----------------------
   0 C :   -0.484774
   1 O :    0.075506
   2 N :    0.191757
   3 C :   -0.484961
   4 O :    0.075450
   5 N :    0.191716
   6 C :   -0.484888
   7 O :    0.075324
   8 N :    0.191685
   9 H :    0.217685
  10 H :    0.217743
  11 H :    0.217756

  Mayer bond orders larger than 0.100000
B(  0-C ,  1-O ) :   2.1496 B(  0-C ,  2-N ) :   1.1223 B(  0-C ,  8-N ) :   1.1223
B(  2-N ,  3-C ) :   1.1225 B(  2-N ,  9-H ) :   0.8902 B(  3-C ,  4-O ) :   2.1496
B(  3-C ,  5-N ) :   1.1223 B(  5-N ,  6-C ) :   1.1226 B(  5-N , 10-H ) :   0.8901
B(  6-C ,  7-O ) :   2.1492 B(  6-C ,  8-N ) :   1.1227 B(  8-N , 11-H ) :   0.8901

FINAL SINGLE POINT ENERGY      -506.186852824141

DIPOLE MOMENT
-------------

Method             : SCF
Type of density    : Electron Density
Multiplicity       :   1
Irrep              :   0
Energy             :  -506.1942916995409973 Eh
Relativity type    :
Basis              : AO
                                X                 Y                 Z
Electronic contribution:     -0.000496520      -0.000132469      -0.000031907
Nuclear contribution   :      0.000229263      -0.000528363      -0.000088964
                        -----------------------------------------
Total Dipole Moment    :     -0.000267256      -0.000660833      -0.000120871
                        -----------------------------------------
Magnitude (a.u.)       :      0.000723005
Magnitude (Debye)      :      0.001837732

Rotational constants in cm-1:             0.067537             0.067525             0.033765
Rotational constants in MHz :          2024.696521          2024.350870          1012.261841

                             ****ORCA TERMINATED NORMALLY****
TOTAL RUN TIME: 0 days 0 hours 2 minutes 22 seconds 958 msec
