                         Program Version 6.0.0  -   RELEASE  -
|  1> ! wb97x-v def2-tzvp def2/J RIJCOSX DEFGRID2 scfconv7 GCP(DFT/TZ) printgap
|  2> %output
|  3>     printlevel normal
|  4> end
|  5> %cpcm
|  6>     smd true
|  7>     smdsolvent "water"
|  8> end
|  9> * xyz 0 1
| 10> C -0.6806770380725127 -1.2454321177176062 -9.744274439524298e-05
| 11> O -1.2660859894815921 -2.3164716293702265 -8.969784147368646e-05
| 12> N -1.3391423834614358 -0.031268490053263355 -4.511540507455539e-05
| 13> C -0.738437490932985 1.2122916632761578 -5.0104285776893117e-05
| 14> O -1.373409530887596 2.2547435359224317 4.946802594336369e-06
| 15> N 0.6422287554017382 1.1754208353790523 1.393663756626078e-05
| 16> C 1.4190112649080389 0.0333811967077013 -8.340792043175754e-05
| 17> O 2.639373569874206 0.06196690546423483 -0.00012972526152730632
| 18> N 0.6968489976537277 -1.1438424612949387 -4.626286205828877e-05
| 19> H -2.352473244519457 -0.055294021599042474 -9.403590467742922e-06
| 20> H 1.1287063634436163 2.0647842971076478 -2.486600225660512e-05
| 21> H 1.2239199415585393 -2.009804100252567 -0.00023630289901496382
| 22> *
| 23>
| 24>                          ****END OF INPUT****

CARTESIAN COORDINATES (ANGSTROEM)
---------------------------------
  C     -0.680677   -1.245432   -0.000097
  O     -1.266086   -2.316472   -0.000090
  N     -1.339142   -0.031268   -0.000045
  C     -0.738437    1.212292   -0.000050
  O     -1.373410    2.254744    0.000005
  N      0.642229    1.175421    0.000014
  C      1.419011    0.033381   -0.000083
  O      2.639374    0.061967   -0.000130
  N      0.696849   -1.143842   -0.000046
  H     -2.352473   -0.055294   -0.000009
  H      1.128706    2.064784   -0.000025
  H      1.223920   -2.009804   -0.000236

 Total Charge           Charge          ....    0
 Multiplicity           Mult            ....    1
 Number of Electrons    NEL             ....   66
 Basis Dimension        Dim             ....  297

ORBITAL ENERGIES
----------------

  NO   OCC          E(Eh)            E(eV)
   0   2.0000     -21.678203      -589.8939
   1   2.0000     -21.678162      -589.8928
   2   2.0000     -21.678127      -589.8918
   3   2.0000     -16.598968      -451.6809
   4   2.0000     -16.598957      -451.6806
   5   2.0000     -16.598313      -451.6631
   6   2.0000     -12.228003      -332.7409
   7   2.0000     -12.227981      -332.7403
   8   2.0000     -12.227412      -332.7248
   9   2.0000      -1.755341       -47.7653
  10   2.0000      -1.746150       -47.5151
  11   2.0000      -1.746125       -47.5145
  12   2.0000      -1.614504       -43.9329
  13   2.0000      -1.545839       -42.0644
  14   2.0000      -1.545775       -42.0627
  15   2.0000      -1.271025       -34.5864
  16   2.0000      -1.271004       -34.5858
  17   2.0000      -1.172113       -31.8948
  18   2.0000      -1.161210       -31.5981
  19   2.0000      -1.102479       -30.0000
  20   2.0000      -1.081834       -29.4382
  21   2.0000      -1.081803       -29.4373
  22   2.0000      -1.034491       -28.1499
  23   2.0000      -1.034437       -28.1485
  24   2.0000      -1.000697       -27.2304
  25   2.0000      -0.953852       -25.9556
  26   2.0000      -0.953821       -25.9548
  27   2.0000      -0.918916       -25.0050
  28   2.0000      -0.918878       -25.0039
  29   2.0000      -0.893123       -24.3031
  30   2.0000      -0.864508       -23.5245
  31   2.0000      -0.835068       -22.7233
  32   2.0000      -0.835017       -22.7220
  33   0.0000      -0.340701        -9.2709
  34   0.0000      -0.340682        -9.2704
  35   0.0000      -0.222873        -6.0647
  36   0.0000      -0.169173        -4.6034
  37   0.0000      -0.151920        -4.1340

MULLIKEN ATOMIC CHARGES
-----------------------
   0 C :    0.360738
   1 O :   -0.441514
   2 N :   -0.229509
   3 C :    0.360587
   4 O :   -0.441696
   5 N :   -0.229397
   6 C :    0.360828
   7 O :   -0.441998
   8 N :   -0.229591
   9 H :    0.310417
  10 H :    0.310553
  11 H :    0.310583
Sum of atomic charges:   -0.0000000

LOEWDIN ATOMIC CHARGES
----------------------
   0 C :   -0.459082
   1 O :    0.014185
   2 N :    0.211592
   3 C :   -0.459284
   4 O :    0.014057
   5 N :    0.211679
   6 C :   -0.459176
   7 O :    0.013776
   8 N :    0.211608
   9 H :    0.233476
  10 H :    0.233583
  11 H :    0.233587

  Mayer bond orders larger than 0.100000
B(  0-C ,  1-O ) :   2.0482 B(  0-C ,  2-N ) :   1.1484 B(  0-C ,  8-N ) :   1.1483
B(  2-N ,  3-C ) :   1.1486 B(  2-N ,  9-H ) :   0.8645 B(  3-C ,  4-O ) :   2.0482
B(  3-C ,  5-N ) :   1.1483 B(  5-N ,  6-C ) :   1.1487 B(  5-N , 10-H ) :   0.8644
B(  6-C ,  7-O ) :   2.0475 B(  6-C ,  8-N ) :   1.1488 B(  8-N , 11-H ) :   0.8644

FINAL SINGLE POINT ENERGY      -506.211845089247

DIPOLE MOMENT
-------------

Method             : SCF
Type of density    : Electron Density
Multiplicity       :   1
Irrep              :   0
Energy             :  -506.2192839646469906 Eh
Relativity type    :
Basis              : AO
                                X                 Y                 Z
Electronic contribution:     -0.000285652      -0.000197217      -0.000079857
Nuclear contribution   :      0.000229263      -0.000528363      -0.000088964
                        -----------------------------------------
Total Dipole Moment    :     -0.000056389      -0.000725581      -0.000168822
                        -----------------------------------------
Magnitude (a.u.)       :      0.000747093
Magnitude (Debye)      :      0.001898959

Rotational constants in cm-1:             0.067537             0.067525             0.033765
Rotational constants in MHz :          2024.696521          2024.350870          1012.261841

                             ****ORCA TERMINATED NORMALLY****
TOTAL RUN TIME: 0 days 0 hours 2 minutes 25 seconds 614 msec
