                         Program Version 6.0.0  -   RELEASE  -
|  1> ! pbe def2-sv(p) def2/J RI DEFGRID1 loosescf d4 GCP(DFT/SV(P)) printgap
|  2> %output
|  3>     printlevel normal
|  4> end
|  5> * xyz 0 1
|  6> C -2.0885913444 0.3098817362 1.4018334591
|  7> C -1.5159273417 -0.0259346448 0.0188753935
|  8> C -2.0733205917 -1.3929964504 -0.3994779573
|  9> C -1.976568769 1.0380857292 -0.9887158355
| 10> C 0.0061211746 -0.0242429811 0.0253868098
| 11> C 0.7265753847 0.783710233 0.8997793513
| 12> C 2.1100537318 0.8153219629 0.8767874362
| 13> C 2.812924681 0.0405145997 -0.0280472742
| 14> C 2.1125269459 -0.7590579406 -0.9132727599
| 15> C 0.7293066773 -0.7864731663 -0.8874283374
| 16> H -3.166775545 0.1673594247 1.3961308787
| 17> H -1.660037653 -0.3404042535 2.1610622261
| 18> H -1.8967994548 1.3438884176 1.6744932904
| 19> H -3.1526637116 -1.405540199 -0.2660975282
| 20> H -1.870646479 -1.6065350503 -1.4450522299
| 21> H -1.6417565179 -2.1834931488 0.210409443
| 22> H -1.597812446 0.8103897031 -1.9827433984
| 23> H -3.0628952485 1.0727578993 -1.0290754864
| 24> H -1.6067763985 2.0196807291 -0.7001308114
| 25> H 0.214079227 1.4052793617 1.6159951684
| 26> H 2.6401826206 1.4512363898 1.5709411072
| 27> H 3.89240542 0.0622675874 -0.0456178978
| 28> H 2.6446210872 -1.3662051842 -1.631275683
| 29> H 0.2177665691 -1.4164896275 -1.5972069024
| 30> *
| 31>
| 32>                          ****END OF INPUT****

CARTESIAN COORDINATES (ANGSTROEM)
---------------------------------
  C     -2.088591    0.309882    1.401833
  C     -1.515927   -0.025935    0.018875
  C     -2.073321   -1.392996   -0.399478
  C     -1.976569    1.038086   -0.988716
  C      0.006121   -0.024243    0.025387
  C      0.726575    0.783710    0.899779
  C      2.110054    0.815322    0.876787
  C      2.812925    0.040515   -0.028047
  C      2.112527   -0.759058   -0.913273
  C      0.729307   -0.786473   -0.887428
  H     -3.166776    0.167359    1.396131
  H     -1.660038   -0.340404    2.161062
  H     -1.896799    1.343888    1.674493
  H     -3.152664   -1.405540   -0.266098
  H     -1.870646   -1.606535   -1.445052
  H     -1.641757   -2.183493    0.210409
  H     -1.597812    0.810390   -1.982743
  H     -3.062895    1.072758   -1.029075
  H     -1.606776    2.019681   -0.700131
  H      0.214079    1.405279    1.615995
  H      2.640183    1.451236    1.570941
  H      3.892405    0.062268   -0.045618
  H      2.644621   -1.366205   -1.631276
  H      0.217767   -1.416490   -1.597207

 Total Charge           Charge          ....    0
 Multiplicity           Mult            ....    1
 Number of Electrons    NEL             ....   74
 Basis Dimension        Dim             ....  168

ORBITAL ENERGIES
----------------

  NO   OCC          E(Eh)            E(eV)
   0   2.0000      -9.912926      -269.7444
   1   2.0000      -9.899541      -269.3802
   2   2.0000      -9.885937      -269.0100
   3   2.0000      -9.885876      -269.0084
   4   2.0000      -9.885367      -268.9945
   5   2.0000      -9.885295      -268.9926
   6   2.0000      -9.883782      -268.9514
   7   2.0000      -9.875587      -268.7284
   8   2.0000      -9.874919      -268.7102
   9   2.0000      -9.874872      -268.7089
  10   2.0000      -0.779221       -21.2037
  11   2.0000      -0.736927       -20.0528
  12   2.0000      -0.665907       -18.1202
  13   2.0000      -0.656303       -17.8589
  14   2.0000      -0.614893       -16.7321
  15   2.0000      -0.614722       -16.7274
  16   2.0000      -0.546343       -14.8667
  17   2.0000      -0.533389       -14.5142
  18   2.0000      -0.490503       -13.3473
  19   2.0000      -0.456500       -12.4220
  20   2.0000      -0.409812       -11.1515
  21   2.0000      -0.407522       -11.0892
  22   2.0000      -0.398123       -10.8335
  23   2.0000      -0.388412       -10.5692
  24   2.0000      -0.378645       -10.3035
  25   2.0000      -0.369277       -10.0485
  26   2.0000      -0.353703        -9.6247
  27   2.0000      -0.334238        -9.0951
  28   2.0000      -0.326583        -8.8868
  29   2.0000      -0.322011        -8.7624
  30   2.0000      -0.320644        -8.7252
  31   2.0000      -0.305231        -8.3058
  32   2.0000      -0.292402        -7.9567
  33   2.0000      -0.278447        -7.5769
  34   2.0000      -0.276086        -7.5127
  35   2.0000      -0.224281        -6.1030
  36   2.0000      -0.217091        -5.9073
  37   0.0000      -0.030099        -0.8190
  38   0.0000      -0.029051        -0.7905
  39   0.0000       0.032893         0.8951
  40   0.0000       0.054083         1.4717
  41   0.0000       0.070967         1.9311

MULLIKEN ATOMIC CHARGES
-----------------------
   0 C :   -0.212946
   1 C :   -0.265002
   2 C :   -0.215023
   3 C :   -0.185658
   4 C :    0.184520
   5 C :   -0.140411
   6 C :   -0.044325
   7 C :   -0.046362
   8 C :   -0.044739
   9 C :   -0.139981
  10 H :    0.094766
  11 H :    0.102381
  12 H :    0.106316
  13 H :    0.094350
  14 H :    0.106077
  15 H :    0.102870
  16 H :    0.095655
  17 H :    0.094822
  18 H :    0.095969
  19 H :    0.036687
  20 H :    0.046935
  21 H :    0.049622
  22 H :    0.047039
  23 H :    0.036435
Sum of atomic charges:    0.0000000

LOEWDIN ATOMIC CHARGES
----------------------
   0 C :   -0.316092
   1 C :   -0.093035
   2 C :   -0.315300
   3 C :   -0.307704
   4 C :   -0.017395
   5 C :   -0.125840
   6 C :   -0.121978
   7 C :   -0.129391
   8 C :   -0.122017
   9 C :   -0.124735
  10 H :    0.118159
  11 H :    0.121334
  12 H :    0.116313
  13 H :    0.117862
  14 H :    0.115933
  15 H :    0.121493
  16 H :    0.118192
  17 H :    0.115982
  18 H :    0.118550
  19 H :    0.122222
  20 H :    0.121845
  21 H :    0.121964
  22 H :    0.121859
  23 H :    0.121778

  Mayer bond orders larger than 0.100000
B(  0-C ,  1-C ) :   1.0974 B(  0-C , 10-H ) :   0.9425 B(  0-C , 11-H ) :   0.9470
B(  0-C , 12-H ) :   0.9306 B(  1-C ,  2-C ) :   1.0904 B(  1-C ,  3-C ) :   1.0672
B(  1-C ,  4-C ) :   0.9459 B(  2-C , 13-H ) :   0.9429 B(  2-C , 14-H ) :   0.9323
B(  2-C , 15-H ) :   0.9489 B(  3-C , 16-H ) :   0.9455 B(  3-C , 17-H ) :   0.9463
B(  3-C , 18-H ) :   0.9453 B(  4-C ,  5-C ) :   1.4012 B(  4-C ,  9-C ) :   1.3938
B(  5-C ,  6-C ) :   1.3705 B(  5-C , 19-H ) :   0.9546 B(  6-C ,  7-C ) :   1.3780
B(  6-C , 20-H ) :   0.9615 B(  7-C ,  8-C ) :   1.3756 B(  7-C , 21-H ) :   0.9659
B(  8-C ,  9-C ) :   1.3755 B(  8-C , 22-H ) :   0.9616 B(  9-C , 23-H ) :   0.9562

Dispersion correction           -0.026149207
FINAL SINGLE POINT ENERGY      -388.578268194618

DIPOLE MOMENT
-------------

Method             : SCF
Type of density    : Electron Density
Multiplicity       :   1
Irrep              :   0
Energy             :  -388.6468509224644095 Eh
Relativity type    :
Basis              : AO
                                X                 Y                 Z
Electronic contribution:      9.265430692       0.001382852       0.049064781
Nuclear contribution   :     -9.425861958       0.013314507      -0.063952778
                        -----------------------------------------
Total Dipole Moment    :     -0.160431266       0.014697359      -0.014887996
                        -----------------------------------------
Magnitude (a.u.)       :      0.161789542
Magnitude (Debye)      :      0.411236334

Rotational constants in cm-1:             0.086165             0.032078             0.027593
Rotational constants in MHz :          2583.146891           961.666662           827.214186

                             ****ORCA TERMINATED NORMALLY****
TOTAL RUN TIME: 0 days 0 hours 0 minutes 10 seconds 526 msec
