                         Program Version 6.0.0  -   RELEASE  -
|  1> ! r2scan-3c def2/J RI DEFGRID2 scfconv6 printgap
|  2> %output
|  3>     printlevel normal
|  4> end
|  5> * xyz 0 1
|  6> C -2.6769834011 0.0002588078 -0.4071873284
|  7> C -2.0199229757 1.1985706532 -0.1822188581
|  8> C -0.7113310209 1.1988487405 0.2668143345
|  9> C -0.0466161197 -0.0002270025 0.4993401529
| 10> C -0.7116498154 -1.1990425956 0.2663903596
| 11> C -2.0202621367 -1.1983009627 -0.182606068
| 12> C 1.3729920565 -0.0005351612 0.9597000082
| 13> Cl 2.476113839 0.0001833654 -0.4829230834
| 14> H -3.6976459829 0.0004798991 -0.7580013329
| 15> H -2.5274203494 2.1349329824 -0.3573658221
| 16> H -0.1987226031 2.1336837424 0.4382705534
| 17> H -0.1993329331 -2.1340960037 0.4376007546
| 18> H -2.5278800351 -2.1344627964 -0.3585396005
| 19> H 1.6253666065 -0.8972780214 1.5212604422
| 20> H 1.6254110725 0.895384952 1.5225045066
| 21> *
| 22>
| 23>                          ****END OF INPUT****

CARTESIAN COORDINATES (ANGSTROEM)
---------------------------------
  C     -2.676983    0.000259   -0.407187
  C     -2.019923    1.198571   -0.182219
  C     -0.711331    1.198849    0.266814
  C     -0.046616   -0.000227    0.499340
  C     -0.711650   -1.199043    0.266390
  C     -2.020262   -1.198301   -0.182606
  C      1.372992   -0.000535    0.959700
  Cl     2.476114    0.000183   -0.482923
  H     -3.697646    0.000480   -0.758001
  H     -2.527420    2.134933   -0.357366
  H     -0.198723    2.133684    0.438271
  H     -0.199333   -2.134096    0.437601
  H     -2.527880   -2.134463   -0.358540
  H      1.625367   -0.897278    1.521260
  H      1.625411    0.895385    1.522505

 Total Charge           Charge          ....    0
 Multiplicity           Mult            ....    1
 Number of Electrons    NEL             ....   66
 Basis Dimension        Dim             ....  195

ORBITAL ENERGIES
----------------

  NO   OCC          E(Eh)            E(eV)
   0   2.0000    -101.199675     -2753.7832
   1   2.0000     -10.099680      -274.8263
   2   2.0000     -10.056285      -273.6454
   3   2.0000     -10.044856      -273.3344
   4   2.0000     -10.044842      -273.3340
   5   2.0000     -10.043948      -273.3097
   6   2.0000     -10.043703      -273.3031
   7   2.0000     -10.043286      -273.2917
   8   2.0000      -9.355495      -254.5760
   9   2.0000      -7.101855      -193.2513
  10   2.0000      -7.091523      -192.9702
  11   2.0000      -7.091455      -192.9683
  12   2.0000      -0.847078       -23.0502
  13   2.0000      -0.809585       -22.0299
  14   2.0000      -0.733457       -19.9584
  15   2.0000      -0.726624       -19.7724
  16   2.0000      -0.644965       -17.5504
  17   2.0000      -0.587748       -15.9934
  18   2.0000      -0.563511       -15.3339
  19   2.0000      -0.495235       -13.4760
  20   2.0000      -0.453779       -12.3479
  21   2.0000      -0.439454       -11.9582
  22   2.0000      -0.407400       -11.0859
  23   2.0000      -0.402275       -10.9465
  24   2.0000      -0.395741       -10.7687
  25   2.0000      -0.391635       -10.6569
  26   2.0000      -0.347456        -9.4548
  27   2.0000      -0.330557        -8.9949
  28   2.0000      -0.320714        -8.7271
  29   2.0000      -0.270217        -7.3530
  30   2.0000      -0.267244        -7.2721
  31   2.0000      -0.246114        -6.6971
  32   2.0000      -0.239555        -6.5186
  33   0.0000      -0.056088        -1.5262
  34   0.0000      -0.040986        -1.1153
  35   0.0000       0.018089         0.4922
  36   0.0000       0.069036         1.8786
  37   0.0000       0.098834         2.6894

MULLIKEN ATOMIC CHARGES
-----------------------
   0 C :   -0.133817
   1 C :   -0.154175
   2 C :   -0.187860
   3 C :    0.179807
   4 C :   -0.187861
   5 C :   -0.154193
   6 C :   -0.233850
   7 Cl:   -0.196980
   8 H :    0.148410
   9 H :    0.147377
  10 H :    0.149534
  11 H :    0.149523
  12 H :    0.147380
  13 H :    0.163345
  14 H :    0.163360
Sum of atomic charges:    0.0000000

LOEWDIN ATOMIC CHARGES
----------------------
   0 C :   -0.159123
   1 C :   -0.157477
   2 C :   -0.148704
   3 C :   -0.127877
   4 C :   -0.148712
   5 C :   -0.157482
   6 C :   -0.285466
   7 Cl:    0.001821
   8 H :    0.168385
   9 H :    0.168752
  10 H :    0.172158
  11 H :    0.172153
  12 H :    0.168755
  13 H :    0.166410
  14 H :    0.166408

  Mayer bond orders larger than 0.100000
B(  0-C ,  1-C ) :   1.4240 B(  0-C ,  5-C ) :   1.4240 B(  0-C ,  8-H ) :   0.9468
B(  1-C ,  2-C ) :   1.4517 B(  1-C ,  9-H ) :   0.9481 B(  2-C ,  3-C ) :   1.3963
B(  2-C , 10-H ) :   0.9396 B(  3-C ,  4-C ) :   1.3963 B(  3-C ,  6-C ) :   0.8556
B(  4-C ,  5-C ) :   1.4517 B(  4-C , 11-H ) :   0.9396 B(  5-C , 12-H ) :   0.9481
B(  6-C ,  7-Cl) :   1.0213 B(  6-C , 13-H ) :   0.9729 B(  6-C , 14-H ) :   0.9728

Dispersion correction           -0.005174744
FINAL SINGLE POINT ENERGY      -731.059221242922

DIPOLE MOMENT
-------------

Method             : SCF
Type of density    : Electron Density
Multiplicity       :   1
Irrep              :   0
Energy             :  -731.0602491066234734 Eh
Relativity type    :
Basis              : AO
                                X                 Y                 Z
Electronic contribution:      8.197420282       0.001268543      -2.426852592
Nuclear contribution   :     -8.858827325      -0.001517566       2.942690659
                        -----------------------------------------
Total Dipole Moment    :     -0.661407044      -0.000249023       0.515838067
                        -----------------------------------------
Magnitude (a.u.)       :      0.838777832
Magnitude (Debye)      :      2.132003815

Rotational constants in cm-1:             0.138477             0.033642             0.030244
Rotational constants in MHz :          4151.445701          1008.574384           906.697687

                             ****ORCA TERMINATED NORMALLY****
TOTAL RUN TIME: 0 days 0 hours 0 minutes 19 seconds 402 msec
