                         Program Version 6.0.0  -   RELEASE  -
|  1> ! r2scan-3c def2/J RI DEFGRID2 scfconv6 printgap
|  2> %output
|  3>     printlevel normal
|  4> end
|  5> %cpcm
|  6>     smd true
|  7>     smdsolvent "water"
|  8> end
|  9> * xyz 0 1
| 10> C -2.6769834011 0.0002588078 -0.4071873284
| 11> C -2.0199229757 1.1985706532 -0.1822188581
| 12> C -0.7113310209 1.1988487405 0.2668143345
| 13> C -0.0466161197 -0.0002270025 0.4993401529
| 14> C -0.7116498154 -1.1990425956 0.2663903596
| 15> C -2.0202621367 -1.1983009627 -0.182606068
| 16> C 1.3729920565 -0.0005351612 0.9597000082
| 17> Cl 2.476113839 0.0001833654 -0.4829230834
| 18> H -3.6976459829 0.0004798991 -0.7580013329
| 19> H -2.5274203494 2.1349329824 -0.3573658221
| 20> H -0.1987226031 2.1336837424 0.4382705534
| 21> H -0.1993329331 -2.1340960037 0.4376007546
| 22> H -2.5278800351 -2.1344627964 -0.3585396005
| 23> H 1.6253666065 -0.8972780214 1.5212604422
| 24> H 1.6254110725 0.895384952 1.5225045066
| 25> *
| 26>
| 27>                          ****END OF INPUT****

CARTESIAN COORDINATES (ANGSTROEM)
---------------------------------
  C     -2.676983    0.000259   -0.407187
  C     -2.019923    1.198571   -0.182219
  C     -0.711331    1.198849    0.266814
  C     -0.046616   -0.000227    0.499340
  C     -0.711650   -1.199043    0.266390
  C     -2.020262   -1.198301   -0.182606
  C      1.372992   -0.000535    0.959700
  Cl     2.476114    0.000183   -0.482923
  H     -3.697646    0.000480   -0.758001
  H     -2.527420    2.134933   -0.357366
  H     -0.198723    2.133684    0.438271
  H     -0.199333   -2.134096    0.437601
  H     -2.527880   -2.134463   -0.358540
  H      1.625367   -0.897278    1.521260
  H      1.625411    0.895385    1.522505

 Total Charge           Charge          ....    0
 Multiplicity           Mult            ....    1
 Number of Electrons    NEL             ....   66
 Basis Dimension        Dim             ....  195

ORBITAL ENERGIES
----------------

  NO   OCC          E(Eh)            E(eV)
   0   2.0000    -101.202487     -2753.8597
   1   2.0000     -10.089909      -274.5604
   2   2.0000     -10.050715      -273.4939
   3   2.0000     -10.037010      -273.1209
   4   2.0000     -10.036997      -273.1206
   5   2.0000     -10.035991      -273.0932
   6   2.0000     -10.035724      -273.0859
   7   2.0000     -10.035337      -273.0754
   8   2.0000      -9.358669      -254.6623
   9   2.0000      -7.104621      -193.3266
  10   2.0000      -7.094838      -193.0604
  11   2.0000      -7.094829      -193.0601
  12   2.0000      -0.842194       -22.9173
  13   2.0000      -0.807685       -21.9782
  14   2.0000      -0.728846       -19.8329
  15   2.0000      -0.719585       -19.5809
  16   2.0000      -0.637936       -17.3591
  17   2.0000      -0.579104       -15.7582
  18   2.0000      -0.554914       -15.1000
  19   2.0000      -0.485551       -13.2125
  20   2.0000      -0.444376       -12.0921
  21   2.0000      -0.428479       -11.6595
  22   2.0000      -0.402766       -10.9598
  23   2.0000      -0.392477       -10.6798
  24   2.0000      -0.389726       -10.6050
  25   2.0000      -0.381623       -10.3845
  26   2.0000      -0.344840        -9.3836
  27   2.0000      -0.322153        -8.7662
  28   2.0000      -0.310679        -8.4540
  29   2.0000      -0.272950        -7.4273
  30   2.0000      -0.269499        -7.3334
  31   2.0000      -0.242763        -6.6059
  32   2.0000      -0.237238        -6.4556
  33   0.0000      -0.052615        -1.4317
  34   0.0000      -0.036473        -0.9925
  35   0.0000       0.021408         0.5825
  36   0.0000       0.084632         2.3029
  37   0.0000       0.111027         3.0212

MULLIKEN ATOMIC CHARGES
-----------------------
   0 C :   -0.162037
   1 C :   -0.192194
   2 C :   -0.213516
   3 C :    0.145328
   4 C :   -0.213494
   5 C :   -0.192205
   6 C :   -0.234405
   7 Cl:   -0.247821
   8 H :    0.182109
   9 H :    0.180574
  10 H :    0.185473
  11 H :    0.185474
  12 H :    0.180576
  13 H :    0.198060
  14 H :    0.198078
Sum of atomic charges:    0.0000000

LOEWDIN ATOMIC CHARGES
----------------------
   0 C :   -0.168535
   1 C :   -0.168112
   2 C :   -0.156911
   3 C :   -0.137377
   4 C :   -0.156914
   5 C :   -0.168115
   6 C :   -0.276941
   7 Cl:   -0.030371
   8 H :    0.178903
   9 H :    0.179348
  10 H :    0.183741
  11 H :    0.183741
  12 H :    0.179352
  13 H :    0.179095
  14 H :    0.179094

  Mayer bond orders larger than 0.100000
B(  0-C ,  1-C ) :   1.3872 B(  0-C ,  5-C ) :   1.3873 B(  0-C ,  8-H ) :   0.9514
B(  1-C ,  2-C ) :   1.4150 B(  1-C ,  9-H ) :   0.9561 B(  2-C ,  3-C ) :   1.3669
B(  2-C , 10-H ) :   0.9469 B(  3-C ,  4-C ) :   1.3670 B(  3-C ,  6-C ) :   0.8593
B(  4-C ,  5-C ) :   1.4150 B(  4-C , 11-H ) :   0.9469 B(  5-C , 12-H ) :   0.9561
B(  6-C ,  7-Cl) :   0.9663 B(  6-C , 13-H ) :   0.9639 B(  6-C , 14-H ) :   0.9638

Dispersion correction           -0.005174744
FINAL SINGLE POINT ENERGY      -731.064706697155

DIPOLE MOMENT
-------------

Method             : SCF
Type of density    : Electron Density
Multiplicity       :   1
Irrep              :   0
Energy             :  -731.0657345608559581 Eh
Relativity type    :
Basis              : AO
                                X                 Y                 Z
Electronic contribution:      8.072235050       0.001120042      -2.180026744
Nuclear contribution   :     -8.858827325      -0.001517566       2.942690659
                        -----------------------------------------
Total Dipole Moment    :     -0.786592276      -0.000397524       0.762663915
                        -----------------------------------------
Magnitude (a.u.)       :      1.095620287
Magnitude (Debye)      :      2.784845455

Rotational constants in cm-1:             0.138477             0.033642             0.030244
Rotational constants in MHz :          4151.445701          1008.574384           906.697687

                             ****ORCA TERMINATED NORMALLY****
TOTAL RUN TIME: 0 days 0 hours 0 minutes 24 seconds 412 msec
