                         Program Version 6.0.0  -   RELEASE  -
|  1> ! r2scan-3c def2/J RI DEFGRID2 scfconv6 printgap
|  2> %output
|  3>     printlevel normal
|  4> end
|  5> * xyz 0 1
|  6> C -2.5685355367 -0.6549008585 -0.3212083717
|  7> C -1.1816493412 -0.2973511986 0.2234855294
|  8> H -1.2325785703 -0.2244020614 1.3208157304
|  9> C -0.6979985363 1.0453418869 -0.3368946806
| 10> H -0.6900912379 0.9779315571 -1.4384576409
| 11> C 0.7340444062 1.3317459987 0.1523464214
| 12> H 0.7234584542 1.4597315353 1.2411783724
| 13> C 1.643419971 0.1513296767 -0.1948069018
| 14> H 1.7197933548 0.0539144986 -1.290115935
| 15> C 1.0180480394 -1.1526628712 0.3366219551
| 16> H 0.9959570526 -1.1037299925 1.4457558408
| 17> O -0.2920784763 -1.3373863213 -0.1457530364
| 18> O 1.8042102227 -2.196130767 -0.1088128513
| 19> O 2.9065360701 0.364367547 0.3746307218
| 20> O 1.1890917078 2.558671011 -0.3565085171
| 21> O -1.5794648534 2.054962603 0.0762056367
| 22> O -3.1395059757 -1.7556883711 0.3331864611
| 23> H -2.4830249446 -0.8400799573 -1.3986543696
| 24> H -3.2323304992 0.1931138734 -0.1477355975
| 25> H 1.3868784138 -3.0462823408 0.0991075428
| 26> H 3.4645702724 -0.4091404282 0.2007625525
| 27> H 1.4869183348 2.4524330194 -1.2717462327
| 28> H -1.1265656956 2.9093488329 -0.0187387216
| 29> H -2.5770830568 -2.5296031805 0.186240728
| 30> *
| 31>
| 32>                          ****END OF INPUT****

CARTESIAN COORDINATES (ANGSTROEM)
---------------------------------
  C     -2.568536   -0.654901   -0.321208
  C     -1.181649   -0.297351    0.223486
  H     -1.232579   -0.224402    1.320816
  C     -0.697999    1.045342   -0.336895
  H     -0.690091    0.977932   -1.438458
  C      0.734044    1.331746    0.152346
  H      0.723458    1.459732    1.241178
  C      1.643420    0.151330   -0.194807
  H      1.719793    0.053914   -1.290116
  C      1.018048   -1.152663    0.336622
  H      0.995957   -1.103730    1.445756
  O     -0.292078   -1.337386   -0.145753
  O      1.804210   -2.196131   -0.108813
  O      2.906536    0.364368    0.374631
  O      1.189092    2.558671   -0.356509
  O     -1.579465    2.054963    0.076206
  O     -3.139506   -1.755688    0.333186
  H     -2.483025   -0.840080   -1.398654
  H     -3.232330    0.193114   -0.147736
  H      1.386878   -3.046282    0.099108
  H      3.464570   -0.409140    0.200763
  H      1.486918    2.452433   -1.271746
  H     -1.126566    2.909349   -0.018739
  H     -2.577083   -2.529603    0.186241

 Total Charge           Charge          ....    0
 Multiplicity           Mult            ....    1
 Number of Electrons    NEL             ....   96
 Basis Dimension        Dim             ....  318

ORBITAL ENERGIES
----------------

  NO   OCC          E(Eh)            E(eV)
   0   2.0000     -18.983249      -516.5605
   1   2.0000     -18.980641      -516.4895
   2   2.0000     -18.970752      -516.2204
   3   2.0000     -18.964296      -516.0447
   4   2.0000     -18.960642      -515.9453
   5   2.0000     -18.951842      -515.7058
   6   2.0000     -10.149607      -276.1848
   7   2.0000     -10.100200      -274.8404
   8   2.0000     -10.098936      -274.8060
   9   2.0000     -10.095474      -274.7118
  10   2.0000     -10.095125      -274.7023
  11   2.0000     -10.079551      -274.2785
  12   2.0000      -1.063328       -28.9346
  13   2.0000      -1.021163       -27.7873
  14   2.0000      -1.009020       -27.4568
  15   2.0000      -0.996666       -27.1207
  16   2.0000      -0.991152       -26.9706
  17   2.0000      -0.985941       -26.8288
  18   2.0000      -0.758314       -20.6348
  19   2.0000      -0.743418       -20.2294
  20   2.0000      -0.660764       -17.9803
  21   2.0000      -0.624298       -16.9880
  22   2.0000      -0.598733       -16.2924
  23   2.0000      -0.571465       -15.5503
  24   2.0000      -0.539742       -14.6871
  25   2.0000      -0.518453       -14.1078
  26   2.0000      -0.499428       -13.5901
  27   2.0000      -0.478468       -13.0198
  28   2.0000      -0.469560       -12.7774
  29   2.0000      -0.465832       -12.6759
  30   2.0000      -0.450008       -12.2453
  31   2.0000      -0.433556       -11.7977
  32   2.0000      -0.412783       -11.2324
  33   2.0000      -0.395203       -10.7540
  34   2.0000      -0.392676       -10.6853
  35   2.0000      -0.375682       -10.2228
  36   2.0000      -0.355023        -9.6607
  37   2.0000      -0.345592        -9.4040
  38   2.0000      -0.335238        -9.1223
  39   2.0000      -0.326912        -8.8957
  40   2.0000      -0.308917        -8.4060
  41   2.0000      -0.298129        -8.1125
  42   2.0000      -0.287308        -7.8180
  43   2.0000      -0.271779        -7.3955
  44   2.0000      -0.265960        -7.2371
  45   2.0000      -0.244614        -6.6563
  46   2.0000      -0.240109        -6.5337
  47   2.0000      -0.233596        -6.3565
  48   0.0000       0.028407         0.7730
  49   0.0000       0.039612         1.0779
  50   0.0000       0.059032         1.6063
  51   0.0000       0.069731         1.8975
  52   0.0000       0.079028         2.1505

MULLIKEN ATOMIC CHARGES
-----------------------
   0 C :   -0.296508
   1 C :   -0.050459
   2 H :    0.185985
   3 C :    0.107034
   4 H :    0.164176
   5 C :   -0.169526
   6 H :    0.180952
   7 C :    0.009524
   8 H :    0.165344
   9 C :   -0.035177
  10 H :    0.145429
  11 O :   -0.210515
  12 O :   -0.403767
  13 O :   -0.412009
  14 O :   -0.395828
  15 O :   -0.440930
  16 O :   -0.407513
  17 H :    0.143557
  18 H :    0.172717
  19 H :    0.309499
  20 H :    0.313671
  21 H :    0.302280
  22 H :    0.316183
  23 H :    0.305881
Sum of atomic charges:    0.0000000

LOEWDIN ATOMIC CHARGES
----------------------
   0 C :    0.044173
   1 C :    0.115795
   2 H :    0.189586
   3 C :    0.103159
   4 H :    0.177056
   5 C :    0.102487
   6 H :    0.204084
   7 C :    0.114666
   8 H :    0.181854
   9 C :    0.298291
  10 H :    0.181638
  11 O :   -0.688330
  12 O :   -0.504189
  13 O :   -0.556572
  14 O :   -0.558488
  15 O :   -0.582929
  16 O :   -0.589345
  17 H :    0.168670
  18 H :    0.199565
  19 H :    0.285002
  20 H :    0.282907
  21 H :    0.274130
  22 H :    0.285532
  23 H :    0.271256

  Mayer bond orders larger than 0.100000
B(  0-C ,  1-C ) :   0.9172 B(  0-C , 16-O ) :   1.0113 B(  0-C , 17-H ) :   0.9971
B(  0-C , 18-H ) :   0.9640 B(  1-C ,  2-H ) :   0.9611 B(  1-C ,  3-C ) :   0.8359
B(  1-C , 11-O ) :   0.7943 B(  3-C ,  4-H ) :   0.9477 B(  3-C ,  5-C ) :   0.8593
B(  3-C , 15-O ) :   0.8446 B(  5-C ,  6-H ) :   0.9852 B(  5-C ,  7-C ) :   0.9374
B(  5-C , 14-O ) :   1.0599 B(  7-C ,  8-H ) :   0.9670 B(  7-C ,  9-C ) :   0.8030
B(  7-C , 13-O ) :   0.9063 B(  9-C , 10-H ) :   1.0048 B(  9-C , 11-O ) :   0.9275
B(  9-C , 12-O ) :   1.0478 B( 12-O , 19-H ) :   0.8803 B( 13-O , 20-H ) :   0.8792
B( 14-O , 21-H ) :   0.8894 B( 15-O , 22-H ) :   0.8687 B( 16-O , 23-H ) :   0.8833

Dispersion correction           -0.007954950
FINAL SINGLE POINT ENERGY      -687.076186842672

DIPOLE MOMENT
-------------

Method             : SCF
Type of density    : Electron Density
Multiplicity       :   1
Irrep              :   0
Energy             :  -687.0875182870377103 Eh
Relativity type    :
Basis              : AO
                                X                 Y                 Z
Electronic contribution:      2.101762424      -0.502616486       0.446655988
Nuclear contribution   :     -1.454223167      -0.104773732      -1.002769445
                        -----------------------------------------
Total Dipole Moment    :      0.647539257      -0.607390218      -0.556113457
                        -----------------------------------------
Magnitude (a.u.)       :      1.047612592
Magnitude (Debye)      :      2.662819592

Rotational constants in cm-1:             0.039432             0.025831             0.016320
Rotational constants in MHz :          1182.132952           774.382883           489.265769

                             ****ORCA TERMINATED NORMALLY****
TOTAL RUN TIME: 0 days 0 hours 0 minutes 48 seconds 240 msec
