                         Program Version 6.0.0  -   RELEASE  -
|  1> ! r2scan-3c def2/J RI DEFGRID2 scfconv6 printgap
|  2> %output
|  3>     printlevel normal
|  4> end
|  5> %cpcm
|  6>     smd true
|  7>     smdsolvent "water"
|  8> end
|  9> * xyz 0 1
| 10> C -2.5685355367 -0.6549008585 -0.3212083717
| 11> C -1.1816493412 -0.2973511986 0.2234855294
| 12> H -1.2325785703 -0.2244020614 1.3208157304
| 13> C -0.6979985363 1.0453418869 -0.3368946806
| 14> H -0.6900912379 0.9779315571 -1.4384576409
| 15> C 0.7340444062 1.3317459987 0.1523464214
| 16> H 0.7234584542 1.4597315353 1.2411783724
| 17> C 1.643419971 0.1513296767 -0.1948069018
| 18> H 1.7197933548 0.0539144986 -1.290115935
| 19> C 1.0180480394 -1.1526628712 0.3366219551
| 20> H 0.9959570526 -1.1037299925 1.4457558408
| 21> O -0.2920784763 -1.3373863213 -0.1457530364
| 22> O 1.8042102227 -2.196130767 -0.1088128513
| 23> O 2.9065360701 0.364367547 0.3746307218
| 24> O 1.1890917078 2.558671011 -0.3565085171
| 25> O -1.5794648534 2.054962603 0.0762056367
| 26> O -3.1395059757 -1.7556883711 0.3331864611
| 27> H -2.4830249446 -0.8400799573 -1.3986543696
| 28> H -3.2323304992 0.1931138734 -0.1477355975
| 29> H 1.3868784138 -3.0462823408 0.0991075428
| 30> H 3.4645702724 -0.4091404282 0.2007625525
| 31> H 1.4869183348 2.4524330194 -1.2717462327
| 32> H -1.1265656956 2.9093488329 -0.0187387216
| 33> H -2.5770830568 -2.5296031805 0.186240728
| 34> *
| 35>
| 36>                          ****END OF INPUT****

CARTESIAN COORDINATES (ANGSTROEM)
---------------------------------
  C     -2.568536   -0.654901   -0.321208
  C     -1.181649   -0.297351    0.223486
  H     -1.232579   -0.224402    1.320816
  C     -0.697999    1.045342   -0.336895
  H     -0.690091    0.977932   -1.438458
  C      0.734044    1.331746    0.152346
  H      0.723458    1.459732    1.241178
  C      1.643420    0.151330   -0.194807
  H      1.719793    0.053914   -1.290116
  C      1.018048   -1.152663    0.336622
  H      0.995957   -1.103730    1.445756
  O     -0.292078   -1.337386   -0.145753
  O      1.804210   -2.196131   -0.108813
  O      2.906536    0.364368    0.374631
  O      1.189092    2.558671   -0.356509
  O     -1.579465    2.054963    0.076206
  O     -3.139506   -1.755688    0.333186
  H     -2.483025   -0.840080   -1.398654
  H     -3.232330    0.193114   -0.147736
  H      1.386878   -3.046282    0.099108
  H      3.464570   -0.409140    0.200763
  H      1.486918    2.452433   -1.271746
  H     -1.126566    2.909349   -0.018739
  H     -2.577083   -2.529603    0.186241

 Total Charge           Charge          ....    0
 Multiplicity           Mult            ....    1
 Number of Electrons    NEL             ....   96
 Basis Dimension        Dim             ....  318

ORBITAL ENERGIES
----------------

  NO   OCC          E(Eh)            E(eV)
   0   2.0000     -18.974900      -516.3333
   1   2.0000     -18.970426      -516.2115
   2   2.0000     -18.963456      -516.0219
   3   2.0000     -18.962747      -516.0026
   4   2.0000     -18.960197      -515.9332
   5   2.0000     -18.956589      -515.8350
   6   2.0000     -10.137277      -275.8493
   7   2.0000     -10.089471      -274.5485
   8   2.0000     -10.088991      -274.5354
   9   2.0000     -10.088315      -274.5170
  10   2.0000     -10.086367      -274.4640
  11   2.0000     -10.076180      -274.1868
  12   2.0000      -1.054161       -28.6852
  13   2.0000      -1.015241       -27.6261
  14   2.0000      -1.005378       -27.3577
  15   2.0000      -0.995308       -27.0837
  16   2.0000      -0.987089       -26.8600
  17   2.0000      -0.982267       -26.7288
  18   2.0000      -0.750049       -20.4099
  19   2.0000      -0.735457       -20.0128
  20   2.0000      -0.653614       -17.7857
  21   2.0000      -0.616115       -16.7653
  22   2.0000      -0.591918       -16.1069
  23   2.0000      -0.561357       -15.2753
  24   2.0000      -0.529402       -14.4058
  25   2.0000      -0.511926       -13.9302
  26   2.0000      -0.490155       -13.3378
  27   2.0000      -0.475144       -12.9293
  28   2.0000      -0.462180       -12.5766
  29   2.0000      -0.455350       -12.3907
  30   2.0000      -0.443384       -12.0651
  31   2.0000      -0.429479       -11.6867
  32   2.0000      -0.407731       -11.0949
  33   2.0000      -0.395749       -10.7689
  34   2.0000      -0.386022       -10.5042
  35   2.0000      -0.369307       -10.0494
  36   2.0000      -0.355379        -9.6703
  37   2.0000      -0.339445        -9.2368
  38   2.0000      -0.334323        -9.0974
  39   2.0000      -0.325009        -8.8440
  40   2.0000      -0.307553        -8.3689
  41   2.0000      -0.295694        -8.0462
  42   2.0000      -0.280817        -7.6414
  43   2.0000      -0.269180        -7.3248
  44   2.0000      -0.263290        -7.1645
  45   2.0000      -0.246998        -6.7211
  46   2.0000      -0.236193        -6.4271
  47   2.0000      -0.230203        -6.2641
  48   0.0000       0.042234         1.1492
  49   0.0000       0.061307         1.6683
  50   0.0000       0.078143         2.1264
  51   0.0000       0.087105         2.3703
  52   0.0000       0.096823         2.6347

MULLIKEN ATOMIC CHARGES
-----------------------
   0 C :   -0.292142
   1 C :   -0.042707
   2 H :    0.201118
   3 C :    0.062964
   4 H :    0.188842
   5 C :   -0.118902
   6 H :    0.193103
   7 C :    0.021130
   8 H :    0.191336
   9 C :   -0.047465
  10 H :    0.167761
  11 O :   -0.243922
  12 O :   -0.454717
  13 O :   -0.485469
  14 O :   -0.469038
  15 O :   -0.505725
  16 O :   -0.484139
  17 H :    0.164205
  18 H :    0.175832
  19 H :    0.359086
  20 H :    0.353700
  21 H :    0.357373
  22 H :    0.351292
  23 H :    0.356486
Sum of atomic charges:    0.0000000

LOEWDIN ATOMIC CHARGES
----------------------
   0 C :    0.040561
   1 C :    0.116336
   2 H :    0.195728
   3 C :    0.107861
   4 H :    0.189342
   5 C :    0.103885
   6 H :    0.207951
   7 C :    0.116550
   8 H :    0.194199
   9 C :    0.301145
  10 H :    0.191812
  11 O :   -0.697615
  12 O :   -0.518666
  13 O :   -0.587711
  14 O :   -0.582450
  15 O :   -0.610159
  16 O :   -0.622604
  17 H :    0.178064
  18 H :    0.198750
  19 H :    0.302366
  20 H :    0.296963
  21 H :    0.292844
  22 H :    0.296707
  23 H :    0.288141

  Mayer bond orders larger than 0.100000
B(  0-C ,  1-C ) :   0.9123 B(  0-C , 16-O ) :   0.9942 B(  0-C , 17-H ) :   0.9841
B(  0-C , 18-H ) :   0.9658 B(  1-C ,  2-H ) :   0.9531 B(  1-C ,  3-C ) :   0.8595
B(  1-C , 11-O ) :   0.7914 B(  3-C ,  4-H ) :   0.9481 B(  3-C ,  5-C ) :   0.8792
B(  3-C , 15-O ) :   0.8343 B(  5-C ,  6-H ) :   0.9711 B(  5-C ,  7-C ) :   0.9252
B(  5-C , 14-O ) :   1.0374 B(  7-C ,  8-H ) :   0.9541 B(  7-C ,  9-C ) :   0.8207
B(  7-C , 13-O ) :   0.8832 B(  9-C , 10-H ) :   0.9983 B(  9-C , 11-O ) :   0.9348
B(  9-C , 12-O ) :   1.0471 B( 12-O , 19-H ) :   0.8550 B( 13-O , 20-H ) :   0.8596
B( 14-O , 21-H ) :   0.8615 B( 15-O , 22-H ) :   0.8530 B( 16-O , 23-H ) :   0.8572

Dispersion correction           -0.007954950
FINAL SINGLE POINT ENERGY      -687.111187418017

DIPOLE MOMENT
-------------

Method             : SCF
Type of density    : Electron Density
Multiplicity       :   1
Irrep              :   0
Energy             :  -687.1225188623834583 Eh
Relativity type    :
Basis              : AO
                                X                 Y                 Z
Electronic contribution:      2.294245223      -0.762968432       0.178346304
Nuclear contribution   :     -1.454223167      -0.104773732      -1.002769445
                        -----------------------------------------
Total Dipole Moment    :      0.840022056      -0.867742164      -0.824423140
                        -----------------------------------------
Magnitude (a.u.)       :      1.462288286
Magnitude (Debye)      :      3.716841441

Rotational constants in cm-1:             0.039432             0.025831             0.016320
Rotational constants in MHz :          1182.132952           774.382883           489.265769

                             ****ORCA TERMINATED NORMALLY****
TOTAL RUN TIME: 0 days 0 hours 0 minutes 56 seconds 858 msec
