                         Program Version 6.0.0  -   RELEASE  -
|  1> ! pbe def2-sv(p) def2/J RI DEFGRID1 loosescf d4 GCP(DFT/SV(P)) printgap
|  2> %output
|  3>     printlevel normal
|  4> end
|  5> * xyz 0 1
|  6> C -2.7684573064 0.0796049406 0.1126639822
|  7> O -1.4830894593 0.4456076518 0.6265971204
|  8> C -0.4144260418 -0.0088977254 -0.0062407309
|  9> O -0.4492840035 -0.7083546904 -0.990552903
| 10> C 0.8461331105 0.4856736948 0.6875227787
| 11> C 2.0426606981 0.0298511891 0.036980884
| 12> N 3.0046342051 -0.3247542635 -0.47019726
| 13> H -3.4806699774 0.7162399925 0.6279359636
| 14> H -2.9635579711 -0.9721931691 0.3222603722
| 15> H -2.8006784746 0.240958073 -0.9651282401
| 16> H 0.8369308401 0.1339724917 1.7229391916
| 17> H 0.8321708692 1.5789933814 0.701802708
| 18> *
| 19>
| 20>                          ****END OF INPUT****

CARTESIAN COORDINATES (ANGSTROEM)
---------------------------------
  C     -2.768457    0.079605    0.112664
  O     -1.483089    0.445608    0.626597
  C     -0.414426   -0.008898   -0.006241
  O     -0.449284   -0.708355   -0.990553
  C      0.846133    0.485674    0.687523
  C      2.042661    0.029851    0.036981
  N      3.004634   -0.324754   -0.470197
  H     -3.480670    0.716240    0.627936
  H     -2.963558   -0.972193    0.322260
  H     -2.800678    0.240958   -0.965128
  H      0.836931    0.133972    1.722939
  H      0.832171    1.578993    0.701803

 Total Charge           Charge          ....    0
 Multiplicity           Mult            ....    1
 Number of Electrons    NEL             ....   52
 Basis Dimension        Dim             ....  108

ORBITAL ENERGIES
----------------

  NO   OCC          E(Eh)            E(eV)
   0   2.0000     -18.827220      -512.3147
   1   2.0000     -18.761709      -510.5321
   2   2.0000     -13.986528      -380.5928
   3   2.0000     -10.035950      -273.0921
   4   2.0000      -9.959497      -271.0117
   5   2.0000      -9.954996      -270.8892
   6   2.0000      -9.931948      -270.2620
   7   2.0000      -1.033307       -28.1177
   8   2.0000      -0.938455       -25.5367
   9   2.0000      -0.820293       -22.3213
  10   2.0000      -0.742032       -20.1917
  11   2.0000      -0.675665       -18.3858
  12   2.0000      -0.542616       -14.7653
  13   2.0000      -0.489301       -13.3146
  14   2.0000      -0.471856       -12.8398
  15   2.0000      -0.468002       -12.7350
  16   2.0000      -0.429333       -11.6828
  17   2.0000      -0.424779       -11.5588
  18   2.0000      -0.393668       -10.7122
  19   2.0000      -0.361051        -9.8247
  20   2.0000      -0.330186        -8.9848
  21   2.0000      -0.301324        -8.1994
  22   2.0000      -0.298211        -8.1147
  23   2.0000      -0.297053        -8.0832
  24   2.0000      -0.282329        -7.6826
  25   2.0000      -0.247184        -6.7262
  26   0.0000      -0.045366        -1.2345
  27   0.0000      -0.005928        -0.1613
  28   0.0000       0.001609         0.0438
  29   0.0000       0.028913         0.7868
  30   0.0000       0.050312         1.3691

MULLIKEN ATOMIC CHARGES
-----------------------
   0 C :   -0.114516
   1 O :   -0.235087
   2 C :    0.100288
   3 O :   -0.171298
   4 C :   -0.120047
   5 C :   -0.236417
   6 N :    0.077995
   7 H :    0.129675
   8 H :    0.128353
   9 H :    0.132253
  10 H :    0.154593
  11 H :    0.154209
Sum of atomic charges:   -0.0000000

LOEWDIN ATOMIC CHARGES
----------------------
   0 C :   -0.198938
   1 O :   -0.070026
   2 C :    0.038989
   3 O :   -0.137290
   4 C :   -0.263912
   5 C :   -0.048798
   6 N :   -0.045313
   7 H :    0.125313
   8 H :    0.124312
   9 H :    0.125677
  10 H :    0.174980
  11 H :    0.175005

  Mayer bond orders larger than 0.100000
B(  0-C ,  1-O ) :   0.9259 B(  0-C ,  7-H ) :   0.9589 B(  0-C ,  8-H ) :   0.9557
B(  0-C ,  9-H ) :   0.9466 B(  1-O ,  2-C ) :   1.2341 B(  1-O ,  3-O ) :   0.1008
B(  2-C ,  3-O ) :   2.1072 B(  2-C ,  4-C ) :   0.9705 B(  4-C ,  5-C ) :   1.1664
B(  4-C , 10-H ) :   0.8576 B(  4-C , 11-H ) :   0.8565 B(  5-C ,  6-N ) :   3.0674

Dispersion correction           -0.008618733
FINAL SINGLE POINT ENERGY      -359.879606537551

DIPOLE MOMENT
-------------

Method             : SCF
Type of density    : Electron Density
Multiplicity       :   1
Irrep              :   0
Energy             :  -359.9224002173505710 Eh
Relativity type    :
Basis              : AO
                                X                 Y                 Z
Electronic contribution:      5.465844752      -0.833714839      -1.182367557
Nuclear contribution   :     -7.119529022       1.587309318       2.252837392
                        -----------------------------------------
Total Dipole Moment    :     -1.653684270       0.753594479       1.070469835
                        -----------------------------------------
Magnitude (a.u.)       :      2.109142473
Magnitude (Debye)      :      5.361014120

Rotational constants in cm-1:             0.316997             0.047676             0.042099
Rotational constants in MHz :          9503.317517          1429.288749          1262.095906

                             ****ORCA TERMINATED NORMALLY****
TOTAL RUN TIME: 0 days 0 hours 0 minutes 5 seconds 843 msec
