                         Program Version 6.0.0  -   RELEASE  -
|  1> ! r2scan-3c def2/J RI DEFGRID2 scfconv6 printgap
|  2> %output
|  3>     printlevel normal
|  4> end
|  5> * xyz 0 1
|  6> C 3.7482222217 0.2312696107 0.0716009331
|  7> C 2.2896081488 0.1698311734 -0.3729537022
|  8> H 2.2567224926 -0.0365797664 -1.4490237349
|  9> C 1.5663207314 1.4848675088 -0.1054670782
| 10> C 0.1184356443 1.3924813904 -0.5694627308
| 11> C -0.6770306739 0.2802496022 0.1292028595
| 12> H -0.7204856607 0.4776051068 1.2055580788
| 13> C 0.0686920178 -1.0561571497 -0.0463967219
| 14> H 0.0038244601 -1.3573565683 -1.1066858518
| 15> C 1.5435849257 -0.9376906889 0.3617308794
| 16> O -0.5418125028 -2.0456323651 0.7664558706
| 17> C -2.1222811562 0.2762507394 -0.4241198343
| 18> C -2.939528024 -0.9564125068 -0.0403373306
| 19> C -2.8846391658 1.5142208068 0.0563753228
| 20> H 4.2523219583 -0.7100848736 -0.133355189
| 21> H 4.2717772851 1.0244990964 -0.4562267678
| 22> H 3.8102977259 0.429838369 1.1392292538
| 23> H 1.5979816964 1.7046609818 0.9637726107
| 24> H 2.0645010321 2.3013737906 -0.6318766463
| 25> H -0.3672805996 2.3508477309 -0.3917418203
| 26> H 0.103053321 1.2051779504 -1.6465254611
| 27> H 1.5774118452 -0.7430404263 1.436980356
| 28> H 2.0343597552 -1.8977589673 0.1788627973
| 29> H -0.0019618855 -2.846938856 0.7415356698
| 30> H -2.0590114766 0.310000619 -1.5188082161
| 31> H -3.9669412026 -0.8325302173 -0.3773578543
| 32> H -2.93903612 -1.0932161649 1.0376818906
| 33> H -2.539503937 -1.8571422485 -0.4937018835
| 34> H -2.4165071237 2.4368907201 -0.2723535609
| 35> H -2.939425546 1.5202036594 1.1427048895
| 36> H -3.8988380872 1.498436075 -0.3355969445
| 37> *
| 38>
| 39>                          ****END OF INPUT****

CARTESIAN COORDINATES (ANGSTROEM)
---------------------------------
  C      3.748222    0.231270    0.071601
  C      2.289608    0.169831   -0.372954
  H      2.256722   -0.036580   -1.449024
  C      1.566321    1.484868   -0.105467
  C      0.118436    1.392481   -0.569463
  C     -0.677031    0.280250    0.129203
  H     -0.720486    0.477605    1.205558
  C      0.068692   -1.056157   -0.046397
  H      0.003824   -1.357357   -1.106686
  C      1.543585   -0.937691    0.361731
  O     -0.541813   -2.045632    0.766456
  C     -2.122281    0.276251   -0.424120
  C     -2.939528   -0.956413   -0.040337
  C     -2.884639    1.514221    0.056375
  H      4.252322   -0.710085   -0.133355
  H      4.271777    1.024499   -0.456227
  H      3.810298    0.429838    1.139229
  H      1.597982    1.704661    0.963773
  H      2.064501    2.301374   -0.631877
  H     -0.367281    2.350848   -0.391742
  H      0.103053    1.205178   -1.646525
  H      1.577412   -0.743040    1.436980
  H      2.034360   -1.897759    0.178863
  H     -0.001962   -2.846939    0.741536
  H     -2.059011    0.310001   -1.518808
  H     -3.966941   -0.832530   -0.377358
  H     -2.939036   -1.093216    1.037682
  H     -2.539504   -1.857142   -0.493702
  H     -2.416507    2.436891   -0.272354
  H     -2.939426    1.520204    1.142705
  H     -3.898838    1.498436   -0.335597

 Total Charge           Charge          ....    0
 Multiplicity           Mult            ....    1
 Number of Electrons    NEL             ....   88
 Basis Dimension        Dim             ....  314

ORBITAL ENERGIES
----------------

  NO   OCC          E(Eh)            E(eV)
   0   2.0000     -18.942334      -515.4471
   1   2.0000     -10.077634      -274.2264
   2   2.0000     -10.033303      -273.0201
   3   2.0000     -10.028359      -272.8855
   4   2.0000     -10.026810      -272.8434
   5   2.0000     -10.023911      -272.7645
   6   2.0000     -10.022686      -272.7311
   7   2.0000     -10.021883      -272.7093
   8   2.0000     -10.017153      -272.5806
   9   2.0000     -10.008668      -272.3497
  10   2.0000      -9.997019      -272.0327
  11   2.0000      -0.982720       -26.7412
  12   2.0000      -0.805532       -21.9196
  13   2.0000      -0.765496       -20.8302
  14   2.0000      -0.711433       -19.3591
  15   2.0000      -0.697336       -18.9755
  16   2.0000      -0.643499       -17.5105
  17   2.0000      -0.637374       -17.3438
  18   2.0000      -0.579787       -15.7768
  19   2.0000      -0.560281       -15.2460
  20   2.0000      -0.526865       -14.3367
  21   2.0000      -0.519841       -14.1456
  22   2.0000      -0.471859       -12.8399
  23   2.0000      -0.444639       -12.0992
  24   2.0000      -0.429404       -11.6847
  25   2.0000      -0.409394       -11.1402
  26   2.0000      -0.405513       -11.0346
  27   2.0000      -0.400470       -10.8974
  28   2.0000      -0.377555       -10.2738
  29   2.0000      -0.360492        -9.8095
  30   2.0000      -0.358151        -9.7458
  31   2.0000      -0.353416        -9.6169
  32   2.0000      -0.349518        -9.5109
  33   2.0000      -0.335053        -9.1172
  34   2.0000      -0.331336        -9.0161
  35   2.0000      -0.313617        -8.5340
  36   2.0000      -0.307496        -8.3674
  37   2.0000      -0.305494        -8.3129
  38   2.0000      -0.293142        -7.9768
  39   2.0000      -0.285987        -7.7821
  40   2.0000      -0.281859        -7.6698
  41   2.0000      -0.271136        -7.3780
  42   2.0000      -0.255350        -6.9484
  43   2.0000      -0.227177        -6.1818
  44   0.0000       0.064223         1.7476
  45   0.0000       0.079005         2.1498
  46   0.0000       0.089828         2.4443
  47   0.0000       0.100370         2.7312
  48   0.0000       0.113092         3.0774

MULLIKEN ATOMIC CHARGES
-----------------------
   0 C :   -0.499935
   1 C :   -0.050517
   2 H :    0.161775
   3 C :   -0.335162
   4 C :   -0.358710
   5 C :   -0.118383
   6 H :    0.189818
   7 C :   -0.027727
   8 H :    0.153946
   9 C :   -0.349999
  10 O :   -0.406925
  11 C :   -0.044424
  12 C :   -0.490014
  13 C :   -0.521532
  14 H :    0.146099
  15 H :    0.148082
  16 H :    0.150904
  17 H :    0.156686
  18 H :    0.148518
  19 H :    0.141956
  20 H :    0.160599
  21 H :    0.173794
  22 H :    0.129841
  23 H :    0.284378
  24 H :    0.147232
  25 H :    0.131890
  26 H :    0.170002
  27 H :    0.162975
  28 H :    0.139927
  29 H :    0.157077
  30 H :    0.147828
Sum of atomic charges:   -0.0000000

LOEWDIN ATOMIC CHARGES
----------------------
   0 C :   -0.412023
   1 C :   -0.234533
   2 H :    0.158460
   3 C :   -0.292979
   4 C :   -0.286323
   5 C :   -0.183900
   6 H :    0.173767
   7 C :    0.073065
   8 H :    0.166735
   9 C :   -0.268148
  10 O :   -0.629840
  11 C :   -0.228830
  12 C :   -0.403488
  13 C :   -0.415379
  14 H :    0.152836
  15 H :    0.153529
  16 H :    0.154623
  17 H :    0.159435
  18 H :    0.158354
  19 H :    0.160668
  20 H :    0.160537
  21 H :    0.170039
  22 H :    0.157472
  23 H :    0.267645
  24 H :    0.157226
  25 H :    0.145571
  26 H :    0.163087
  27 H :    0.165503
  28 H :    0.148492
  29 H :    0.155170
  30 H :    0.153228

  Mayer bond orders larger than 0.100000
B(  0-C ,  1-C ) :   0.8879 B(  0-C , 14-H ) :   0.9783 B(  0-C , 15-H ) :   0.9752
B(  0-C , 16-H ) :   0.9956 B(  1-C ,  2-H ) :   0.9635 B(  1-C ,  3-C ) :   0.9150
B(  1-C ,  9-C ) :   0.8965 B(  3-C ,  4-C ) :   0.8795 B(  3-C , 17-H ) :   1.0149
B(  3-C , 18-H ) :   0.9487 B(  4-C ,  5-C ) :   0.9119 B(  4-C , 19-H ) :   0.9346
B(  4-C , 20-H ) :   1.0046 B(  5-C ,  6-H ) :   0.9900 B(  5-C ,  7-C ) :   0.9105
B(  5-C , 11-C ) :   0.8818 B(  7-C ,  8-H ) :   0.9861 B(  7-C ,  9-C ) :   0.8573
B(  7-C , 10-O ) :   0.8268 B(  9-C , 21-H ) :   1.0207 B(  9-C , 22-H ) :   0.9406
B( 10-O , 23-H ) :   0.8982 B( 11-C , 12-C ) :   0.8921 B( 11-C , 13-C ) :   0.8914
B( 11-C , 24-H ) :   0.9662 B( 12-C , 25-H ) :   0.9659 B( 12-C , 26-H ) :   0.9946
B( 12-C , 27-H ) :   0.9698 B( 13-C , 28-H ) :   0.9732 B( 13-C , 29-H ) :   0.9942
B( 13-C , 30-H ) :   0.9754

Dispersion correction           -0.010721904
FINAL SINGLE POINT ENERGY      -468.204359335056

DIPOLE MOMENT
-------------

Method             : SCF
Type of density    : Electron Density
Multiplicity       :   1
Irrep              :   0
Energy             :  -468.2089541972699180 Eh
Relativity type    :
Basis              : AO
                                X                 Y                 Z
Electronic contribution:      0.462422594      -3.666643431       0.617030289
Nuclear contribution   :      0.107599012       3.614309959      -0.895765602
                        -----------------------------------------
Total Dipole Moment    :      0.570021605      -0.052333472      -0.278735313
                        -----------------------------------------
Magnitude (a.u.)       :      0.636676368
Magnitude (Debye)      :      1.618302718

Rotational constants in cm-1:             0.063174             0.023330             0.018066
Rotational constants in MHz :          1893.901458           699.423543           541.609370

                             ****ORCA TERMINATED NORMALLY****
TOTAL RUN TIME: 0 days 0 hours 0 minutes 48 seconds 259 msec
