                         Program Version 6.0.0  -   RELEASE  -
|  1> ! r2scan-3c def2/J RI DEFGRID2 scfconv6 printgap
|  2> %output
|  3>     printlevel normal
|  4> end
|  5> %cpcm
|  6>     smd true
|  7>     smdsolvent "water"
|  8> end
|  9> * xyz 0 1
| 10> C 3.7482222217 0.2312696107 0.0716009331
| 11> C 2.2896081488 0.1698311734 -0.3729537022
| 12> H 2.2567224926 -0.0365797664 -1.4490237349
| 13> C 1.5663207314 1.4848675088 -0.1054670782
| 14> C 0.1184356443 1.3924813904 -0.5694627308
| 15> C -0.6770306739 0.2802496022 0.1292028595
| 16> H -0.7204856607 0.4776051068 1.2055580788
| 17> C 0.0686920178 -1.0561571497 -0.0463967219
| 18> H 0.0038244601 -1.3573565683 -1.1066858518
| 19> C 1.5435849257 -0.9376906889 0.3617308794
| 20> O -0.5418125028 -2.0456323651 0.7664558706
| 21> C -2.1222811562 0.2762507394 -0.4241198343
| 22> C -2.939528024 -0.9564125068 -0.0403373306
| 23> C -2.8846391658 1.5142208068 0.0563753228
| 24> H 4.2523219583 -0.7100848736 -0.133355189
| 25> H 4.2717772851 1.0244990964 -0.4562267678
| 26> H 3.8102977259 0.429838369 1.1392292538
| 27> H 1.5979816964 1.7046609818 0.9637726107
| 28> H 2.0645010321 2.3013737906 -0.6318766463
| 29> H -0.3672805996 2.3508477309 -0.3917418203
| 30> H 0.103053321 1.2051779504 -1.6465254611
| 31> H 1.5774118452 -0.7430404263 1.436980356
| 32> H 2.0343597552 -1.8977589673 0.1788627973
| 33> H -0.0019618855 -2.846938856 0.7415356698
| 34> H -2.0590114766 0.310000619 -1.5188082161
| 35> H -3.9669412026 -0.8325302173 -0.3773578543
| 36> H -2.93903612 -1.0932161649 1.0376818906
| 37> H -2.539503937 -1.8571422485 -0.4937018835
| 38> H -2.4165071237 2.4368907201 -0.2723535609
| 39> H -2.939425546 1.5202036594 1.1427048895
| 40> H -3.8988380872 1.498436075 -0.3355969445
| 41> *
| 42>
| 43>                          ****END OF INPUT****

CARTESIAN COORDINATES (ANGSTROEM)
---------------------------------
  C      3.748222    0.231270    0.071601
  C      2.289608    0.169831   -0.372954
  H      2.256722   -0.036580   -1.449024
  C      1.566321    1.484868   -0.105467
  C      0.118436    1.392481   -0.569463
  C     -0.677031    0.280250    0.129203
  H     -0.720486    0.477605    1.205558
  C      0.068692   -1.056157   -0.046397
  H      0.003824   -1.357357   -1.106686
  C      1.543585   -0.937691    0.361731
  O     -0.541813   -2.045632    0.766456
  C     -2.122281    0.276251   -0.424120
  C     -2.939528   -0.956413   -0.040337
  C     -2.884639    1.514221    0.056375
  H      4.252322   -0.710085   -0.133355
  H      4.271777    1.024499   -0.456227
  H      3.810298    0.429838    1.139229
  H      1.597982    1.704661    0.963773
  H      2.064501    2.301374   -0.631877
  H     -0.367281    2.350848   -0.391742
  H      0.103053    1.205178   -1.646525
  H      1.577412   -0.743040    1.436980
  H      2.034360   -1.897759    0.178863
  H     -0.001962   -2.846939    0.741536
  H     -2.059011    0.310001   -1.518808
  H     -3.966941   -0.832530   -0.377358
  H     -2.939036   -1.093216    1.037682
  H     -2.539504   -1.857142   -0.493702
  H     -2.416507    2.436891   -0.272354
  H     -2.939426    1.520204    1.142705
  H     -3.898838    1.498436   -0.335597

 Total Charge           Charge          ....    0
 Multiplicity           Mult            ....    1
 Number of Electrons    NEL             ....   88
 Basis Dimension        Dim             ....  314

ORBITAL ENERGIES
----------------

  NO   OCC          E(Eh)            E(eV)
   0   2.0000     -18.942845      -515.4610
   1   2.0000     -10.070965      -274.0449
   2   2.0000     -10.023916      -272.7646
   3   2.0000     -10.022447      -272.7246
   4   2.0000     -10.022182      -272.7174
   5   2.0000     -10.013314      -272.4761
   6   2.0000     -10.012662      -272.4584
   7   2.0000     -10.011172      -272.4178
   8   2.0000     -10.006438      -272.2890
   9   2.0000     -10.004508      -272.2365
  10   2.0000     -10.000311      -272.1223
  11   2.0000      -0.982336       -26.7307
  12   2.0000      -0.797084       -21.6898
  13   2.0000      -0.759949       -20.6793
  14   2.0000      -0.704785       -19.1782
  15   2.0000      -0.688894       -18.7458
  16   2.0000      -0.637920       -17.3587
  17   2.0000      -0.634743       -17.2722
  18   2.0000      -0.571868       -15.5613
  19   2.0000      -0.554187       -15.0802
  20   2.0000      -0.517236       -14.0747
  21   2.0000      -0.515825       -14.0363
  22   2.0000      -0.466545       -12.6953
  23   2.0000      -0.436514       -11.8782
  24   2.0000      -0.423252       -11.5173
  25   2.0000      -0.402065       -10.9407
  26   2.0000      -0.400953       -10.9105
  27   2.0000      -0.394040       -10.7224
  28   2.0000      -0.371843       -10.1184
  29   2.0000      -0.353950        -9.6315
  30   2.0000      -0.351006        -9.5514
  31   2.0000      -0.349149        -9.5008
  32   2.0000      -0.344504        -9.3744
  33   2.0000      -0.332370        -9.0442
  34   2.0000      -0.326952        -8.8968
  35   2.0000      -0.307702        -8.3730
  36   2.0000      -0.302290        -8.2257
  37   2.0000      -0.298677        -8.1274
  38   2.0000      -0.282543        -7.6884
  39   2.0000      -0.281282        -7.6541
  40   2.0000      -0.277587        -7.5535
  41   2.0000      -0.266904        -7.2628
  42   2.0000      -0.249214        -6.7815
  43   2.0000      -0.226937        -6.1753
  44   0.0000       0.080142         2.1808
  45   0.0000       0.089306         2.4301
  46   0.0000       0.098886         2.6908
  47   0.0000       0.109075         2.9681
  48   0.0000       0.120704         3.2845

MULLIKEN ATOMIC CHARGES
-----------------------
   0 C :   -0.550042
   1 C :   -0.028980
   2 H :    0.170530
   3 C :   -0.355725
   4 C :   -0.381743
   5 C :   -0.120333
   6 H :    0.193988
   7 C :   -0.025942
   8 H :    0.164304
   9 C :   -0.366490
  10 O :   -0.487267
  11 C :   -0.017212
  12 C :   -0.541687
  13 C :   -0.565853
  14 H :    0.158530
  15 H :    0.158561
  16 H :    0.162407
  17 H :    0.164014
  18 H :    0.156338
  19 H :    0.153430
  20 H :    0.171524
  21 H :    0.171229
  22 H :    0.155529
  23 H :    0.338039
  24 H :    0.159001
  25 H :    0.147380
  26 H :    0.170672
  27 H :    0.164423
  28 H :    0.156090
  29 H :    0.166346
  30 H :    0.158936
Sum of atomic charges:   -0.0000000

LOEWDIN ATOMIC CHARGES
----------------------
   0 C :   -0.421078
   1 C :   -0.231871
   2 H :    0.161850
   3 C :   -0.295950
   4 C :   -0.287656
   5 C :   -0.185696
   6 H :    0.173529
   7 C :    0.074988
   8 H :    0.173141
   9 C :   -0.267803
  10 O :   -0.662513
  11 C :   -0.227848
  12 C :   -0.414137
  13 C :   -0.423581
  14 H :    0.155721
  15 H :    0.155551
  16 H :    0.156622
  17 H :    0.161217
  18 H :    0.160141
  19 H :    0.163312
  20 H :    0.163952
  21 H :    0.169279
  22 H :    0.165895
  23 H :    0.284269
  24 H :    0.161177
  25 H :    0.149399
  26 H :    0.159146
  27 H :    0.163464
  28 H :    0.153463
  29 H :    0.156945
  30 H :    0.155071

  Mayer bond orders larger than 0.100000
B(  0-C ,  1-C ) :   0.8730 B(  0-C , 14-H ) :   0.9758 B(  0-C , 15-H ) :   0.9735
B(  0-C , 16-H ) :   0.9946 B(  1-C ,  2-H ) :   0.9612 B(  1-C ,  3-C ) :   0.9091
B(  1-C ,  9-C ) :   0.8964 B(  3-C ,  4-C ) :   0.8838 B(  3-C , 17-H ) :   1.0134
B(  3-C , 18-H ) :   0.9476 B(  4-C ,  5-C ) :   0.9150 B(  4-C , 19-H ) :   0.9352
B(  4-C , 20-H ) :   1.0028 B(  5-C ,  6-H ) :   0.9885 B(  5-C ,  7-C ) :   0.9114
B(  5-C , 11-C ) :   0.8729 B(  7-C ,  8-H ) :   0.9770 B(  7-C ,  9-C ) :   0.8852
B(  7-C , 10-O ) :   0.8130 B(  9-C , 21-H ) :   1.0153 B(  9-C , 22-H ) :   0.9385
B( 10-O , 23-H ) :   0.8740 B( 11-C , 12-C ) :   0.8714 B( 11-C , 13-C ) :   0.8839
B( 11-C , 24-H ) :   0.9628 B( 12-C , 25-H ) :   0.9649 B( 12-C , 26-H ) :   0.9998
B( 12-C , 27-H ) :   0.9700 B( 13-C , 28-H ) :   0.9691 B( 13-C , 29-H ) :   0.9915
B( 13-C , 30-H ) :   0.9738

Dispersion correction           -0.010721904
FINAL SINGLE POINT ENERGY      -468.208309616264

DIPOLE MOMENT
-------------

Method             : SCF
Type of density    : Electron Density
Multiplicity       :   1
Irrep              :   0
Energy             :  -468.2129044784780945 Eh
Relativity type    :
Basis              : AO
                                X                 Y                 Z
Electronic contribution:      0.682056490      -3.650548470       0.403850067
Nuclear contribution   :      0.107599012       3.614309959      -0.895765602
                        -----------------------------------------
Total Dipole Moment    :      0.789655501      -0.036238510      -0.491915534
                        -----------------------------------------
Magnitude (a.u.)       :      0.931047761
Magnitude (Debye)      :      2.366535337

Rotational constants in cm-1:             0.063174             0.023330             0.018066
Rotational constants in MHz :          1893.901458           699.423543           541.609370

                             ****ORCA TERMINATED NORMALLY****
TOTAL RUN TIME: 0 days 0 hours 0 minutes 59 seconds 424 msec
