                         Program Version 6.0.0  -   RELEASE  -
|  1> ! r2scan-3c def2/J RI DEFGRID2 scfconv6 printgap
|  2> %output
|  3>     printlevel normal
|  4> end
|  5> * xyz 0 1
|  6> C -2.4302875052 -1.0787636631 -0.3376430506
|  7> C -1.0781703989 -0.5917707883 0.2024561906
|  8> H -1.1287982654 -0.5648327682 1.3032838459
|  9> C -0.7375386563 0.8178999707 -0.3027755121
| 10> H -0.7059868924 0.8019438414 -1.4039597607
| 11> C 0.6516119545 1.2254190421 0.2020043699
| 12> H 0.629836003 1.2985378525 1.301336678
| 13> C 1.6778662961 0.1590129043 -0.1887771956
| 14> H 1.7651717183 0.1235767906 -1.285096797
| 15> C 1.1937338779 -1.2210906788 0.2872218382
| 16> H 1.1632369895 -1.2206156458 1.3983851271
| 17> O -0.0915575521 -1.5142107404 -0.2113445695
| 18> O 2.0759678022 -2.1696234578 -0.189106231
| 19> O 2.9043773036 0.5041646208 0.4007199411
| 20> O 0.9573715854 2.4780375179 -0.3581180224
| 21> O -1.7271426716 1.7075475359 0.1440146784
| 22> O -3.5147014969 -0.4852200486 0.3207740227
| 23> H -2.5069550276 -2.1541436093 -0.1641418749
| 24> H -2.4720974464 -0.8937731864 -1.4189255527
| 25> H 1.6885036247 -3.0539337046 -0.0977212336
| 26> H 3.5558652817 -0.1844994558 0.2016129923
| 27> H 1.8694653141 2.7065848392 -0.1261785117
| 28> H -1.4407078427 2.6105974018 -0.0634411844
| 29> H -3.3971079467 0.4792493361 0.2960110848
| 30> *
| 31>
| 32>                          ****END OF INPUT****

CARTESIAN COORDINATES (ANGSTROEM)
---------------------------------
  C     -2.430288   -1.078764   -0.337643
  C     -1.078170   -0.591771    0.202456
  H     -1.128798   -0.564833    1.303284
  C     -0.737539    0.817900   -0.302776
  H     -0.705987    0.801944   -1.403960
  C      0.651612    1.225419    0.202004
  H      0.629836    1.298538    1.301337
  C      1.677866    0.159013   -0.188777
  H      1.765172    0.123577   -1.285097
  C      1.193734   -1.221091    0.287222
  H      1.163237   -1.220616    1.398385
  O     -0.091558   -1.514211   -0.211345
  O      2.075968   -2.169623   -0.189106
  O      2.904377    0.504165    0.400720
  O      0.957372    2.478038   -0.358118
  O     -1.727143    1.707548    0.144015
  O     -3.514701   -0.485220    0.320774
  H     -2.506955   -2.154144   -0.164142
  H     -2.472097   -0.893773   -1.418926
  H      1.688504   -3.053934   -0.097721
  H      3.555865   -0.184499    0.201613
  H      1.869465    2.706585   -0.126179
  H     -1.440708    2.610597   -0.063441
  H     -3.397108    0.479249    0.296011

 Total Charge           Charge          ....    0
 Multiplicity           Mult            ....    1
 Number of Electrons    NEL             ....   96
 Basis Dimension        Dim             ....  318

ORBITAL ENERGIES
----------------

  NO   OCC          E(Eh)            E(eV)
   0   2.0000     -18.979858      -516.4682
   1   2.0000     -18.979213      -516.4507
   2   2.0000     -18.974498      -516.3224
   3   2.0000     -18.972039      -516.2554
   4   2.0000     -18.969243      -516.1794
   5   2.0000     -18.940292      -515.3915
   6   2.0000     -10.147472      -276.1267
   7   2.0000     -10.099245      -274.8144
   8   2.0000     -10.098594      -274.7967
   9   2.0000     -10.097212      -274.7591
  10   2.0000     -10.096780      -274.7474
  11   2.0000     -10.077513      -274.2231
  12   2.0000      -1.061898       -28.8957
  13   2.0000      -1.025247       -27.8984
  14   2.0000      -1.014616       -27.6091
  15   2.0000      -0.996560       -27.1178
  16   2.0000      -0.994145       -27.0521
  17   2.0000      -0.979454       -26.6523
  18   2.0000      -0.760563       -20.6960
  19   2.0000      -0.741724       -20.1833
  20   2.0000      -0.658218       -17.9110
  21   2.0000      -0.626099       -17.0370
  22   2.0000      -0.596859       -16.2414
  23   2.0000      -0.564070       -15.3491
  24   2.0000      -0.543378       -14.7861
  25   2.0000      -0.513504       -13.9731
  26   2.0000      -0.497000       -13.5241
  27   2.0000      -0.489950       -13.3322
  28   2.0000      -0.478563       -13.0224
  29   2.0000      -0.469290       -12.7700
  30   2.0000      -0.440850       -11.9961
  31   2.0000      -0.426339       -11.6013
  32   2.0000      -0.413213       -11.2441
  33   2.0000      -0.399594       -10.8735
  34   2.0000      -0.386588       -10.5196
  35   2.0000      -0.379748       -10.3335
  36   2.0000      -0.360934        -9.8215
  37   2.0000      -0.347511        -9.4563
  38   2.0000      -0.344200        -9.3662
  39   2.0000      -0.326804        -8.8928
  40   2.0000      -0.316748        -8.6191
  41   2.0000      -0.292694        -7.9646
  42   2.0000      -0.278711        -7.5841
  43   2.0000      -0.270603        -7.3635
  44   2.0000      -0.259773        -7.0688
  45   2.0000      -0.255642        -6.9564
  46   2.0000      -0.237725        -6.4688
  47   2.0000      -0.230911        -6.2834
  48   0.0000       0.020968         0.5706
  49   0.0000       0.041619         1.1325
  50   0.0000       0.068710         1.8697
  51   0.0000       0.076200         2.0735
  52   0.0000       0.083473         2.2714

MULLIKEN ATOMIC CHARGES
-----------------------
   0 C :   -0.241976
   1 C :   -0.094429
   2 H :    0.187556
   3 C :   -0.007375
   4 H :    0.171531
   5 C :   -0.036784
   6 H :    0.169923
   7 C :    0.052842
   8 H :    0.171269
   9 C :   -0.044727
  10 H :    0.145845
  11 O :   -0.202468
  12 O :   -0.402323
  13 O :   -0.444389
  14 O :   -0.444867
  15 O :   -0.433450
  16 O :   -0.413919
  17 H :    0.148213
  18 H :    0.136774
  19 H :    0.313450
  20 H :    0.315124
  21 H :    0.316053
  22 H :    0.318650
  23 H :    0.319474
Sum of atomic charges:    0.0000000

LOEWDIN ATOMIC CHARGES
----------------------
   0 C :    0.049781
   1 C :    0.122538
   2 H :    0.188800
   3 C :    0.115650
   4 H :    0.185568
   5 C :    0.108364
   6 H :    0.186434
   7 C :    0.116476
   8 H :    0.189255
   9 C :    0.297060
  10 H :    0.180248
  11 O :   -0.682975
  12 O :   -0.503670
  13 O :   -0.572162
  14 O :   -0.575587
  15 O :   -0.585154
  16 O :   -0.597646
  17 H :    0.187105
  18 H :    0.164914
  19 H :    0.286930
  20 H :    0.283915
  21 H :    0.284456
  22 H :    0.288233
  23 H :    0.281466

  Mayer bond orders larger than 0.100000
B(  0-C ,  1-C ) :   0.9194 B(  0-C , 16-O ) :   1.0145 B(  0-C , 17-H ) :   0.9744
B(  0-C , 18-H ) :   0.9864 B(  1-C ,  2-H ) :   0.9605 B(  1-C ,  3-C ) :   0.8310
B(  1-C , 11-O ) :   0.7961 B(  3-C ,  4-H ) :   0.9577 B(  3-C ,  5-C ) :   0.8758
B(  3-C , 15-O ) :   0.8764 B(  5-C ,  6-H ) :   0.9854 B(  5-C ,  7-C ) :   0.8599
B(  5-C , 14-O ) :   0.9158 B(  7-C ,  8-H ) :   0.9692 B(  7-C ,  9-C ) :   0.8099
B(  7-C , 13-O ) :   0.9078 B(  9-C , 10-H ) :   1.0044 B(  9-C , 11-O ) :   0.9125
B(  9-C , 12-O ) :   1.0460 B( 12-O , 19-H ) :   0.8768 B( 13-O , 20-H ) :   0.8805
B( 14-O , 21-H ) :   0.8776 B( 15-O , 22-H ) :   0.8742 B( 16-O , 23-H ) :   0.8503

Dispersion correction           -0.007995799
FINAL SINGLE POINT ENERGY      -687.079989119520

DIPOLE MOMENT
-------------

Method             : SCF
Type of density    : Electron Density
Multiplicity       :   1
Irrep              :   0
Energy             :  -687.0918165028507474 Eh
Relativity type    :
Basis              : AO
                                X                 Y                 Z
Electronic contribution:      1.904628663       0.038540486       0.025601596
Nuclear contribution   :     -0.910054896      -0.040422084      -0.053613155
                        -----------------------------------------
Total Dipole Moment    :      0.994573767      -0.001881598      -0.028011560
                        -----------------------------------------
Magnitude (a.u.)       :      0.994969933
Magnitude (Debye)      :      2.529012585

Rotational constants in cm-1:             0.043810             0.024517             0.016457
Rotational constants in MHz :          1313.375831           734.986942           493.357459

                             ****ORCA TERMINATED NORMALLY****
TOTAL RUN TIME: 0 days 0 hours 0 minutes 49 seconds 136 msec
