                         Program Version 6.0.0  -   RELEASE  -
|  1> ! r2scan-3c def2/J RI DEFGRID2 scfconv6 printgap
|  2> %output
|  3>     printlevel normal
|  4> end
|  5> %cpcm
|  6>     smd true
|  7>     smdsolvent "water"
|  8> end
|  9> * xyz 0 1
| 10> C -2.4302875052 -1.0787636631 -0.3376430506
| 11> C -1.0781703989 -0.5917707883 0.2024561906
| 12> H -1.1287982654 -0.5648327682 1.3032838459
| 13> C -0.7375386563 0.8178999707 -0.3027755121
| 14> H -0.7059868924 0.8019438414 -1.4039597607
| 15> C 0.6516119545 1.2254190421 0.2020043699
| 16> H 0.629836003 1.2985378525 1.301336678
| 17> C 1.6778662961 0.1590129043 -0.1887771956
| 18> H 1.7651717183 0.1235767906 -1.285096797
| 19> C 1.1937338779 -1.2210906788 0.2872218382
| 20> H 1.1632369895 -1.2206156458 1.3983851271
| 21> O -0.0915575521 -1.5142107404 -0.2113445695
| 22> O 2.0759678022 -2.1696234578 -0.189106231
| 23> O 2.9043773036 0.5041646208 0.4007199411
| 24> O 0.9573715854 2.4780375179 -0.3581180224
| 25> O -1.7271426716 1.7075475359 0.1440146784
| 26> O -3.5147014969 -0.4852200486 0.3207740227
| 27> H -2.5069550276 -2.1541436093 -0.1641418749
| 28> H -2.4720974464 -0.8937731864 -1.4189255527
| 29> H 1.6885036247 -3.0539337046 -0.0977212336
| 30> H 3.5558652817 -0.1844994558 0.2016129923
| 31> H 1.8694653141 2.7065848392 -0.1261785117
| 32> H -1.4407078427 2.6105974018 -0.0634411844
| 33> H -3.3971079467 0.4792493361 0.2960110848
| 34> *
| 35>
| 36>                          ****END OF INPUT****

CARTESIAN COORDINATES (ANGSTROEM)
---------------------------------
  C     -2.430288   -1.078764   -0.337643
  C     -1.078170   -0.591771    0.202456
  H     -1.128798   -0.564833    1.303284
  C     -0.737539    0.817900   -0.302776
  H     -0.705987    0.801944   -1.403960
  C      0.651612    1.225419    0.202004
  H      0.629836    1.298538    1.301337
  C      1.677866    0.159013   -0.188777
  H      1.765172    0.123577   -1.285097
  C      1.193734   -1.221091    0.287222
  H      1.163237   -1.220616    1.398385
  O     -0.091558   -1.514211   -0.211345
  O      2.075968   -2.169623   -0.189106
  O      2.904377    0.504165    0.400720
  O      0.957372    2.478038   -0.358118
  O     -1.727143    1.707548    0.144015
  O     -3.514701   -0.485220    0.320774
  H     -2.506955   -2.154144   -0.164142
  H     -2.472097   -0.893773   -1.418926
  H      1.688504   -3.053934   -0.097721
  H      3.555865   -0.184499    0.201613
  H      1.869465    2.706585   -0.126179
  H     -1.440708    2.610597   -0.063441
  H     -3.397108    0.479249    0.296011

 Total Charge           Charge          ....    0
 Multiplicity           Mult            ....    1
 Number of Electrons    NEL             ....   96
 Basis Dimension        Dim             ....  318

ORBITAL ENERGIES
----------------

  NO   OCC          E(Eh)            E(eV)
   0   2.0000     -18.976991      -516.3902
   1   2.0000     -18.970109      -516.2029
   2   2.0000     -18.967043      -516.1195
   3   2.0000     -18.964408      -516.0478
   4   2.0000     -18.962176      -515.9870
   5   2.0000     -18.954117      -515.7677
   6   2.0000     -10.137546      -275.8566
   7   2.0000     -10.091150      -274.5941
   8   2.0000     -10.089620      -274.5525
   9   2.0000     -10.088120      -274.5117
  10   2.0000     -10.087290      -274.4891
  11   2.0000     -10.076987      -274.2088
  12   2.0000      -1.055503       -28.7217
  13   2.0000      -1.017643       -27.6915
  14   2.0000      -1.007981       -27.4286
  15   2.0000      -0.992735       -27.0137
  16   2.0000      -0.989155       -26.9163
  17   2.0000      -0.984317       -26.7846
  18   2.0000      -0.751857       -20.4591
  19   2.0000      -0.735603       -20.0168
  20   2.0000      -0.653441       -17.7810
  21   2.0000      -0.617176       -16.7942
  22   2.0000      -0.592958       -16.1352
  23   2.0000      -0.554752       -15.0956
  24   2.0000      -0.534519       -14.5450
  25   2.0000      -0.505448       -13.7539
  26   2.0000      -0.488512       -13.2931
  27   2.0000      -0.480482       -13.0746
  28   2.0000      -0.479322       -13.0430
  29   2.0000      -0.460398       -12.5281
  30   2.0000      -0.433490       -11.7959
  31   2.0000      -0.423427       -11.5220
  32   2.0000      -0.409538       -11.1441
  33   2.0000      -0.395758       -10.7691
  34   2.0000      -0.382214       -10.4006
  35   2.0000      -0.380598       -10.3566
  36   2.0000      -0.356296        -9.6953
  37   2.0000      -0.343820        -9.3558
  38   2.0000      -0.339260        -9.2317
  39   2.0000      -0.327999        -8.9253
  40   2.0000      -0.312359        -8.4997
  41   2.0000      -0.292293        -7.9537
  42   2.0000      -0.275141        -7.4870
  43   2.0000      -0.266710        -7.2575
  44   2.0000      -0.253908        -6.9092
  45   2.0000      -0.250012        -6.8032
  46   2.0000      -0.245409        -6.6779
  47   2.0000      -0.228913        -6.2290
  48   0.0000       0.031487         0.8568
  49   0.0000       0.059953         1.6314
  50   0.0000       0.084686         2.3044
  51   0.0000       0.089784         2.4432
  52   0.0000       0.097598         2.6558

MULLIKEN ATOMIC CHARGES
-----------------------
   0 C :   -0.250791
   1 C :   -0.089068
   2 H :    0.208408
   3 C :   -0.011580
   4 H :    0.190082
   5 C :   -0.017964
   6 H :    0.184891
   7 C :    0.051382
   8 H :    0.185967
   9 C :   -0.060583
  10 H :    0.169794
  11 O :   -0.243990
  12 O :   -0.452037
  13 O :   -0.495484
  14 O :   -0.496691
  15 O :   -0.481153
  16 O :   -0.489224
  17 H :    0.165395
  18 H :    0.158168
  19 H :    0.360032
  20 H :    0.353509
  21 H :    0.352343
  22 H :    0.353642
  23 H :    0.354953
Sum of atomic charges:    0.0000000

LOEWDIN ATOMIC CHARGES
----------------------
   0 C :    0.045786
   1 C :    0.123854
   2 H :    0.196390
   3 C :    0.116784
   4 H :    0.192442
   5 C :    0.109488
   6 H :    0.193603
   7 C :    0.116479
   8 H :    0.194119
   9 C :    0.299917
  10 H :    0.191562
  11 O :   -0.698496
  12 O :   -0.518655
  13 O :   -0.589056
  14 O :   -0.594605
  15 O :   -0.596824
  16 O :   -0.634258
  17 H :    0.192248
  18 H :    0.174062
  19 H :    0.302915
  20 H :    0.296742
  21 H :    0.296069
  22 H :    0.299860
  23 H :    0.289572

  Mayer bond orders larger than 0.100000
B(  0-C ,  1-C ) :   0.9091 B(  0-C , 16-O ) :   0.9923 B(  0-C , 17-H ) :   0.9702
B(  0-C , 18-H ) :   0.9763 B(  1-C ,  2-H ) :   0.9562 B(  1-C ,  3-C ) :   0.8346
B(  1-C , 11-O ) :   0.7992 B(  3-C ,  4-H ) :   0.9535 B(  3-C ,  5-C ) :   0.8852
B(  3-C , 15-O ) :   0.8645 B(  5-C ,  6-H ) :   0.9672 B(  5-C ,  7-C ) :   0.8824
B(  5-C , 14-O ) :   0.9012 B(  7-C ,  8-H ) :   0.9580 B(  7-C ,  9-C ) :   0.8249
B(  7-C , 13-O ) :   0.8910 B(  9-C , 10-H ) :   0.9992 B(  9-C , 11-O ) :   0.9159
B(  9-C , 12-O ) :   1.0476 B( 12-O , 19-H ) :   0.8526 B( 13-O , 20-H ) :   0.8611
B( 14-O , 21-H ) :   0.8597 B( 15-O , 22-H ) :   0.8563 B( 16-O , 23-H ) :   0.8322

Dispersion correction           -0.007995799
FINAL SINGLE POINT ENERGY      -687.108509782723

DIPOLE MOMENT
-------------

Method             : SCF
Type of density    : Electron Density
Multiplicity       :   1
Irrep              :   0
Energy             :  -687.1203371660541279 Eh
Relativity type    :
Basis              : AO
                                X                 Y                 Z
Electronic contribution:      2.177290665       0.014313601       0.059950500
Nuclear contribution   :     -0.910054896      -0.040422084      -0.053613155
                        -----------------------------------------
Total Dipole Moment    :      1.267235769      -0.026108483       0.006337345
                        -----------------------------------------
Magnitude (a.u.)       :      1.267520536
Magnitude (Debye)      :      3.221781163

Rotational constants in cm-1:             0.043810             0.024517             0.016457
Rotational constants in MHz :          1313.375831           734.986942           493.357459

                             ****ORCA TERMINATED NORMALLY****
TOTAL RUN TIME: 0 days 0 hours 0 minutes 57 seconds 775 msec
