                         Program Version 6.0.0  -   RELEASE  -
|  1> ! pbe def2-sv(p) def2/J RI DEFGRID1 loosescf d4 GCP(DFT/SV(P)) printgap
|  2> %output
|  3>     printlevel normal
|  4> end
|  5> * xyz 0 1
|  6> C -2.4477588025 -0.8572752972 -0.2520941996
|  7> C -1.1167639805 -0.6148254983 0.4904487254
|  8> H -1.1786238993 -1.0356123504 1.5058735381
|  9> C -0.7582435632 0.8851247312 0.604564655
| 10> H -1.6423990547 1.482779128 0.3578885855
| 11> C 0.3488966878 1.2031059156 -0.4269042275
| 12> H 0.5838013101 2.2713184915 -0.3834389544
| 13> C 1.6139642814 0.4017668832 -0.0654674495
| 14> H 2.2833672965 0.3697863847 -0.9324389815
| 15> C 1.1992626479 -1.056175253 0.2601114475
| 16> H 1.2141827671 -1.1920831756 1.3601966127
| 17> O -0.1074472491 -1.3297846812 -0.2153484447
| 18> O 2.0700073333 -1.9180680374 -0.3720884975
| 19> O 2.348641609 0.9904297078 0.9687253064
| 20> O -0.0862942658 0.9351336985 -1.7372433919
| 21> O -0.2665183779 1.2109579528 1.8859208054
| 22> O -2.8411467541 0.1836964016 -1.1074863995
| 23> H -3.258205628 -0.955363583 0.4719212082
| 24> H -2.3452319717 -1.8011025238 -0.8022309765
| 25> H 1.7829435047 -2.836605688 -0.246093715
| 26> H 1.7427875707 1.1922997312 1.7029030007
| 27> H 0.0301090693 -0.0149232728 -1.9043662499
| 28> H -0.99704572 1.4243285528 2.4824404333
| 29> H -2.1195711062 0.4026155836 -1.7222300806
| 30> *
| 31>
| 32>                          ****END OF INPUT****

CARTESIAN COORDINATES (ANGSTROEM)
---------------------------------
  C     -2.447759   -0.857275   -0.252094
  C     -1.116764   -0.614825    0.490449
  H     -1.178624   -1.035612    1.505874
  C     -0.758244    0.885125    0.604565
  H     -1.642399    1.482779    0.357889
  C      0.348897    1.203106   -0.426904
  H      0.583801    2.271318   -0.383439
  C      1.613964    0.401767   -0.065467
  H      2.283367    0.369786   -0.932439
  C      1.199263   -1.056175    0.260111
  H      1.214183   -1.192083    1.360197
  O     -0.107447   -1.329785   -0.215348
  O      2.070007   -1.918068   -0.372088
  O      2.348642    0.990430    0.968725
  O     -0.086294    0.935134   -1.737243
  O     -0.266518    1.210958    1.885921
  O     -2.841147    0.183696   -1.107486
  H     -3.258206   -0.955364    0.471921
  H     -2.345232   -1.801103   -0.802231
  H      1.782944   -2.836606   -0.246094
  H      1.742788    1.192300    1.702903
  H      0.030109   -0.014923   -1.904366
  H     -0.997046    1.424329    2.482440
  H     -2.119571    0.402616   -1.722230

 Total Charge           Charge          ....    0
 Multiplicity           Mult            ....    1
 Number of Electrons    NEL             ....   96
 Basis Dimension        Dim             ....  192

ORBITAL ENERGIES
----------------

  NO   OCC          E(Eh)            E(eV)
   0   2.0000     -18.783795      -511.1330
   1   2.0000     -18.782985      -511.1110
   2   2.0000     -18.769189      -510.7356
   3   2.0000     -18.766041      -510.6499
   4   2.0000     -18.746000      -510.1046
   5   2.0000     -18.739547      -509.9290
   6   2.0000      -9.988877      -271.8112
   7   2.0000      -9.953446      -270.8470
   8   2.0000      -9.953210      -270.8406
   9   2.0000      -9.949459      -270.7385
  10   2.0000      -9.939648      -270.4716
  11   2.0000      -9.938739      -270.4468
  12   2.0000      -0.994006       -27.0483
  13   2.0000      -0.958727       -26.0883
  14   2.0000      -0.944234       -25.6939
  15   2.0000      -0.928121       -25.2555
  16   2.0000      -0.918882       -25.0041
  17   2.0000      -0.916576       -24.9413
  18   2.0000      -0.705717       -19.2035
  19   2.0000      -0.690536       -18.7904
  20   2.0000      -0.628016       -17.0892
  21   2.0000      -0.591291       -16.0899
  22   2.0000      -0.569630       -15.5004
  23   2.0000      -0.530899       -14.4465
  24   2.0000      -0.511246       -13.9117
  25   2.0000      -0.500482       -13.6188
  26   2.0000      -0.489189       -13.3115
  27   2.0000      -0.470801       -12.8111
  28   2.0000      -0.458046       -12.4641
  29   2.0000      -0.434246       -11.8164
  30   2.0000      -0.411382       -11.1943
  31   2.0000      -0.401433       -10.9235
  32   2.0000      -0.394371       -10.7314
  33   2.0000      -0.376918       -10.2565
  34   2.0000      -0.364089        -9.9074
  35   2.0000      -0.355820        -9.6823
  36   2.0000      -0.335090        -9.1183
  37   2.0000      -0.327682        -8.9167
  38   2.0000      -0.316090        -8.6012
  39   2.0000      -0.307740        -8.3740
  40   2.0000      -0.283486        -7.7140
  41   2.0000      -0.268717        -7.3122
  42   2.0000      -0.266964        -7.2645
  43   2.0000      -0.258934        -7.0459
  44   2.0000      -0.245135        -6.6705
  45   2.0000      -0.220820        -6.0088
  46   2.0000      -0.218213        -5.9379
  47   2.0000      -0.205328        -5.5873
  48   0.0000      -0.001545        -0.0420
  49   0.0000       0.020717         0.5637
  50   0.0000       0.033902         0.9225
  51   0.0000       0.050270         1.3679
  52   0.0000       0.058259         1.5853

MULLIKEN ATOMIC CHARGES
-----------------------
   0 C :    0.087655
   1 C :   -0.011385
   2 H :    0.057123
   3 C :   -0.008604
   4 H :    0.096493
   5 C :    0.034965
   6 H :    0.088081
   7 C :    0.057243
   8 H :    0.084418
   9 C :    0.181163
  10 H :    0.039917
  11 O :   -0.322507
  12 O :   -0.374267
  13 O :   -0.424783
  14 O :   -0.421697
  15 O :   -0.426380
  16 O :   -0.436243
  17 H :    0.083474
  18 H :    0.084781
  19 H :    0.304243
  20 H :    0.305244
  21 H :    0.313534
  22 H :    0.318163
  23 H :    0.289368
Sum of atomic charges:   -0.0000000

LOEWDIN ATOMIC CHARGES
----------------------
   0 C :   -0.124383
   1 C :   -0.081750
   2 H :    0.105523
   3 C :   -0.088231
   4 H :    0.117576
   5 C :   -0.069494
   6 H :    0.122109
   7 C :   -0.083343
   8 H :    0.124750
   9 C :   -0.003683
  10 H :    0.083053
  11 O :   -0.169222
  12 O :   -0.288566
  13 O :   -0.312435
  14 O :   -0.302587
  15 O :   -0.314898
  16 O :   -0.336789
  17 H :    0.115177
  18 H :    0.105086
  19 H :    0.288173
  20 H :    0.273202
  21 H :    0.276232
  22 H :    0.297512
  23 H :    0.266989

  Mayer bond orders larger than 0.100000
B(  0-C ,  1-C ) :   1.0135 B(  0-C , 16-O ) :   1.1091 B(  0-C , 17-H ) :   0.9221
B(  0-C , 18-H ) :   0.9148 B(  1-C ,  2-H ) :   0.8833 B(  1-C ,  3-C ) :   0.9687
B(  1-C , 11-O ) :   0.9865 B(  3-C ,  4-H ) :   0.8873 B(  3-C ,  5-C ) :   0.9859
B(  3-C , 15-O ) :   1.0294 B(  5-C ,  6-H ) :   0.8940 B(  5-C ,  7-C ) :   0.9979
B(  5-C , 14-O ) :   1.0265 B(  7-C ,  8-H ) :   0.8859 B(  7-C ,  9-C ) :   0.9641
B(  7-C , 13-O ) :   1.0707 B(  9-C , 10-H ) :   0.8768 B(  9-C , 11-O ) :   1.0050
B(  9-C , 12-O ) :   1.1752 B( 12-O , 19-H ) :   0.8400 B( 13-O , 20-H ) :   0.8175
B( 14-O , 21-H ) :   0.8086 B( 14-O , 23-H ) :   0.1137 B( 15-O , 22-H ) :   0.8410
B( 16-O , 23-H ) :   0.7997

Dispersion correction           -0.025621031
FINAL SINGLE POINT ENERGY      -685.692612931353

DIPOLE MOMENT
-------------

Method             : SCF
Type of density    : Electron Density
Multiplicity       :   1
Irrep              :   0
Energy             :  -685.8270043438021730 Eh
Relativity type    :
Basis              : AO
                                X                 Y                 Z
Electronic contribution:      2.887721395       0.041729724      -0.801094829
Nuclear contribution   :     -3.645957683      -0.648669599       1.764984027
                        -----------------------------------------
Total Dipole Moment    :     -0.758236288      -0.606939875       0.963889199
                        -----------------------------------------
Magnitude (a.u.)       :      1.368349615
Magnitude (Debye)      :      3.478068313

Rotational constants in cm-1:             0.043906             0.026873             0.023212
Rotational constants in MHz :          1316.266716           805.617498           695.877748

                             ****ORCA TERMINATED NORMALLY****
TOTAL RUN TIME: 0 days 0 hours 0 minutes 12 seconds 306 msec
