                         Program Version 6.0.0  -   RELEASE  -
|  1> ! pbe def2-sv(p) def2/J RI DEFGRID1 loosescf d4 GCP(DFT/SV(P)) printgap
|  2> %output
|  3>     printlevel normal
|  4> end
|  5> * xyz 0 1
|  6> C -2.0871129417 -1.0428674289 -0.2153510568
|  7> C -1.105530909 -0.4193401983 0.800774264
|  8> H -1.5990918782 -0.4303808319 1.7796959741
|  9> C -0.7737500635 1.051934996 0.4935159696
| 10> H -1.6587852954 1.4829047859 0.0036622899
| 11> C 0.4543887062 1.2621391465 -0.42510702
| 12> H 0.8200798807 2.2892357039 -0.2458925419
| 13> C 1.5969547098 0.3181087202 -0.0185049499
| 14> H 2.3625522493 0.344693803 -0.799636757
| 15> C 1.1003262955 -1.1324090365 0.1119962435
| 16> H 1.9043353193 -1.7169794009 0.5817071747
| 17> O 0.0408839906 -1.2358063238 1.0291834293
| 18> O 0.7740327061 -1.6337596129 -1.1471537718
| 19> O 2.2081419044 0.7330103313 1.1730112336
| 20> O 0.2064267635 1.0765789036 -1.7903025858
| 21> O -0.5418303547 1.6747224368 1.7417540657
| 22> O -1.8805600507 -0.6849190339 -1.5544912987
| 23> H -3.0971979876 -0.7035336062 0.0254659678
| 24> H -2.0449211572 -2.1327740342 -0.085700842
| 25> H 0.7278684918 -2.6016943253 -1.1194896913
| 26> H 1.5357079577 0.7630715664 1.87496054
| 27> H -0.5489712425 1.6140359155 -2.070517632
| 28> H -0.5503150413 2.6376242224 1.6434239118
| 29> H -0.954131314 -0.8799441879 -1.7944924828
| 30> *
| 31>
| 32>                          ****END OF INPUT****

CARTESIAN COORDINATES (ANGSTROEM)
---------------------------------
  C     -2.087113   -1.042867   -0.215351
  C     -1.105531   -0.419340    0.800774
  H     -1.599092   -0.430381    1.779696
  C     -0.773750    1.051935    0.493516
  H     -1.658785    1.482905    0.003662
  C      0.454389    1.262139   -0.425107
  H      0.820080    2.289236   -0.245893
  C      1.596955    0.318109   -0.018505
  H      2.362552    0.344694   -0.799637
  C      1.100326   -1.132409    0.111996
  H      1.904335   -1.716979    0.581707
  O      0.040884   -1.235806    1.029183
  O      0.774033   -1.633760   -1.147154
  O      2.208142    0.733010    1.173011
  O      0.206427    1.076579   -1.790303
  O     -0.541830    1.674722    1.741754
  O     -1.880560   -0.684919   -1.554491
  H     -3.097198   -0.703534    0.025466
  H     -2.044921   -2.132774   -0.085701
  H      0.727868   -2.601694   -1.119490
  H      1.535708    0.763072    1.874961
  H     -0.548971    1.614036   -2.070518
  H     -0.550315    2.637624    1.643424
  H     -0.954131   -0.879944   -1.794492

 Total Charge           Charge          ....    0
 Multiplicity           Mult            ....    1
 Number of Electrons    NEL             ....   96
 Basis Dimension        Dim             ....  192

ORBITAL ENERGIES
----------------

  NO   OCC          E(Eh)            E(eV)
   0   2.0000     -18.778631      -510.9925
   1   2.0000     -18.770794      -510.7793
   2   2.0000     -18.766337      -510.6580
   3   2.0000     -18.757811      -510.4260
   4   2.0000     -18.744752      -510.0706
   5   2.0000     -18.728913      -509.6396
   6   2.0000      -9.986661      -271.7509
   7   2.0000      -9.954513      -270.8761
   8   2.0000      -9.947247      -270.6783
   9   2.0000      -9.944072      -270.5920
  10   2.0000      -9.939834      -270.4766
  11   2.0000      -9.927020      -270.1279
  12   2.0000      -0.986484       -26.8436
  13   2.0000      -0.950374       -25.8610
  14   2.0000      -0.934784       -25.4368
  15   2.0000      -0.923672       -25.1344
  16   2.0000      -0.917156       -24.9571
  17   2.0000      -0.904601       -24.6154
  18   2.0000      -0.703426       -19.1412
  19   2.0000      -0.688851       -18.7446
  20   2.0000      -0.618147       -16.8206
  21   2.0000      -0.596011       -16.2183
  22   2.0000      -0.570840       -15.5333
  23   2.0000      -0.528770       -14.3886
  24   2.0000      -0.494762       -13.4632
  25   2.0000      -0.487221       -13.2579
  26   2.0000      -0.474390       -12.9088
  27   2.0000      -0.463499       -12.6124
  28   2.0000      -0.452272       -12.3069
  29   2.0000      -0.435636       -11.8543
  30   2.0000      -0.414841       -11.2884
  31   2.0000      -0.397712       -10.8223
  32   2.0000      -0.381905       -10.3922
  33   2.0000      -0.365806        -9.9541
  34   2.0000      -0.361216        -9.8292
  35   2.0000      -0.348977        -9.4962
  36   2.0000      -0.339627        -9.2417
  37   2.0000      -0.332282        -9.0418
  38   2.0000      -0.293819        -7.9952
  39   2.0000      -0.289629        -7.8812
  40   2.0000      -0.282068        -7.6755
  41   2.0000      -0.272854        -7.4247
  42   2.0000      -0.265033        -7.2119
  43   2.0000      -0.245537        -6.6814
  44   2.0000      -0.236259        -6.4289
  45   2.0000      -0.217932        -5.9302
  46   2.0000      -0.211925        -5.7668
  47   2.0000      -0.198707        -5.4071
  48   0.0000       0.006366         0.1732
  49   0.0000       0.011299         0.3075
  50   0.0000       0.030091         0.8188
  51   0.0000       0.053964         1.4684
  52   0.0000       0.063902         1.7389

MULLIKEN ATOMIC CHARGES
-----------------------
   0 C :    0.035871
   1 C :    0.049563
   2 H :    0.081024
   3 C :    0.003873
   4 H :    0.068113
   5 C :    0.040656
   6 H :    0.054127
   7 C :    0.080664
   8 H :    0.087040
   9 C :    0.151819
  10 H :    0.074841
  11 O :   -0.313519
  12 O :   -0.392426
  13 O :   -0.426913
  14 O :   -0.397055
  15 O :   -0.417536
  16 O :   -0.462547
  17 H :    0.079619
  18 H :    0.067732
  19 H :    0.313561
  20 H :    0.300148
  21 H :    0.302277
  22 H :    0.305862
  23 H :    0.313205
Sum of atomic charges:    0.0000000

LOEWDIN ATOMIC CHARGES
----------------------
   0 C :   -0.136616
   1 C :   -0.070391
   2 H :    0.126923
   3 C :   -0.077733
   4 H :    0.106761
   5 C :   -0.082325
   6 H :    0.095832
   7 C :   -0.069616
   8 H :    0.126016
   9 C :   -0.014054
  10 H :    0.105035
  11 O :   -0.148202
  12 O :   -0.294807
  13 O :   -0.312264
  14 O :   -0.299769
  15 O :   -0.311904
  16 O :   -0.352282
  17 H :    0.112932
  18 H :    0.095001
  19 H :    0.293009
  20 H :    0.274107
  21 H :    0.283785
  22 H :    0.288330
  23 H :    0.262230

  Mayer bond orders larger than 0.100000
B(  0-C ,  1-C ) :   1.0416 B(  0-C , 16-O ) :   1.1153 B(  0-C , 17-H ) :   0.9164
B(  0-C , 18-H ) :   0.9132 B(  1-C ,  2-H ) :   0.8849 B(  1-C ,  3-C ) :   0.9908
B(  1-C , 11-O ) :   1.0010 B(  3-C ,  4-H ) :   0.8939 B(  3-C ,  5-C ) :   0.9574
B(  3-C , 15-O ) :   1.0261 B(  5-C ,  6-H ) :   0.9016 B(  5-C ,  7-C ) :   0.9808
B(  5-C , 14-O ) :   1.0869 B(  7-C ,  8-H ) :   0.8838 B(  7-C ,  9-C ) :   1.0062
B(  7-C , 13-O ) :   1.0648 B(  9-C , 10-H ) :   0.9042 B(  9-C , 11-O ) :   1.0592
B(  9-C , 12-O ) :   1.0912 B( 12-O , 19-H ) :   0.8327 B( 13-O , 20-H ) :   0.8205
B( 14-O , 21-H ) :   0.8329 B( 15-O , 22-H ) :   0.8412 B( 16-O , 23-H ) :   0.7809

Dispersion correction           -0.026616816
FINAL SINGLE POINT ENERGY      -685.697553397012

DIPOLE MOMENT
-------------

Method             : SCF
Type of density    : Electron Density
Multiplicity       :   1
Irrep              :   0
Energy             :  -685.8306683984274059 Eh
Relativity type    :
Basis              : AO
                                X                 Y                 Z
Electronic contribution:      2.471355416      -0.307135748       0.319400685
Nuclear contribution   :     -2.899063229       0.624025276      -0.202145123
                        -----------------------------------------
Total Dipole Moment    :     -0.427707813       0.316889528       0.117255562
                        -----------------------------------------
Magnitude (a.u.)       :      0.545070466
Magnitude (Debye)      :      1.385459020

Rotational constants in cm-1:             0.039729             0.031452             0.028020
Rotational constants in MHz :          1191.054845           942.905247           840.006354

                             ****ORCA TERMINATED NORMALLY****
TOTAL RUN TIME: 0 days 0 hours 0 minutes 11 seconds 875 msec
