                         Program Version 6.0.0  -   RELEASE  -
|  1> ! pbe def2-sv(p) def2/J RI DEFGRID1 loosescf d4 GCP(DFT/SV(P)) printgap
|  2> %output
|  3>     printlevel normal
|  4> end
|  5> * xyz 0 1
|  6> C -1.2628034104 1.2592312639 0.7260818845
|  7> C -0.5212155203 0.3151987126 0.0292716797
|  8> C -1.1742375628 -0.7486483001 -0.5922819546
|  9> C -2.558858101 -0.8712154029 -0.5042731669
| 10> C -3.2978447594 0.0749254556 0.2033234866
| 11> C -2.6402762201 1.141467024 0.8144206046
| 12> Cl -3.548575716 2.3140024852 1.6824774767
| 13> Cl -5.0063916093 -0.0784155938 0.3129818273
| 14> Cl -3.3599789885 -2.1863185766 -1.2689250867
| 15> Cl -0.2758372641 -1.9056115139 -1.493597815
| 16> C 0.9502983393 0.4421065443 -0.0634686627
| 17> C 1.5381590278 1.4458641781 -0.8330538465
| 18> C 2.9147188054 1.5641448455 -0.9376218205
| 19> C 3.7264169891 0.6667280154 -0.2620222556
| 20> C 3.169605323 -0.3449784945 0.5197455222
| 21> C 1.7836822977 -0.4472345592 0.6129761458
| 22> Cl 1.0870909172 -1.676761734 1.5929643636
| 23> Cl 4.1782701902 -1.4571387061 1.3606167607
| 24> Cl 5.4343170275 0.7995693423 -0.3880003805
| 25> Cl 0.5272855792 2.5410871411 -1.6918587973
| 26> H -0.7640750701 2.0847948217 1.2068934266
| 27> H 3.3532793873 2.3424981245 -1.5396386525
| 28> *
| 29>
| 30>                          ****END OF INPUT****

CARTESIAN COORDINATES (ANGSTROEM)
---------------------------------
  C     -1.262803    1.259231    0.726082
  C     -0.521216    0.315199    0.029272
  C     -1.174238   -0.748648   -0.592282
  C     -2.558858   -0.871215   -0.504273
  C     -3.297845    0.074925    0.203323
  C     -2.640276    1.141467    0.814421
  Cl    -3.548576    2.314002    1.682477
  Cl    -5.006392   -0.078416    0.312982
  Cl    -3.359979   -2.186319   -1.268925
  Cl    -0.275837   -1.905612   -1.493598
  C      0.950298    0.442107   -0.063469
  C      1.538159    1.445864   -0.833054
  C      2.914719    1.564145   -0.937622
  C      3.726417    0.666728   -0.262022
  C      3.169605   -0.344978    0.519746
  C      1.783682   -0.447235    0.612976
  Cl     1.087091   -1.676762    1.592964
  Cl     4.178270   -1.457139    1.360617
  Cl     5.434317    0.799569   -0.388000
  Cl     0.527286    2.541087   -1.691859
  H     -0.764075    2.084795    1.206893
  H      3.353279    2.342498   -1.539639

 Total Charge           Charge          ....    0
 Multiplicity           Mult            ....    1
 Number of Electrons    NEL             ....  210
 Basis Dimension        Dim             ....  316

ORBITAL ENERGIES
----------------

  NO   OCC          E(Eh)            E(eV)
   0   2.0000    -100.664530     -2739.2211
   1   2.0000    -100.664080     -2739.2089
   2   2.0000    -100.663941     -2739.2051
   3   2.0000    -100.662155     -2739.1565
   4   2.0000    -100.661556     -2739.1402
   5   2.0000    -100.661020     -2739.1256
   6   2.0000    -100.660898     -2739.1223
   7   2.0000    -100.659233     -2739.0770
   8   2.0000      -9.985915      -271.7306
   9   2.0000      -9.985354      -271.7153
  10   2.0000      -9.983177      -271.6560
  11   2.0000      -9.982051      -271.6254
  12   2.0000      -9.981967      -271.6231
  13   2.0000      -9.981812      -271.6189
  14   2.0000      -9.979776      -271.5635
  15   2.0000      -9.978339      -271.5244
  16   2.0000      -9.949812      -270.7481
  17   2.0000      -9.947977      -270.6982
  18   2.0000      -9.933226      -270.2968
  19   2.0000      -9.931072      -270.2382
  20   2.0000      -9.200283      -250.3524
  21   2.0000      -9.199852      -250.3407
  22   2.0000      -9.199715      -250.3370
  23   2.0000      -9.197833      -250.2858
  24   2.0000      -9.197267      -250.2704
  25   2.0000      -9.196733      -250.2558
  26   2.0000      -9.196492      -250.2493
  27   2.0000      -9.195120      -250.2119
  28   2.0000      -7.031729      -191.3431
  29   2.0000      -7.031467      -191.3360
  30   2.0000      -7.031349      -191.3327
  31   2.0000      -7.029639      -191.2862
  32   2.0000      -7.029054      -191.2703
  33   2.0000      -7.028529      -191.2560
  34   2.0000      -7.028123      -191.2449
  35   2.0000      -7.026719      -191.2067
  36   2.0000      -7.020339      -191.0331
  37   2.0000      -7.019888      -191.0209
  38   2.0000      -7.019768      -191.0176
  39   2.0000      -7.019461      -191.0092
  40   2.0000      -7.018886      -190.9936
  41   2.0000      -7.018727      -190.9893
  42   2.0000      -7.017846      -190.9653
  43   2.0000      -7.017332      -190.9513
  44   2.0000      -7.016774      -190.9361
  45   2.0000      -7.016757      -190.9357
  46   2.0000      -7.016500      -190.9287
  47   2.0000      -7.016139      -190.9188
  48   2.0000      -7.015624      -190.9048
  49   2.0000      -7.015576      -190.9035
  50   2.0000      -7.015120      -190.8911
  51   2.0000      -7.014214      -190.8665
  52   2.0000      -0.878299       -23.8997
  53   2.0000      -0.869500       -23.6603
  54   2.0000      -0.836899       -22.7732
  55   2.0000      -0.832175       -22.6446
  56   2.0000      -0.825878       -22.4733
  57   2.0000      -0.810468       -22.0540
  58   2.0000      -0.792409       -21.5625
  59   2.0000      -0.784404       -21.3447
  60   2.0000      -0.768722       -20.9180
  61   2.0000      -0.758107       -20.6291
  62   2.0000      -0.712063       -19.3762
  63   2.0000      -0.675767       -18.3885
  64   2.0000      -0.669503       -18.2181
  65   2.0000      -0.655509       -17.8373
  66   2.0000      -0.590324       -16.0635
  67   2.0000      -0.574726       -15.6391
  68   2.0000      -0.563708       -15.3393
  69   2.0000      -0.546097       -14.8601
  70   2.0000      -0.499010       -13.5787
  71   2.0000      -0.494585       -13.4583
  72   2.0000      -0.484838       -13.1931
  73   2.0000      -0.473242       -12.8776
  74   2.0000      -0.444086       -12.0842
  75   2.0000      -0.434309       -11.8182
  76   2.0000      -0.423475       -11.5233
  77   2.0000      -0.421945       -11.4817
  78   2.0000      -0.420707       -11.4480
  79   2.0000      -0.413244       -11.2450
  80   2.0000      -0.411691       -11.2027
  81   2.0000      -0.396175       -10.7805
  82   2.0000      -0.379942       -10.3388
  83   2.0000      -0.375489       -10.2176
  84   2.0000      -0.368490       -10.0271
  85   2.0000      -0.359401        -9.7798
  86   2.0000      -0.352114        -9.5815
  87   2.0000      -0.345444        -9.4000
  88   2.0000      -0.332934        -9.0596
  89   2.0000      -0.311851        -8.4859
  90   2.0000      -0.306806        -8.3486
  91   2.0000      -0.303945        -8.2708
  92   2.0000      -0.302845        -8.2408
  93   2.0000      -0.297420        -8.0932
  94   2.0000      -0.294360        -8.0099
  95   2.0000      -0.293566        -7.9883
  96   2.0000      -0.282864        -7.6971
  97   2.0000      -0.281721        -7.6660
  98   2.0000      -0.281170        -7.6510
  99   2.0000      -0.268155        -7.2969
 100   2.0000      -0.263230        -7.1629
 101   2.0000      -0.243237        -6.6188
 102   2.0000      -0.234325        -6.3763
 103   2.0000      -0.228759        -6.2248
 104   2.0000      -0.225227        -6.1287
 105   0.0000      -0.085878        -2.3369
 106   0.0000      -0.075109        -2.0438
 107   0.0000      -0.068759        -1.8710
 108   0.0000      -0.063613        -1.7310
 109   0.0000      -0.055414        -1.5079

MULLIKEN ATOMIC CHARGES
-----------------------
   0 C :   -0.152691
   1 C :   -0.014264
   2 C :    0.062436
   3 C :    0.005850
   4 C :    0.030490
   5 C :    0.085853
   6 Cl:   -0.039992
   7 Cl:   -0.013064
   8 Cl:   -0.014380
   9 Cl:   -0.019750
  10 C :    0.028961
  11 C :    0.082032
  12 C :   -0.153116
  13 C :    0.073181
  14 C :    0.050020
  15 C :   -0.005241
  16 Cl:   -0.012513
  17 Cl:   -0.016086
  18 Cl:   -0.033651
  19 Cl:   -0.042020
  20 H :    0.049092
  21 H :    0.048854
Sum of atomic charges:    0.0000000

LOEWDIN ATOMIC CHARGES
----------------------
   0 C :   -0.120633
   1 C :   -0.061277
   2 C :   -0.150370
   3 C :   -0.173376
   4 C :   -0.175499
   5 C :   -0.157742
   6 Cl:    0.162657
   7 Cl:    0.174198
   8 Cl:    0.173846
   9 Cl:    0.176388
  10 C :   -0.076042
  11 C :   -0.124056
  12 C :   -0.154721
  13 C :   -0.149221
  14 C :   -0.182687
  15 C :   -0.140826
  16 Cl:    0.184278
  17 Cl:    0.170273
  18 Cl:    0.169025
  19 Cl:    0.171391
  20 H :    0.140879
  21 H :    0.143515

  Mayer bond orders larger than 0.100000
B(  0-C ,  1-C ) :   1.3103 B(  0-C ,  5-C ) :   1.3190 B(  0-C , 20-H ) :   0.9805
B(  1-C ,  2-C ) :   1.3975 B(  1-C , 10-C ) :   0.9551 B(  2-C ,  3-C ) :   1.3949
B(  2-C ,  9-Cl) :   1.1189 B(  3-C ,  4-C ) :   1.4181 B(  3-C ,  8-Cl) :   1.1199
B(  4-C ,  5-C ) :   1.3945 B(  4-C ,  7-Cl) :   1.1198 B(  5-C ,  6-Cl) :   1.0359
B( 10-C , 11-C ) :   1.4134 B( 10-C , 15-C ) :   1.4270 B( 11-C , 12-C ) :   1.2928
B( 11-C , 19-Cl) :   1.0325 B( 12-C , 13-C ) :   1.3210 B( 12-C , 21-H ) :   0.9845
B( 13-C , 14-C ) :   1.3934 B( 13-C , 18-Cl) :   1.0399 B( 14-C , 15-C ) :   1.3851
B( 14-C , 17-Cl) :   1.1192 B( 15-C , 16-Cl) :   1.1261

Dispersion correction           -0.054210786
FINAL SINGLE POINT ENERGY     -4136.516228149831

DIPOLE MOMENT
-------------

Method             : SCF
Type of density    : Electron Density
Multiplicity       :   1
Irrep              :   0
Energy             : -4136.5277421019654867 Eh
Relativity type    :
Basis              : AO
                                X                 Y                 Z
Electronic contribution:     -3.405226476      -5.974148362       0.412483883
Nuclear contribution   :      3.722781965       6.367679124      -0.455332040
                        -----------------------------------------
Total Dipole Moment    :      0.317555489       0.393530762      -0.042848157
                        -----------------------------------------
Magnitude (a.u.)       :      0.507487846
Magnitude (Debye)      :      1.289931592

Rotational constants in cm-1:             0.010546             0.003496             0.003175
Rotational constants in MHz :           316.176096           104.798179            95.191790

                             ****ORCA TERMINATED NORMALLY****
TOTAL RUN TIME: 0 days 0 hours 0 minutes 27 seconds 100 msec
