                         Program Version 6.0.0  -   RELEASE  -
|  1> ! r2scan-3c def2/J RI DEFGRID2 scfconv6 printgap
|  2> %output
|  3>     printlevel normal
|  4> end
|  5> * xyz 0 1
|  6> C -2.6482146247 0.407701186 1.2766632139
|  7> C -1.4572455273 0.4214954365 0.3677825217
|  8> C -0.8841182751 1.5422463846 -0.0502180838
|  9> C 0.3347028853 1.6174782989 -0.9171627105
| 10> C 1.0870650268 0.287188572 -1.0073864404
| 11> H 1.7162309293 0.3071937886 -1.9047560772
| 12> C 0.0543077178 -0.8319770382 -1.1967020778
| 13> C -0.888011739 -0.9356453248 0.0039639056
| 14> H -0.3380162254 -1.3306165917 0.8701667803
| 15> O -1.8992531565 -1.9045237408 -0.2262608691
| 16> C 1.9974979073 -0.0199033827 0.166306135
| 17> C 2.9163504349 -0.9680780482 0.0501390399
| 18> C 1.8513309188 0.7619309475 1.4356432243
| 19> H -2.3613583584 0.0071810428 2.2492403974
| 20> H -3.4265806923 -0.2409744255 0.8800913203
| 21> H -3.0466231559 1.4095057545 1.4102558423
| 22> H -1.3089558327 2.4956956188 0.2363544975
| 23> H 0.0206179566 1.9117496047 -1.9246244028
| 24> H 0.9933464342 2.4075982177 -0.5532896551
| 25> H -0.5400345045 -0.6133133214 -2.0879787167
| 26> H 0.5514317917 -1.7919929428 -1.3432547793
| 27> H -2.361469159 -1.6768185411 -1.044991032
| 28> H 3.5704729486 -1.231186285 0.8638192908
| 29> H 3.0527021339 -1.5231106558 -0.8631096859
| 30> H 2.2311860609 1.7737479878 1.2989496704
| 31> H 0.8085605748 0.8353438331 1.7328928645
| 32> H 2.4197709123 0.2929227539 2.2342808117
| 33> *
| 34>
| 35>                          ****END OF INPUT****

CARTESIAN COORDINATES (ANGSTROEM)
---------------------------------
  C     -2.648215    0.407701    1.276663
  C     -1.457246    0.421495    0.367783
  C     -0.884118    1.542246   -0.050218
  C      0.334703    1.617478   -0.917163
  C      1.087065    0.287189   -1.007386
  H      1.716231    0.307194   -1.904756
  C      0.054308   -0.831977   -1.196702
  C     -0.888012   -0.935645    0.003964
  H     -0.338016   -1.330617    0.870167
  O     -1.899253   -1.904524   -0.226261
  C      1.997498   -0.019903    0.166306
  C      2.916350   -0.968078    0.050139
  C      1.851331    0.761931    1.435643
  H     -2.361358    0.007181    2.249240
  H     -3.426581   -0.240974    0.880091
  H     -3.046623    1.409506    1.410256
  H     -1.308956    2.495696    0.236354
  H      0.020618    1.911750   -1.924624
  H      0.993346    2.407598   -0.553290
  H     -0.540035   -0.613313   -2.087979
  H      0.551432   -1.791993   -1.343255
  H     -2.361469   -1.676819   -1.044991
  H      3.570473   -1.231186    0.863819
  H      3.052702   -1.523111   -0.863110
  H      2.231186    1.773748    1.298950
  H      0.808561    0.835344    1.732893
  H      2.419771    0.292923    2.234281

 Total Charge           Charge          ....    0
 Multiplicity           Mult            ....    1
 Number of Electrons    NEL             ....   84
 Basis Dimension        Dim             ....  294

ORBITAL ENERGIES
----------------

  NO   OCC          E(Eh)            E(eV)
   0   2.0000     -18.948240      -515.6078
   1   2.0000     -10.081832      -274.3406
   2   2.0000     -10.042412      -273.2679
   3   2.0000     -10.039386      -273.1856
   4   2.0000     -10.034727      -273.0588
   5   2.0000     -10.031746      -272.9777
   6   2.0000     -10.029436      -272.9148
   7   2.0000     -10.025419      -272.8055
   8   2.0000     -10.021089      -272.6877
   9   2.0000     -10.019559      -272.6461
  10   2.0000     -10.009514      -272.3727
  11   2.0000      -0.986629       -26.8475
  12   2.0000      -0.817156       -22.2359
  13   2.0000      -0.767199       -20.8765
  14   2.0000      -0.723286       -19.6816
  15   2.0000      -0.704469       -19.1696
  16   2.0000      -0.656872       -17.8744
  17   2.0000      -0.642567       -17.4851
  18   2.0000      -0.591718       -16.1015
  19   2.0000      -0.572171       -15.5696
  20   2.0000      -0.514427       -13.9983
  21   2.0000      -0.486265       -13.2320
  22   2.0000      -0.455975       -12.4077
  23   2.0000      -0.438038       -11.9196
  24   2.0000      -0.425001       -11.5649
  25   2.0000      -0.418182       -11.3793
  26   2.0000      -0.405352       -11.0302
  27   2.0000      -0.395442       -10.7605
  28   2.0000      -0.384173       -10.4539
  29   2.0000      -0.378402       -10.2969
  30   2.0000      -0.366884        -9.9834
  31   2.0000      -0.357896        -9.7388
  32   2.0000      -0.352788        -9.5999
  33   2.0000      -0.337908        -9.1949
  34   2.0000      -0.330889        -9.0040
  35   2.0000      -0.321592        -8.7510
  36   2.0000      -0.301842        -8.2135
  37   2.0000      -0.288317        -7.8455
  38   2.0000      -0.281745        -7.6667
  39   2.0000      -0.236843        -6.4448
  40   2.0000      -0.224060        -6.0970
  41   2.0000      -0.212108        -5.7718
  42   0.0000      -0.015279        -0.4158
  43   0.0000      -0.008256        -0.2246
  44   0.0000       0.066650         1.8136
  45   0.0000       0.070892         1.9291
  46   0.0000       0.094209         2.5635

MULLIKEN ATOMIC CHARGES
-----------------------
   0 C :   -0.517834
   1 C :    0.053756
   2 C :   -0.190647
   3 C :   -0.349575
   4 C :   -0.012242
   5 H :    0.176922
   6 C :   -0.367227
   7 C :   -0.034458
   8 H :    0.174450
   9 O :   -0.407553
  10 C :    0.030221
  11 C :   -0.378914
  12 C :   -0.526530
  13 H :    0.157083
  14 H :    0.164936
  15 H :    0.148648
  16 H :    0.156446
  17 H :    0.167750
  18 H :    0.155325
  19 H :    0.149667
  20 H :    0.184432
  21 H :    0.292541
  22 H :    0.140578
  23 H :    0.138727
  24 H :    0.164352
  25 H :    0.179129
  26 H :    0.150019
Sum of atomic charges:    0.0000000

LOEWDIN ATOMIC CHARGES
----------------------
   0 C :   -0.382932
   1 C :   -0.119572
   2 C :   -0.197254
   3 C :   -0.278207
   4 C :   -0.199946
   5 H :    0.174150
   6 C :   -0.245481
   7 C :    0.078958
   8 H :    0.196834
   9 O :   -0.598306
  10 C :   -0.118929
  11 C :   -0.323354
  12 C :   -0.390622
  13 H :    0.164807
  14 H :    0.168646
  15 H :    0.156445
  16 H :    0.164779
  17 H :    0.170214
  18 H :    0.165218
  19 H :    0.162820
  20 H :    0.170545
  21 H :    0.268996
  22 H :    0.157153
  23 H :    0.157948
  24 H :    0.163120
  25 H :    0.173227
  26 H :    0.160743

  Mayer bond orders larger than 0.100000
B(  0-C ,  1-C ) :   0.8631 B(  0-C , 13-H ) :   0.9637 B(  0-C , 14-H ) :   0.9693
B(  0-C , 15-H ) :   0.9989 B(  1-C ,  2-C ) :   1.8160 B(  1-C ,  7-C ) :   0.8748
B(  2-C ,  3-C ) :   0.9155 B(  2-C , 16-H ) :   0.9170 B(  3-C ,  4-C ) :   0.9419
B(  3-C , 17-H ) :   0.9454 B(  3-C , 18-H ) :   0.9983 B(  4-C ,  5-H ) :   0.9804
B(  4-C ,  6-C ) :   0.8497 B(  4-C , 10-C ) :   0.8668 B(  6-C ,  7-C ) :   0.9283
B(  6-C , 19-H ) :   1.0022 B(  6-C , 20-H ) :   0.9856 B(  7-C ,  8-H ) :   0.9529
B(  7-C ,  9-O ) :   0.9916 B(  9-O , 21-H ) :   0.8932 B( 10-C , 11-C ) :   1.8672
B( 10-C , 12-C ) :   0.8734 B( 11-C , 22-H ) :   0.9770 B( 11-C , 23-H ) :   0.9790
B( 12-C , 24-H ) :   0.9671 B( 12-C , 25-H ) :   0.9719 B( 12-C , 26-H ) :   0.9826

Dispersion correction           -0.010148116
FINAL SINGLE POINT ENERGY      -465.753902219079

DIPOLE MOMENT
-------------

Method             : SCF
Type of density    : Electron Density
Multiplicity       :   1
Irrep              :   0
Energy             :  -465.7554764976431443 Eh
Relativity type    :
Basis              : AO
                                X                 Y                 Z
Electronic contribution:     -1.834731434      -2.234223978      -2.255983366
Nuclear contribution   :      1.830608715       2.817147801       1.923683127
                        -----------------------------------------
Total Dipole Moment    :     -0.004122719       0.582923823      -0.332300239
                        -----------------------------------------
Magnitude (a.u.)       :      0.670999724
Magnitude (Debye)      :      1.705545755

Rotational constants in cm-1:             0.053848             0.028999             0.025200
Rotational constants in MHz :          1614.336598           869.372386           755.465750

                             ****ORCA TERMINATED NORMALLY****
TOTAL RUN TIME: 0 days 0 hours 0 minutes 39 seconds 550 msec
