                         Program Version 6.0.0  -   RELEASE  -
|  1> ! r2scan-3c def2/J RI DEFGRID2 scfconv6 printgap
|  2> %output
|  3>     printlevel normal
|  4> end
|  5> %cpcm
|  6>     smd true
|  7>     smdsolvent "water"
|  8> end
|  9> * xyz 0 1
| 10> C -2.6482146247 0.407701186 1.2766632139
| 11> C -1.4572455273 0.4214954365 0.3677825217
| 12> C -0.8841182751 1.5422463846 -0.0502180838
| 13> C 0.3347028853 1.6174782989 -0.9171627105
| 14> C 1.0870650268 0.287188572 -1.0073864404
| 15> H 1.7162309293 0.3071937886 -1.9047560772
| 16> C 0.0543077178 -0.8319770382 -1.1967020778
| 17> C -0.888011739 -0.9356453248 0.0039639056
| 18> H -0.3380162254 -1.3306165917 0.8701667803
| 19> O -1.8992531565 -1.9045237408 -0.2262608691
| 20> C 1.9974979073 -0.0199033827 0.166306135
| 21> C 2.9163504349 -0.9680780482 0.0501390399
| 22> C 1.8513309188 0.7619309475 1.4356432243
| 23> H -2.3613583584 0.0071810428 2.2492403974
| 24> H -3.4265806923 -0.2409744255 0.8800913203
| 25> H -3.0466231559 1.4095057545 1.4102558423
| 26> H -1.3089558327 2.4956956188 0.2363544975
| 27> H 0.0206179566 1.9117496047 -1.9246244028
| 28> H 0.9933464342 2.4075982177 -0.5532896551
| 29> H -0.5400345045 -0.6133133214 -2.0879787167
| 30> H 0.5514317917 -1.7919929428 -1.3432547793
| 31> H -2.361469159 -1.6768185411 -1.044991032
| 32> H 3.5704729486 -1.231186285 0.8638192908
| 33> H 3.0527021339 -1.5231106558 -0.8631096859
| 34> H 2.2311860609 1.7737479878 1.2989496704
| 35> H 0.8085605748 0.8353438331 1.7328928645
| 36> H 2.4197709123 0.2929227539 2.2342808117
| 37> *
| 38>
| 39>                          ****END OF INPUT****

CARTESIAN COORDINATES (ANGSTROEM)
---------------------------------
  C     -2.648215    0.407701    1.276663
  C     -1.457246    0.421495    0.367783
  C     -0.884118    1.542246   -0.050218
  C      0.334703    1.617478   -0.917163
  C      1.087065    0.287189   -1.007386
  H      1.716231    0.307194   -1.904756
  C      0.054308   -0.831977   -1.196702
  C     -0.888012   -0.935645    0.003964
  H     -0.338016   -1.330617    0.870167
  O     -1.899253   -1.904524   -0.226261
  C      1.997498   -0.019903    0.166306
  C      2.916350   -0.968078    0.050139
  C      1.851331    0.761931    1.435643
  H     -2.361358    0.007181    2.249240
  H     -3.426581   -0.240974    0.880091
  H     -3.046623    1.409506    1.410256
  H     -1.308956    2.495696    0.236354
  H      0.020618    1.911750   -1.924624
  H      0.993346    2.407598   -0.553290
  H     -0.540035   -0.613313   -2.087979
  H      0.551432   -1.791993   -1.343255
  H     -2.361469   -1.676819   -1.044991
  H      3.570473   -1.231186    0.863819
  H      3.052702   -1.523111   -0.863110
  H      2.231186    1.773748    1.298950
  H      0.808561    0.835344    1.732893
  H      2.419771    0.292923    2.234281

 Total Charge           Charge          ....    0
 Multiplicity           Mult            ....    1
 Number of Electrons    NEL             ....   84
 Basis Dimension        Dim             ....  294

ORBITAL ENERGIES
----------------

  NO   OCC          E(Eh)            E(eV)
   0   2.0000     -18.951000      -515.6829
   1   2.0000     -10.078268      -274.2436
   2   2.0000     -10.037639      -273.1380
   3   2.0000     -10.033864      -273.0353
   4   2.0000     -10.026524      -272.8356
   5   2.0000     -10.023299      -272.7478
   6   2.0000     -10.021135      -272.6890
   7   2.0000     -10.018305      -272.6119
   8   2.0000     -10.013371      -272.4777
   9   2.0000     -10.013052      -272.4690
  10   2.0000     -10.003817      -272.2177
  11   2.0000      -0.988545       -26.8997
  12   2.0000      -0.810390       -22.0518
  13   2.0000      -0.762481       -20.7482
  14   2.0000      -0.717028       -19.5113
  15   2.0000      -0.697246       -18.9730
  16   2.0000      -0.650948       -17.7132
  17   2.0000      -0.637156       -17.3379
  18   2.0000      -0.585933       -15.9440
  19   2.0000      -0.565075       -15.3765
  20   2.0000      -0.509117       -13.8538
  21   2.0000      -0.480726       -13.0812
  22   2.0000      -0.450180       -12.2500
  23   2.0000      -0.430817       -11.7231
  24   2.0000      -0.419866       -11.4251
  25   2.0000      -0.413087       -11.2407
  26   2.0000      -0.399897       -10.8817
  27   2.0000      -0.389185       -10.5903
  28   2.0000      -0.378031       -10.2868
  29   2.0000      -0.372706       -10.1419
  30   2.0000      -0.358231        -9.7480
  31   2.0000      -0.351106        -9.5541
  32   2.0000      -0.346766        -9.4360
  33   2.0000      -0.332404        -9.0452
  34   2.0000      -0.324492        -8.8299
  35   2.0000      -0.316070        -8.6007
  36   2.0000      -0.298843        -8.1319
  37   2.0000      -0.281972        -7.6728
  38   2.0000      -0.277404        -7.5486
  39   2.0000      -0.238484        -6.4895
  40   2.0000      -0.221228        -6.0199
  41   2.0000      -0.208021        -5.6605
  42   0.0000      -0.012073        -0.3285
  43   0.0000      -0.003439        -0.0936
  44   0.0000       0.075463         2.0535
  45   0.0000       0.082217         2.2373
  46   0.0000       0.105436         2.8690

MULLIKEN ATOMIC CHARGES
-----------------------
   0 C :   -0.575849
   1 C :    0.046334
   2 C :   -0.233865
   3 C :   -0.351505
   4 C :    0.015374
   5 H :    0.190477
   6 C :   -0.409897
   7 C :    0.000706
   8 H :    0.181628
   9 O :   -0.489262
  10 C :    0.005476
  11 C :   -0.459495
  12 C :   -0.550277
  13 H :    0.175156
  14 H :    0.172438
  15 H :    0.167423
  16 H :    0.177588
  17 H :    0.185030
  18 H :    0.174337
  19 H :    0.177663
  20 H :    0.188418
  21 H :    0.348727
  22 H :    0.164396
  23 H :    0.163205
  24 H :    0.186226
  25 H :    0.184428
  26 H :    0.165119
Sum of atomic charges:    0.0000000

LOEWDIN ATOMIC CHARGES
----------------------
   0 C :   -0.393133
   1 C :   -0.123518
   2 C :   -0.200449
   3 C :   -0.278734
   4 C :   -0.198164
   5 H :    0.179826
   6 C :   -0.246296
   7 C :    0.076936
   8 H :    0.197912
   9 O :   -0.632106
  10 C :   -0.117691
  11 C :   -0.353239
  12 C :   -0.396983
  13 H :    0.168215
  14 H :    0.168138
  15 H :    0.162830
  16 H :    0.171560
  17 H :    0.176405
  18 H :    0.171463
  19 H :    0.172930
  20 H :    0.169959
  21 H :    0.287513
  22 H :    0.162178
  23 H :    0.164013
  24 H :    0.170939
  25 H :    0.175037
  26 H :    0.164459

  Mayer bond orders larger than 0.100000
B(  0-C ,  1-C ) :   0.8442 B(  0-C , 13-H ) :   0.9645 B(  0-C , 14-H ) :   0.9723
B(  0-C , 15-H ) :   0.9889 B(  1-C ,  2-C ) :   1.8243 B(  1-C ,  7-C ) :   0.8495
B(  2-C ,  3-C ) :   0.9025 B(  2-C , 16-H ) :   0.9236 B(  3-C ,  4-C ) :   0.9282
B(  3-C , 17-H ) :   0.9419 B(  3-C , 18-H ) :   0.9964 B(  4-C ,  5-H ) :   0.9789
B(  4-C ,  6-C ) :   0.8390 B(  4-C , 10-C ) :   0.8523 B(  6-C ,  7-C ) :   0.9079
B(  6-C , 19-H ) :   0.9979 B(  6-C , 20-H ) :   0.9875 B(  7-C ,  8-H ) :   0.9578
B(  7-C ,  9-O ) :   0.9739 B(  9-O , 21-H ) :   0.8654 B( 10-C , 11-C ) :   1.8495
B( 10-C , 12-C ) :   0.8684 B( 11-C , 22-H ) :   0.9777 B( 11-C , 23-H ) :   0.9779
B( 12-C , 24-H ) :   0.9599 B( 12-C , 25-H ) :   0.9685 B( 12-C , 26-H ) :   0.9794

Dispersion correction           -0.010148116
FINAL SINGLE POINT ENERGY      -465.760571488011

DIPOLE MOMENT
-------------

Method             : SCF
Type of density    : Electron Density
Multiplicity       :   1
Irrep              :   0
Energy             :  -465.7621457665747471 Eh
Relativity type    :
Basis              : AO
                                X                 Y                 Z
Electronic contribution:     -1.849309197      -1.900649526      -2.453207764
Nuclear contribution   :      1.830608715       2.817147801       1.923683127
                        -----------------------------------------
Total Dipole Moment    :     -0.018700482       0.916498275      -0.529524637
                        -----------------------------------------
Magnitude (a.u.)       :      1.058638341
Magnitude (Debye)      :      2.690844818

Rotational constants in cm-1:             0.053848             0.028999             0.025200
Rotational constants in MHz :          1614.336598           869.372386           755.465750

                             ****ORCA TERMINATED NORMALLY****
TOTAL RUN TIME: 0 days 0 hours 0 minutes 53 seconds 154 msec
