                         Program Version 6.0.0  -   RELEASE  -
|  1> ! wb97x-v def2-tzvp def2/J RIJCOSX DEFGRID2 scfconv7 GCP(DFT/TZ) printgap
|  2> %output
|  3>     printlevel normal
|  4> end
|  5> * xyz 0 1
|  6> C 1.6917390915905524 -1.0708618845629014 0.1603409113805533
|  7> C 1.0396188109870648 0.25757763269836453 -0.20178748917219735
|  8> C -0.45782751427638946 0.3476480309608817 -0.06213484212346533
|  9> O -1.0734663125706996 1.3962075343549831 -0.14614091368732207
| 10> O -1.1560480974187244 -0.7927731823861704 0.14619666903515294
| 11> H 2.7757506109949466 -0.9885189231527232 0.04847283565487447
| 12> H 1.4857670348238712 -1.3505140486093858 1.1985801791133974
| 13> H 1.3628361175428874 -1.8818275002991802 -0.49913864168204286
| 14> H 1.4471415626842583 1.0754280578292046 0.40142920551335154
| 15> H 1.2510513445252724 0.5211786623201495 -1.2461484293833573
| 16> H -0.560230198546639 -1.5576462233434094 0.1937317955309763
| 17> *
| 18>
| 19>                          ****END OF INPUT****

CARTESIAN COORDINATES (ANGSTROEM)
---------------------------------
  C      1.691739   -1.070862    0.160341
  C      1.039619    0.257578   -0.201787
  C     -0.457828    0.347648   -0.062135
  O     -1.073466    1.396208   -0.146141
  O     -1.156048   -0.792773    0.146197
  H      2.775751   -0.988519    0.048473
  H      1.485767   -1.350514    1.198580
  H      1.362836   -1.881828   -0.499139
  H      1.447142    1.075428    0.401429
  H      1.251051    0.521179   -1.246148
  H     -0.560230   -1.557646    0.193732

 Total Charge           Charge          ....    0
 Multiplicity           Mult            ....    1
 Number of Electrons    NEL             ....   40
 Basis Dimension        Dim             ....  191

ORBITAL ENERGIES
----------------

  NO   OCC          E(Eh)            E(eV)
   0   2.0000     -21.725235      -591.1737
   1   2.0000     -21.651334      -589.1628
   2   2.0000     -12.183478      -331.5293
   3   2.0000     -12.079450      -328.6985
   4   2.0000     -12.073402      -328.5340
   5   2.0000      -1.761617       -47.9360
   6   2.0000      -1.691892       -46.0387
   7   2.0000      -1.319019       -35.8923
   8   2.0000      -1.215887       -33.0860
   9   2.0000      -1.164102       -31.6768
  10   2.0000      -1.055160       -28.7124
  11   2.0000      -1.045106       -28.4388
  12   2.0000      -0.979431       -26.6517
  13   2.0000      -0.946820       -25.7643
  14   2.0000      -0.907975       -24.7073
  15   2.0000      -0.882494       -24.0139
  16   2.0000      -0.879815       -23.9410
  17   2.0000      -0.853387       -23.2218
  18   2.0000      -0.821307       -22.3489
  19   2.0000      -0.807598       -21.9759
  20   0.0000      -0.305932        -8.3248
  21   0.0000      -0.138174        -3.7599
  22   0.0000      -0.087468        -2.3801
  23   0.0000      -0.061364        -1.6698
  24   0.0000      -0.008465        -0.2304

MULLIKEN ATOMIC CHARGES
-----------------------
   0 C :   -0.427060
   1 C :   -0.150874
   2 C :    0.257662
   3 O :   -0.325211
   4 O :   -0.332542
   5 H :    0.133649
   6 H :    0.142722
   7 H :    0.119426
   8 H :    0.132681
   9 H :    0.130306
  10 H :    0.319241
Sum of atomic charges:    0.0000000

LOEWDIN ATOMIC CHARGES
----------------------
   0 C :   -0.313590
   1 C :   -0.260211
   2 C :   -0.487665
   3 O :    0.088547
   4 O :    0.104755
   5 H :    0.128106
   6 H :    0.121864
   7 H :    0.116587
   8 H :    0.157146
   9 H :    0.157846
  10 H :    0.186615

  Mayer bond orders larger than 0.100000
B(  0-C ,  1-C ) :   0.9371 B(  0-C ,  5-H ) :   0.9699 B(  0-C ,  6-H ) :   0.9759
B(  0-C ,  7-H ) :   0.9718 B(  1-C ,  2-C ) :   0.9831 B(  1-C ,  8-H ) :   0.9538
B(  1-C ,  9-H ) :   0.9443 B(  2-C ,  3-O ) :   2.1249 B(  2-C ,  4-O ) :   1.2061
B(  4-O , 10-H ) :   0.8751

FINAL SINGLE POINT ENERGY      -268.409696709600

DIPOLE MOMENT
-------------

Method             : SCF
Type of density    : Electron Density
Multiplicity       :   1
Irrep              :   0
Energy             :  -268.4170787889001986 Eh
Relativity type    :
Basis              : AO
                                X                 Y                 Z
Electronic contribution:     -5.780499350       2.700726800      -0.149491926
Nuclear contribution   :      7.290561482      -3.902689941       0.178437842
                        -----------------------------------------
Total Dipole Moment    :      1.510062131      -1.201963141       0.028945916
                        -----------------------------------------
Magnitude (a.u.)       :      1.930243741
Magnitude (Debye)      :      4.906289679

Rotational constants in cm-1:             0.322454             0.130440             0.096528
Rotational constants in MHz :          9666.929004          3910.486544          2893.831773

                             ****ORCA TERMINATED NORMALLY****
TOTAL RUN TIME: 0 days 0 hours 0 minutes 56 seconds 198 msec
