                         Program Version 6.0.0  -   RELEASE  -
|  1> ! wb97x-v def2-tzvp def2/J RIJCOSX DEFGRID2 scfconv7 GCP(DFT/TZ) printgap
|  2> %output
|  3>     printlevel normal
|  4> end
|  5> %cpcm
|  6>     smd true
|  7>     smdsolvent "water"
|  8> end
|  9> * xyz 0 1
| 10> C 1.6917390915905524 -1.0708618845629014 0.1603409113805533
| 11> C 1.0396188109870648 0.25757763269836453 -0.20178748917219735
| 12> C -0.45782751427638946 0.3476480309608817 -0.06213484212346533
| 13> O -1.0734663125706996 1.3962075343549831 -0.14614091368732207
| 14> O -1.1560480974187244 -0.7927731823861704 0.14619666903515294
| 15> H 2.7757506109949466 -0.9885189231527232 0.04847283565487447
| 16> H 1.4857670348238712 -1.3505140486093858 1.1985801791133974
| 17> H 1.3628361175428874 -1.8818275002991802 -0.49913864168204286
| 18> H 1.4471415626842583 1.0754280578292046 0.40142920551335154
| 19> H 1.2510513445252724 0.5211786623201495 -1.2461484293833573
| 20> H -0.560230198546639 -1.5576462233434094 0.1937317955309763
| 21> *
| 22>
| 23>                          ****END OF INPUT****

CARTESIAN COORDINATES (ANGSTROEM)
---------------------------------
  C      1.691739   -1.070862    0.160341
  C      1.039619    0.257578   -0.201787
  C     -0.457828    0.347648   -0.062135
  O     -1.073466    1.396208   -0.146141
  O     -1.156048   -0.792773    0.146197
  H      2.775751   -0.988519    0.048473
  H      1.485767   -1.350514    1.198580
  H      1.362836   -1.881828   -0.499139
  H      1.447142    1.075428    0.401429
  H      1.251051    0.521179   -1.246148
  H     -0.560230   -1.557646    0.193732

 Total Charge           Charge          ....    0
 Multiplicity           Mult            ....    1
 Number of Electrons    NEL             ....   40
 Basis Dimension        Dim             ....  191

ORBITAL ENERGIES
----------------

  NO   OCC          E(Eh)            E(eV)
   0   2.0000     -21.723552      -591.1279
   1   2.0000     -21.666380      -589.5722
   2   2.0000     -12.192069      -331.7631
   3   2.0000     -12.059453      -328.1544
   4   2.0000     -12.039980      -327.6245
   5   2.0000      -1.765306       -48.0364
   6   2.0000      -1.704331       -46.3772
   7   2.0000      -1.298770       -35.3413
   8   2.0000      -1.210960       -32.9519
   9   2.0000      -1.146973       -31.2107
  10   2.0000      -1.072575       -29.1862
  11   2.0000      -1.040230       -28.3061
  12   2.0000      -0.981234       -26.7007
  13   2.0000      -0.948406       -25.8074
  14   2.0000      -0.910068       -24.7642
  15   2.0000      -0.871509       -23.7150
  16   2.0000      -0.868985       -23.6463
  17   2.0000      -0.837923       -22.8010
  18   2.0000      -0.795990       -21.6600
  19   2.0000      -0.780038       -21.2259
  20   0.0000      -0.306475        -8.3396
  21   0.0000      -0.129801        -3.5321
  22   0.0000      -0.057213        -1.5568
  23   0.0000      -0.041097        -1.1183
  24   0.0000       0.018437         0.5017

MULLIKEN ATOMIC CHARGES
-----------------------
   0 C :   -0.447902
   1 C :   -0.162626
   2 C :    0.335900
   3 O :   -0.465454
   4 O :   -0.390400
   5 H :    0.145851
   6 H :    0.151005
   7 H :    0.145284
   8 H :    0.147614
   9 H :    0.153151
  10 H :    0.387577
Sum of atomic charges:    0.0000000

LOEWDIN ATOMIC CHARGES
----------------------
   0 C :   -0.305622
   1 C :   -0.251443
   2 C :   -0.468656
   3 O :    0.002769
   4 O :    0.094181
   5 H :    0.130729
   6 H :    0.126939
   7 H :    0.126030
   8 H :    0.162111
   9 H :    0.166595
  10 H :    0.216366

  Mayer bond orders larger than 0.100000
B(  0-C ,  1-C ) :   0.9596 B(  0-C ,  5-H ) :   0.9652 B(  0-C ,  6-H ) :   0.9737
B(  0-C ,  7-H ) :   0.9682 B(  1-C ,  2-C ) :   0.9960 B(  1-C ,  8-H ) :   0.9471
B(  1-C ,  9-H ) :   0.9303 B(  2-C ,  3-O ) :   1.9902 B(  2-C ,  4-O ) :   1.2362
B(  4-O , 10-H ) :   0.8316

FINAL SINGLE POINT ENERGY      -268.427130981261

DIPOLE MOMENT
-------------

Method             : SCF
Type of density    : Electron Density
Multiplicity       :   1
Irrep              :   0
Energy             :  -268.4345130605612439 Eh
Relativity type    :
Basis              : AO
                                X                 Y                 Z
Electronic contribution:     -5.358530063       2.206955907      -0.141144458
Nuclear contribution   :      7.290561482      -3.902689941       0.178437842
                        -----------------------------------------
Total Dipole Moment    :      1.932031418      -1.695734033       0.037293384
                        -----------------------------------------
Magnitude (a.u.)       :      2.570923980
Magnitude (Debye)      :      6.534769430

Rotational constants in cm-1:             0.322454             0.130440             0.096528
Rotational constants in MHz :          9666.929004          3910.486544          2893.831773

                             ****ORCA TERMINATED NORMALLY****
TOTAL RUN TIME: 0 days 0 hours 0 minutes 55 seconds 483 msec
