                         Program Version 6.0.0  -   RELEASE  -
|  1> ! wb97x-v def2-tzvp def2/J RIJCOSX DEFGRID2 scfconv7 GCP(DFT/TZ) printgap
|  2> %output
|  3>     printlevel normal
|  4> end
|  5> * xyz 0 1
|  6> C 2.4829039975507547 1.2086886132778252 -0.02633264861613964
|  7> C 1.699762019239667 -0.0684621802654319 0.000350462925620795
|  8> O 2.263563387242523 -1.1615518609292967 0.024161748209454464
|  9> C 0.21175560431173715 0.00786889976806422 8.988917734248195e-05
| 10> C -0.48334861687008185 1.219939521814955 -0.007056821057029726
| 11> C -1.870720977006846 1.194585355172044 -0.006513763495336032
| 12> C -2.51566687202226 -0.035367248375273365 0.00018784669947027297
| 13> N -1.870420433009968 -1.2146097796742727 0.006575726295835301
| 14> C -0.5357066188800339 -1.1754138620984627 0.006950005665925845
| 15> H 2.221252141556406 1.7983012291689553 -0.9120286744776297
| 16> H 3.5499915858648747 0.9858488864617144 -0.03288349194546644
| 17> H 2.2383626056002823 1.8215540124320508 0.8486426815688317
| 18> H 0.04238078403059961 2.168231431444555 -0.012039348468518446
| 19> H -2.4471715340545637 2.112947673916263 -0.011313642007145505
| 20> H -3.6021052194220764 -0.08174124062730866 0.000500755379989648
| 21> H -0.021002129348592583 -2.1323896292364917 0.01127694706908235
| 22> *
| 23>
| 24>                          ****END OF INPUT****

CARTESIAN COORDINATES (ANGSTROEM)
---------------------------------
  C      2.482904    1.208689   -0.026333
  C      1.699762   -0.068462    0.000350
  O      2.263563   -1.161552    0.024162
  C      0.211756    0.007869    0.000090
  C     -0.483349    1.219940   -0.007057
  C     -1.870721    1.194585   -0.006514
  C     -2.515667   -0.035367    0.000188
  N     -1.870420   -1.214610    0.006576
  C     -0.535707   -1.175414    0.006950
  H      2.221252    1.798301   -0.912029
  H      3.549992    0.985849   -0.032883
  H      2.238363    1.821554    0.848643
  H      0.042381    2.168231   -0.012039
  H     -2.447172    2.112948   -0.011314
  H     -3.602105   -0.081741    0.000501
  H     -0.021002   -2.132390    0.011277

 Total Charge           Charge          ....    0
 Multiplicity           Mult            ....    1
 Number of Electrons    NEL             ....   64
 Basis Dimension        Dim             ....  321

ORBITAL ENERGIES
----------------

  NO   OCC          E(Eh)            E(eV)
   0   2.0000     -21.668236      -589.6227
   1   2.0000     -16.538733      -450.0418
   2   2.0000     -12.152263      -330.6799
   3   2.0000     -12.102055      -329.3136
   4   2.0000     -12.098224      -329.2094
   5   2.0000     -12.091522      -329.0270
   6   2.0000     -12.077844      -328.6549
   7   2.0000     -12.074222      -328.5563
   8   2.0000     -12.062375      -328.2339
   9   2.0000      -1.711128       -46.5622
  10   2.0000      -1.532503       -41.7015
  11   2.0000      -1.371519       -37.3209
  12   2.0000      -1.322224       -35.9796
  13   2.0000      -1.270844       -34.5814
  14   2.0000      -1.185270       -32.2528
  15   2.0000      -1.161159       -31.5967
  16   2.0000      -1.101693       -29.9786
  17   2.0000      -1.034187       -28.1417
  18   2.0000      -1.015318       -27.6282
  19   2.0000      -0.980831       -26.6898
  20   2.0000      -0.963075       -26.2066
  21   2.0000      -0.917187       -24.9579
  22   2.0000      -0.916484       -24.9388
  23   2.0000      -0.893621       -24.3167
  24   2.0000      -0.864032       -23.5115
  25   2.0000      -0.846885       -23.0449
  26   2.0000      -0.843028       -22.9400
  27   2.0000      -0.841120       -22.8880
  28   2.0000      -0.824364       -22.4321
  29   2.0000      -0.776374       -21.1262
  30   2.0000      -0.719346       -19.5744
  31   2.0000      -0.671744       -18.2791
  32   0.0000      -0.354208        -9.6385
  33   0.0000      -0.297029        -8.0826
  34   0.0000      -0.232287        -6.3209
  35   0.0000      -0.098092        -2.6692
  36   0.0000      -0.082079        -2.2335

MULLIKEN ATOMIC CHARGES
-----------------------
   0 C :   -0.369897
   1 C :    0.224114
   2 O :   -0.316222
   3 C :    0.074352
   4 C :   -0.178058
   5 C :   -0.105154
   6 C :   -0.033155
   7 N :   -0.207272
   8 C :   -0.070289
   9 H :    0.135594
  10 H :    0.148140
  11 H :    0.135318
  12 H :    0.144002
  13 H :    0.130302
  14 H :    0.129980
  15 H :    0.158246
Sum of atomic charges:    0.0000000

LOEWDIN ATOMIC CHARGES
----------------------
   0 C :   -0.255409
   1 C :   -0.298664
   2 O :    0.114257
   3 C :   -0.139713
   4 C :   -0.077643
   5 C :   -0.149104
   6 C :   -0.180296
   7 N :    0.126941
   8 C :   -0.129901
   9 H :    0.135311
  10 H :    0.134406
  11 H :    0.135673
  12 H :    0.150555
  13 H :    0.146003
  14 H :    0.137933
  15 H :    0.149651

  Mayer bond orders larger than 0.100000
B(  0-C ,  1-C ) :   0.9970 B(  0-C ,  9-H ) :   0.9570 B(  0-C , 10-H ) :   0.9768
B(  0-C , 11-H ) :   0.9554 B(  1-C ,  2-O ) :   2.1046 B(  1-C ,  3-C ) :   0.9470
B(  3-C ,  4-C ) :   1.3375 B(  3-C ,  8-C ) :   1.3609 B(  4-C ,  5-C ) :   1.4750
B(  4-C , 12-H ) :   0.9558 B(  5-C ,  6-C ) :   1.4130 B(  5-C , 13-H ) :   0.9644
B(  6-C ,  7-N ) :   1.4770 B(  6-C , 14-H ) :   0.9836 B(  7-N ,  8-C ) :   1.5279
B(  8-C , 15-H ) :   0.9598

FINAL SINGLE POINT ENERGY      -400.948978382533

DIPOLE MOMENT
-------------

Method             : SCF
Type of density    : Electron Density
Multiplicity       :   1
Irrep              :   0
Energy             :  -400.9575766302325519 Eh
Relativity type    :
Basis              : AO
                                X                 Y                 Z
Electronic contribution:     -2.174012854      -4.520821300       0.074529858
Nuclear contribution   :      1.889440539       6.270210702      -0.099789081
                        -----------------------------------------
Total Dipole Moment    :     -0.284572315       1.749389403      -0.025259223
                        -----------------------------------------
Magnitude (a.u.)       :      1.772563881
Magnitude (Debye)      :      4.505499328

Rotational constants in cm-1:             0.125482             0.041307             0.031258
Rotational constants in MHz :          3761.864799          1238.341054           937.080376

                             ****ORCA TERMINATED NORMALLY****
TOTAL RUN TIME: 0 days 0 hours 2 minutes 53 seconds 35 msec
