                         Program Version 6.0.0  -   RELEASE  -
|  1> ! wb97x-v def2-tzvp def2/J RIJCOSX DEFGRID2 scfconv7 GCP(DFT/TZ) printgap
|  2> %output
|  3>     printlevel normal
|  4> end
|  5> %cpcm
|  6>     smd true
|  7>     smdsolvent "water"
|  8> end
|  9> * xyz 0 1
| 10> C 2.4829039975507547 1.2086886132778252 -0.02633264861613964
| 11> C 1.699762019239667 -0.0684621802654319 0.000350462925620795
| 12> O 2.263563387242523 -1.1615518609292967 0.024161748209454464
| 13> C 0.21175560431173715 0.00786889976806422 8.988917734248195e-05
| 14> C -0.48334861687008185 1.219939521814955 -0.007056821057029726
| 15> C -1.870720977006846 1.194585355172044 -0.006513763495336032
| 16> C -2.51566687202226 -0.035367248375273365 0.00018784669947027297
| 17> N -1.870420433009968 -1.2146097796742727 0.006575726295835301
| 18> C -0.5357066188800339 -1.1754138620984627 0.006950005665925845
| 19> H 2.221252141556406 1.7983012291689553 -0.9120286744776297
| 20> H 3.5499915858648747 0.9858488864617144 -0.03288349194546644
| 21> H 2.2383626056002823 1.8215540124320508 0.8486426815688317
| 22> H 0.04238078403059961 2.168231431444555 -0.012039348468518446
| 23> H -2.4471715340545637 2.112947673916263 -0.011313642007145505
| 24> H -3.6021052194220764 -0.08174124062730866 0.000500755379989648
| 25> H -0.021002129348592583 -2.1323896292364917 0.01127694706908235
| 26> *
| 27>
| 28>                          ****END OF INPUT****

CARTESIAN COORDINATES (ANGSTROEM)
---------------------------------
  C      2.482904    1.208689   -0.026333
  C      1.699762   -0.068462    0.000350
  O      2.263563   -1.161552    0.024162
  C      0.211756    0.007869    0.000090
  C     -0.483349    1.219940   -0.007057
  C     -1.870721    1.194585   -0.006514
  C     -2.515667   -0.035367    0.000188
  N     -1.870420   -1.214610    0.006576
  C     -0.535707   -1.175414    0.006950
  H      2.221252    1.798301   -0.912029
  H      3.549992    0.985849   -0.032883
  H      2.238363    1.821554    0.848643
  H      0.042381    2.168231   -0.012039
  H     -2.447172    2.112948   -0.011314
  H     -3.602105   -0.081741    0.000501
  H     -0.021002   -2.132390    0.011277

 Total Charge           Charge          ....    0
 Multiplicity           Mult            ....    1
 Number of Electrons    NEL             ....   64
 Basis Dimension        Dim             ....  321

ORBITAL ENERGIES
----------------

  NO   OCC          E(Eh)            E(eV)
   0   2.0000     -21.672654      -589.7429
   1   2.0000     -16.537070      -449.9966
   2   2.0000     -12.155030      -330.7552
   3   2.0000     -12.094837      -329.1172
   4   2.0000     -12.093542      -329.0820
   5   2.0000     -12.078834      -328.6818
   6   2.0000     -12.070418      -328.4528
   7   2.0000     -12.060478      -328.1823
   8   2.0000     -12.043047      -327.7080
   9   2.0000      -1.719156       -46.7806
  10   2.0000      -1.530020       -41.6340
  11   2.0000      -1.362291       -37.0698
  12   2.0000      -1.314250       -35.7626
  13   2.0000      -1.259446       -34.2713
  14   2.0000      -1.177975       -32.0543
  15   2.0000      -1.151903       -31.3449
  16   2.0000      -1.103226       -30.0203
  17   2.0000      -1.033465       -28.1220
  18   2.0000      -1.007559       -27.4171
  19   2.0000      -0.971504       -26.4360
  20   2.0000      -0.959745       -26.1160
  21   2.0000      -0.924437       -25.1552
  22   2.0000      -0.904108       -24.6020
  23   2.0000      -0.881755       -23.9938
  24   2.0000      -0.855869       -23.2894
  25   2.0000      -0.841129       -22.8883
  26   2.0000      -0.829412       -22.5695
  27   2.0000      -0.824606       -22.4387
  28   2.0000      -0.821512       -22.3545
  29   2.0000      -0.774216       -21.0675
  30   2.0000      -0.711595       -19.3635
  31   2.0000      -0.664170       -18.0730
  32   0.0000      -0.346306        -9.4235
  33   0.0000      -0.291096        -7.9211
  34   0.0000      -0.223933        -6.0935
  35   0.0000      -0.089099        -2.4245
  36   0.0000      -0.071892        -1.9563

MULLIKEN ATOMIC CHARGES
-----------------------
   0 C :   -0.390776
   1 C :    0.296026
   2 O :   -0.444840
   3 C :    0.075712
   4 C :   -0.184707
   5 C :   -0.143826
   6 C :   -0.032006
   7 N :   -0.286862
   8 C :   -0.072595
   9 H :    0.168954
  10 H :    0.149323
  11 H :    0.169096
  12 H :    0.189714
  13 H :    0.176192
  14 H :    0.168982
  15 H :    0.161613
Sum of atomic charges:    0.0000000

LOEWDIN ATOMIC CHARGES
----------------------
   0 C :   -0.246789
   1 C :   -0.278704
   2 O :    0.039098
   3 C :   -0.138848
   4 C :   -0.052961
   5 C :   -0.138497
   6 C :   -0.179222
   7 N :    0.085429
   8 C :   -0.143446
   9 H :    0.148856
  10 H :    0.133872
  11 H :    0.149321
  12 H :    0.166784
  13 H :    0.159083
  14 H :    0.147379
  15 H :    0.148647

  Mayer bond orders larger than 0.100000
B(  0-C ,  1-C ) :   1.0311 B(  0-C ,  9-H ) :   0.9437 B(  0-C , 10-H ) :   0.9670
B(  0-C , 11-H ) :   0.9421 B(  1-C ,  2-O ) :   1.9712 B(  1-C ,  3-C ) :   0.9612
B(  3-C ,  4-C ) :   1.3305 B(  3-C ,  8-C ) :   1.3495 B(  4-C ,  5-C ) :   1.4587
B(  4-C , 12-H ) :   0.9549 B(  5-C ,  6-C ) :   1.4306 B(  5-C , 13-H ) :   0.9601
B(  6-C ,  7-N ) :   1.4562 B(  6-C , 14-H ) :   0.9628 B(  7-N ,  8-C ) :   1.5295
B(  8-C , 15-H ) :   0.9597

FINAL SINGLE POINT ENERGY      -400.963237539187

DIPOLE MOMENT
-------------

Method             : SCF
Type of density    : Electron Density
Multiplicity       :   1
Irrep              :   0
Energy             :  -400.9718357868871976 Eh
Relativity type    :
Basis              : AO
                                X                 Y                 Z
Electronic contribution:     -2.359026573      -3.610953418       0.062513820
Nuclear contribution   :      1.889440539       6.270210702      -0.099789081
                        -----------------------------------------
Total Dipole Moment    :     -0.469586034       2.659257285      -0.037275261
                        -----------------------------------------
Magnitude (a.u.)       :      2.700657289
Magnitude (Debye)      :      6.864525297

Rotational constants in cm-1:             0.125482             0.041307             0.031258
Rotational constants in MHz :          3761.864799          1238.341054           937.080376

                             ****ORCA TERMINATED NORMALLY****
TOTAL RUN TIME: 0 days 0 hours 2 minutes 35 seconds 346 msec
