                         Program Version 6.0.0  -   RELEASE  -
|  1> ! wb97x-v def2-tzvp def2/J RIJCOSX DEFGRID2 scfconv7 GCP(DFT/TZ) printgap
|  2> %output
|  3>     printlevel normal
|  4> end
|  5> * xyz 0 1
|  6> C -2.185346910925723 -0.031873858261322 -0.0037881143943573805
|  7> C -0.6973792866570441 -0.03649137206318361 -0.0027208610284224725
|  8> C 0.14901696254653085 -1.1164614701593398 0.01759823161065365
|  9> N 1.4251993688631963 -0.5944250558506436 0.00835455637419155
| 10> C 1.3093257751545206 0.7557934636768683 -0.01683678190942174
| 11> N 0.04164680323174498 1.1362903778230478 -0.02412864826086014
| 12> H -2.5801810885298417 0.46340546192156806 -0.8975394324177114
| 13> H -2.5720446026506543 -1.053408996723681 0.018727774250464943
| 14> H -2.58123608785401 0.5027876315412317 0.8664600696956974
| 15> H -0.03640123029588454 -2.179703793793209 0.03717787820402225
| 16> H 2.2884025990877777 -1.1181089194081328 0.01821615123592586
| 17> H 2.1708286728462958 1.4098083957240841 -0.028571888386529548
| 18> *
| 19>
| 20>                          ****END OF INPUT****

CARTESIAN COORDINATES (ANGSTROEM)
---------------------------------
  C     -2.185347   -0.031874   -0.003788
  C     -0.697379   -0.036491   -0.002721
  C      0.149017   -1.116461    0.017598
  N      1.425199   -0.594425    0.008355
  C      1.309326    0.755793   -0.016837
  N      0.041647    1.136290   -0.024129
  H     -2.580181    0.463405   -0.897539
  H     -2.572045   -1.053409    0.018728
  H     -2.581236    0.502788    0.866460
  H     -0.036401   -2.179704    0.037178
  H      2.288403   -1.118109    0.018216
  H      2.170829    1.409808   -0.028572

 Total Charge           Charge          ....    0
 Multiplicity           Mult            ....    1
 Number of Electrons    NEL             ....   44
 Basis Dimension        Dim             ....  222

ORBITAL ENERGIES
----------------

  NO   OCC          E(Eh)            E(eV)
   0   2.0000     -16.583449      -451.2586
   1   2.0000     -16.501689      -449.0338
   2   2.0000     -12.099389      -329.2411
   3   2.0000     -12.068717      -328.4065
   4   2.0000     -12.062642      -328.2412
   5   2.0000     -12.035133      -327.4926
   6   2.0000      -1.595978       -43.4288
   7   2.0000      -1.457813       -39.6691
   8   2.0000      -1.297912       -35.3180
   9   2.0000      -1.207295       -32.8522
  10   2.0000      -1.141558       -31.0634
  11   2.0000      -1.087981       -29.6055
  12   2.0000      -1.037250       -28.2250
  13   2.0000      -0.933746       -25.4085
  14   2.0000      -0.903873       -24.5956
  15   2.0000      -0.894627       -24.3440
  16   2.0000      -0.868518       -23.6336
  17   2.0000      -0.824584       -22.4381
  18   2.0000      -0.814388       -22.1606
  19   2.0000      -0.777164       -21.1477
  20   2.0000      -0.742563       -20.2062
  21   2.0000      -0.624441       -16.9919
  22   0.0000      -0.247225        -6.7273
  23   0.0000      -0.187667        -5.1067
  24   0.0000      -0.079432        -2.1615
  25   0.0000      -0.048819        -1.3284
  26   0.0000      -0.031258        -0.8506

MULLIKEN ATOMIC CHARGES
-----------------------
   0 C :   -0.345183
   1 C :    0.077596
   2 C :   -0.129567
   3 N :   -0.215610
   4 C :    0.045921
   5 N :   -0.289683
   6 H :    0.122014
   7 H :    0.107005
   8 H :    0.122148
   9 H :    0.135832
  10 H :    0.231382
  11 H :    0.138144
Sum of atomic charges:    0.0000000

LOEWDIN ATOMIC CHARGES
----------------------
   0 C :   -0.261926
   1 C :   -0.289834
   2 C :   -0.229036
   3 N :    0.169782
   4 C :   -0.301301
   5 N :    0.091174
   6 H :    0.127471
   7 H :    0.123882
   8 H :    0.127507
   9 H :    0.129690
  10 H :    0.187126
  11 H :    0.125465

  Mayer bond orders larger than 0.100000
B(  0-C ,  1-C ) :   0.9440 B(  0-C ,  6-H ) :   0.9749 B(  0-C ,  7-H ) :   0.9971
B(  0-C ,  8-H ) :   0.9752 B(  1-C ,  2-C ) :   1.6602 B(  1-C ,  5-N ) :   1.3415
B(  2-C ,  3-N ) :   1.1659 B(  2-C ,  9-H ) :   0.9468 B(  3-N ,  4-C ) :   1.2529
B(  3-N , 10-H ) :   0.9201 B(  4-C ,  5-N ) :   1.6831 B(  4-C , 11-H ) :   0.9671

FINAL SINGLE POINT ENERGY      -265.552880434926

DIPOLE MOMENT
-------------

Method             : SCF
Type of density    : Electron Density
Multiplicity       :   1
Irrep              :   0
Energy             :  -265.5595868886260860 Eh
Relativity type    :
Basis              : AO
                                X                 Y                 Z
Electronic contribution:      3.971914340       0.797173018      -0.012325470
Nuclear contribution   :     -3.104798457      -1.880742068       0.032406652
                        -----------------------------------------
Total Dipole Moment    :      0.867115883      -1.083569050       0.020081182
                        -----------------------------------------
Magnitude (a.u.)       :      1.387953564
Magnitude (Debye)      :      3.527897592

Rotational constants in cm-1:             0.300396             0.116877             0.085479
Rotational constants in MHz :          9005.640009          3503.878200          2562.590833

                             ****ORCA TERMINATED NORMALLY****
TOTAL RUN TIME: 0 days 0 hours 1 minutes 12 seconds 305 msec
