                         Program Version 6.0.0  -   RELEASE  -
|  1> ! wb97x-v def2-tzvp def2/J RIJCOSX DEFGRID2 scfconv7 GCP(DFT/TZ) printgap
|  2> %output
|  3>     printlevel normal
|  4> end
|  5> %cpcm
|  6>     smd true
|  7>     smdsolvent "water"
|  8> end
|  9> * xyz 0 1
| 10> C -2.185346910925723 -0.031873858261322 -0.0037881143943573805
| 11> C -0.6973792866570441 -0.03649137206318361 -0.0027208610284224725
| 12> C 0.14901696254653085 -1.1164614701593398 0.01759823161065365
| 13> N 1.4251993688631963 -0.5944250558506436 0.00835455637419155
| 14> C 1.3093257751545206 0.7557934636768683 -0.01683678190942174
| 15> N 0.04164680323174498 1.1362903778230478 -0.02412864826086014
| 16> H -2.5801810885298417 0.46340546192156806 -0.8975394324177114
| 17> H -2.5720446026506543 -1.053408996723681 0.018727774250464943
| 18> H -2.58123608785401 0.5027876315412317 0.8664600696956974
| 19> H -0.03640123029588454 -2.179703793793209 0.03717787820402225
| 20> H 2.2884025990877777 -1.1181089194081328 0.01821615123592586
| 21> H 2.1708286728462958 1.4098083957240841 -0.028571888386529548
| 22> *
| 23>
| 24>                          ****END OF INPUT****

CARTESIAN COORDINATES (ANGSTROEM)
---------------------------------
  C     -2.185347   -0.031874   -0.003788
  C     -0.697379   -0.036491   -0.002721
  C      0.149017   -1.116461    0.017598
  N      1.425199   -0.594425    0.008355
  C      1.309326    0.755793   -0.016837
  N      0.041647    1.136290   -0.024129
  H     -2.580181    0.463405   -0.897539
  H     -2.572045   -1.053409    0.018728
  H     -2.581236    0.502788    0.866460
  H     -0.036401   -2.179704    0.037178
  H      2.288403   -1.118109    0.018216
  H      2.170829    1.409808   -0.028572

 Total Charge           Charge          ....    0
 Multiplicity           Mult            ....    1
 Number of Electrons    NEL             ....   44
 Basis Dimension        Dim             ....  222

ORBITAL ENERGIES
----------------

  NO   OCC          E(Eh)            E(eV)
   0   2.0000     -16.574787      -451.0229
   1   2.0000     -16.508513      -449.2195
   2   2.0000     -12.097579      -329.1919
   3   2.0000     -12.064911      -328.3029
   4   2.0000     -12.062538      -328.2384
   5   2.0000     -12.033676      -327.4530
   6   2.0000      -1.593220       -43.3537
   7   2.0000      -1.458627       -39.6913
   8   2.0000      -1.297198       -35.2986
   9   2.0000      -1.204883       -32.7865
  10   2.0000      -1.134945       -30.8834
  11   2.0000      -1.087748       -29.5991
  12   2.0000      -1.031428       -28.0666
  13   2.0000      -0.930095       -25.3092
  14   2.0000      -0.896550       -24.3964
  15   2.0000      -0.892056       -24.2741
  16   2.0000      -0.868101       -23.6222
  17   2.0000      -0.823944       -22.4207
  18   2.0000      -0.814729       -22.1699
  19   2.0000      -0.785474       -21.3738
  20   2.0000      -0.747600       -20.3432
  21   2.0000      -0.624374       -16.9901
  22   0.0000      -0.246726        -6.7138
  23   0.0000      -0.189234        -5.1493
  24   0.0000      -0.063782        -1.7356
  25   0.0000      -0.042371        -1.1530
  26   0.0000      -0.018741        -0.5100

MULLIKEN ATOMIC CHARGES
-----------------------
   0 C :   -0.399867
   1 C :    0.068670
   2 C :   -0.180927
   3 N :   -0.205591
   4 C :    0.023596
   5 N :   -0.387371
   6 H :    0.136305
   7 H :    0.141637
   8 H :    0.136326
   9 H :    0.184965
  10 H :    0.295943
  11 H :    0.186313
Sum of atomic charges:    0.0000000

LOEWDIN ATOMIC CHARGES
----------------------
   0 C :   -0.271816
   1 C :   -0.312626
   2 C :   -0.221847
   3 N :    0.189965
   4 C :   -0.299634
   5 N :    0.031421
   6 H :    0.128661
   7 H :    0.132794
   8 H :    0.128673
   9 H :    0.143979
  10 H :    0.211750
  11 H :    0.138680

  Mayer bond orders larger than 0.100000
B(  0-C ,  1-C ) :   0.9290 B(  0-C ,  6-H ) :   0.9726 B(  0-C ,  7-H ) :   0.9906
B(  0-C ,  8-H ) :   0.9729 B(  1-C ,  2-C ) :   1.6603 B(  1-C ,  5-N ) :   1.3325
B(  2-C ,  3-N ) :   1.1811 B(  2-C ,  9-H ) :   0.9535 B(  3-N ,  4-C ) :   1.2946
B(  3-N , 10-H ) :   0.8885 B(  4-C ,  5-N ) :   1.6566 B(  4-C , 11-H ) :   0.9550

FINAL SINGLE POINT ENERGY      -265.567168212618

DIPOLE MOMENT
-------------

Method             : SCF
Type of density    : Electron Density
Multiplicity       :   1
Irrep              :   0
Energy             :  -265.5738746663177494 Eh
Relativity type    :
Basis              : AO
                                X                 Y                 Z
Electronic contribution:      4.324043502       0.329666296      -0.003364652
Nuclear contribution   :     -3.104798457      -1.880742068       0.032406652
                        -----------------------------------------
Total Dipole Moment    :      1.219245045      -1.551075773       0.029042001
                        -----------------------------------------
Magnitude (a.u.)       :      1.973128980
Magnitude (Debye)      :      5.015295294

Rotational constants in cm-1:             0.300396             0.116877             0.085479
Rotational constants in MHz :          9005.640009          3503.878200          2562.590833

                             ****ORCA TERMINATED NORMALLY****
TOTAL RUN TIME: 0 days 0 hours 1 minutes 10 seconds 867 msec
