                         Program Version 6.0.0  -   RELEASE  -
|  1> ! pbe def2-sv(p) def2/J RI DEFGRID1 loosescf d4 GCP(DFT/SV(P)) printgap
|  2> %output
|  3>     printlevel normal
|  4> end
|  5> * xyz 0 1
|  6> C -2.3080419396 -1.015783721 -0.220189906
|  7> C -0.9112053991 -0.536150979 0.1895228073
|  8> H -0.8144331578 -0.6488078059 1.2805590514
|  9> C -0.6967268298 0.9476946522 -0.1742979564
| 10> H -1.1743542442 1.162096289 -1.1371275666
| 11> C 0.8086468856 1.2520376426 -0.3447205884
| 12> H 0.9761869203 2.2697230337 0.0289501068
| 13> C 1.6348483163 0.2689976368 0.5026074994
| 14> H 2.7050358074 0.4572275137 0.3413296407
| 15> C 1.3642526185 -1.1760768355 0.0034336851
| 16> H 1.5594813863 -1.8845046973 0.8273401523
| 17> O 0.042881996 -1.3518074114 -0.4623716764
| 18> O 2.2280984387 -1.5224278037 -1.0199728195
| 19> O 1.2814160591 0.4692370732 1.8485567808
| 20> O 1.1474427142 1.1406201398 -1.7060781658
| 21> O -1.3087246366 1.7937121258 0.7640336106
| 22> O -3.3162050839 -0.4207742124 0.5548586927
| 23> H -2.3796424639 -2.0927209447 -0.0544040936
| 24> H -2.4573857184 -0.8167327633 -1.2895774454
| 25> H 1.9331405887 -1.0676519674 -1.8280952117
| 26> H 1.9206850167 0.0369043961 2.4321572875
| 27> H 1.8929554296 1.7215695289 -1.9120200334
| 28> H -0.864668979 1.6868602634 1.6196548004
| 29> H -3.1963955542 0.5425793713 0.5442725576
| 30> *
| 31>
| 32>                          ****END OF INPUT****

CARTESIAN COORDINATES (ANGSTROEM)
---------------------------------
  C     -2.308042   -1.015784   -0.220190
  C     -0.911205   -0.536151    0.189523
  H     -0.814433   -0.648808    1.280559
  C     -0.696727    0.947695   -0.174298
  H     -1.174354    1.162096   -1.137128
  C      0.808647    1.252038   -0.344721
  H      0.976187    2.269723    0.028950
  C      1.634848    0.268998    0.502607
  H      2.705036    0.457228    0.341330
  C      1.364253   -1.176077    0.003434
  H      1.559481   -1.884505    0.827340
  O      0.042882   -1.351807   -0.462372
  O      2.228098   -1.522428   -1.019973
  O      1.281416    0.469237    1.848557
  O      1.147443    1.140620   -1.706078
  O     -1.308725    1.793712    0.764034
  O     -3.316205   -0.420774    0.554859
  H     -2.379642   -2.092721   -0.054404
  H     -2.457386   -0.816733   -1.289577
  H      1.933141   -1.067652   -1.828095
  H      1.920685    0.036904    2.432157
  H      1.892955    1.721570   -1.912020
  H     -0.864669    1.686860    1.619655
  H     -3.196396    0.542579    0.544273

 Total Charge           Charge          ....    0
 Multiplicity           Mult            ....    1
 Number of Electrons    NEL             ....   96
 Basis Dimension        Dim             ....  192

ORBITAL ENERGIES
----------------

  NO   OCC          E(Eh)            E(eV)
   0   2.0000     -18.780905      -511.0544
   1   2.0000     -18.777637      -510.9655
   2   2.0000     -18.765617      -510.6384
   3   2.0000     -18.762936      -510.5654
   4   2.0000     -18.750569      -510.2289
   5   2.0000     -18.733053      -509.7523
   6   2.0000      -9.986798      -271.7546
   7   2.0000      -9.956182      -270.9215
   8   2.0000      -9.952230      -270.8139
   9   2.0000      -9.945084      -270.6195
  10   2.0000      -9.935910      -270.3699
  11   2.0000      -9.921800      -269.9859
  12   2.0000      -0.983081       -26.7510
  13   2.0000      -0.954446       -25.9718
  14   2.0000      -0.948950       -25.8222
  15   2.0000      -0.939852       -25.5747
  16   2.0000      -0.912370       -24.8268
  17   2.0000      -0.905497       -24.6398
  18   2.0000      -0.706223       -19.2173
  19   2.0000      -0.685787       -18.6612
  20   2.0000      -0.618900       -16.8411
  21   2.0000      -0.590780       -16.0759
  22   2.0000      -0.566137       -15.4054
  23   2.0000      -0.529153       -14.3990
  24   2.0000      -0.511297       -13.9131
  25   2.0000      -0.499929       -13.6038
  26   2.0000      -0.475895       -12.9498
  27   2.0000      -0.461162       -12.5488
  28   2.0000      -0.459588       -12.5060
  29   2.0000      -0.435677       -11.8554
  30   2.0000      -0.420461       -11.4413
  31   2.0000      -0.392206       -10.6725
  32   2.0000      -0.386062       -10.5053
  33   2.0000      -0.373664       -10.1679
  34   2.0000      -0.359132        -9.7725
  35   2.0000      -0.350475        -9.5369
  36   2.0000      -0.336849        -9.1661
  37   2.0000      -0.318953        -8.6792
  38   2.0000      -0.306768        -8.3476
  39   2.0000      -0.300454        -8.1758
  40   2.0000      -0.286293        -7.7904
  41   2.0000      -0.277189        -7.5427
  42   2.0000      -0.261312        -7.1107
  43   2.0000      -0.258713        -7.0400
  44   2.0000      -0.237854        -6.4723
  45   2.0000      -0.219887        -5.9834
  46   2.0000      -0.209829        -5.7097
  47   2.0000      -0.196425        -5.3450
  48   0.0000      -0.005416        -0.1474
  49   0.0000       0.006761         0.1840
  50   0.0000       0.042529         1.1573
  51   0.0000       0.055814         1.5188
  52   0.0000       0.065588         1.7847

MULLIKEN ATOMIC CHARGES
-----------------------
   0 C :    0.097970
   1 C :   -0.012069
   2 H :    0.059405
   3 C :    0.062425
   4 H :    0.072497
   5 C :    0.039042
   6 H :    0.072938
   7 C :   -0.037328
   8 H :    0.067676
   9 C :    0.245267
  10 H :    0.048371
  11 O :   -0.302344
  12 O :   -0.400442
  13 O :   -0.417318
  14 O :   -0.409850
  15 O :   -0.425428
  16 O :   -0.447383
  17 H :    0.087690
  18 H :    0.068216
  19 H :    0.296773
  20 H :    0.315384
  21 H :    0.310616
  22 H :    0.309841
  23 H :    0.298052
Sum of atomic charges:   -0.0000000

LOEWDIN ATOMIC CHARGES
----------------------
   0 C :   -0.116567
   1 C :   -0.084238
   2 H :    0.102410
   3 C :   -0.072637
   4 H :    0.121063
   5 C :   -0.069997
   6 H :    0.109139
   7 C :   -0.105971
   8 H :    0.105300
   9 C :    0.007470
  10 H :    0.091398
  11 O :   -0.147926
  12 O :   -0.302627
  13 O :   -0.316157
  14 O :   -0.308784
  15 O :   -0.305612
  16 O :   -0.340076
  17 H :    0.114548
  18 H :    0.095089
  19 H :    0.276241
  20 H :    0.295404
  21 H :    0.294125
  22 H :    0.284311
  23 H :    0.274097

  Mayer bond orders larger than 0.100000
B(  0-C ,  1-C ) :   1.0399 B(  0-C , 16-O ) :   1.0849 B(  0-C , 17-H ) :   0.9193
B(  0-C , 18-H ) :   0.9090 B(  1-C ,  2-H ) :   0.8668 B(  1-C ,  3-C ) :   0.9922
B(  1-C , 11-O ) :   1.0075 B(  3-C ,  4-H ) :   0.8715 B(  3-C ,  5-C ) :   0.9882
B(  3-C , 15-O ) :   1.0161 B(  5-C ,  6-H ) :   0.8947 B(  5-C ,  7-C ) :   1.0118
B(  5-C , 14-O ) :   1.0632 B(  7-C ,  8-H ) :   0.8971 B(  7-C ,  9-C ) :   0.9202
B(  7-C , 13-O ) :   1.0450 B(  9-C , 10-H ) :   0.9033 B(  9-C , 11-O ) :   1.0415
B(  9-C , 12-O ) :   1.1361 B( 12-O , 19-H ) :   0.8270 B( 13-O , 20-H ) :   0.8398
B( 14-O , 21-H ) :   0.8418 B( 15-O , 22-H ) :   0.8322 B( 16-O , 23-H ) :   0.8275

Dispersion correction           -0.025015150
FINAL SINGLE POINT ENERGY      -685.692128107290

DIPOLE MOMENT
-------------

Method             : SCF
Type of density    : Electron Density
Multiplicity       :   1
Irrep              :   0
Energy             :  -685.8235808757675613 Eh
Relativity type    :
Basis              : AO
                                X                 Y                 Z
Electronic contribution:      1.397093416      -0.296321220      -0.451898767
Nuclear contribution   :      0.095494380       1.283657333       0.799985217
                        -----------------------------------------
Total Dipole Moment    :      1.492587796       0.987336113       0.348086450
                        -----------------------------------------
Magnitude (a.u.)       :      1.823133321
Magnitude (Debye)      :      4.634036629

Rotational constants in cm-1:             0.044116             0.025039             0.021881
Rotational constants in MHz :          1322.551893           750.651547           655.968525

                             ****ORCA TERMINATED NORMALLY****
TOTAL RUN TIME: 0 days 0 hours 0 minutes 12 seconds 50 msec
