                         Program Version 6.0.0  -   RELEASE  -
|  1> ! r2scan-3c def2/J RI DEFGRID2 scfconv6 printgap
|  2> %output
|  3>     printlevel normal
|  4> end
|  5> * xyz 0 1
|  6> C -3.9058710372 1.5141307419 -0.0691472829
|  7> C -3.5275136232 0.5554094735 -0.9944461323
|  8> C -2.2442768798 0.0393302046 -0.9773011177
|  9> C -1.3231951214 0.4826598515 -0.0333688825
| 10> C -1.7056143835 1.4563983964 0.884665849
| 11> C -2.9920138506 1.9640695086 0.8694879905
| 12> C 0.05212882 -0.048260078 -0.0091460338
| 13> C 1.1265739508 0.8355010902 -0.0727421301
| 14> C 2.4246227484 0.3597597759 -0.0590543457
| 15> C 2.6907503711 -0.9972981364 0.0240358526
| 16> C 1.6316055464 -1.8836236714 0.1022672491
| 17> C 0.3295387281 -1.4114216887 0.0854652293
| 18> Cl -0.968221233 -2.5581277972 0.2394499923
| 19> Cl 3.7432353179 1.4866609026 -0.1480765369
| 20> H -4.9095829575 1.9108989513 -0.0812982496
| 21> H -4.2340284992 0.2076911479 -1.7330344816
| 22> H -1.9477872017 -0.6978189854 -1.7082668941
| 23> H -0.9938114792 1.7988854702 1.6207305438
| 24> H -3.2821270269 2.7122970069 1.5913934854
| 25> H 0.9350338426 1.8940980082 -0.1464169011
| 26> H 3.7062898547 -1.3561066796 0.0330288745
| 27> H 1.8148896791 -2.9424947888 0.1804704884
| 28> *
| 29>
| 30>                          ****END OF INPUT****

CARTESIAN COORDINATES (ANGSTROEM)
---------------------------------
  C     -3.905871    1.514131   -0.069147
  C     -3.527514    0.555409   -0.994446
  C     -2.244277    0.039330   -0.977301
  C     -1.323195    0.482660   -0.033369
  C     -1.705614    1.456398    0.884666
  C     -2.992014    1.964070    0.869488
  C      0.052129   -0.048260   -0.009146
  C      1.126574    0.835501   -0.072742
  C      2.424623    0.359760   -0.059054
  C      2.690750   -0.997298    0.024036
  C      1.631606   -1.883624    0.102267
  C      0.329539   -1.411422    0.085465
  Cl    -0.968221   -2.558128    0.239450
  Cl     3.743235    1.486661   -0.148077
  H     -4.909583    1.910899   -0.081298
  H     -4.234028    0.207691   -1.733034
  H     -1.947787   -0.697819   -1.708267
  H     -0.993811    1.798885    1.620731
  H     -3.282127    2.712297    1.591393
  H      0.935034    1.894098   -0.146417
  H      3.706290   -1.356107    0.033029
  H      1.814890   -2.942495    0.180470

 Total Charge           Charge          ....    0
 Multiplicity           Mult            ....    1
 Number of Electrons    NEL             ....  114
 Basis Dimension        Dim             ....  322

ORBITAL ENERGIES
----------------

  NO   OCC          E(Eh)            E(eV)
   0   2.0000    -101.225952     -2754.4982
   1   2.0000    -101.224245     -2754.4518
   2   2.0000     -10.111191      -275.1395
   3   2.0000     -10.111135      -275.1380
   4   2.0000     -10.073749      -274.1207
   5   2.0000     -10.062503      -273.8146
   6   2.0000     -10.061202      -273.7792
   7   2.0000     -10.060948      -273.7723
   8   2.0000     -10.058112      -273.6951
   9   2.0000     -10.044993      -273.3382
  10   2.0000     -10.043859      -273.3073
  11   2.0000     -10.043155      -273.2882
  12   2.0000     -10.042654      -273.2745
  13   2.0000     -10.042225      -273.2628
  14   2.0000      -9.381885      -255.2941
  15   2.0000      -9.380271      -255.2502
  16   2.0000      -7.128101      -193.9655
  17   2.0000      -7.126552      -193.9234
  18   2.0000      -7.118143      -193.6945
  19   2.0000      -7.117687      -193.6821
  20   2.0000      -7.116602      -193.6526
  21   2.0000      -7.115893      -193.6333
  22   2.0000      -0.886458       -24.1217
  23   2.0000      -0.851828       -23.1794
  24   2.0000      -0.836277       -22.7562
  25   2.0000      -0.795774       -21.6541
  26   2.0000      -0.766138       -20.8477
  27   2.0000      -0.725960       -19.7544
  28   2.0000      -0.716247       -19.4901
  29   2.0000      -0.692384       -18.8407
  30   2.0000      -0.618987       -16.8435
  31   2.0000      -0.595786       -16.2121
  32   2.0000      -0.579630       -15.7725
  33   2.0000      -0.557385       -15.1672
  34   2.0000      -0.508090       -13.8258
  35   2.0000      -0.485359       -13.2073
  36   2.0000      -0.472505       -12.8575
  37   2.0000      -0.450768       -12.2660
  38   2.0000      -0.432625       -11.7723
  39   2.0000      -0.430160       -11.7052
  40   2.0000      -0.418166       -11.3789
  41   2.0000      -0.406460       -11.0603
  42   2.0000      -0.400823       -10.9070
  43   2.0000      -0.390651       -10.6302
  44   2.0000      -0.366887        -9.9835
  45   2.0000      -0.362202        -9.8560
  46   2.0000      -0.350245        -9.5307
  47   2.0000      -0.347650        -9.4601
  48   2.0000      -0.326121        -8.8742
  49   2.0000      -0.322892        -8.7863
  50   2.0000      -0.295292        -8.0353
  51   2.0000      -0.293070        -7.9748
  52   2.0000      -0.290064        -7.8930
  53   2.0000      -0.269387        -7.3304
  54   2.0000      -0.245188        -6.6719
  55   2.0000      -0.238780        -6.4975
  56   2.0000      -0.223637        -6.0855
  57   0.0000      -0.068397        -1.8612
  58   0.0000      -0.055968        -1.5230
  59   0.0000      -0.039513        -1.0752
  60   0.0000      -0.026890        -0.7317
  61   0.0000      -0.001709        -0.0465

MULLIKEN ATOMIC CHARGES
-----------------------
   0 C :   -0.131052
   1 C :   -0.166679
   2 C :   -0.175013
   3 C :    0.129260
   4 C :   -0.196853
   5 C :   -0.164825
   6 C :    0.133029
   7 C :   -0.291628
   8 C :    0.199651
   9 C :   -0.197350
  10 C :   -0.190867
  11 C :    0.063594
  12 Cl:   -0.122333
  13 Cl:   -0.145101
  14 H :    0.147963
  15 H :    0.146891
  16 H :    0.158553
  17 H :    0.155123
  18 H :    0.146992
  19 H :    0.171883
  20 H :    0.164505
  21 H :    0.164256
Sum of atomic charges:   -0.0000000

LOEWDIN ATOMIC CHARGES
----------------------
   0 C :   -0.159360
   1 C :   -0.157814
   2 C :   -0.142338
   3 C :   -0.080358
   4 C :   -0.142610
   5 C :   -0.158494
   6 C :   -0.069204
   7 C :   -0.145510
   8 C :   -0.164484
   9 C :   -0.165078
  10 C :   -0.157087
  11 C :   -0.149684
  12 Cl:    0.153680
  13 Cl:    0.129208
  14 H :    0.168116
  15 H :    0.169093
  16 H :    0.176313
  17 H :    0.175457
  18 H :    0.168910
  19 H :    0.188597
  20 H :    0.181133
  21 H :    0.181514

  Mayer bond orders larger than 0.100000
B(  0-C ,  1-C ) :   1.4131 B(  0-C ,  5-C ) :   1.4208 B(  0-C , 14-H ) :   0.9461
B(  1-C ,  2-C ) :   1.4433 B(  1-C , 15-H ) :   0.9490 B(  2-C ,  3-C ) :   1.4039
B(  2-C , 16-H ) :   0.9379 B(  3-C ,  4-C ) :   1.4071 B(  3-C ,  6-C ) :   0.7860
B(  4-C ,  5-C ) :   1.4316 B(  4-C , 17-H ) :   0.9442 B(  5-C , 18-H ) :   0.9493
B(  6-C ,  7-C ) :   1.3811 B(  6-C , 11-C ) :   1.3488 B(  7-C ,  8-C ) :   1.3917
B(  7-C , 19-H ) :   0.9317 B(  8-C ,  9-C ) :   1.3831 B(  8-C , 13-Cl) :   0.9128
B(  9-C , 10-C ) :   1.3697 B(  9-C , 20-H ) :   0.9416 B( 10-C , 11-C ) :   1.3522
B( 10-C , 21-H ) :   0.9444 B( 11-C , 12-Cl) :   1.0452

Dispersion correction           -0.010707819
FINAL SINGLE POINT ENERGY     -1382.334367984544

DIPOLE MOMENT
-------------

Method             : SCF
Type of density    : Electron Density
Multiplicity       :   1
Irrep              :   0
Energy             : -1382.3306527981526415 Eh
Relativity type    :
Basis              : AO
                                X                 Y                 Z
Electronic contribution:     11.815684204      -4.722978551       0.327377653
Nuclear contribution   :    -12.084831496       4.747493745      -0.350987305
                        -----------------------------------------
Total Dipole Moment    :     -0.269147292       0.024515195      -0.023609652
                        -----------------------------------------
Magnitude (a.u.)       :      0.271290758
Magnitude (Debye)      :      0.689566305

Rotational constants in cm-1:             0.028570             0.011828             0.008860
Rotational constants in MHz :           856.509361           354.609036           265.614625

                             ****ORCA TERMINATED NORMALLY****
TOTAL RUN TIME: 0 days 0 hours 0 minutes 49 seconds 941 msec
