                         Program Version 6.0.0  -   RELEASE  -
|  1> ! pbe def2-sv(p) def2/J RI DEFGRID1 loosescf d4 GCP(DFT/SV(P)) printgap
|  2> %output
|  3>     printlevel normal
|  4> end
|  5> * xyz 0 1
|  6> C -2.353604893 -0.837119058 0.627117761
|  7> C -0.8904577333 -0.3786097984 0.6660947568
|  8> H -0.5762345509 -0.2820322334 1.7130666837
|  9> C -0.7213584702 0.9811773261 -0.0234651605
| 10> H -1.2446602464 0.9428737969 -0.9896467112
| 11> C 0.7764591505 1.2836922002 -0.3035153957
| 12> H 0.9962516131 2.2762383154 0.1092270474
| 13> C 1.6997725311 0.2534188825 0.3716484247
| 14> H 2.713784403 0.3877966004 -0.0351552883
| 15> C 1.2704227936 -1.1677294872 -0.022952901
| 16> H 1.7391573391 -1.8732599912 0.6872178709
| 17> O -0.1240756766 -1.3781367816 0.0110309355
| 18> O 1.7200558643 -1.3902319572 -1.3204962494
| 19> O 1.7073297203 0.3333832997 1.7721912568
| 20> O 1.051162438 1.3729389966 -1.6796153795
| 21> O -1.2999325344 1.9452356485 0.8230385963
| 22> O -2.8399455235 -0.9890367974 -0.6808624603
| 23> H -2.9663325551 -0.0704180515 1.103084935
| 24> H -2.4417868122 -1.7760468394 1.1860370464
| 25> H 1.497773794 -2.2922576836 -1.5989119383
| 26> H 2.068695623 1.1877607682 2.0505070273
| 27> H 1.1775711419 0.4790484594 -2.039073811
| 28> H -1.4536412359 2.7614707861 0.3267661773
| 29> H -2.3100367565 -1.6677003275 -1.122927599
| 30> *
| 31>
| 32>                          ****END OF INPUT****

CARTESIAN COORDINATES (ANGSTROEM)
---------------------------------
  C     -2.353605   -0.837119    0.627118
  C     -0.890458   -0.378610    0.666095
  H     -0.576235   -0.282032    1.713067
  C     -0.721358    0.981177   -0.023465
  H     -1.244660    0.942874   -0.989647
  C      0.776459    1.283692   -0.303515
  H      0.996252    2.276238    0.109227
  C      1.699773    0.253419    0.371648
  H      2.713784    0.387797   -0.035155
  C      1.270423   -1.167729   -0.022953
  H      1.739157   -1.873260    0.687218
  O     -0.124076   -1.378137    0.011031
  O      1.720056   -1.390232   -1.320496
  O      1.707330    0.333383    1.772191
  O      1.051162    1.372939   -1.679615
  O     -1.299933    1.945236    0.823039
  O     -2.839946   -0.989037   -0.680862
  H     -2.966333   -0.070418    1.103085
  H     -2.441787   -1.776047    1.186037
  H      1.497774   -2.292258   -1.598912
  H      2.068696    1.187761    2.050507
  H      1.177571    0.479048   -2.039074
  H     -1.453641    2.761471    0.326766
  H     -2.310037   -1.667700   -1.122928

 Total Charge           Charge          ....    0
 Multiplicity           Mult            ....    1
 Number of Electrons    NEL             ....   96
 Basis Dimension        Dim             ....  192

ORBITAL ENERGIES
----------------

  NO   OCC          E(Eh)            E(eV)
   0   2.0000     -18.783351      -511.1210
   1   2.0000     -18.772227      -510.8183
   2   2.0000     -18.765537      -510.6362
   3   2.0000     -18.749933      -510.2116
   4   2.0000     -18.741605      -509.9850
   5   2.0000     -18.737535      -509.8743
   6   2.0000      -9.996583      -272.0208
   7   2.0000      -9.949139      -270.7298
   8   2.0000      -9.936376      -270.3825
   9   2.0000      -9.933761      -270.3114
  10   2.0000      -9.929819      -270.2041
  11   2.0000      -9.922903      -270.0159
  12   2.0000      -0.991889       -26.9907
  13   2.0000      -0.943583       -25.6762
  14   2.0000      -0.933530       -25.4026
  15   2.0000      -0.925834       -25.1932
  16   2.0000      -0.913572       -24.8595
  17   2.0000      -0.911816       -24.8118
  18   2.0000      -0.693792       -18.8790
  19   2.0000      -0.691338       -18.8123
  20   2.0000      -0.622824       -16.9479
  21   2.0000      -0.580644       -15.8001
  22   2.0000      -0.567563       -15.4442
  23   2.0000      -0.527938       -14.3659
  24   2.0000      -0.501513       -13.6469
  25   2.0000      -0.486906       -13.2494
  26   2.0000      -0.474240       -12.9047
  27   2.0000      -0.452575       -12.3152
  28   2.0000      -0.444139       -12.0856
  29   2.0000      -0.438760       -11.9393
  30   2.0000      -0.422643       -11.5007
  31   2.0000      -0.391346       -10.6491
  32   2.0000      -0.373652       -10.1676
  33   2.0000      -0.363626        -9.8948
  34   2.0000      -0.362446        -9.8626
  35   2.0000      -0.353072        -9.6076
  36   2.0000      -0.337053        -9.1717
  37   2.0000      -0.325025        -8.8444
  38   2.0000      -0.300891        -8.1877
  39   2.0000      -0.293011        -7.9732
  40   2.0000      -0.279442        -7.6040
  41   2.0000      -0.266759        -7.2589
  42   2.0000      -0.255124        -6.9423
  43   2.0000      -0.243914        -6.6372
  44   2.0000      -0.234716        -6.3869
  45   2.0000      -0.218843        -5.9550
  46   2.0000      -0.210812        -5.7365
  47   2.0000      -0.195495        -5.3197
  48   0.0000       0.007427         0.2021
  49   0.0000       0.020847         0.5673
  50   0.0000       0.033051         0.8994
  51   0.0000       0.047225         1.2851
  52   0.0000       0.064612         1.7582

MULLIKEN ATOMIC CHARGES
-----------------------
   0 C :    0.095228
   1 C :   -0.001949
   2 H :    0.078216
   3 C :    0.054149
   4 H :    0.051197
   5 C :    0.102243
   6 H :    0.038584
   7 C :   -0.033111
   8 H :    0.085690
   9 C :    0.192871
  10 H :    0.071371
  11 O :   -0.336283
  12 O :   -0.397354
  13 O :   -0.403450
  14 O :   -0.430586
  15 O :   -0.422258
  16 O :   -0.438221
  17 H :    0.091793
  18 H :    0.074685
  19 H :    0.313501
  20 H :    0.312046
  21 H :    0.301365
  22 H :    0.305943
  23 H :    0.294328
Sum of atomic charges:   -0.0000000

LOEWDIN ATOMIC CHARGES
----------------------
   0 C :   -0.124963
   1 C :   -0.076526
   2 H :    0.114742
   3 C :   -0.077347
   4 H :    0.105131
   5 C :   -0.075085
   6 H :    0.105063
   7 C :   -0.092855
   8 H :    0.112684
   9 C :    0.008961
  10 H :    0.096171
  11 O :   -0.163332
  12 O :   -0.297817
  13 O :   -0.306289
  14 O :   -0.325336
  15 O :   -0.319807
  16 O :   -0.332264
  17 H :    0.121930
  18 H :    0.099339
  19 H :    0.293629
  20 H :    0.293389
  21 H :    0.271666
  22 H :    0.290071
  23 H :    0.278846

  Mayer bond orders larger than 0.100000
B(  0-C ,  1-C ) :   1.0386 B(  0-C , 16-O ) :   1.0608 B(  0-C , 17-H ) :   0.9159
B(  0-C , 18-H ) :   0.9167 B(  1-C ,  2-H ) :   0.8550 B(  1-C ,  3-C ) :   1.0496
B(  1-C , 11-O ) :   0.9868 B(  3-C ,  4-H ) :   0.8653 B(  3-C ,  5-C ) :   0.9444
B(  3-C , 15-O ) :   1.0589 B(  5-C ,  6-H ) :   0.8772 B(  5-C ,  7-C ) :   1.0166
B(  5-C , 14-O ) :   1.0706 B(  7-C ,  8-H ) :   0.8949 B(  7-C ,  9-C ) :   0.9770
B(  7-C , 13-O ) :   1.0549 B(  9-C , 10-H ) :   0.9043 B(  9-C , 11-O ) :   1.0520
B(  9-C , 12-O ) :   1.1104 B( 12-O , 19-H ) :   0.8376 B( 13-O , 20-H ) :   0.8435
B( 14-O , 21-H ) :   0.8158 B( 15-O , 22-H ) :   0.8476 B( 16-O , 23-H ) :   0.8452

Dispersion correction           -0.024817917
FINAL SINGLE POINT ENERGY      -685.692672975605

DIPOLE MOMENT
-------------

Method             : SCF
Type of density    : Electron Density
Multiplicity       :   1
Irrep              :   0
Energy             :  -685.8235825757863040 Eh
Relativity type    :
Basis              : AO
                                X                 Y                 Z
Electronic contribution:      1.475701056      -0.400079692      -1.227519970
Nuclear contribution   :     -0.746848729       0.067362658       1.288314737
                        -----------------------------------------
Total Dipole Moment    :      0.728852327      -0.332717034       0.060794767
                        -----------------------------------------
Magnitude (a.u.)       :      0.803506281
Magnitude (Debye)      :      2.042350658

Rotational constants in cm-1:             0.039383             0.027125             0.023220
Rotational constants in MHz :          1180.679757           813.176524           696.130944

                             ****ORCA TERMINATED NORMALLY****
TOTAL RUN TIME: 0 days 0 hours 0 minutes 12 seconds 128 msec
