                         Program Version 6.0.0  -   RELEASE  -
|  1> ! r2scan-3c def2/J RI DEFGRID2 scfconv6 printgap
|  2> %output
|  3>     printlevel normal
|  4> end
|  5> * xyz 0 1
|  6> C -2.4972278908 1.0081301745 -0.0043512115
|  7> C -1.7182756428 -0.2078118663 -0.4968951265
|  8> C -0.5908302689 -0.6304003602 0.4570340039
|  9> C 0.8334050666 -0.1685127112 0.0914818952
| 10> C 1.3088548445 -0.8554522366 -1.191726628
| 11> C 0.9074524309 1.3492033541 -0.0835875588
| 12> C 1.7671818365 -0.5770681418 1.237206341
| 13> H -2.9559392338 0.7983063033 0.9597203643
| 14> H -1.8492614934 1.8725451879 0.1064511227
| 15> H -3.2870212726 1.2604318953 -0.7089984628
| 16> H -2.4192505431 -1.0384806531 -0.6048019344
| 17> H -1.3170958258 3.58869e-05 -1.4890597297
| 18> H -0.5692516812 -1.7210831742 0.517730861
| 19> H -0.8271193339 -0.2598666066 1.4570846027
| 20> H 2.3323306369 -0.5638032453 -1.4167386854
| 21> H 1.2774677318 -1.9369162929 -1.0793109319
| 22> H 0.6873158998 -0.5824497318 -2.0404916082
| 23> H 1.9363534473 1.6535530354 -0.2647290737
| 24> H 0.5564017766 1.8543758738 0.8133705233
| 25> H 0.3066747607 1.6756818395 -0.9278824933
| 26> H 1.7305373662 -1.6524289905 1.3970767982
| 27> H 2.7939450392 -0.3002618889 1.0089623379
| 28> H 1.4780662361 -0.0835083952 2.1624374598
| 29> *
| 30>
| 31>                          ****END OF INPUT****

CARTESIAN COORDINATES (ANGSTROEM)
---------------------------------
  C     -2.497228    1.008130   -0.004351
  C     -1.718276   -0.207812   -0.496895
  C     -0.590830   -0.630400    0.457034
  C      0.833405   -0.168513    0.091482
  C      1.308855   -0.855452   -1.191727
  C      0.907452    1.349203   -0.083588
  C      1.767182   -0.577068    1.237206
  H     -2.955939    0.798306    0.959720
  H     -1.849261    1.872545    0.106451
  H     -3.287021    1.260432   -0.708998
  H     -2.419251   -1.038481   -0.604802
  H     -1.317096    0.000036   -1.489060
  H     -0.569252   -1.721083    0.517731
  H     -0.827119   -0.259867    1.457085
  H      2.332331   -0.563803   -1.416739
  H      1.277468   -1.936916   -1.079311
  H      0.687316   -0.582450   -2.040492
  H      1.936353    1.653553   -0.264729
  H      0.556402    1.854376    0.813371
  H      0.306675    1.675682   -0.927882
  H      1.730537   -1.652429    1.397077
  H      2.793945   -0.300262    1.008962
  H      1.478066   -0.083508    2.162437

 Total Charge           Charge          ....    0
 Multiplicity           Mult            ....    1
 Number of Electrons    NEL             ....   58
 Basis Dimension        Dim             ....  213

ORBITAL ENERGIES
----------------

  NO   OCC          E(Eh)            E(eV)
   0   2.0000     -10.038833      -273.1705
   1   2.0000     -10.021376      -272.6955
   2   2.0000     -10.017811      -272.5985
   3   2.0000     -10.012767      -272.4612
   4   2.0000     -10.012063      -272.4421
   5   2.0000     -10.011561      -272.4284
   6   2.0000     -10.011261      -272.4203
   7   2.0000      -0.792351       -21.5610
   8   2.0000      -0.731200       -19.8970
   9   2.0000      -0.651261       -17.7217
  10   2.0000      -0.648945       -17.6587
  11   2.0000      -0.639993       -17.4151
  12   2.0000      -0.556960       -15.1556
  13   2.0000      -0.493446       -13.4274
  14   2.0000      -0.436544       -11.8790
  15   2.0000      -0.425054       -11.5663
  16   2.0000      -0.407953       -11.1010
  17   2.0000      -0.391359       -10.6494
  18   2.0000      -0.381675       -10.3859
  19   2.0000      -0.369658       -10.0589
  20   2.0000      -0.348479        -9.4826
  21   2.0000      -0.341735        -9.2991
  22   2.0000      -0.330761        -9.0005
  23   2.0000      -0.320983        -8.7344
  24   2.0000      -0.310974        -8.4620
  25   2.0000      -0.302915        -8.2427
  26   2.0000      -0.282637        -7.6909
  27   2.0000      -0.277152        -7.5417
  28   2.0000      -0.270920        -7.3721
  29   0.0000       0.077499         2.1089
  30   0.0000       0.103044         2.8040
  31   0.0000       0.111770         3.0414
  32   0.0000       0.118090         3.2134
  33   0.0000       0.128322         3.4918

MULLIKEN ATOMIC CHARGES
-----------------------
   0 C :   -0.498417
   1 C :   -0.226377
   2 C :   -0.294807
   3 C :    0.113385
   4 C :   -0.496101
   5 C :   -0.526894
   6 C :   -0.488891
   7 H :    0.146229
   8 H :    0.153366
   9 H :    0.144715
  10 H :    0.143031
  11 H :    0.137585
  12 H :    0.154919
  13 H :    0.151617
  14 H :    0.152719
  15 H :    0.152784
  16 H :    0.150127
  17 H :    0.151673
  18 H :    0.160509
  19 H :    0.161470
  20 H :    0.151290
  21 H :    0.153326
  22 H :    0.152743
Sum of atomic charges:    0.0000000

LOEWDIN ATOMIC CHARGES
----------------------
   0 C :   -0.426430
   1 C :   -0.316669
   2 C :   -0.297939
   3 C :   -0.212413
   4 C :   -0.408192
   5 C :   -0.408849
   6 C :   -0.409604
   7 H :    0.148783
   8 H :    0.150805
   9 H :    0.149350
  10 H :    0.153501
  11 H :    0.152627
  12 H :    0.160470
  13 H :    0.161349
  14 H :    0.156258
  15 H :    0.156621
  16 H :    0.153566
  17 H :    0.156507
  18 H :    0.156914
  19 H :    0.156442
  20 H :    0.156415
  21 H :    0.154862
  22 H :    0.155628

  Mayer bond orders larger than 0.100000
B(  0-C ,  1-C ) :   0.9022 B(  0-C ,  7-H ) :   0.9864 B(  0-C ,  8-H ) :   0.9751
B(  0-C ,  9-H ) :   0.9756 B(  1-C ,  2-C ) :   0.8448 B(  1-C , 10-H ) :   0.9698
B(  1-C , 11-H ) :   0.9790 B(  2-C ,  3-C ) :   0.8926 B(  2-C , 12-H ) :   0.9784
B(  2-C , 13-H ) :   0.9867 B(  3-C ,  4-C ) :   0.9509 B(  3-C ,  5-C ) :   0.8987
B(  3-C ,  6-C ) :   0.9382 B(  4-C , 14-H ) :   0.9766 B(  4-C , 15-H ) :   0.9757
B(  4-C , 16-H ) :   0.9686 B(  5-C , 17-H ) :   0.9714 B(  5-C , 18-H ) :   0.9769
B(  5-C , 19-H ) :   0.9705 B(  6-C , 20-H ) :   0.9757 B(  6-C , 21-H ) :   0.9781
B(  6-C , 22-H ) :   0.9779

Dispersion correction           -0.006635584
FINAL SINGLE POINT ENERGY      -276.286658390546

DIPOLE MOMENT
-------------

Method             : SCF
Type of density    : Electron Density
Multiplicity       :   1
Irrep              :   0
Energy             :  -276.2913584108777059 Eh
Relativity type    :
Basis              : AO
                                X                 Y                 Z
Electronic contribution:      0.105897919      -0.942232301       0.092173437
Nuclear contribution   :     -0.118064323       0.915768502      -0.102427386
                        -----------------------------------------
Total Dipole Moment    :     -0.012166404      -0.026463799      -0.010253949
                        -----------------------------------------
Magnitude (a.u.)       :      0.030878755
Magnitude (Debye)      :      0.078487557

Rotational constants in cm-1:             0.128866             0.052663             0.051042
Rotational constants in MHz :          3863.295885          1578.791074          1530.197722

                             ****ORCA TERMINATED NORMALLY****
TOTAL RUN TIME: 0 days 0 hours 0 minutes 18 seconds 395 msec
