                         Program Version 6.0.0  -   RELEASE  -
|  1> ! r2scan-3c def2/J RI DEFGRID2 scfconv6 printgap
|  2> %output
|  3>     printlevel normal
|  4> end
|  5> %cpcm
|  6>     smd true
|  7>     smdsolvent "water"
|  8> end
|  9> * xyz 0 1
| 10> C -2.4972278908 1.0081301745 -0.0043512115
| 11> C -1.7182756428 -0.2078118663 -0.4968951265
| 12> C -0.5908302689 -0.6304003602 0.4570340039
| 13> C 0.8334050666 -0.1685127112 0.0914818952
| 14> C 1.3088548445 -0.8554522366 -1.191726628
| 15> C 0.9074524309 1.3492033541 -0.0835875588
| 16> C 1.7671818365 -0.5770681418 1.237206341
| 17> H -2.9559392338 0.7983063033 0.9597203643
| 18> H -1.8492614934 1.8725451879 0.1064511227
| 19> H -3.2870212726 1.2604318953 -0.7089984628
| 20> H -2.4192505431 -1.0384806531 -0.6048019344
| 21> H -1.3170958258 3.58869e-05 -1.4890597297
| 22> H -0.5692516812 -1.7210831742 0.517730861
| 23> H -0.8271193339 -0.2598666066 1.4570846027
| 24> H 2.3323306369 -0.5638032453 -1.4167386854
| 25> H 1.2774677318 -1.9369162929 -1.0793109319
| 26> H 0.6873158998 -0.5824497318 -2.0404916082
| 27> H 1.9363534473 1.6535530354 -0.2647290737
| 28> H 0.5564017766 1.8543758738 0.8133705233
| 29> H 0.3066747607 1.6756818395 -0.9278824933
| 30> H 1.7305373662 -1.6524289905 1.3970767982
| 31> H 2.7939450392 -0.3002618889 1.0089623379
| 32> H 1.4780662361 -0.0835083952 2.1624374598
| 33> *
| 34>
| 35>                          ****END OF INPUT****

CARTESIAN COORDINATES (ANGSTROEM)
---------------------------------
  C     -2.497228    1.008130   -0.004351
  C     -1.718276   -0.207812   -0.496895
  C     -0.590830   -0.630400    0.457034
  C      0.833405   -0.168513    0.091482
  C      1.308855   -0.855452   -1.191727
  C      0.907452    1.349203   -0.083588
  C      1.767182   -0.577068    1.237206
  H     -2.955939    0.798306    0.959720
  H     -1.849261    1.872545    0.106451
  H     -3.287021    1.260432   -0.708998
  H     -2.419251   -1.038481   -0.604802
  H     -1.317096    0.000036   -1.489060
  H     -0.569252   -1.721083    0.517731
  H     -0.827119   -0.259867    1.457085
  H      2.332331   -0.563803   -1.416739
  H      1.277468   -1.936916   -1.079311
  H      0.687316   -0.582450   -2.040492
  H      1.936353    1.653553   -0.264729
  H      0.556402    1.854376    0.813371
  H      0.306675    1.675682   -0.927882
  H      1.730537   -1.652429    1.397077
  H      2.793945   -0.300262    1.008962
  H      1.478066   -0.083508    2.162437

 Total Charge           Charge          ....    0
 Multiplicity           Mult            ....    1
 Number of Electrons    NEL             ....   58
 Basis Dimension        Dim             ....  213

ORBITAL ENERGIES
----------------

  NO   OCC          E(Eh)            E(eV)
   0   2.0000     -10.031324      -272.9662
   1   2.0000     -10.013343      -272.4769
   2   2.0000     -10.009591      -272.3748
   3   2.0000     -10.005593      -272.2660
   4   2.0000     -10.003533      -272.2100
   5   2.0000     -10.003364      -272.2054
   6   2.0000     -10.003351      -272.2050
   7   2.0000      -0.784408       -21.3448
   8   2.0000      -0.723760       -19.6945
   9   2.0000      -0.643415       -17.5082
  10   2.0000      -0.641594       -17.4587
  11   2.0000      -0.632812       -17.2197
  12   2.0000      -0.549668       -14.9572
  13   2.0000      -0.485999       -13.2247
  14   2.0000      -0.428478       -11.6595
  15   2.0000      -0.417232       -11.3535
  16   2.0000      -0.400184       -10.8896
  17   2.0000      -0.383758       -10.4426
  18   2.0000      -0.374099       -10.1798
  19   2.0000      -0.362036        -9.8515
  20   2.0000      -0.340613        -9.2686
  21   2.0000      -0.334179        -9.0935
  22   2.0000      -0.322776        -8.7832
  23   2.0000      -0.313293        -8.5251
  24   2.0000      -0.303112        -8.2481
  25   2.0000      -0.295336        -8.0365
  26   2.0000      -0.274792        -7.4775
  27   2.0000      -0.269413        -7.3311
  28   2.0000      -0.263055        -7.1581
  29   0.0000       0.086225         2.3463
  30   0.0000       0.110664         3.0113
  31   0.0000       0.119421         3.2496
  32   0.0000       0.125100         3.4041
  33   0.0000       0.135575         3.6892

MULLIKEN ATOMIC CHARGES
-----------------------
   0 C :   -0.534054
   1 C :   -0.241979
   2 C :   -0.320912
   3 C :    0.173522
   4 C :   -0.550991
   5 C :   -0.568938
   6 C :   -0.541065
   7 H :    0.156247
   8 H :    0.160772
   9 H :    0.153432
  10 H :    0.150742
  11 H :    0.151276
  12 H :    0.164533
  13 H :    0.160039
  14 H :    0.164074
  15 H :    0.163846
  16 H :    0.164064
  17 H :    0.162287
  18 H :    0.170076
  19 H :    0.171783
  20 H :    0.162194
  21 H :    0.165020
  22 H :    0.164030
Sum of atomic charges:    0.0000000

LOEWDIN ATOMIC CHARGES
----------------------
   0 C :   -0.434396
   1 C :   -0.319780
   2 C :   -0.301204
   3 C :   -0.207332
   4 C :   -0.417503
   5 C :   -0.416340
   6 C :   -0.418923
   7 H :    0.150909
   8 H :    0.152442
   9 H :    0.150994
  10 H :    0.154755
  11 H :    0.156447
  12 H :    0.162428
  13 H :    0.163033
  14 H :    0.158565
  15 H :    0.158713
  16 H :    0.156747
  17 H :    0.158309
  18 H :    0.159224
  19 H :    0.159238
  20 H :    0.158418
  21 H :    0.157366
  22 H :    0.157889

  Mayer bond orders larger than 0.100000
B(  0-C ,  1-C ) :   0.8940 B(  0-C ,  7-H ) :   0.9835 B(  0-C ,  8-H ) :   0.9741
B(  0-C ,  9-H ) :   0.9737 B(  1-C ,  2-C ) :   0.8396 B(  1-C , 10-H ) :   0.9709
B(  1-C , 11-H ) :   0.9786 B(  2-C ,  3-C ) :   0.8870 B(  2-C , 12-H ) :   0.9789
B(  2-C , 13-H ) :   0.9865 B(  3-C ,  4-C ) :   0.9347 B(  3-C ,  5-C ) :   0.8900
B(  3-C ,  6-C ) :   0.9207 B(  4-C , 14-H ) :   0.9754 B(  4-C , 15-H ) :   0.9747
B(  4-C , 16-H ) :   0.9674 B(  5-C , 17-H ) :   0.9710 B(  5-C , 18-H ) :   0.9741
B(  5-C , 19-H ) :   0.9687 B(  6-C , 20-H ) :   0.9749 B(  6-C , 21-H ) :   0.9767
B(  6-C , 22-H ) :   0.9765

Dispersion correction           -0.006635584
FINAL SINGLE POINT ENERGY      -276.283008042494

DIPOLE MOMENT
-------------

Method             : SCF
Type of density    : Electron Density
Multiplicity       :   1
Irrep              :   0
Energy             :  -276.2877080628249473 Eh
Relativity type    :
Basis              : AO
                                X                 Y                 Z
Electronic contribution:      0.102613101      -0.941350421       0.080518442
Nuclear contribution   :     -0.118064323       0.915768502      -0.102427386
                        -----------------------------------------
Total Dipole Moment    :     -0.015451222      -0.025581919      -0.021908944
                        -----------------------------------------
Magnitude (a.u.)       :      0.037056399
Magnitude (Debye)      :      0.094189880

Rotational constants in cm-1:             0.128866             0.052663             0.051042
Rotational constants in MHz :          3863.295885          1578.791074          1530.197722

                             ****ORCA TERMINATED NORMALLY****
TOTAL RUN TIME: 0 days 0 hours 0 minutes 22 seconds 397 msec
