                         Program Version 6.0.0  -   RELEASE  -
|  1> ! pbe def2-sv(p) def2/J RI DEFGRID1 loosescf d4 GCP(DFT/SV(P)) printgap
|  2> %output
|  3>     printlevel normal
|  4> end
|  5> * xyz 0 1
|  6> C 1.9512130963 0.0001676177 -0.7701387009
|  7> C 1.111877896 -0.0001811812 0.5187647158
|  8> C 0.2331530874 1.2508374007 0.6380836299
|  9> C -0.9114865757 1.2485923151 -0.3713506029
| 10> C -1.7698620459 4.08167e-05 -0.1990474118
| 11> C -0.9113970672 -1.2484675809 -0.3715038854
| 12> C 0.232915086 -1.251008535 0.6382324587
| 13> H 3.013408145 0.0042198828 -0.5388734645
| 14> H 1.7481811771 -0.8806078581 -1.3732296951
| 15> H 1.7423533382 0.8770555549 -1.3768933268
| 16> H 1.7984619659 -0.00040594 1.3732388322
| 17> H -0.1883292269 1.2882033064 1.6458596999
| 18> H 0.8481216483 2.1433335463 0.5034829036
| 19> H -1.5212983856 2.1441352357 -0.2338777339
| 20> H -0.5121573895 1.2712668875 -1.3870206553
| 21> H -2.2152979543 -2.27946e-05 0.7987630088
| 22> H -2.5816490155 3.33319e-05 -0.929367614
| 23> H -1.5213065099 -2.14399708 -0.2341491825
| 24> H -0.5118857854 -1.2710767214 -1.387176151
| 25> H -0.1886081327 -1.2883027779 1.6460148871
| 26> H 0.8477576176 -2.1436064035 0.5036502759
| 27> *
| 28>
| 29>                          ****END OF INPUT****

CARTESIAN COORDINATES (ANGSTROEM)
---------------------------------
  C      1.951213    0.000168   -0.770139
  C      1.111878   -0.000181    0.518765
  C      0.233153    1.250837    0.638084
  C     -0.911487    1.248592   -0.371351
  C     -1.769862    0.000041   -0.199047
  C     -0.911397   -1.248468   -0.371504
  C      0.232915   -1.251009    0.638232
  H      3.013408    0.004220   -0.538873
  H      1.748181   -0.880608   -1.373230
  H      1.742353    0.877056   -1.376893
  H      1.798462   -0.000406    1.373239
  H     -0.188329    1.288203    1.645860
  H      0.848122    2.143334    0.503483
  H     -1.521298    2.144135   -0.233878
  H     -0.512157    1.271267   -1.387021
  H     -2.215298   -0.000023    0.798763
  H     -2.581649    0.000033   -0.929368
  H     -1.521307   -2.143997   -0.234149
  H     -0.511886   -1.271077   -1.387176
  H     -0.188608   -1.288303    1.646015
  H      0.847758   -2.143606    0.503650

 Total Charge           Charge          ....    0
 Multiplicity           Mult            ....    1
 Number of Electrons    NEL             ....   56
 Basis Dimension        Dim             ....  126

ORBITAL ENERGIES
----------------

  NO   OCC          E(Eh)            E(eV)
   0   2.0000      -9.886451      -269.0240
   1   2.0000      -9.875867      -268.7360
   2   2.0000      -9.875859      -268.7358
   3   2.0000      -9.875794      -268.7340
   4   2.0000      -9.875315      -268.7210
   5   2.0000      -9.875306      -268.7207
   6   2.0000      -9.868839      -268.5448
   7   2.0000      -0.753073       -20.4922
   8   2.0000      -0.678719       -18.4689
   9   2.0000      -0.660118       -17.9627
  10   2.0000      -0.602367       -16.3912
  11   2.0000      -0.535268       -14.5654
  12   2.0000      -0.526114       -14.3163
  13   2.0000      -0.469259       -12.7692
  14   2.0000      -0.431807       -11.7501
  15   2.0000      -0.402232       -10.9453
  16   2.0000      -0.394866       -10.7449
  17   2.0000      -0.378879       -10.3098
  18   2.0000      -0.352070        -9.5803
  19   2.0000      -0.346336        -9.4243
  20   2.0000      -0.328551        -8.9403
  21   2.0000      -0.312628        -8.5070
  22   2.0000      -0.309646        -8.4259
  23   2.0000      -0.294681        -8.0187
  24   2.0000      -0.291312        -7.9270
  25   2.0000      -0.268809        -7.3147
  26   2.0000      -0.250054        -6.8043
  27   2.0000      -0.248258        -6.7554
  28   0.0000       0.031257         0.8505
  29   0.0000       0.050716         1.3800
  30   0.0000       0.069310         1.8860
  31   0.0000       0.074987         2.0405
  32   0.0000       0.091473         2.4891

MULLIKEN ATOMIC CHARGES
-----------------------
   0 C :   -0.263112
   1 C :   -0.152557
   2 C :   -0.137052
   3 C :   -0.154469
   4 C :   -0.153457
   5 C :   -0.154452
   6 C :   -0.137088
   7 H :    0.098670
   8 H :    0.102971
   9 H :    0.103027
  10 H :    0.066856
  11 H :    0.070348
  12 H :    0.081965
  13 H :    0.083396
  14 H :    0.077756
  15 H :    0.071576
  16 H :    0.082167
  17 H :    0.083383
  18 H :    0.077743
  19 H :    0.070373
  20 H :    0.081955
Sum of atomic charges:    0.0000000

LOEWDIN ATOMIC CHARGES
----------------------
   0 C :   -0.336662
   1 C :   -0.152155
   2 C :   -0.218453
   3 C :   -0.228033
   4 C :   -0.225569
   5 C :   -0.228017
   6 C :   -0.218468
   7 H :    0.122129
   8 H :    0.117955
   9 H :    0.117945
  10 H :    0.113998
  11 H :    0.112716
  12 H :    0.112748
  13 H :    0.115671
  14 H :    0.113247
  15 H :    0.112349
  16 H :    0.114219
  17 H :    0.115657
  18 H :    0.113265
  19 H :    0.112719
  20 H :    0.112739

  Mayer bond orders larger than 0.100000
B(  0-C ,  1-C ) :   1.0771 B(  0-C ,  7-H ) :   0.9506 B(  0-C ,  8-H ) :   0.9513
B(  0-C ,  9-H ) :   0.9513 B(  1-C ,  2-C ) :   1.1054 B(  1-C ,  6-C ) :   1.1057
B(  1-C , 10-H ) :   0.9073 B(  2-C ,  3-C ) :   1.1284 B(  2-C , 11-H ) :   0.9128
B(  2-C , 12-H ) :   0.9176 B(  3-C ,  4-C ) :   1.1304 B(  3-C , 13-H ) :   0.9195
B(  3-C , 14-H ) :   0.9124 B(  4-C ,  5-C ) :   1.1303 B(  4-C , 15-H ) :   0.9151
B(  4-C , 16-H ) :   0.9207 B(  5-C ,  6-C ) :   1.1285 B(  5-C , 17-H ) :   0.9195
B(  5-C , 18-H ) :   0.9125 B(  6-C , 19-H ) :   0.9128 B(  6-C , 20-H ) :   0.9175

Dispersion correction           -0.019048316
FINAL SINGLE POINT ENERGY      -274.484752756862

DIPOLE MOMENT
-------------

Method             : SCF
Type of density    : Electron Density
Multiplicity       :   1
Irrep              :   0
Energy             :  -274.5557759570583585 Eh
Relativity type    :
Basis              : AO
                                X                 Y                 Z
Electronic contribution:     -0.689338308      -0.000187364       0.936920118
Nuclear contribution   :      0.710894443       0.000214061      -0.928385707
                        -----------------------------------------
Total Dipole Moment    :      0.021556135       0.000026697       0.008534411
                        -----------------------------------------
Magnitude (a.u.)       :      0.023184129
Magnitude (Debye)      :      0.058929373

Rotational constants in cm-1:             0.117879             0.085223             0.065276
Rotational constants in MHz :          3533.925560          2554.923428          1956.931280

                             ****ORCA TERMINATED NORMALLY****
TOTAL RUN TIME: 0 days 0 hours 0 minutes 9 seconds 79 msec
