                         Program Version 6.0.0  -   RELEASE  -
|  1> ! pbe def2-sv(p) def2/J RI DEFGRID1 loosescf d4 GCP(DFT/SV(P)) printgap
|  2> %output
|  3>     printlevel normal
|  4> end
|  5> * xyz 0 1
|  6> C 3.4893464487 0.4847854607 0.3578126298
|  7> C 2.1896555344 0.3586322397 -0.4346763973
|  8> H 2.4374815521 0.3950135614 -1.5007740972
|  9> C 1.2242547985 1.5130026413 -0.124448292
| 10> C 0.2691101855 1.1535946092 1.0101053131
| 11> C -0.6634992079 -0.025386927 0.6607997338
| 12> H -0.7779098733 -0.6387153538 1.5645691007
| 13> C 0.0045253048 -0.9303753866 -0.3938150612
| 14> H -0.1721992406 -0.5477225367 -1.4027045247
| 15> C 1.5138203959 -0.9845529064 -0.1349012829
| 16> O -0.543824926 -2.236081715 -0.4212759004
| 17> C -2.0884054129 0.4515829291 0.2998358764
| 18> C -2.1671382781 1.2850400134 -0.977519664
| 19> C -3.0648525215 -0.7212821947 0.2121946472
| 20> H 4.0219656718 1.3898351533 0.0755798963
| 21> H 3.2836752899 0.5252998298 1.4250123794
| 22> H 4.1356026796 -0.3682773252 0.1642598746
| 23> H 1.7947498587 2.4017962385 0.1506750624
| 24> H 0.6501784183 1.756137918 -1.0180178644
| 25> H 0.8614820204 0.9013049185 1.8912951635
| 26> H -0.3327971362 2.0258374912 1.269616721
| 27> H 1.676659869 -1.2565350195 0.9110070383
| 28> H 1.9493091857 -1.7706956555 -0.7548678561
| 29> H -0.3737249757 -2.6616416318 0.4303628881
| 30> H -2.414503829 1.0907043181 1.1310539001
| 31> H -1.8839832872 0.6967280135 -1.846507982
| 32> H -1.5263596883 2.1599124587 -0.9175221588
| 33> H -3.1896832044 1.6259606583 -1.1249772775
| 34> H -4.0683330988 -0.3581663006 0.0018258888
| 35> H -3.0910740914 -1.2705855179 1.1506582153
| 36> H -2.7709016725 -1.4061975685 -0.5783374586
| 37> *
| 38>
| 39>                          ****END OF INPUT****

CARTESIAN COORDINATES (ANGSTROEM)
---------------------------------
  C      3.489346    0.484785    0.357813
  C      2.189656    0.358632   -0.434676
  H      2.437482    0.395014   -1.500774
  C      1.224255    1.513003   -0.124448
  C      0.269110    1.153595    1.010105
  C     -0.663499   -0.025387    0.660800
  H     -0.777910   -0.638715    1.564569
  C      0.004525   -0.930375   -0.393815
  H     -0.172199   -0.547723   -1.402705
  C      1.513820   -0.984553   -0.134901
  O     -0.543825   -2.236082   -0.421276
  C     -2.088405    0.451583    0.299836
  C     -2.167138    1.285040   -0.977520
  C     -3.064853   -0.721282    0.212195
  H      4.021966    1.389835    0.075580
  H      3.283675    0.525300    1.425012
  H      4.135603   -0.368277    0.164260
  H      1.794750    2.401796    0.150675
  H      0.650178    1.756138   -1.018018
  H      0.861482    0.901305    1.891295
  H     -0.332797    2.025837    1.269617
  H      1.676660   -1.256535    0.911007
  H      1.949309   -1.770696   -0.754868
  H     -0.373725   -2.661642    0.430363
  H     -2.414504    1.090704    1.131054
  H     -1.883983    0.696728   -1.846508
  H     -1.526360    2.159912   -0.917522
  H     -3.189683    1.625961   -1.124977
  H     -4.068333   -0.358166    0.001826
  H     -3.091074   -1.270586    1.150658
  H     -2.770902   -1.406198   -0.578337

 Total Charge           Charge          ....    0
 Multiplicity           Mult            ....    1
 Number of Electrons    NEL             ....   88
 Basis Dimension        Dim             ....  194

ORBITAL ENERGIES
----------------

  NO   OCC          E(Eh)            E(eV)
   0   2.0000     -18.738055      -509.8884
   1   2.0000      -9.932038      -270.2645
   2   2.0000      -9.893914      -269.2271
   3   2.0000      -9.889702      -269.1125
   4   2.0000      -9.889115      -269.0965
   5   2.0000      -9.882675      -268.9212
   6   2.0000      -9.880562      -268.8638
   7   2.0000      -9.879375      -268.8315
   8   2.0000      -9.873608      -268.6745
   9   2.0000      -9.869650      -268.5668
  10   2.0000      -9.858958      -268.2759
  11   2.0000      -0.917141       -24.9567
  12   2.0000      -0.759497       -20.6670
  13   2.0000      -0.719321       -19.5737
  14   2.0000      -0.667074       -18.1520
  15   2.0000      -0.653332       -17.7781
  16   2.0000      -0.608493       -16.5579
  17   2.0000      -0.599258       -16.3066
  18   2.0000      -0.559892       -15.2354
  19   2.0000      -0.537962       -14.6387
  20   2.0000      -0.495067       -13.4714
  21   2.0000      -0.482419       -13.1273
  22   2.0000      -0.441102       -12.0030
  23   2.0000      -0.434551       -11.8247
  24   2.0000      -0.419435       -11.4134
  25   2.0000      -0.397418       -10.8143
  26   2.0000      -0.383493       -10.4354
  27   2.0000      -0.373880       -10.1738
  28   2.0000      -0.368212       -10.0196
  29   2.0000      -0.352405        -9.5894
  30   2.0000      -0.342942        -9.3319
  31   2.0000      -0.338038        -9.1985
  32   2.0000      -0.335814        -9.1380
  33   2.0000      -0.330665        -8.9979
  34   2.0000      -0.322296        -8.7701
  35   2.0000      -0.309968        -8.4346
  36   2.0000      -0.297709        -8.1011
  37   2.0000      -0.288143        -7.8408
  38   2.0000      -0.282897        -7.6980
  39   2.0000      -0.278651        -7.5825
  40   2.0000      -0.266397        -7.2490
  41   2.0000      -0.262539        -7.1440
  42   2.0000      -0.247079        -6.7234
  43   2.0000      -0.203178        -5.5288
  44   0.0000       0.023409         0.6370
  45   0.0000       0.034381         0.9356
  46   0.0000       0.044069         1.1992
  47   0.0000       0.054086         1.4718
  48   0.0000       0.076007         2.0683

MULLIKEN ATOMIC CHARGES
-----------------------
   0 C :   -0.241520
   1 C :   -0.184071
   2 H :    0.068057
   3 C :   -0.115398
   4 C :   -0.105631
   5 C :   -0.109888
   6 H :    0.035682
   7 C :    0.034721
   8 H :    0.066493
   9 C :   -0.075361
  10 O :   -0.412729
  11 C :   -0.144671
  12 C :   -0.271998
  13 C :   -0.237739
  14 H :    0.098591
  15 H :    0.095734
  16 H :    0.100180
  17 H :    0.077033
  18 H :    0.081705
  19 H :    0.070678
  20 H :    0.080186
  21 H :    0.047072
  22 H :    0.085214
  23 H :    0.290607
  24 H :    0.064464
  25 H :    0.106183
  26 H :    0.111611
  27 H :    0.097601
  28 H :    0.087630
  29 H :    0.080945
  30 H :    0.118618
Sum of atomic charges:    0.0000000

LOEWDIN ATOMIC CHARGES
----------------------
   0 C :   -0.328796
   1 C :   -0.150455
   2 H :    0.116456
   3 C :   -0.222371
   4 C :   -0.217738
   5 C :   -0.145904
   6 H :    0.109926
   7 C :   -0.047974
   8 H :    0.112685
   9 C :   -0.229542
  10 O :   -0.314046
  11 C :   -0.145566
  12 C :   -0.333970
  13 C :   -0.337484
  14 H :    0.116778
  15 H :    0.114712
  16 H :    0.118067
  17 H :    0.117502
  18 H :    0.115722
  19 H :    0.115583
  20 H :    0.117559
  21 H :    0.109423
  22 H :    0.120305
  23 H :    0.277689
  24 H :    0.111292
  25 H :    0.117507
  26 H :    0.116473
  27 H :    0.120248
  28 H :    0.111812
  29 H :    0.110719
  30 H :    0.123389

  Mayer bond orders larger than 0.100000
B(  0-C ,  1-C ) :   1.1166 B(  0-C , 14-H ) :   0.9466 B(  0-C , 15-H ) :   0.9452
B(  0-C , 16-H ) :   0.9493 B(  1-C ,  2-H ) :   0.8949 B(  1-C ,  3-C ) :   1.0909
B(  1-C ,  9-C ) :   1.0839 B(  3-C ,  4-C ) :   1.1944 B(  3-C , 17-H ) :   0.9138
B(  3-C , 18-H ) :   0.8930 B(  4-C ,  5-C ) :   1.0637 B(  4-C , 19-H ) :   0.8950
B(  4-C , 20-H ) :   0.9055 B(  5-C ,  6-H ) :   0.8659 B(  5-C ,  7-C ) :   1.0128
B(  5-C , 11-C ) :   1.0566 B(  7-C ,  8-H ) :   0.8749 B(  7-C ,  9-C ) :   1.1401
B(  7-C , 10-O ) :   1.0262 B(  9-C , 21-H ) :   0.8808 B(  9-C , 22-H ) :   0.9045
B( 10-O , 23-H ) :   0.8500 B( 11-C , 12-C ) :   1.1175 B( 11-C , 13-C ) :   1.1203
B( 11-C , 24-H ) :   0.8945 B( 12-C , 25-H ) :   0.9411 B( 12-C , 26-H ) :   0.9377
B( 12-C , 27-H ) :   0.9442 B( 13-C , 28-H ) :   0.9455 B( 13-C , 29-H ) :   0.9475
B( 13-C , 30-H ) :   0.9346

Dispersion correction           -0.032452742
FINAL SINGLE POINT ENERGY      -467.188285195385

DIPOLE MOMENT
-------------

Method             : SCF
Type of density    : Electron Density
Multiplicity       :   1
Irrep              :   0
Energy             :  -467.3004068938658975 Eh
Relativity type    :
Basis              : AO
                                X                 Y                 Z
Electronic contribution:      0.130364355      -4.155102611      -0.535176870
Nuclear contribution   :      0.188602648       4.366807518       0.952747507
                        -----------------------------------------
Total Dipole Moment    :      0.318967003       0.211704907       0.417570637
                        -----------------------------------------
Magnitude (a.u.)       :      0.566501680
Magnitude (Debye)      :      1.439932837

Rotational constants in cm-1:             0.060373             0.025193             0.020501
Rotational constants in MHz :          1809.928594           755.280228           614.605174

                             ****ORCA TERMINATED NORMALLY****
TOTAL RUN TIME: 0 days 0 hours 0 minutes 13 seconds 406 msec
