                         Program Version 6.0.0  -   RELEASE  -
|  1> ! pbe def2-sv(p) def2/J RI DEFGRID1 loosescf d4 GCP(DFT/SV(P)) printgap
|  2> %output
|  3>     printlevel normal
|  4> end
|  5> * xyz 0 1
|  6> C -1.9965689831 -0.59965931 -0.7507323917
|  7> C -1.1933451877 -0.1067401535 0.4670074014
|  8> H -1.8734206609 -0.0850789584 1.3276114105
|  9> C -0.626116641 1.3120147662 0.280986156
| 10> H -1.3723577143 1.9086970031 -0.2554987339
| 11> C 0.6962480615 1.3087086612 -0.5167882252
| 12> H 1.1325385384 2.314103551 -0.425797021
| 13> C 1.6799595339 0.2970032291 0.1045409968
| 14> H 2.5477353325 0.1964163154 -0.5597137068
| 15> C 1.020280992 -1.090189646 0.184498769
| 16> H 1.6366289288 -1.7440965742 0.8150621449
| 17> O -0.208655057 -1.0618733903 0.8664610456
| 18> O 0.9457725379 -1.6959738274 -1.0660516788
| 19> O 2.0617207036 0.6737871319 1.40438642
| 20> O 0.5208510077 0.9570283767 -1.8694894236
| 21> O -0.4463243601 1.9628580577 1.514163601
| 22> O -2.5501348907 -1.8708892906 -0.5137981927
| 23> H -1.3684166562 -0.6222439224 -1.6482623197
| 24> H -2.8404971655 0.0722489572 -0.9194918941
| 25> H 0.7358942655 -1.0271290019 -1.742417248
| 26> H 2.7613153857 1.3420680336 1.365761304
| 27> H 0.1239127368 1.6922181197 -2.3573716249
| 28> H 0.2252925665 1.4771700947 2.023947744
| 29> H -1.8399515494 -2.4542248338 -0.2055981473
| 30> *
| 31>
| 32>                          ****END OF INPUT****

CARTESIAN COORDINATES (ANGSTROEM)
---------------------------------
  C     -1.996569   -0.599659   -0.750732
  C     -1.193345   -0.106740    0.467007
  H     -1.873421   -0.085079    1.327611
  C     -0.626117    1.312015    0.280986
  H     -1.372358    1.908697   -0.255499
  C      0.696248    1.308709   -0.516788
  H      1.132539    2.314104   -0.425797
  C      1.679960    0.297003    0.104541
  H      2.547735    0.196416   -0.559714
  C      1.020281   -1.090190    0.184499
  H      1.636629   -1.744097    0.815062
  O     -0.208655   -1.061873    0.866461
  O      0.945773   -1.695974   -1.066052
  O      2.061721    0.673787    1.404386
  O      0.520851    0.957028   -1.869489
  O     -0.446324    1.962858    1.514164
  O     -2.550135   -1.870889   -0.513798
  H     -1.368417   -0.622244   -1.648262
  H     -2.840497    0.072249   -0.919492
  H      0.735894   -1.027129   -1.742417
  H      2.761315    1.342068    1.365761
  H      0.123913    1.692218   -2.357372
  H      0.225293    1.477170    2.023948
  H     -1.839952   -2.454225   -0.205598

 Total Charge           Charge          ....    0
 Multiplicity           Mult            ....    1
 Number of Electrons    NEL             ....   96
 Basis Dimension        Dim             ....  192

ORBITAL ENERGIES
----------------

  NO   OCC          E(Eh)            E(eV)
   0   2.0000     -18.794579      -511.4265
   1   2.0000     -18.786275      -511.2005
   2   2.0000     -18.764890      -510.6186
   3   2.0000     -18.755331      -510.3585
   4   2.0000     -18.744377      -510.0604
   5   2.0000     -18.729519      -509.6561
   6   2.0000      -9.986517      -271.7470
   7   2.0000      -9.963224      -271.1131
   8   2.0000      -9.961890      -271.0768
   9   2.0000      -9.949140      -270.7299
  10   2.0000      -9.938304      -270.4350
  11   2.0000      -9.923855      -270.0418
  12   2.0000      -0.985024       -26.8039
  13   2.0000      -0.962492       -26.1907
  14   2.0000      -0.955599       -26.0032
  15   2.0000      -0.926683       -25.2163
  16   2.0000      -0.912719       -24.8364
  17   2.0000      -0.899777       -24.4842
  18   2.0000      -0.710564       -19.3354
  19   2.0000      -0.696042       -18.9403
  20   2.0000      -0.617889       -16.8136
  21   2.0000      -0.600105       -16.3297
  22   2.0000      -0.573883       -15.6162
  23   2.0000      -0.532069       -14.4783
  24   2.0000      -0.512395       -13.9430
  25   2.0000      -0.500461       -13.6182
  26   2.0000      -0.477603       -12.9962
  27   2.0000      -0.456892       -12.4327
  28   2.0000      -0.450645       -12.2627
  29   2.0000      -0.439428       -11.9574
  30   2.0000      -0.419804       -11.4235
  31   2.0000      -0.406954       -11.0738
  32   2.0000      -0.392859       -10.6902
  33   2.0000      -0.381005       -10.3677
  34   2.0000      -0.363175        -9.8825
  35   2.0000      -0.345665        -9.4060
  36   2.0000      -0.342192        -9.3115
  37   2.0000      -0.335939        -9.1414
  38   2.0000      -0.306271        -8.3341
  39   2.0000      -0.294442        -8.0122
  40   2.0000      -0.280576        -7.6349
  41   2.0000      -0.271450        -7.3865
  42   2.0000      -0.264959        -7.2099
  43   2.0000      -0.259165        -7.0522
  44   2.0000      -0.234528        -6.3818
  45   2.0000      -0.229915        -6.2563
  46   2.0000      -0.215986        -5.8773
  47   2.0000      -0.194236        -5.2854
  48   0.0000      -0.010241        -0.2787
  49   0.0000      -0.000858        -0.0233
  50   0.0000       0.052571         1.4305
  51   0.0000       0.059695         1.6244
  52   0.0000       0.065322         1.7775

MULLIKEN ATOMIC CHARGES
-----------------------
   0 C :    0.050750
   1 C :    0.010636
   2 H :    0.082675
   3 C :    0.087563
   4 H :    0.059147
   5 C :    0.019277
   6 H :    0.065576
   7 C :   -0.032648
   8 H :    0.090665
   9 C :    0.229785
  10 H :    0.075428
  11 O :   -0.319426
  12 O :   -0.410620
  13 O :   -0.408296
  14 O :   -0.417807
  15 O :   -0.432807
  16 O :   -0.439790
  17 H :    0.055082
  18 H :    0.076489
  19 H :    0.318894
  20 H :    0.315048
  21 H :    0.320881
  22 H :    0.303643
  23 H :    0.299853
Sum of atomic charges:    0.0000000

LOEWDIN ATOMIC CHARGES
----------------------
   0 C :   -0.142681
   1 C :   -0.075766
   2 H :    0.123703
   3 C :   -0.072417
   4 H :    0.112510
   5 C :   -0.083537
   6 H :    0.102234
   7 C :   -0.090136
   8 H :    0.114493
   9 C :    0.000788
  10 H :    0.112909
  11 O :   -0.145139
  12 O :   -0.310055
  13 O :   -0.299758
  14 O :   -0.308450
  15 O :   -0.322015
  16 O :   -0.340944
  17 H :    0.088502
  18 H :    0.112486
  19 H :    0.274432
  20 H :    0.296371
  21 H :    0.299626
  22 H :    0.273821
  23 H :    0.279023

  Mayer bond orders larger than 0.100000
B(  0-C ,  1-C ) :   1.0470 B(  0-C , 16-O ) :   1.0762 B(  0-C , 17-H ) :   0.8941
B(  0-C , 18-H ) :   0.9125 B(  1-C ,  2-H ) :   0.8906 B(  1-C ,  3-C ) :   0.9884
B(  1-C , 11-O ) :   0.9972 B(  3-C ,  4-H ) :   0.8937 B(  3-C ,  5-C ) :   0.9494
B(  3-C , 15-O ) :   1.0536 B(  5-C ,  6-H ) :   0.9015 B(  5-C ,  7-C ) :   0.9828
B(  5-C , 14-O ) :   1.0302 B(  7-C ,  8-H ) :   0.8990 B(  7-C ,  9-C ) :   1.0005
B(  7-C , 13-O ) :   1.0508 B(  9-C , 10-H ) :   0.9040 B(  9-C , 11-O ) :   1.0462
B(  9-C , 12-O ) :   1.1326 B( 12-O , 19-H ) :   0.8000 B( 13-O , 20-H ) :   0.8393
B( 14-O , 21-H ) :   0.8347 B( 15-O , 22-H ) :   0.8156 B( 16-O , 23-H ) :   0.8362

Dispersion correction           -0.026071678
FINAL SINGLE POINT ENERGY      -685.697759764603

DIPOLE MOMENT
-------------

Method             : SCF
Type of density    : Electron Density
Multiplicity       :   1
Irrep              :   0
Energy             :  -685.8305252164681178 Eh
Relativity type    :
Basis              : AO
                                X                 Y                 Z
Electronic contribution:      1.375745211      -1.392124116       1.766798244
Nuclear contribution   :     -0.118417634       2.864987916      -2.417164869
                        -----------------------------------------
Total Dipole Moment    :      1.257327576       1.472863800      -0.650366625
                        -----------------------------------------
Magnitude (a.u.)       :      2.042835567
Magnitude (Debye)      :      5.192475359

Rotational constants in cm-1:             0.041532             0.028295             0.024892
Rotational constants in MHz :          1245.090600           848.277092           746.257328

                             ****ORCA TERMINATED NORMALLY****
TOTAL RUN TIME: 0 days 0 hours 0 minutes 12 seconds 622 msec
