                         Program Version 6.0.0  -   RELEASE  -
|  1> ! pbe def2-sv(p) def2/J RI DEFGRID1 loosescf d4 GCP(DFT/SV(P)) printgap
|  2> %output
|  3>     printlevel normal
|  4> end
|  5> * xyz 0 1
|  6> C -2.8108682828 0.6036587896 0.5828672271
|  7> C -1.6290140304 -0.031996082 -0.0876845213
|  8> O -1.6847320271 -0.4808283702 -1.2161409952
|  9> C -0.3541628445 -0.0458466712 0.732441209
| 10> C 0.4274057885 1.2401682557 0.3733386713
| 11> C 1.3198768392 0.9887586659 -0.8349731796
| 12> C 2.4403282958 0.0043337588 -0.4777781921
| 13> C 1.9784808636 -1.001056523 0.5839114495
| 14> C 0.4902555323 -1.2934066001 0.4342482219
| 15> H -2.5159191775 1.5111751943 1.1013970538
| 16> H -3.5927628369 0.8139455537 -0.1416815341
| 17> H -3.194327675 -0.0969105503 1.3227021288
| 18> H -0.6181047813 -0.0084230825 1.7915758887
| 19> H -0.2705232902 2.05235056 0.160993317
| 20> H 1.0409392032 1.5400756818 1.2232120843
| 21> H 0.7045884735 0.584666836 -1.6417411923
| 22> H 1.7475800465 1.9281309855 -1.1881008264
| 23> H 2.7504885085 -0.5251568773 -1.3798464602
| 24> H 3.3079380095 0.5498092039 -0.1026921269
| 25> H 2.5473621343 -1.9267503132 0.4894842598
| 26> H 2.1622134903 -0.6042669199 1.5839310527
| 27> H 0.2867876875 -1.621520187 -0.5878307153
| 28> H 0.1943804774 -2.1011924086 1.1057788635
| 29> *
| 30>
| 31>                          ****END OF INPUT****

CARTESIAN COORDINATES (ANGSTROEM)
---------------------------------
  C     -2.810868    0.603659    0.582867
  C     -1.629014   -0.031996   -0.087685
  O     -1.684732   -0.480828   -1.216141
  C     -0.354163   -0.045847    0.732441
  C      0.427406    1.240168    0.373339
  C      1.319877    0.988759   -0.834973
  C      2.440328    0.004334   -0.477778
  C      1.978481   -1.001057    0.583911
  C      0.490256   -1.293407    0.434248
  H     -2.515919    1.511175    1.101397
  H     -3.592763    0.813946   -0.141682
  H     -3.194328   -0.096911    1.322702
  H     -0.618105   -0.008423    1.791576
  H     -0.270523    2.052351    0.160993
  H      1.040939    1.540076    1.223212
  H      0.704588    0.584667   -1.641741
  H      1.747580    1.928131   -1.188101
  H      2.750489   -0.525157   -1.379846
  H      3.307938    0.549809   -0.102692
  H      2.547362   -1.926750    0.489484
  H      2.162213   -0.604267    1.583931
  H      0.286788   -1.621520   -0.587831
  H      0.194380   -2.101192    1.105779

 Total Charge           Charge          ....    0
 Multiplicity           Mult            ....    1
 Number of Electrons    NEL             ....   70
 Basis Dimension        Dim             ....  154

ORBITAL ENERGIES
----------------

  NO   OCC          E(Eh)            E(eV)
   0   2.0000     -18.737902      -509.8842
   1   2.0000      -9.971720      -271.3443
   2   2.0000      -9.899362      -269.3753
   3   2.0000      -9.894990      -269.2564
   4   2.0000      -9.887304      -269.0472
   5   2.0000      -9.881190      -268.8809
   6   2.0000      -9.880255      -268.8554
   7   2.0000      -9.880192      -268.8537
   8   2.0000      -9.879915      -268.8462
   9   2.0000      -0.935515       -25.4567
  10   2.0000      -0.760303       -20.6889
  11   2.0000      -0.693101       -18.8602
  12   2.0000      -0.664824       -18.0908
  13   2.0000      -0.654790       -17.8178
  14   2.0000      -0.559974       -15.2377
  15   2.0000      -0.552710       -15.0400
  16   2.0000      -0.485449       -13.2097
  17   2.0000      -0.456232       -12.4147
  18   2.0000      -0.445165       -12.1136
  19   2.0000      -0.428886       -11.6706
  20   2.0000      -0.409953       -11.1554
  21   2.0000      -0.399064       -10.8591
  22   2.0000      -0.383708       -10.4412
  23   2.0000      -0.361587        -9.8393
  24   2.0000      -0.353067        -9.6074
  25   2.0000      -0.338393        -9.2081
  26   2.0000      -0.334322        -9.0974
  27   2.0000      -0.326578        -8.8866
  28   2.0000      -0.320638        -8.7250
  29   2.0000      -0.313680        -8.5357
  30   2.0000      -0.306017        -8.3272
  31   2.0000      -0.270495        -7.3605
  32   2.0000      -0.263461        -7.1691
  33   2.0000      -0.261240        -7.1087
  34   2.0000      -0.194580        -5.2948
  35   0.0000      -0.048163        -1.3106
  36   0.0000       0.023900         0.6504
  37   0.0000       0.050160         1.3649
  38   0.0000       0.056404         1.5348
  39   0.0000       0.075126         2.0443

MULLIKEN ATOMIC CHARGES
-----------------------
   0 C :   -0.240722
   1 C :    0.006080
   2 O :   -0.168417
   3 C :   -0.178422
   4 C :   -0.134489
   5 C :   -0.158658
   6 C :   -0.158279
   7 C :   -0.152977
   8 C :   -0.108041
   9 H :    0.119039
  10 H :    0.117539
  11 H :    0.129144
  12 H :    0.065462
  13 H :    0.090360
  14 H :    0.086138
  15 H :    0.098970
  16 H :    0.086379
  17 H :    0.085061
  18 H :    0.079413
  19 H :    0.085878
  20 H :    0.072361
  21 H :    0.096022
  22 H :    0.082160
Sum of atomic charges:   -0.0000000

LOEWDIN ATOMIC CHARGES
----------------------
   0 C :   -0.359743
   1 C :    0.051789
   2 O :   -0.130282
   3 C :   -0.168794
   4 C :   -0.206319
   5 C :   -0.232441
   6 C :   -0.228566
   7 C :   -0.228864
   8 C :   -0.219631
   9 H :    0.135174
  10 H :    0.133766
  11 H :    0.147316
  12 H :    0.119911
  13 H :    0.117945
  14 H :    0.119254
  15 H :    0.123368
  16 H :    0.118946
  17 H :    0.118652
  18 H :    0.114769
  19 H :    0.119319
  20 H :    0.111966
  21 H :    0.124021
  22 H :    0.118444

  Mayer bond orders larger than 0.100000
B(  0-C ,  1-C ) :   1.0866 B(  0-C ,  9-H ) :   0.9257 B(  0-C , 10-H ) :   0.9335
B(  0-C , 11-H ) :   0.9193 B(  1-C ,  2-O ) :   2.1627 B(  1-C ,  3-C ) :   0.9138
B(  3-C ,  4-C ) :   1.0636 B(  3-C ,  8-C ) :   1.0915 B(  3-C , 12-H ) :   0.8881
B(  4-C ,  5-C ) :   1.1826 B(  4-C , 13-H ) :   0.9144 B(  4-C , 14-H ) :   0.9023
B(  5-C ,  6-C ) :   1.1450 B(  5-C , 15-H ) :   0.8980 B(  5-C , 16-H ) :   0.9205
B(  6-C ,  7-C ) :   1.1422 B(  6-C , 17-H ) :   0.9218 B(  6-C , 18-H ) :   0.9218
B(  7-C ,  8-C ) :   1.1905 B(  7-C , 19-H ) :   0.9205 B(  7-C , 20-H ) :   0.9068
B(  8-C , 21-H ) :   0.8873 B(  8-C , 22-H ) :   0.9181

Dispersion correction           -0.022306573
FINAL SINGLE POINT ENERGY      -387.601506570633

DIPOLE MOMENT
-------------

Method             : SCF
Type of density    : Electron Density
Multiplicity       :   1
Irrep              :   0
Energy             :  -387.6794886590890314 Eh
Relativity type    :
Basis              : AO
                                X                 Y                 Z
Electronic contribution:     -4.145539620      -1.585154445      -2.623946795
Nuclear contribution   :      4.244269746       1.959202553       3.488060325
                        -----------------------------------------
Total Dipole Moment    :      0.098730126       0.374048108       0.864113530
                        -----------------------------------------
Magnitude (a.u.)       :      0.946758585
Magnitude (Debye)      :      2.406469078

Rotational constants in cm-1:             0.101884             0.037103             0.035009
Rotational constants in MHz :          3054.410045          1112.324941          1049.554911

                             ****ORCA TERMINATED NORMALLY****
TOTAL RUN TIME: 0 days 0 hours 0 minutes 10 seconds 241 msec
