                         Program Version 6.0.0  -   RELEASE  -
|  1> ! pbe def2-sv(p) def2/J RI DEFGRID1 loosescf d4 GCP(DFT/SV(P)) printgap
|  2> %output
|  3>     printlevel normal
|  4> end
|  5> * xyz 0 1
|  6> C -2.1475252531 -0.9291955273 -0.2336973243
|  7> C -1.1466209021 -0.3588109727 0.7836980165
|  8> H -1.6651302331 -0.3711220717 1.7506538285
|  9> C -0.7468817944 1.1137692722 0.5314468947
| 10> H -1.6088104577 1.6386373553 0.1041866024
| 11> C 0.4507062171 1.2810778982 -0.423366988
| 12> H 0.8622597113 2.2844160781 -0.2478059254
| 13> C 1.5709994928 0.2837762356 -0.0575390918
| 14> H 2.2950943299 0.2695056339 -0.8843523183
| 15> C 1.0580465757 -1.1610243578 0.1386846643
| 16> H 1.8356625676 -1.7386221993 0.6590715956
| 17> O -0.0355324781 -1.2220626605 1.0172952806
| 18> O 0.8524690354 -1.8259416715 -1.0643450963
| 19> O 2.1519711398 0.7650011125 1.1342271162
| 20> O 0.1086157788 1.2451357918 -1.7791686352
| 21> O -0.4881016644 1.7575723237 1.7573894812
| 22> O -1.6653618157 -0.8472203395 -1.5657485616
| 23> H -3.0776022212 -0.3614097286 -0.1361979638
| 24> H -2.3258717491 -1.9759269802 0.034961548
| 25> H 0.012860609 -1.5245110034 -1.4704134503
| 26> H 2.9487602961 0.2597105358 1.348329809
| 27> H -0.531677009 0.5245218007 -1.9345133989
| 28> H 0.3818604944 1.4707113821 2.0804760479
| 29> H -2.3405460326 -1.1877527598 -2.1710886193
| 30> *
| 31>
| 32>                          ****END OF INPUT****

CARTESIAN COORDINATES (ANGSTROEM)
---------------------------------
  C     -2.147525   -0.929196   -0.233697
  C     -1.146621   -0.358811    0.783698
  H     -1.665130   -0.371122    1.750654
  C     -0.746882    1.113769    0.531447
  H     -1.608810    1.638637    0.104187
  C      0.450706    1.281078   -0.423367
  H      0.862260    2.284416   -0.247806
  C      1.570999    0.283776   -0.057539
  H      2.295094    0.269506   -0.884352
  C      1.058047   -1.161024    0.138685
  H      1.835663   -1.738622    0.659072
  O     -0.035532   -1.222063    1.017295
  O      0.852469   -1.825942   -1.064345
  O      2.151971    0.765001    1.134227
  O      0.108616    1.245136   -1.779169
  O     -0.488102    1.757572    1.757389
  O     -1.665362   -0.847220   -1.565749
  H     -3.077602   -0.361410   -0.136198
  H     -2.325872   -1.975927    0.034962
  H      0.012861   -1.524511   -1.470413
  H      2.948760    0.259711    1.348330
  H     -0.531677    0.524522   -1.934513
  H      0.381860    1.470711    2.080476
  H     -2.340546   -1.187753   -2.171089

 Total Charge           Charge          ....    0
 Multiplicity           Mult            ....    1
 Number of Electrons    NEL             ....   96
 Basis Dimension        Dim             ....  192

ORBITAL ENERGIES
----------------

  NO   OCC          E(Eh)            E(eV)
   0   2.0000     -18.819111      -512.0941
   1   2.0000     -18.765788      -510.6431
   2   2.0000     -18.764722      -510.6140
   3   2.0000     -18.739456      -509.9265
   4   2.0000     -18.735604      -509.8217
   5   2.0000     -18.735026      -509.8060
   6   2.0000      -9.977856      -271.5113
   7   2.0000      -9.964275      -271.1417
   8   2.0000      -9.953540      -270.8496
   9   2.0000      -9.941265      -270.5156
  10   2.0000      -9.934557      -270.3330
  11   2.0000      -9.934494      -270.3313
  12   2.0000      -0.988947       -26.9106
  13   2.0000      -0.968419       -26.3520
  14   2.0000      -0.937786       -25.5184
  15   2.0000      -0.920175       -25.0392
  16   2.0000      -0.911771       -24.8105
  17   2.0000      -0.897201       -24.4141
  18   2.0000      -0.712438       -19.3864
  19   2.0000      -0.681505       -18.5447
  20   2.0000      -0.631030       -17.1712
  21   2.0000      -0.592843       -16.1321
  22   2.0000      -0.573191       -15.5973
  23   2.0000      -0.537631       -14.6297
  24   2.0000      -0.505638       -13.7591
  25   2.0000      -0.485791       -13.2190
  26   2.0000      -0.476221       -12.9586
  27   2.0000      -0.463376       -12.6091
  28   2.0000      -0.445594       -12.1252
  29   2.0000      -0.436948       -11.8900
  30   2.0000      -0.426152       -11.5962
  31   2.0000      -0.416951       -11.3458
  32   2.0000      -0.399260       -10.8644
  33   2.0000      -0.371642       -10.1129
  34   2.0000      -0.360721        -9.8157
  35   2.0000      -0.349195        -9.5021
  36   2.0000      -0.340708        -9.2711
  37   2.0000      -0.319736        -8.7005
  38   2.0000      -0.302890        -8.2421
  39   2.0000      -0.297279        -8.0894
  40   2.0000      -0.281286        -7.6542
  41   2.0000      -0.274537        -7.4705
  42   2.0000      -0.260943        -7.1006
  43   2.0000      -0.252781        -6.8785
  44   2.0000      -0.236230        -6.4281
  45   2.0000      -0.223254        -6.0751
  46   2.0000      -0.201986        -5.4963
  47   2.0000      -0.194941        -5.3046
  48   0.0000      -0.015228        -0.4144
  49   0.0000       0.015717         0.4277
  50   0.0000       0.045222         1.2306
  51   0.0000       0.053291         1.4501
  52   0.0000       0.066891         1.8202

MULLIKEN ATOMIC CHARGES
-----------------------
   0 C :    0.017843
   1 C :    0.026756
   2 H :    0.088991
   3 C :    0.047161
   4 H :    0.069406
   5 C :    0.043831
   6 H :    0.083101
   7 C :    0.027532
   8 H :    0.078963
   9 C :    0.193341
  10 H :    0.046879
  11 O :   -0.307057
  12 O :   -0.413518
  13 O :   -0.426778
  14 O :   -0.421570
  15 O :   -0.431523
  16 O :   -0.452515
  17 H :    0.097423
  18 H :    0.104569
  19 H :    0.288056
  20 H :    0.308530
  21 H :    0.288786
  22 H :    0.304733
  23 H :    0.337061
Sum of atomic charges:    0.0000000

LOEWDIN ATOMIC CHARGES
----------------------
   0 C :   -0.136609
   1 C :   -0.072448
   2 H :    0.132769
   3 C :   -0.069117
   4 H :    0.115405
   5 C :   -0.071847
   6 H :    0.120777
   7 C :   -0.097093
   8 H :    0.111457
   9 C :   -0.011773
  10 H :    0.099484
  11 O :   -0.144915
  12 O :   -0.327165
  13 O :   -0.314360
  14 O :   -0.325432
  15 O :   -0.321892
  16 O :   -0.312910
  17 H :    0.116295
  18 H :    0.116480
  19 H :    0.259621
  20 H :    0.290784
  21 H :    0.258631
  22 H :    0.275965
  23 H :    0.307894

  Mayer bond orders larger than 0.100000
B(  0-C ,  1-C ) :   1.0632 B(  0-C , 16-O ) :   0.9743 B(  0-C , 17-H ) :   0.9132
B(  0-C , 18-H ) :   0.9121 B(  1-C ,  2-H ) :   0.8823 B(  1-C ,  3-C ) :   0.9670
B(  1-C , 11-O ) :   1.0213 B(  3-C ,  4-H ) :   0.8958 B(  3-C ,  5-C ) :   1.0028
B(  3-C , 15-O ) :   1.0558 B(  5-C ,  6-H ) :   0.8930 B(  5-C ,  7-C ) :   0.9632
B(  5-C , 14-O ) :   1.0942 B(  7-C ,  8-H ) :   0.8940 B(  7-C ,  9-C ) :   0.9520
B(  7-C , 13-O ) :   1.0013 B(  9-C , 10-H ) :   0.9023 B(  9-C , 11-O ) :   1.0427
B(  9-C , 12-O ) :   1.1432 B( 12-O , 19-H ) :   0.7873 B( 13-O , 20-H ) :   0.8416
B( 14-O , 21-H ) :   0.7982 B( 15-O , 22-H ) :   0.8187 B( 16-O , 19-H ) :   0.1183
B( 16-O , 21-H ) :   0.1137 B( 16-O , 23-H ) :   0.8279

Dispersion correction           -0.026464747
FINAL SINGLE POINT ENERGY      -685.699147153570

DIPOLE MOMENT
-------------

Method             : SCF
Type of density    : Electron Density
Multiplicity       :   1
Irrep              :   0
Energy             :  -685.8344327003313765 Eh
Relativity type    :
Basis              : AO
                                X                 Y                 Z
Electronic contribution:      2.102857293      -0.166446017       0.538578245
Nuclear contribution   :     -3.000782167      -0.669717929      -0.820517202
                        -----------------------------------------
Total Dipole Moment    :     -0.897924874      -0.836163946      -0.281938957
                        -----------------------------------------
Magnitude (a.u.)       :      1.258939554
Magnitude (Debye)      :      3.199970040

Rotational constants in cm-1:             0.039450             0.031223             0.027567
Rotational constants in MHz :          1182.667146           936.044802           826.425590

                             ****ORCA TERMINATED NORMALLY****
TOTAL RUN TIME: 0 days 0 hours 0 minutes 12 seconds 786 msec
