                         Program Version 6.0.0  -   RELEASE  -
|  1> ! wb97x-v def2-tzvp def2/J RIJCOSX DEFGRID2 scfconv7 GCP(DFT/TZ) printgap
|  2> %output
|  3>     printlevel normal
|  4> end
|  5> * xyz 0 1
|  6> C -2.556147697820113 -0.9269528702491081 0.3899456129954556
|  7> C -1.1202990557303882 -0.4860680331151925 0.615388942105321
|  8> H -0.9481469042819799 -0.4504011447934889 1.70432794837045
|  9> C -0.7951056748222329 0.8829704163786438 0.01729664718046437
| 10> H -0.9888402568672279 0.8634559580718266 -1.0666529726687068
| 11> C 0.6741669617577718 1.2087971726771776 0.2401027105587717
| 12> H 0.8541588320366857 1.3188386299831825 1.3212071383421629
| 13> C 1.551356532037194 0.08567905802211086 -0.29336237892347516
| 14> H 1.4325307783000498 0.015783551759456067 -1.3868283878726186
| 15> C 1.1191330731781832 -1.2469809901851236 0.3201756450636965
| 16> H 1.2700528438374445 -1.2421259294684248 1.4100596896297206
| 17> O -0.2621895980947357 -1.47569210788515 0.02195854484198167
| 18> O 1.8565806090245882 -2.3302800979773366 -0.18191669393648427
| 19> O 2.9028602261693712 0.39741917818967565 0.051081013241124386
| 20> O 0.9397397123943347 2.448315006536279 -0.4283715702605315
| 21> O -1.640913766873781 1.842669353373682 0.6579124305565438
| 22> O -2.925773519444162 -0.9895430031579413 -0.9932311929915615
| 23> H -3.2261781306065367 -0.26189848188562537 0.9470817676534368
| 24> H -2.6714408416785527 -1.9397341397676158 0.7878931762684555
| 25> H 1.8548396461348662 -2.2747463238020784 -1.1500957645093537
| 26> H 3.4745116734074686 -0.23557286354231785 -0.4035936149626621
| 27> H 1.8237876056730755 2.7369722495856785 -0.16672651220468676
| 28> H -1.3981961922484596 2.7119097830384185 0.31134149658186533
| 29> H -3.0851493890496497 -0.08814802170107765 -1.3010128544240132
| 30> *
| 31>
| 32>                          ****END OF INPUT****

CARTESIAN COORDINATES (ANGSTROEM)
---------------------------------
  C     -2.556148   -0.926953    0.389946
  C     -1.120299   -0.486068    0.615389
  H     -0.948147   -0.450401    1.704328
  C     -0.795106    0.882970    0.017297
  H     -0.988840    0.863456   -1.066653
  C      0.674167    1.208797    0.240103
  H      0.854159    1.318839    1.321207
  C      1.551357    0.085679   -0.293362
  H      1.432531    0.015784   -1.386828
  C      1.119133   -1.246981    0.320176
  H      1.270053   -1.242126    1.410060
  O     -0.262190   -1.475692    0.021959
  O      1.856581   -2.330280   -0.181917
  O      2.902860    0.397419    0.051081
  O      0.939740    2.448315   -0.428372
  O     -1.640914    1.842669    0.657912
  O     -2.925774   -0.989543   -0.993231
  H     -3.226178   -0.261898    0.947082
  H     -2.671441   -1.939734    0.787893
  H      1.854840   -2.274746   -1.150096
  H      3.474512   -0.235573   -0.403594
  H      1.823788    2.736972   -0.166727
  H     -1.398196    2.711910    0.311341
  H     -3.085149   -0.088148   -1.301013

 Total Charge           Charge          ....    0
 Multiplicity           Mult            ....    1
 Number of Electrons    NEL             ....   96
 Basis Dimension        Dim             ....  444

ORBITAL ENERGIES
----------------

  NO   OCC          E(Eh)            E(eV)
   0   2.0000     -21.698160      -590.4369
   1   2.0000     -21.695759      -590.3716
   2   2.0000     -21.691203      -590.2476
   3   2.0000     -21.688285      -590.1683
   4   2.0000     -21.686549      -590.1210
   5   2.0000     -21.672629      -589.7422
   6   2.0000     -12.159257      -330.8702
   7   2.0000     -12.117163      -329.7248
   8   2.0000     -12.115795      -329.6875
   9   2.0000     -12.112885      -329.6084
  10   2.0000     -12.110791      -329.5514
  11   2.0000     -12.094908      -329.1192
  12   2.0000      -1.725554       -46.9547
  13   2.0000      -1.700392       -46.2700
  14   2.0000      -1.694341       -46.1054
  15   2.0000      -1.686385       -45.8889
  16   2.0000      -1.681566       -45.7577
  17   2.0000      -1.671301       -45.4784
  18   2.0000      -1.344412       -36.5833
  19   2.0000      -1.324041       -36.0290
  20   2.0000      -1.237578       -33.6762
  21   2.0000      -1.208374       -32.8815
  22   2.0000      -1.171757       -31.8851
  23   2.0000      -1.129530       -30.7361
  24   2.0000      -1.096070       -29.8256
  25   2.0000      -1.068744       -29.0820
  26   2.0000      -1.062611       -28.9151
  27   2.0000      -1.044668       -28.4269
  28   2.0000      -1.038040       -28.2465
  29   2.0000      -1.009896       -27.4807
  30   2.0000      -1.004091       -27.3227
  31   2.0000      -0.993925       -27.0461
  32   2.0000      -0.980449       -26.6794
  33   2.0000      -0.976273       -26.5657
  34   2.0000      -0.958619       -26.0854
  35   2.0000      -0.949029       -25.8244
  36   2.0000      -0.942163       -25.6376
  37   2.0000      -0.932716       -25.3805
  38   2.0000      -0.928720       -25.2718
  39   2.0000      -0.914698       -24.8902
  40   2.0000      -0.905255       -24.6332
  41   2.0000      -0.894136       -24.3307
  42   2.0000      -0.850094       -23.1322
  43   2.0000      -0.826191       -22.4818
  44   2.0000      -0.821079       -22.3427
  45   2.0000      -0.812225       -22.1018
  46   2.0000      -0.805895       -21.9295
  47   2.0000      -0.780266       -21.2321
  48   0.0000      -0.242458        -6.5976
  49   0.0000      -0.200969        -5.4687
  50   0.0000      -0.179704        -4.8900
  51   0.0000      -0.154270        -4.1979
  52   0.0000      -0.133291        -3.6270

MULLIKEN ATOMIC CHARGES
-----------------------
   0 C :   -0.041912
   1 C :    0.122242
   2 H :    0.076574
   3 C :    0.001036
   4 H :    0.088299
   5 C :    0.029191
   6 H :    0.096794
   7 C :    0.003933
   8 H :    0.083103
   9 C :    0.095285
  10 H :    0.083164
  11 O :   -0.237337
  12 O :   -0.405099
  13 O :   -0.435470
  14 O :   -0.459342
  15 O :   -0.448717
  16 O :   -0.452213
  17 H :    0.121850
  18 H :    0.111136
  19 H :    0.306702
  20 H :    0.313799
  21 H :    0.321609
  22 H :    0.319254
  23 H :    0.306117
Sum of atomic charges:   -0.0000000

LOEWDIN ATOMIC CHARGES
----------------------
   0 C :   -0.307394
   1 C :   -0.298004
   2 H :    0.146927
   3 C :   -0.309050
   4 H :    0.140547
   5 C :   -0.311421
   6 H :    0.146629
   7 C :   -0.326731
   8 H :    0.140701
   9 C :   -0.408287
  10 H :    0.133893
  11 O :    0.193978
  12 O :    0.011048
  13 O :   -0.013444
  14 O :   -0.018680
  15 O :   -0.011574
  16 O :   -0.042120
  17 H :    0.125975
  18 H :    0.133338
  19 H :    0.176826
  20 H :    0.174637
  21 H :    0.177922
  22 H :    0.177183
  23 H :    0.167101

  Mayer bond orders larger than 0.100000
B(  0-C ,  1-C ) :   0.9441 B(  0-C , 16-O ) :   1.0214 B(  0-C , 17-H ) :   0.9789
B(  0-C , 18-H ) :   0.9754 B(  1-C ,  2-H ) :   0.9480 B(  1-C ,  3-C ) :   0.9189
B(  1-C , 11-O ) :   0.9790 B(  3-C ,  4-H ) :   0.9598 B(  3-C ,  5-C ) :   0.9719
B(  3-C , 15-O ) :   1.0636 B(  5-C ,  6-H ) :   0.9810 B(  5-C ,  7-C ) :   0.9618
B(  5-C , 14-O ) :   1.0810 B(  7-C ,  8-H ) :   0.9495 B(  7-C ,  9-C ) :   0.9583
B(  7-C , 13-O ) :   1.0977 B(  9-C , 10-H ) :   0.9730 B(  9-C , 11-O ) :   1.0441
B(  9-C , 12-O ) :   1.1243 B( 12-O , 19-H ) :   0.8893 B( 13-O , 20-H ) :   0.8897
B( 14-O , 21-H ) :   0.8878 B( 15-O , 22-H ) :   0.8841 B( 16-O , 23-H ) :   0.9035

FINAL SINGLE POINT ENERGY      -687.246771357705

DIPOLE MOMENT
-------------

Method             : SCF
Type of density    : Electron Density
Multiplicity       :   1
Irrep              :   0
Energy             :  -687.2656573945048422 Eh
Relativity type    :
Basis              : AO
                                X                 Y                 Z
Electronic contribution:      2.079418341      -0.683626697      -0.933815242
Nuclear contribution   :     -1.418180987       1.481082552       0.771635154
                        -----------------------------------------
Total Dipole Moment    :      0.661237355       0.797455855      -0.162180088
                        -----------------------------------------
Magnitude (a.u.)       :      1.048557610
Magnitude (Debye)      :      2.665221635

Rotational constants in cm-1:             0.039529             0.026318             0.017411
Rotational constants in MHz :          1185.041053           789.004045           521.959203

                             ****ORCA TERMINATED NORMALLY****
TOTAL RUN TIME: 0 days 0 hours 4 minutes 52 seconds 797 msec
