                         Program Version 6.0.0  -   RELEASE  -
|  1> ! wb97x-v def2-tzvp def2/J RIJCOSX DEFGRID2 scfconv7 GCP(DFT/TZ) printgap
|  2> %output
|  3>     printlevel normal
|  4> end
|  5> %cpcm
|  6>     smd true
|  7>     smdsolvent "water"
|  8> end
|  9> * xyz 0 1
| 10> C -2.556147697820113 -0.9269528702491081 0.3899456129954556
| 11> C -1.1202990557303882 -0.4860680331151925 0.615388942105321
| 12> H -0.9481469042819799 -0.4504011447934889 1.70432794837045
| 13> C -0.7951056748222329 0.8829704163786438 0.01729664718046437
| 14> H -0.9888402568672279 0.8634559580718266 -1.0666529726687068
| 15> C 0.6741669617577718 1.2087971726771776 0.2401027105587717
| 16> H 0.8541588320366857 1.3188386299831825 1.3212071383421629
| 17> C 1.551356532037194 0.08567905802211086 -0.29336237892347516
| 18> H 1.4325307783000498 0.015783551759456067 -1.3868283878726186
| 19> C 1.1191330731781832 -1.2469809901851236 0.3201756450636965
| 20> H 1.2700528438374445 -1.2421259294684248 1.4100596896297206
| 21> O -0.2621895980947357 -1.47569210788515 0.02195854484198167
| 22> O 1.8565806090245882 -2.3302800979773366 -0.18191669393648427
| 23> O 2.9028602261693712 0.39741917818967565 0.051081013241124386
| 24> O 0.9397397123943347 2.448315006536279 -0.4283715702605315
| 25> O -1.640913766873781 1.842669353373682 0.6579124305565438
| 26> O -2.925773519444162 -0.9895430031579413 -0.9932311929915615
| 27> H -3.2261781306065367 -0.26189848188562537 0.9470817676534368
| 28> H -2.6714408416785527 -1.9397341397676158 0.7878931762684555
| 29> H 1.8548396461348662 -2.2747463238020784 -1.1500957645093537
| 30> H 3.4745116734074686 -0.23557286354231785 -0.4035936149626621
| 31> H 1.8237876056730755 2.7369722495856785 -0.16672651220468676
| 32> H -1.3981961922484596 2.7119097830384185 0.31134149658186533
| 33> H -3.0851493890496497 -0.08814802170107765 -1.3010128544240132
| 34> *
| 35>
| 36>                          ****END OF INPUT****

CARTESIAN COORDINATES (ANGSTROEM)
---------------------------------
  C     -2.556148   -0.926953    0.389946
  C     -1.120299   -0.486068    0.615389
  H     -0.948147   -0.450401    1.704328
  C     -0.795106    0.882970    0.017297
  H     -0.988840    0.863456   -1.066653
  C      0.674167    1.208797    0.240103
  H      0.854159    1.318839    1.321207
  C      1.551357    0.085679   -0.293362
  H      1.432531    0.015784   -1.386828
  C      1.119133   -1.246981    0.320176
  H      1.270053   -1.242126    1.410060
  O     -0.262190   -1.475692    0.021959
  O      1.856581   -2.330280   -0.181917
  O      2.902860    0.397419    0.051081
  O      0.939740    2.448315   -0.428372
  O     -1.640914    1.842669    0.657912
  O     -2.925774   -0.989543   -0.993231
  H     -3.226178   -0.261898    0.947082
  H     -2.671441   -1.939734    0.787893
  H      1.854840   -2.274746   -1.150096
  H      3.474512   -0.235573   -0.403594
  H      1.823788    2.736972   -0.166727
  H     -1.398196    2.711910    0.311341
  H     -3.085149   -0.088148   -1.301013

 Total Charge           Charge          ....    0
 Multiplicity           Mult            ....    1
 Number of Electrons    NEL             ....   96
 Basis Dimension        Dim             ....  444

ORBITAL ENERGIES
----------------

  NO   OCC          E(Eh)            E(eV)
   0   2.0000     -21.692138      -590.2731
   1   2.0000     -21.690418      -590.2263
   2   2.0000     -21.684116      -590.0548
   3   2.0000     -21.682179      -590.0021
   4   2.0000     -21.681876      -589.9938
   5   2.0000     -21.677949      -589.8870
   6   2.0000     -12.151189      -330.6507
   7   2.0000     -12.104222      -329.3726
   8   2.0000     -12.103370      -329.3494
   9   2.0000     -12.102418      -329.3235
  10   2.0000     -12.101516      -329.2990
  11   2.0000     -12.091783      -329.0342
  12   2.0000      -1.722747       -46.8783
  13   2.0000      -1.690886       -46.0113
  14   2.0000      -1.686902       -45.9029
  15   2.0000      -1.680864       -45.7386
  16   2.0000      -1.678790       -45.6822
  17   2.0000      -1.676118       -45.6095
  18   2.0000      -1.334239       -36.3065
  19   2.0000      -1.317494       -35.8508
  20   2.0000      -1.231917       -33.5222
  21   2.0000      -1.200811       -32.6757
  22   2.0000      -1.166649       -31.7461
  23   2.0000      -1.124920       -30.6106
  24   2.0000      -1.088638       -29.6233
  25   2.0000      -1.063984       -28.9525
  26   2.0000      -1.055650       -28.7257
  27   2.0000      -1.038214       -28.2512
  28   2.0000      -1.035160       -28.1681
  29   2.0000      -1.003977       -27.3196
  30   2.0000      -1.001507       -27.2524
  31   2.0000      -0.991035       -26.9674
  32   2.0000      -0.975065       -26.5329
  33   2.0000      -0.971691       -26.4410
  34   2.0000      -0.959862       -26.1192
  35   2.0000      -0.949317       -25.8322
  36   2.0000      -0.942783       -25.6544
  37   2.0000      -0.926542       -25.2125
  38   2.0000      -0.924780       -25.1645
  39   2.0000      -0.911819       -24.8119
  40   2.0000      -0.898708       -24.4551
  41   2.0000      -0.889835       -24.2136
  42   2.0000      -0.843678       -22.9576
  43   2.0000      -0.823582       -22.4108
  44   2.0000      -0.814080       -22.1522
  45   2.0000      -0.806483       -21.9455
  46   2.0000      -0.796196       -21.6656
  47   2.0000      -0.769423       -20.9371
  48   0.0000      -0.233550        -6.3552
  49   0.0000      -0.192585        -5.2405
  50   0.0000      -0.171144        -4.6571
  51   0.0000      -0.149546        -4.0694
  52   0.0000      -0.124690        -3.3930

MULLIKEN ATOMIC CHARGES
-----------------------
   0 C :   -0.046388
   1 C :    0.101967
   2 H :    0.111577
   3 C :    0.034319
   4 H :    0.107970
   5 C :    0.087600
   6 H :    0.110088
   7 C :    0.017839
   8 H :    0.113226
   9 C :    0.105786
  10 H :    0.117516
  11 O :   -0.327438
  12 O :   -0.494847
  13 O :   -0.521107
  14 O :   -0.531675
  15 O :   -0.529892
  16 O :   -0.556203
  17 H :    0.136313
  18 H :    0.135250
  19 H :    0.370503
  20 H :    0.365041
  21 H :    0.364523
  22 H :    0.361037
  23 H :    0.366995
Sum of atomic charges:   -0.0000000

LOEWDIN ATOMIC CHARGES
----------------------
   0 C :   -0.308766
   1 C :   -0.295327
   2 H :    0.159231
   3 C :   -0.302658
   4 H :    0.149219
   5 C :   -0.306562
   6 H :    0.153831
   7 C :   -0.314661
   8 H :    0.153003
   9 C :   -0.405368
  10 H :    0.142832
  11 O :    0.160899
  12 O :   -0.019880
  13 O :   -0.038520
  14 O :   -0.043101
  15 O :   -0.037988
  16 O :   -0.083771
  17 H :    0.132127
  18 H :    0.136397
  19 H :    0.201413
  20 H :    0.193760
  21 H :    0.192279
  22 H :    0.191382
  23 H :    0.190228

  Mayer bond orders larger than 0.100000
B(  0-C ,  1-C ) :   0.9460 B(  0-C , 16-O ) :   0.9822 B(  0-C , 17-H ) :   0.9786
B(  0-C , 18-H ) :   0.9788 B(  1-C ,  2-H ) :   0.9426 B(  1-C ,  3-C ) :   0.9598
B(  1-C , 11-O ) :   0.9517 B(  3-C ,  4-H ) :   0.9527 B(  3-C ,  5-C ) :   0.9863
B(  3-C , 15-O ) :   1.0247 B(  5-C ,  6-H ) :   0.9608 B(  5-C ,  7-C ) :   0.9721
B(  5-C , 14-O ) :   1.0532 B(  7-C ,  8-H ) :   0.9568 B(  7-C ,  9-C ) :   0.9708
B(  7-C , 13-O ) :   1.0696 B(  9-C , 10-H ) :   0.9717 B(  9-C , 11-O ) :   1.0089
B(  9-C , 12-O ) :   1.1189 B( 12-O , 19-H ) :   0.8491 B( 13-O , 20-H ) :   0.8587
B( 14-O , 21-H ) :   0.8601 B( 15-O , 22-H ) :   0.8577 B( 16-O , 23-H ) :   0.8661

FINAL SINGLE POINT ENERGY      -687.287455435785

DIPOLE MOMENT
-------------

Method             : SCF
Type of density    : Electron Density
Multiplicity       :   1
Irrep              :   0
Energy             :  -687.3063414725846769 Eh
Relativity type    :
Basis              : AO
                                X                 Y                 Z
Electronic contribution:      2.308853385      -0.379757516      -0.960870040
Nuclear contribution   :     -1.418180987       1.481082552       0.771635154
                        -----------------------------------------
Total Dipole Moment    :      0.890672399       1.101325036      -0.189234886
                        -----------------------------------------
Magnitude (a.u.)       :      1.428994052
Magnitude (Debye)      :      3.632214222

Rotational constants in cm-1:             0.039529             0.026318             0.017411
Rotational constants in MHz :          1185.041053           789.004045           521.959203

                             ****ORCA TERMINATED NORMALLY****
TOTAL RUN TIME: 0 days 0 hours 5 minutes 26 seconds 710 msec
