                         Program Version 6.0.0  -   RELEASE  -
|  1> ! pbe def2-sv(p) def2/J RI DEFGRID1 loosescf d4 GCP(DFT/SV(P)) printgap
|  2> %output
|  3>     printlevel normal
|  4> end
|  5> * xyz 0 1
|  6> C -1.6770470826 -1.3371437656 -0.578545667
|  7> C -1.1438983196 -0.4943470147 0.5976036351
|  8> H -1.8960483147 -0.4879554766 1.3951553997
|  9> C -0.8793868469 0.9764955696 0.1855379882
| 10> H -1.2409584521 1.1371266315 -0.8356165406
| 11> C 0.62662363 1.2693318366 0.222768052
| 12> H 0.9399332038 1.3782855568 1.2778822074
| 13> C 1.4003523641 0.093585535 -0.3939508832
| 14> H 1.0393350553 -0.086713087 -1.4115319423
| 15> C 1.1675388562 -1.1729185514 0.448150568
| 16> H 1.9623765305 -1.2572434804 1.2071036814
| 17> O -0.012024693 -1.0971305907 1.2155228088
| 18> O 1.1840107881 -2.2730745506 -0.4021034864
| 19> O 2.7584377964 0.4120293859 -0.5380286146
| 20> O 0.8945700348 2.4618983527 -0.4674696851
| 21> O -1.6184175538 1.8748861983 0.9725059273
| 22> O -2.7875926997 -0.7492102918 -1.2023547406
| 23> H -1.914947968 -2.3423288285 -0.2085454888
| 24> H -0.9119827162 -1.4280158272 -1.3518725044
| 25> H 1.1799494278 -3.0983303161 0.1069615699
| 26> H 3.1856308458 0.4746205968 0.3302476026
| 27> H 1.7929965538 2.406194093 -0.8343571769
| 28> H -1.235503001 1.9311690434 1.8603847033
| 29> H -3.523972552 -0.6932111037 -0.576857275
| 30> *
| 31>
| 32>                          ****END OF INPUT****

CARTESIAN COORDINATES (ANGSTROEM)
---------------------------------
  C     -1.677047   -1.337144   -0.578546
  C     -1.143898   -0.494347    0.597604
  H     -1.896048   -0.487955    1.395155
  C     -0.879387    0.976496    0.185538
  H     -1.240958    1.137127   -0.835617
  C      0.626624    1.269332    0.222768
  H      0.939933    1.378286    1.277882
  C      1.400352    0.093586   -0.393951
  H      1.039335   -0.086713   -1.411532
  C      1.167539   -1.172919    0.448151
  H      1.962377   -1.257243    1.207104
  O     -0.012025   -1.097131    1.215523
  O      1.184011   -2.273075   -0.402103
  O      2.758438    0.412029   -0.538029
  O      0.894570    2.461898   -0.467470
  O     -1.618418    1.874886    0.972506
  O     -2.787593   -0.749210   -1.202355
  H     -1.914948   -2.342329   -0.208545
  H     -0.911983   -1.428016   -1.351873
  H      1.179949   -3.098330    0.106962
  H      3.185631    0.474621    0.330248
  H      1.792997    2.406194   -0.834357
  H     -1.235503    1.931169    1.860385
  H     -3.523973   -0.693211   -0.576857

 Total Charge           Charge          ....    0
 Multiplicity           Mult            ....    1
 Number of Electrons    NEL             ....   96
 Basis Dimension        Dim             ....  192

ORBITAL ENERGIES
----------------

  NO   OCC          E(Eh)            E(eV)
   0   2.0000     -18.775593      -510.9099
   1   2.0000     -18.773629      -510.8564
   2   2.0000     -18.770638      -510.7750
   3   2.0000     -18.752073      -510.2699
   4   2.0000     -18.743117      -510.0262
   5   2.0000     -18.742892      -510.0200
   6   2.0000      -9.997444      -272.0443
   7   2.0000      -9.951677      -270.7989
   8   2.0000      -9.943403      -270.5738
   9   2.0000      -9.941959      -270.5345
  10   2.0000      -9.935406      -270.3561
  11   2.0000      -9.930035      -270.2100
  12   2.0000      -0.987240       -26.8642
  13   2.0000      -0.953938       -25.9580
  14   2.0000      -0.933933       -25.4136
  15   2.0000      -0.925919       -25.1955
  16   2.0000      -0.917919       -24.9778
  17   2.0000      -0.910666       -24.7805
  18   2.0000      -0.701992       -19.1022
  19   2.0000      -0.694065       -18.8865
  20   2.0000      -0.623166       -16.9572
  21   2.0000      -0.588760       -16.0210
  22   2.0000      -0.573314       -15.6007
  23   2.0000      -0.535209       -14.5638
  24   2.0000      -0.510073       -13.8798
  25   2.0000      -0.493730       -13.4351
  26   2.0000      -0.469791       -12.7837
  27   2.0000      -0.458804       -12.4847
  28   2.0000      -0.447386       -12.1740
  29   2.0000      -0.433392       -11.7932
  30   2.0000      -0.419778       -11.4228
  31   2.0000      -0.409500       -11.1431
  32   2.0000      -0.380327       -10.3492
  33   2.0000      -0.372261       -10.1297
  34   2.0000      -0.360557        -9.8113
  35   2.0000      -0.346485        -9.4283
  36   2.0000      -0.331878        -9.0308
  37   2.0000      -0.325049        -8.8450
  38   2.0000      -0.301345        -8.2000
  39   2.0000      -0.286018        -7.7829
  40   2.0000      -0.279592        -7.6081
  41   2.0000      -0.274647        -7.4735
  42   2.0000      -0.262221        -7.1354
  43   2.0000      -0.246673        -6.7123
  44   2.0000      -0.241071        -6.5599
  45   2.0000      -0.226786        -6.1712
  46   2.0000      -0.216162        -5.8821
  47   2.0000      -0.196638        -5.3508
  48   0.0000       0.009210         0.2506
  49   0.0000       0.019444         0.5291
  50   0.0000       0.025950         0.7061
  51   0.0000       0.032483         0.8839
  52   0.0000       0.049339         1.3426

MULLIKEN ATOMIC CHARGES
-----------------------
   0 C :    0.013186
   1 C :   -0.002400
   2 H :    0.055406
   3 C :    0.092447
   4 H :    0.086826
   5 C :    0.063421
   6 H :    0.019091
   7 C :   -0.030385
   8 H :    0.093034
   9 C :    0.222095
  10 H :    0.043101
  11 O :   -0.312679
  12 O :   -0.379878
  13 O :   -0.410750
  14 O :   -0.403786
  15 O :   -0.414328
  16 O :   -0.420622
  17 H :    0.072550
  18 H :    0.113207
  19 H :    0.303750
  20 H :    0.301838
  21 H :    0.297668
  22 H :    0.295670
  23 H :    0.301541
Sum of atomic charges:    0.0000000

LOEWDIN ATOMIC CHARGES
----------------------
   0 C :   -0.144168
   1 C :   -0.080065
   2 H :    0.109976
   3 C :   -0.070374
   4 H :    0.127523
   5 C :   -0.079542
   6 H :    0.087553
   7 C :   -0.092783
   8 H :    0.128658
   9 C :   -0.007567
  10 H :    0.092908
  11 O :   -0.152004
  12 O :   -0.298345
  13 O :   -0.299950
  14 O :   -0.318493
  15 O :   -0.311084
  16 O :   -0.324535
  17 H :    0.096884
  18 H :    0.117329
  19 H :    0.287671
  20 H :    0.285144
  21 H :    0.277684
  22 H :    0.280827
  23 H :    0.286753

  Mayer bond orders larger than 0.100000
B(  0-C ,  1-C ) :   1.0201 B(  0-C , 16-O ) :   1.0567 B(  0-C , 17-H ) :   0.9145
B(  0-C , 18-H ) :   0.9085 B(  1-C ,  2-H ) :   0.8901 B(  1-C ,  3-C ) :   0.9516
B(  1-C , 11-O ) :   1.0106 B(  3-C ,  4-H ) :   0.8701 B(  3-C ,  5-C ) :   1.0167
B(  3-C , 15-O ) :   1.0408 B(  5-C ,  6-H ) :   0.8489 B(  5-C ,  7-C ) :   1.0051
B(  5-C , 14-O ) :   1.1249 B(  7-C ,  8-H ) :   0.8708 B(  7-C ,  9-C ) :   0.9737
B(  7-C , 13-O ) :   1.0170 B(  9-C , 10-H ) :   0.8851 B(  9-C , 11-O ) :   1.0590
B(  9-C , 12-O ) :   1.1445 B( 12-O , 19-H ) :   0.8387 B( 13-O , 20-H ) :   0.8433
B( 14-O , 21-H ) :   0.8240 B( 15-O , 22-H ) :   0.8506 B( 16-O , 23-H ) :   0.8491

Dispersion correction           -0.024586608
FINAL SINGLE POINT ENERGY      -685.686714429999

DIPOLE MOMENT
-------------

Method             : SCF
Type of density    : Electron Density
Multiplicity       :   1
Irrep              :   0
Energy             :  -685.8166651176477444 Eh
Relativity type    :
Basis              : AO
                                X                 Y                 Z
Electronic contribution:      1.213759375       0.959880954       0.428726498
Nuclear contribution   :     -0.578452507      -1.929312575       0.893411563
                        -----------------------------------------
Total Dipole Moment    :      0.635306868      -0.969431621       1.322138061
                        -----------------------------------------
Magnitude (a.u.)       :      1.758255254
Magnitude (Debye)      :      4.469129689

Rotational constants in cm-1:             0.036018             0.029395             0.019964
Rotational constants in MHz :          1079.807355           881.251062           598.496487

                             ****ORCA TERMINATED NORMALLY****
TOTAL RUN TIME: 0 days 0 hours 0 minutes 11 seconds 923 msec
