                         Program Version 6.0.0  -   RELEASE  -
|  1> ! wb97x-v def2-tzvp def2/J RIJCOSX DEFGRID2 scfconv7 GCP(DFT/TZ) printgap
|  2> %output
|  3>     printlevel normal
|  4> end
|  5> * xyz 0 1
|  6> C -2.7495828500162816 -0.07964196127112211 -0.7214014087188122
|  7> C -1.942669207251242 0.12067675233670211 0.5673427406631342
|  8> C -0.4643255337682749 0.044039805409636985 0.3091658899831028
|  9> C 0.1972070141880179 -1.187385316543635 0.32915394879823345
| 10> C 1.5547030799448376 -1.2384536922503313 0.045818609006007656
| 11> C 2.2207188041775483 -0.05358554694364879 -0.2516636399985904
| 12> C 1.4889357897577848 1.1255042870285992 -0.25181160424340515
| 13> N 0.1763774236304689 1.191188716668671 0.01990764263105889
| 14> H -2.54095891208559 -1.0595229123094334 -1.1622847586114275
| 15> H -2.500565301250339 0.6866097490404017 -1.461717301659649
| 16> H -3.82282487479656 -0.019550978629979524 -0.5159639869702956
| 17> H -2.2227374355323994 -0.6498319954697079 1.2931458715533668
| 18> H -2.181367807684147 1.0954013012494253 1.0031480710148042
| 19> H -0.355082813698611 -2.090948139107785 0.5678913638286465
| 20> H 2.0863181842987935 -2.1847707826142586 0.06045928361785761
| 21> H 3.2818344500091214 -0.04069493914229964 -0.47557876037816676
| 22> H 1.9791513632871371 2.07073579823454 -0.47628828885866825
| 23> *
| 24>
| 25>                          ****END OF INPUT****

CARTESIAN COORDINATES (ANGSTROEM)
---------------------------------
  C     -2.749583   -0.079642   -0.721401
  C     -1.942669    0.120677    0.567343
  C     -0.464326    0.044040    0.309166
  C      0.197207   -1.187385    0.329154
  C      1.554703   -1.238454    0.045819
  C      2.220719   -0.053586   -0.251664
  C      1.488936    1.125504   -0.251812
  N      0.176377    1.191189    0.019908
  H     -2.540959   -1.059523   -1.162285
  H     -2.500565    0.686610   -1.461717
  H     -3.822825   -0.019551   -0.515964
  H     -2.222737   -0.649832    1.293146
  H     -2.181368    1.095401    1.003148
  H     -0.355083   -2.090948    0.567891
  H      2.086318   -2.184771    0.060459
  H      3.281834   -0.040695   -0.475579
  H      1.979151    2.070736   -0.476288

 Total Charge           Charge          ....    0
 Multiplicity           Mult            ....    1
 Number of Electrons    NEL             ....   58
 Basis Dimension        Dim             ....  302

ORBITAL ENERGIES
----------------

  NO   OCC          E(Eh)            E(eV)
   0   2.0000     -16.521554      -449.5743
   1   2.0000     -12.089558      -328.9736
   2   2.0000     -12.082962      -328.7941
   3   2.0000     -12.070413      -328.4526
   4   2.0000     -12.056075      -328.0625
   5   2.0000     -12.055678      -328.0517
   6   2.0000     -12.046201      -327.7938
   7   2.0000     -12.037716      -327.5629
   8   2.0000      -1.515364       -41.2351
   9   2.0000      -1.343027       -36.5456
  10   2.0000      -1.319626       -35.9089
  11   2.0000      -1.252001       -34.0687
  12   2.0000      -1.156703       -31.4755
  13   2.0000      -1.146073       -31.1862
  14   2.0000      -1.089788       -29.6547
  15   2.0000      -0.996717       -27.1220
  16   2.0000      -0.968142       -26.3445
  17   2.0000      -0.923845       -25.1391
  18   2.0000      -0.886696       -24.1282
  19   2.0000      -0.877878       -23.8883
  20   2.0000      -0.859523       -23.3888
  21   2.0000      -0.853498       -23.2249
  22   2.0000      -0.837776       -22.7970
  23   2.0000      -0.809631       -22.0312
  24   2.0000      -0.791165       -21.5287
  25   2.0000      -0.773008       -21.0346
  26   2.0000      -0.758075       -20.6283
  27   2.0000      -0.697332       -18.9754
  28   2.0000      -0.646355       -17.5882
  29   0.0000      -0.290563        -7.9066
  30   0.0000      -0.246687        -6.7127
  31   0.0000      -0.097180        -2.6444
  32   0.0000      -0.043127        -1.1735
  33   0.0000      -0.038494        -1.0475

MULLIKEN ATOMIC CHARGES
-----------------------
   0 C :   -0.355586
   1 C :   -0.181265
   2 C :    0.206961
   3 C :   -0.195148
   4 C :   -0.109971
   5 C :   -0.101007
   6 C :   -0.063221
   7 N :   -0.248662
   8 H :    0.107651
   9 H :    0.124320
  10 H :    0.112162
  11 H :    0.098598
  12 H :    0.111694
  13 H :    0.122733
  14 H :    0.128204
  15 H :    0.123254
  16 H :    0.119284
Sum of atomic charges:   -0.0000000

LOEWDIN ATOMIC CHARGES
----------------------
   0 C :   -0.294083
   1 C :   -0.243074
   2 C :   -0.209610
   3 C :   -0.124602
   4 C :   -0.118191
   5 C :   -0.159727
   6 C :   -0.197607
   7 N :    0.145658
   8 H :    0.116126
   9 H :    0.121526
  10 H :    0.116223
  11 H :    0.137324
  12 H :    0.142561
  13 H :    0.145972
  14 H :    0.144182
  15 H :    0.142618
  16 H :    0.134703

  Mayer bond orders larger than 0.100000
B(  0-C ,  1-C ) :   0.9676 B(  0-C ,  8-H ) :   0.9793 B(  0-C ,  9-H ) :   0.9795
B(  0-C , 10-H ) :   0.9785 B(  1-C ,  2-C ) :   0.9272 B(  1-C , 11-H ) :   0.9878
B(  1-C , 12-H ) :   0.9793 B(  2-C ,  3-C ) :   1.4018 B(  2-C ,  7-N ) :   1.4552
B(  3-C ,  4-C ) :   1.4761 B(  3-C , 13-H ) :   0.9623 B(  4-C ,  5-C ) :   1.4318
B(  4-C , 14-H ) :   0.9653 B(  5-C ,  6-C ) :   1.4179 B(  5-C , 15-H ) :   0.9645
B(  6-C ,  7-N ) :   1.5145 B(  6-C , 16-H ) :   0.9865

FINAL SINGLE POINT ENERGY      -326.928486907726

DIPOLE MOMENT
-------------

Method             : SCF
Type of density    : Electron Density
Multiplicity       :   1
Irrep              :   0
Energy             :  -326.9381142396264295 Eh
Relativity type    :
Basis              : AO
                                X                 Y                 Z
Electronic contribution:      6.098978706       1.286705933       1.064188180
Nuclear contribution   :     -5.872046634      -1.990122781      -1.049334194
                        -----------------------------------------
Total Dipole Moment    :      0.226932072      -0.703416848       0.014853986
                        -----------------------------------------
Magnitude (a.u.)       :      0.739265899
Magnitude (Debye)      :      1.879064583

Rotational constants in cm-1:             0.154900             0.050841             0.042171
Rotational constants in MHz :          4643.773732          1524.164049          1264.249597

                             ****ORCA TERMINATED NORMALLY****
TOTAL RUN TIME: 0 days 0 hours 2 minutes 48 seconds 110 msec
