                         Program Version 6.0.0  -   RELEASE  -
|  1> ! wb97x-v def2-tzvp def2/J RIJCOSX DEFGRID2 scfconv7 GCP(DFT/TZ) printgap
|  2> %output
|  3>     printlevel normal
|  4> end
|  5> %cpcm
|  6>     smd true
|  7>     smdsolvent "water"
|  8> end
|  9> * xyz 0 1
| 10> C -2.7495828500162816 -0.07964196127112211 -0.7214014087188122
| 11> C -1.942669207251242 0.12067675233670211 0.5673427406631342
| 12> C -0.4643255337682749 0.044039805409636985 0.3091658899831028
| 13> C 0.1972070141880179 -1.187385316543635 0.32915394879823345
| 14> C 1.5547030799448376 -1.2384536922503313 0.045818609006007656
| 15> C 2.2207188041775483 -0.05358554694364879 -0.2516636399985904
| 16> C 1.4889357897577848 1.1255042870285992 -0.25181160424340515
| 17> N 0.1763774236304689 1.191188716668671 0.01990764263105889
| 18> H -2.54095891208559 -1.0595229123094334 -1.1622847586114275
| 19> H -2.500565301250339 0.6866097490404017 -1.461717301659649
| 20> H -3.82282487479656 -0.019550978629979524 -0.5159639869702956
| 21> H -2.2227374355323994 -0.6498319954697079 1.2931458715533668
| 22> H -2.181367807684147 1.0954013012494253 1.0031480710148042
| 23> H -0.355082813698611 -2.090948139107785 0.5678913638286465
| 24> H 2.0863181842987935 -2.1847707826142586 0.06045928361785761
| 25> H 3.2818344500091214 -0.04069493914229964 -0.47557876037816676
| 26> H 1.9791513632871371 2.07073579823454 -0.47628828885866825
| 27> *
| 28>
| 29>                          ****END OF INPUT****

CARTESIAN COORDINATES (ANGSTROEM)
---------------------------------
  C     -2.749583   -0.079642   -0.721401
  C     -1.942669    0.120677    0.567343
  C     -0.464326    0.044040    0.309166
  C      0.197207   -1.187385    0.329154
  C      1.554703   -1.238454    0.045819
  C      2.220719   -0.053586   -0.251664
  C      1.488936    1.125504   -0.251812
  N      0.176377    1.191189    0.019908
  H     -2.540959   -1.059523   -1.162285
  H     -2.500565    0.686610   -1.461717
  H     -3.822825   -0.019551   -0.515964
  H     -2.222737   -0.649832    1.293146
  H     -2.181368    1.095401    1.003148
  H     -0.355083   -2.090948    0.567891
  H      2.086318   -2.184771    0.060459
  H      3.281834   -0.040695   -0.475579
  H      1.979151    2.070736   -0.476288

 Total Charge           Charge          ....    0
 Multiplicity           Mult            ....    1
 Number of Electrons    NEL             ....   58
 Basis Dimension        Dim             ....  302

ORBITAL ENERGIES
----------------

  NO   OCC          E(Eh)            E(eV)
   0   2.0000     -16.525127      -449.6716
   1   2.0000     -12.088302      -328.9394
   2   2.0000     -12.080846      -328.7365
   3   2.0000     -12.064144      -328.2820
   4   2.0000     -12.050385      -327.9076
   5   2.0000     -12.049884      -327.8940
   6   2.0000     -12.040269      -327.6324
   7   2.0000     -12.031039      -327.3812
   8   2.0000      -1.518076       -41.3090
   9   2.0000      -1.339242       -36.4426
  10   2.0000      -1.316925       -35.8353
  11   2.0000      -1.247087       -33.9350
  12   2.0000      -1.153858       -31.3981
  13   2.0000      -1.142131       -31.0790
  14   2.0000      -1.085479       -29.5374
  15   2.0000      -0.993304       -27.0292
  16   2.0000      -0.962722       -26.1970
  17   2.0000      -0.916839       -24.9485
  18   2.0000      -0.881650       -23.9909
  19   2.0000      -0.872518       -23.7424
  20   2.0000      -0.853787       -23.2327
  21   2.0000      -0.850889       -23.1539
  22   2.0000      -0.832925       -22.6650
  23   2.0000      -0.807909       -21.9843
  24   2.0000      -0.786134       -21.3918
  25   2.0000      -0.767914       -20.8960
  26   2.0000      -0.758791       -20.6478
  27   2.0000      -0.695828       -18.9344
  28   2.0000      -0.644064       -17.5259
  29   0.0000      -0.289675        -7.8825
  30   0.0000      -0.244277        -6.6471
  31   0.0000      -0.093732        -2.5506
  32   0.0000      -0.038467        -1.0467
  33   0.0000      -0.028151        -0.7660

MULLIKEN ATOMIC CHARGES
-----------------------
   0 C :   -0.399600
   1 C :   -0.191101
   2 C :    0.218315
   3 C :   -0.231257
   4 C :   -0.132721
   5 C :   -0.153124
   6 C :   -0.074956
   7 N :   -0.326567
   8 H :    0.129604
   9 H :    0.124782
  10 H :    0.131897
  11 H :    0.123564
  12 H :    0.114964
  13 H :    0.167152
  14 H :    0.172725
  15 H :    0.168363
  16 H :    0.157959
Sum of atomic charges:    0.0000000

LOEWDIN ATOMIC CHARGES
----------------------
   0 C :   -0.299010
   1 C :   -0.244471
   2 C :   -0.215966
   3 C :   -0.121576
   4 C :   -0.113305
   5 C :   -0.160417
   6 C :   -0.208446
   7 N :    0.105420
   8 H :    0.120673
   9 H :    0.119587
  10 H :    0.120657
  11 H :    0.145435
  12 H :    0.141042
  13 H :    0.157904
  14 H :    0.156225
  15 H :    0.153792
  16 H :    0.142458

  Mayer bond orders larger than 0.100000
B(  0-C ,  1-C ) :   0.9624 B(  0-C ,  8-H ) :   0.9779 B(  0-C ,  9-H ) :   0.9762
B(  0-C , 10-H ) :   0.9755 B(  1-C ,  2-C ) :   0.9300 B(  1-C , 11-H ) :   0.9797
B(  1-C , 12-H ) :   0.9797 B(  2-C ,  3-C ) :   1.4049 B(  2-C ,  7-N ) :   1.4257
B(  3-C ,  4-C ) :   1.4547 B(  3-C , 13-H ) :   0.9634 B(  4-C ,  5-C ) :   1.4163
B(  4-C , 14-H ) :   0.9631 B(  5-C ,  6-C ) :   1.4359 B(  5-C , 15-H ) :   0.9612
B(  6-C ,  7-N ) :   1.5032 B(  6-C , 16-H ) :   0.9685

FINAL SINGLE POINT ENERGY      -326.934783885328

DIPOLE MOMENT
-------------

Method             : SCF
Type of density    : Electron Density
Multiplicity       :   1
Irrep              :   0
Energy             :  -326.9444112172277528 Eh
Relativity type    :
Basis              : AO
                                X                 Y                 Z
Electronic contribution:      6.215621862       0.884716056       1.093317306
Nuclear contribution   :     -5.872046634      -1.990122781      -1.049334194
                        -----------------------------------------
Total Dipole Moment    :      0.343575228      -1.105406725       0.043983112
                        -----------------------------------------
Magnitude (a.u.)       :      1.158405145
Magnitude (Debye)      :      2.944431880

Rotational constants in cm-1:             0.154900             0.050841             0.042171
Rotational constants in MHz :          4643.773732          1524.164049          1264.249597

                             ****ORCA TERMINATED NORMALLY****
TOTAL RUN TIME: 0 days 0 hours 2 minutes 49 seconds 749 msec
