                         Program Version 6.0.0  -   RELEASE  -
|  1> ! pbe def2-sv(p) def2/J RI DEFGRID1 loosescf d4 GCP(DFT/SV(P)) printgap
|  2> %output
|  3>     printlevel normal
|  4> end
|  5> * xyz 0 1
|  6> C -2.4128715615 -0.91086467 0.3501838009
|  7> C -0.9624072298 -0.4608082747 0.5802207153
|  8> H -0.7013796753 -0.632140388 1.636256538
|  9> C -0.7466297411 1.0346656604 0.2512092026
| 10> H -1.5253602158 1.3702397453 -0.4450297671
| 11> C 0.6187885995 1.2387918926 -0.4509401379
| 12> H 0.8992549748 2.2900003918 -0.3201833641
| 13> C 1.6724103953 0.3500254201 0.2223700074
| 14> H 2.6283438542 0.4438792055 -0.3069926638
| 15> C 1.2426017038 -1.1356995152 0.0924653004
| 16> H 1.4294352838 -1.6258043967 1.0695948664
| 17> O -0.1294111875 -1.2727357331 -0.2316022464
| 18> O 1.9702195779 -1.7174268495 -0.9252217358
| 19> O 1.8951168343 0.7057519676 1.562193017
| 20> O 0.5487636123 1.0245434432 -1.8329602128
| 21> O -0.7289999037 1.8153140015 1.4270589504
| 22> O -2.895362045 -0.5783576558 -0.9244426993
| 23> H -3.0647110682 -0.4026575049 1.062401124
| 24> H -2.4694785615 -1.9919266651 0.5223094457
| 25> H 1.7116618241 -2.6465942051 -1.0334492129
| 26> H 1.1160611559 1.176420847 1.9064722905
| 27> H 0.5237293724 0.071521079 -2.0075971461
| 28> H -1.6295197615 1.9956830413 1.7287539144
| 29> H -2.3916663369 -1.068607164 -1.5886679959
| 30> *
| 31>
| 32>                          ****END OF INPUT****

CARTESIAN COORDINATES (ANGSTROEM)
---------------------------------
  C     -2.412872   -0.910865    0.350184
  C     -0.962407   -0.460808    0.580221
  H     -0.701380   -0.632140    1.636257
  C     -0.746630    1.034666    0.251209
  H     -1.525360    1.370240   -0.445030
  C      0.618789    1.238792   -0.450940
  H      0.899255    2.290000   -0.320183
  C      1.672410    0.350025    0.222370
  H      2.628344    0.443879   -0.306993
  C      1.242602   -1.135700    0.092465
  H      1.429435   -1.625804    1.069595
  O     -0.129411   -1.272736   -0.231602
  O      1.970220   -1.717427   -0.925222
  O      1.895117    0.705752    1.562193
  O      0.548764    1.024543   -1.832960
  O     -0.729000    1.815314    1.427059
  O     -2.895362   -0.578358   -0.924443
  H     -3.064711   -0.402658    1.062401
  H     -2.469479   -1.991927    0.522309
  H      1.711662   -2.646594   -1.033449
  H      1.116061    1.176421    1.906472
  H      0.523729    0.071521   -2.007597
  H     -1.629520    1.995683    1.728754
  H     -2.391666   -1.068607   -1.588668

 Total Charge           Charge          ....    0
 Multiplicity           Mult            ....    1
 Number of Electrons    NEL             ....   96
 Basis Dimension        Dim             ....  192

ORBITAL ENERGIES
----------------

  NO   OCC          E(Eh)            E(eV)
   0   2.0000     -18.781878      -511.0809
   1   2.0000     -18.777769      -510.9691
   2   2.0000     -18.773315      -510.8479
   3   2.0000     -18.761321      -510.5215
   4   2.0000     -18.745374      -510.0876
   5   2.0000     -18.741257      -509.9755
   6   2.0000      -9.988500      -271.8009
   7   2.0000      -9.951097      -270.7831
   8   2.0000      -9.947087      -270.6740
   9   2.0000      -9.945316      -270.6258
  10   2.0000      -9.941192      -270.5136
  11   2.0000      -9.935091      -270.3476
  12   2.0000      -0.994351       -27.0577
  13   2.0000      -0.953963       -25.9586
  14   2.0000      -0.940865       -25.6023
  15   2.0000      -0.927778       -25.2461
  16   2.0000      -0.921732       -25.0816
  17   2.0000      -0.915758       -24.9191
  18   2.0000      -0.704504       -19.1705
  19   2.0000      -0.684786       -18.6340
  20   2.0000      -0.634482       -17.2651
  21   2.0000      -0.582583       -15.8529
  22   2.0000      -0.575029       -15.6473
  23   2.0000      -0.520191       -14.1551
  24   2.0000      -0.508754       -13.8439
  25   2.0000      -0.501704       -13.6521
  26   2.0000      -0.494201       -13.4479
  27   2.0000      -0.469982       -12.7889
  28   2.0000      -0.456009       -12.4086
  29   2.0000      -0.425257       -11.5718
  30   2.0000      -0.416098       -11.3226
  31   2.0000      -0.401144       -10.9157
  32   2.0000      -0.388610       -10.5746
  33   2.0000      -0.377871       -10.2824
  34   2.0000      -0.363314        -9.8863
  35   2.0000      -0.357134        -9.7181
  36   2.0000      -0.327586        -8.9141
  37   2.0000      -0.326708        -8.8902
  38   2.0000      -0.318890        -8.6774
  39   2.0000      -0.297428        -8.0934
  40   2.0000      -0.287189        -7.8148
  41   2.0000      -0.269499        -7.3334
  42   2.0000      -0.264872        -7.2075
  43   2.0000      -0.254261        -6.9188
  44   2.0000      -0.235628        -6.4118
  45   2.0000      -0.232743        -6.3332
  46   2.0000      -0.209463        -5.6998
  47   2.0000      -0.205447        -5.5905
  48   0.0000      -0.000709        -0.0193
  49   0.0000       0.015456         0.4206
  50   0.0000       0.029032         0.7900
  51   0.0000       0.047566         1.2943
  52   0.0000       0.062031         1.6879

MULLIKEN ATOMIC CHARGES
-----------------------
   0 C :    0.078828
   1 C :   -0.005587
   2 H :    0.052210
   3 C :    0.024602
   4 H :    0.081836
   5 C :    0.029228
   6 H :    0.086547
   7 C :    0.031554
   8 H :    0.090492
   9 C :    0.171273
  10 H :    0.060899
  11 O :   -0.329855
  12 O :   -0.377088
  13 O :   -0.427501
  14 O :   -0.410344
  15 O :   -0.419560
  16 O :   -0.427323
  17 H :    0.078799
  18 H :    0.084896
  19 H :    0.306774
  20 H :    0.308919
  21 H :    0.294089
  22 H :    0.313723
  23 H :    0.302589
Sum of atomic charges:    0.0000000

LOEWDIN ATOMIC CHARGES
----------------------
   0 C :   -0.124238
   1 C :   -0.086209
   2 H :    0.104535
   3 C :   -0.084937
   4 H :    0.115671
   5 C :   -0.070057
   6 H :    0.122032
   7 C :   -0.083325
   8 H :    0.122421
   9 C :   -0.009249
  10 H :    0.088926
  11 O :   -0.173746
  12 O :   -0.288581
  13 O :   -0.320831
  14 O :   -0.309003
  15 O :   -0.313157
  16 O :   -0.326732
  17 H :    0.113201
  18 H :    0.105712
  19 H :    0.290113
  20 H :    0.275244
  21 H :    0.270874
  22 H :    0.294917
  23 H :    0.286418

  Mayer bond orders larger than 0.100000
B(  0-C ,  1-C ) :   1.0334 B(  0-C , 16-O ) :   1.0761 B(  0-C , 17-H ) :   0.9228
B(  0-C , 18-H ) :   0.9135 B(  1-C ,  2-H ) :   0.8596 B(  1-C ,  3-C ) :   0.9887
B(  1-C , 11-O ) :   1.0201 B(  3-C ,  4-H ) :   0.8753 B(  3-C ,  5-C ) :   0.9726
B(  3-C , 15-O ) :   1.0300 B(  5-C ,  6-H ) :   0.8929 B(  5-C ,  7-C ) :   1.0322
B(  5-C , 14-O ) :   1.0729 B(  7-C ,  8-H ) :   0.8937 B(  7-C ,  9-C ) :   0.9311
B(  7-C , 13-O ) :   1.0840 B(  9-C , 10-H ) :   0.8970 B(  9-C , 11-O ) :   0.9883
B(  9-C , 12-O ) :   1.1538 B( 12-O , 19-H ) :   0.8399 B( 13-O , 20-H ) :   0.8107
B( 14-O , 21-H ) :   0.8339 B( 15-O , 22-H ) :   0.8409 B( 16-O , 23-H ) :   0.8440

Dispersion correction           -0.025154708
FINAL SINGLE POINT ENERGY      -685.693621126662

DIPOLE MOMENT
-------------

Method             : SCF
Type of density    : Electron Density
Multiplicity       :   1
Irrep              :   0
Energy             :  -685.8259979879028378 Eh
Relativity type    :
Basis              : AO
                                X                 Y                 Z
Electronic contribution:      2.278059638       0.048587107      -1.629552158
Nuclear contribution   :     -3.249072666      -0.957259811       2.072663498
                        -----------------------------------------
Total Dipole Moment    :     -0.971013028      -0.908672705       0.443111341
                        -----------------------------------------
Magnitude (a.u.)       :      1.401748924
Magnitude (Debye)      :      3.562962611

Rotational constants in cm-1:             0.039452             0.028134             0.022921
Rotational constants in MHz :          1182.747827           843.448516           687.155469

                             ****ORCA TERMINATED NORMALLY****
TOTAL RUN TIME: 0 days 0 hours 0 minutes 11 seconds 913 msec
