                         Program Version 6.0.0  -   RELEASE  -
|  1> ! pbe def2-sv(p) def2/J RI DEFGRID1 loosescf d4 GCP(DFT/SV(P)) printgap
|  2> %output
|  3>     printlevel normal
|  4> end
|  5> * xyz 0 1
|  6> C -2.5812615331 -0.6700958845 -0.2796644224
|  7> C -1.1870476045 -0.2882396879 0.2349359595
|  8> H -1.2022547266 -0.2388427694 1.3353766705
|  9> C -0.7135450114 1.0672538376 -0.3175529212
| 10> H -0.7109182167 1.0199830797 -1.4152378104
| 11> C 0.7267558207 1.3503029847 0.1443161815
| 12> H 0.7236249264 1.5121406263 1.2327648205
| 13> C 1.6464955753 0.1680135325 -0.161268958
| 14> H 1.7970366359 0.1139280402 -1.2485306596
| 15> C 1.0087091966 -1.1525385933 0.3078489943
| 16> H 0.9838730304 -1.1448929646 1.4184485906
| 17> O -0.302004156 -1.3161721311 -0.1794857906
| 18> O 1.7917765345 -2.1804625755 -0.1751813362
| 19> O 2.8628942881 0.3731123983 0.506443382
| 20> O 1.2382958942 2.4797669766 -0.5144433614
| 21> O -1.49494216 2.1416220279 0.1458799778
| 22> O -3.0529485888 -1.8612439697 0.2912781362
| 23> H -2.5410849871 -0.7526909914 -1.3730593563
| 24> H -3.2980063235 0.0992144127 0.0097214584
| 25> H 1.3942897782 -3.039578745 0.0352324061
| 26> H 3.4827260066 -0.3268732399 0.2517808131
| 27> H 0.6769380978 3.2392088265 -0.2948150736
| 28> H -2.3199109338 2.2036147037 -0.3540854597
| 29> H -2.4367564293 -2.5738483234 0.0706204922
| 30> *
| 31>
| 32>                          ****END OF INPUT****

CARTESIAN COORDINATES (ANGSTROEM)
---------------------------------
  C     -2.581262   -0.670096   -0.279664
  C     -1.187048   -0.288240    0.234936
  H     -1.202255   -0.238843    1.335377
  C     -0.713545    1.067254   -0.317553
  H     -0.710918    1.019983   -1.415238
  C      0.726756    1.350303    0.144316
  H      0.723625    1.512141    1.232765
  C      1.646496    0.168014   -0.161269
  H      1.797037    0.113928   -1.248531
  C      1.008709   -1.152539    0.307849
  H      0.983873   -1.144893    1.418449
  O     -0.302004   -1.316172   -0.179486
  O      1.791777   -2.180463   -0.175181
  O      2.862894    0.373112    0.506443
  O      1.238296    2.479767   -0.514443
  O     -1.494942    2.141622    0.145880
  O     -3.052949   -1.861244    0.291278
  H     -2.541085   -0.752691   -1.373059
  H     -3.298006    0.099214    0.009721
  H      1.394290   -3.039579    0.035232
  H      3.482726   -0.326873    0.251781
  H      0.676938    3.239209   -0.294815
  H     -2.319911    2.203615   -0.354085
  H     -2.436756   -2.573848    0.070620

 Total Charge           Charge          ....    0
 Multiplicity           Mult            ....    1
 Number of Electrons    NEL             ....   96
 Basis Dimension        Dim             ....  192

ORBITAL ENERGIES
----------------

  NO   OCC          E(Eh)            E(eV)
   0   2.0000     -18.780144      -511.0337
   1   2.0000     -18.772035      -510.8130
   2   2.0000     -18.770517      -510.7717
   3   2.0000     -18.749804      -510.2081
   4   2.0000     -18.745991      -510.1043
   5   2.0000     -18.742086      -509.9981
   6   2.0000      -9.989126      -271.8179
   7   2.0000      -9.946910      -270.6692
   8   2.0000      -9.945831      -270.6398
   9   2.0000      -9.940728      -270.5010
  10   2.0000      -9.940721      -270.5008
  11   2.0000      -9.938886      -270.4508
  12   2.0000      -0.991101       -26.9692
  13   2.0000      -0.950891       -25.8751
  14   2.0000      -0.936619       -25.4867
  15   2.0000      -0.927139       -25.2287
  16   2.0000      -0.918988       -25.0069
  17   2.0000      -0.910694       -24.7812
  18   2.0000      -0.706754       -19.2318
  19   2.0000      -0.692989       -18.8572
  20   2.0000      -0.623339       -16.9619
  21   2.0000      -0.587702       -15.9922
  22   2.0000      -0.560801       -15.2602
  23   2.0000      -0.525361       -14.2958
  24   2.0000      -0.501570       -13.6484
  25   2.0000      -0.494024       -13.4431
  26   2.0000      -0.477933       -13.0052
  27   2.0000      -0.474632       -12.9154
  28   2.0000      -0.457388       -12.4462
  29   2.0000      -0.446766       -12.1571
  30   2.0000      -0.410772       -11.1777
  31   2.0000      -0.392859       -10.6902
  32   2.0000      -0.384725       -10.4689
  33   2.0000      -0.373714       -10.1693
  34   2.0000      -0.365663        -9.9502
  35   2.0000      -0.358352        -9.7513
  36   2.0000      -0.331629        -9.0241
  37   2.0000      -0.316722        -8.6184
  38   2.0000      -0.303779        -8.2662
  39   2.0000      -0.294374        -8.0103
  40   2.0000      -0.283071        -7.7028
  41   2.0000      -0.271466        -7.3870
  42   2.0000      -0.264226        -7.1900
  43   2.0000      -0.247253        -6.7281
  44   2.0000      -0.231584        -6.3017
  45   2.0000      -0.225741        -6.1427
  46   2.0000      -0.217191        -5.9101
  47   2.0000      -0.201668        -5.4877
  48   0.0000       0.004488         0.1221
  49   0.0000       0.019644         0.5345
  50   0.0000       0.034517         0.9393
  51   0.0000       0.043689         1.1888
  52   0.0000       0.055662         1.5146

MULLIKEN ATOMIC CHARGES
-----------------------
   0 C :    0.084902
   1 C :    0.003433
   2 H :    0.058113
   3 C :    0.016528
   4 H :    0.057972
   5 C :    0.092412
   6 H :    0.061037
   7 C :    0.052039
   8 H :    0.063289
   9 C :    0.174962
  10 H :    0.039718
  11 O :   -0.323200
  12 O :   -0.383621
  13 O :   -0.408117
  14 O :   -0.408346
  15 O :   -0.415371
  16 O :   -0.431400
  17 H :    0.071117
  18 H :    0.070213
  19 H :    0.308990
  20 H :    0.304802
  21 H :    0.301307
  22 H :    0.312227
  23 H :    0.296996
Sum of atomic charges:    0.0000000

LOEWDIN ATOMIC CHARGES
----------------------
   0 C :   -0.128346
   1 C :   -0.080956
   2 H :    0.107149
   3 C :   -0.081190
   4 H :    0.105387
   5 C :   -0.061361
   6 H :    0.109561
   7 C :   -0.074290
   8 H :    0.111688
   9 C :   -0.007086
  10 H :    0.081952
  11 O :   -0.161493
  12 O :   -0.296662
  13 O :   -0.310374
  14 O :   -0.314148
  15 O :   -0.314851
  16 O :   -0.333286
  17 H :    0.100653
  18 H :    0.110807
  19 H :    0.291542
  20 H :    0.288547
  21 H :    0.284722
  22 H :    0.290970
  23 H :    0.281066

  Mayer bond orders larger than 0.100000
B(  0-C ,  1-C ) :   1.0408 B(  0-C , 16-O ) :   1.0916 B(  0-C , 17-H ) :   0.9070
B(  0-C , 18-H ) :   0.9131 B(  1-C ,  2-H ) :   0.8674 B(  1-C ,  3-C ) :   0.9710
B(  1-C , 11-O ) :   0.9733 B(  3-C ,  4-H ) :   0.8751 B(  3-C ,  5-C ) :   1.0029
B(  3-C , 15-O ) :   1.0722 B(  5-C ,  6-H ) :   0.8755 B(  5-C ,  7-C ) :   1.0124
B(  5-C , 14-O ) :   1.1007 B(  7-C ,  8-H ) :   0.8671 B(  7-C ,  9-C ) :   0.9965
B(  7-C , 13-O ) :   1.0866 B(  9-C , 10-H ) :   0.8832 B(  9-C , 11-O ) :   1.0000
B(  9-C , 12-O ) :   1.1727 B( 12-O , 19-H ) :   0.8389 B( 13-O , 20-H ) :   0.8425
B( 14-O , 21-H ) :   0.8403 B( 15-O , 22-H ) :   0.8411 B( 16-O , 23-H ) :   0.8459

Dispersion correction           -0.023537997
FINAL SINGLE POINT ENERGY      -685.699615372947

DIPOLE MOMENT
-------------

Method             : SCF
Type of density    : Electron Density
Multiplicity       :   1
Irrep              :   0
Energy             :  -685.8286826318492331 Eh
Relativity type    :
Basis              : AO
                                X                 Y                 Z
Electronic contribution:      2.719567247      -0.599118860       0.021094184
Nuclear contribution   :     -3.221650071       0.099093866      -0.310165452
                        -----------------------------------------
Total Dipole Moment    :     -0.502082824      -0.500024994      -0.289071268
                        -----------------------------------------
Magnitude (a.u.)       :      0.765293640
Magnitude (Debye)      :      1.945221843

Rotational constants in cm-1:             0.038985             0.026090             0.016412
Rotational constants in MHz :          1168.747480           782.164316           492.011432

                             ****ORCA TERMINATED NORMALLY****
TOTAL RUN TIME: 0 days 0 hours 0 minutes 11 seconds 869 msec
