                         Program Version 6.0.0  -   RELEASE  -
|  1> ! r2scan-3c def2/J RI DEFGRID2 scfconv6 printgap
|  2> %output
|  3>     printlevel normal
|  4> end
|  5> * xyz 0 1
|  6> C -3.0418027928 -1.30486e-05 0.0001601528
|  7> C -2.3501080096 -1.2001350678 0.0001520042
|  8> C -0.9651438766 -1.2084938993 -0.000131434
|  9> C -0.2931337172 1.21566e-05 -0.0001869862
| 10> C -0.9651242287 1.2085210856 -1.00213e-05
| 11> C -2.350105375 1.2001385972 -5.49674e-05
| 12> Br 1.6332070219 -4.3873e-06 3.23057e-05
| 13> H -4.1201844319 -3.60713e-05 -2.08826e-05
| 14> H -2.8841647243 -2.1370973602 -0.0003474814
| 15> H -0.416691741 -2.1372797357 -0.0007815004
| 16> H -0.4166532784 2.1373124 -0.00039525
| 17> H -2.8841651302 2.1370931822 -0.0001668457
| 18> *
| 19>
| 20>                          ****END OF INPUT****

CARTESIAN COORDINATES (ANGSTROEM)
---------------------------------
  C     -3.041803   -0.000013    0.000160
  C     -2.350108   -1.200135    0.000152
  C     -0.965144   -1.208494   -0.000131
  C     -0.293134    0.000012   -0.000187
  C     -0.965124    1.208521   -0.000010
  C     -2.350105    1.200139   -0.000055
  Br     1.633207   -0.000004    0.000032
  H     -4.120184   -0.000036   -0.000021
  H     -2.884165   -2.137097   -0.000347
  H     -0.416692   -2.137280   -0.000782
  H     -0.416653    2.137312   -0.000395
  H     -2.884165    2.137093   -0.000167

 Total Charge           Charge          ....    0
 Multiplicity           Mult            ....    1
 Number of Electrons    NEL             ....   76
 Basis Dimension        Dim             ....  175

ORBITAL ENERGIES
----------------

  NO   OCC          E(Eh)            E(eV)
   0   2.0000    -482.228561    -13122.1063
   1   2.0000     -62.300058     -1695.2708
   2   2.0000     -56.080392     -1526.0251
   3   2.0000     -56.077886     -1525.9569
   4   2.0000     -56.077851     -1525.9559
   5   2.0000     -10.101661      -274.8802
   6   2.0000     -10.053791      -273.5776
   7   2.0000     -10.053781      -273.5773
   8   2.0000     -10.052318      -273.5375
   9   2.0000     -10.052293      -273.5368
  10   2.0000     -10.048488      -273.4333
  11   2.0000      -8.631927      -234.8867
  12   2.0000      -6.439516      -175.2281
  13   2.0000      -6.425807      -174.8551
  14   2.0000      -6.425437      -174.8450
  15   2.0000      -2.537061       -69.0369
  16   2.0000      -2.533643       -68.9439
  17   2.0000      -2.533430       -68.9381
  18   2.0000      -2.523222       -68.6604
  19   2.0000      -2.523219       -68.6603
  20   2.0000      -0.851725       -23.1766
  21   2.0000      -0.773703       -21.0535
  22   2.0000      -0.736060       -20.0292
  23   2.0000      -0.699103       -19.0236
  24   2.0000      -0.594680       -16.1821
  25   2.0000      -0.576291       -15.6817
  26   2.0000      -0.501829       -13.6555
  27   2.0000      -0.442351       -12.0370
  28   2.0000      -0.438021       -11.9191
  29   2.0000      -0.409831       -11.1521
  30   2.0000      -0.396889       -10.7999
  31   2.0000      -0.371948       -10.1212
  32   2.0000      -0.334194        -9.0939
  33   2.0000      -0.329851        -8.9757
  34   2.0000      -0.295767        -8.0482
  35   2.0000      -0.266680        -7.2567
  36   2.0000      -0.254712        -6.9311
  37   2.0000      -0.231359        -6.2956
  38   0.0000      -0.048400        -1.3170
  39   0.0000      -0.046817        -1.2740
  40   0.0000      -0.028552        -0.7769
  41   0.0000       0.095155         2.5893
  42   0.0000       0.104533         2.8445

MULLIKEN ATOMIC CHARGES
-----------------------
   0 C :   -0.160257
   1 C :   -0.118849
   2 C :   -0.183179
   3 C :    0.126709
   4 C :   -0.183178
   5 C :   -0.118864
   6 Br:   -0.145857
   7 H :    0.150802
   8 H :    0.152321
   9 H :    0.164014
  10 H :    0.164017
  11 H :    0.152322
Sum of atomic charges:   -0.0000000

LOEWDIN ATOMIC CHARGES
----------------------
   0 C :   -0.165438
   1 C :   -0.152923
   2 C :   -0.176130
   3 C :   -0.218434
   4 C :   -0.176130
   5 C :   -0.152919
   6 Br:    0.173036
   7 H :    0.169628
   8 H :    0.171141
   9 H :    0.178513
  10 H :    0.178517
  11 H :    0.171140

  Mayer bond orders larger than 0.100000
B(  0-C ,  1-C ) :   1.4260 B(  0-C ,  5-C ) :   1.4260 B(  0-C ,  7-H ) :   0.9463
B(  1-C ,  2-C ) :   1.4134 B(  1-C ,  8-H ) :   0.9474 B(  2-C ,  3-C ) :   1.4093
B(  2-C ,  9-H ) :   0.9392 B(  3-C ,  4-C ) :   1.4093 B(  3-C ,  6-Br) :   0.9634
B(  4-C ,  5-C ) :   1.4134 B(  4-C , 10-H ) :   0.9392 B(  5-C , 11-H ) :   0.9474

Dispersion correction           -0.004104052
FINAL SINGLE POINT ENERGY     -2805.719731246337

DIPOLE MOMENT
-------------

Method             : SCF
Type of density    : Electron Density
Multiplicity       :   1
Irrep              :   0
Energy             : -2805.7183754591846991 Eh
Relativity type    :
Basis              : AO
                                X                 Y                 Z
Electronic contribution:     24.451086507      -0.000035743       0.001430753
Nuclear contribution   :    -25.223594105       0.000033621      -0.001906086
                        -----------------------------------------
Total Dipole Moment    :     -0.772507597      -0.000002122      -0.000475333
                        -----------------------------------------
Magnitude (a.u.)       :      0.772507744
Magnitude (Debye)      :      1.963558638

Rotational constants in cm-1:             0.191347             0.032761             0.027972
Rotational constants in MHz :          5736.426340           982.142486           838.569674

                             ****ORCA TERMINATED NORMALLY****
TOTAL RUN TIME: 0 days 0 hours 0 minutes 18 seconds 122 msec
