                         Program Version 6.0.0  -   RELEASE  -
|  1> ! r2scan-3c def2/J RI DEFGRID2 scfconv6 printgap
|  2> %output
|  3>     printlevel normal
|  4> end
|  5> %cpcm
|  6>     smd true
|  7>     smdsolvent "water"
|  8> end
|  9> * xyz 0 1
| 10> C -3.0418027928 -1.30486e-05 0.0001601528
| 11> C -2.3501080096 -1.2001350678 0.0001520042
| 12> C -0.9651438766 -1.2084938993 -0.000131434
| 13> C -0.2931337172 1.21566e-05 -0.0001869862
| 14> C -0.9651242287 1.2085210856 -1.00213e-05
| 15> C -2.350105375 1.2001385972 -5.49674e-05
| 16> Br 1.6332070219 -4.3873e-06 3.23057e-05
| 17> H -4.1201844319 -3.60713e-05 -2.08826e-05
| 18> H -2.8841647243 -2.1370973602 -0.0003474814
| 19> H -0.416691741 -2.1372797357 -0.0007815004
| 20> H -0.4166532784 2.1373124 -0.00039525
| 21> H -2.8841651302 2.1370931822 -0.0001668457
| 22> *
| 23>
| 24>                          ****END OF INPUT****

CARTESIAN COORDINATES (ANGSTROEM)
---------------------------------
  C     -3.041803   -0.000013    0.000160
  C     -2.350108   -1.200135    0.000152
  C     -0.965144   -1.208494   -0.000131
  C     -0.293134    0.000012   -0.000187
  C     -0.965124    1.208521   -0.000010
  C     -2.350105    1.200139   -0.000055
  Br     1.633207   -0.000004    0.000032
  H     -4.120184   -0.000036   -0.000021
  H     -2.884165   -2.137097   -0.000347
  H     -0.416692   -2.137280   -0.000782
  H     -0.416653    2.137312   -0.000395
  H     -2.884165    2.137093   -0.000167

 Total Charge           Charge          ....    0
 Multiplicity           Mult            ....    1
 Number of Electrons    NEL             ....   76
 Basis Dimension        Dim             ....  175

ORBITAL ENERGIES
----------------

  NO   OCC          E(Eh)            E(eV)
   0   2.0000    -482.228902    -13122.1155
   1   2.0000     -62.300553     -1695.2842
   2   2.0000     -56.080833     -1526.0370
   3   2.0000     -56.078386     -1525.9705
   4   2.0000     -56.078352     -1525.9695
   5   2.0000     -10.098551      -274.7955
   6   2.0000     -10.047431      -273.4045
   7   2.0000     -10.047422      -273.4042
   8   2.0000     -10.043823      -273.3063
   9   2.0000     -10.043802      -273.3058
  10   2.0000     -10.039541      -273.1898
  11   2.0000      -8.632719      -234.9082
  12   2.0000      -6.440104      -175.2441
  13   2.0000      -6.426736      -174.8804
  14   2.0000      -6.426315      -174.8689
  15   2.0000      -2.537719       -69.0548
  16   2.0000      -2.534396       -68.9644
  17   2.0000      -2.534139       -68.9574
  18   2.0000      -2.524181       -68.6865
  19   2.0000      -2.524178       -68.6864
  20   2.0000      -0.847156       -23.0523
  21   2.0000      -0.771305       -20.9883
  22   2.0000      -0.729150       -19.8412
  23   2.0000      -0.695376       -18.9221
  24   2.0000      -0.586967       -15.9722
  25   2.0000      -0.568688       -15.4748
  26   2.0000      -0.493195       -13.4205
  27   2.0000      -0.435680       -11.8555
  28   2.0000      -0.427671       -11.6375
  29   2.0000      -0.400136       -10.8883
  30   2.0000      -0.390987       -10.6393
  31   2.0000      -0.369525       -10.0553
  32   2.0000      -0.324036        -8.8175
  33   2.0000      -0.322572        -8.7776
  34   2.0000      -0.295306        -8.0357
  35   2.0000      -0.268001        -7.2927
  36   2.0000      -0.250309        -6.8113
  37   2.0000      -0.230113        -6.2617
  38   0.0000      -0.043432        -1.1818
  39   0.0000      -0.042771        -1.1638
  40   0.0000      -0.027694        -0.7536
  41   0.0000       0.106610         2.9010
  42   0.0000       0.109991         2.9930

MULLIKEN ATOMIC CHARGES
-----------------------
   0 C :   -0.189614
   1 C :   -0.157788
   2 C :   -0.203551
   3 C :    0.127516
   4 C :   -0.203555
   5 C :   -0.157801
   6 Br:   -0.164758
   7 H :    0.185927
   8 H :    0.189233
   9 H :    0.192577
  10 H :    0.192580
  11 H :    0.189234
Sum of atomic charges:   -0.0000000

LOEWDIN ATOMIC CHARGES
----------------------
   0 C :   -0.168840
   1 C :   -0.156163
   2 C :   -0.183475
   3 C :   -0.231032
   4 C :   -0.183476
   5 C :   -0.156160
   6 Br:    0.156484
   7 H :    0.181230
   8 H :    0.183503
   9 H :    0.187211
  10 H :    0.187216
  11 H :    0.183502

  Mayer bond orders larger than 0.100000
B(  0-C ,  1-C ) :   1.3960 B(  0-C ,  5-C ) :   1.3960 B(  0-C ,  7-H ) :   0.9503
B(  1-C ,  2-C ) :   1.4073 B(  1-C ,  8-H ) :   0.9491 B(  2-C ,  3-C ) :   1.3649
B(  2-C ,  9-H ) :   0.9407 B(  3-C ,  4-C ) :   1.3649 B(  3-C ,  6-Br) :   0.9566
B(  4-C ,  5-C ) :   1.4073 B(  4-C , 10-H ) :   0.9407 B(  5-C , 11-H ) :   0.9491

Dispersion correction           -0.004104052
FINAL SINGLE POINT ENERGY     -2805.722880435965

DIPOLE MOMENT
-------------

Method             : SCF
Type of density    : Electron Density
Multiplicity       :   1
Irrep              :   0
Energy             : -2805.7215246488126468 Eh
Relativity type    :
Basis              : AO
                                X                 Y                 Z
Electronic contribution:     24.177409747      -0.000041318       0.001262405
Nuclear contribution   :    -25.223594105       0.000033621      -0.001906086
                        -----------------------------------------
Total Dipole Moment    :     -1.046184358      -0.000007698      -0.000643681
                        -----------------------------------------
Magnitude (a.u.)       :      1.046184556
Magnitude (Debye)      :      2.659189812

Rotational constants in cm-1:             0.191347             0.032761             0.027972
Rotational constants in MHz :          5736.426340           982.142486           838.569674

                             ****ORCA TERMINATED NORMALLY****
TOTAL RUN TIME: 0 days 0 hours 0 minutes 19 seconds 987 msec
