                         Program Version 6.0.0  -   RELEASE  -
|  1> ! pbe def2-sv(p) def2/J RI DEFGRID1 loosescf d4 GCP(DFT/SV(P)) printgap
|  2> %output
|  3>     printlevel normal
|  4> end
|  5> * xyz 0 1
|  6> C -2.4376212542 -1.0792787861 -0.2889994937
|  7> C -1.0677812024 -0.5719652785 0.1698299774
|  8> H -1.085397177 -0.5193480343 1.2715871972
|  9> C -0.7290173588 0.818248376 -0.3979999158
| 10> H -0.6284404682 0.7253216467 -1.4871805876
| 11> C 0.6243440622 1.2440481163 0.1919254014
| 12> H 0.5453190527 1.3188022619 1.2841924663
| 13> C 1.6918688364 0.183571126 -0.1396551409
| 14> H 1.8886343171 0.1774901884 -1.2231322936
| 15> C 1.2097922055 -1.2241734473 0.2449056188
| 16> H 1.2046896274 -1.2893228952 1.3530775087
| 17> O -0.0866473688 -1.5002565051 -0.24515454
| 18> O 2.068755849 -2.1439000536 -0.3131928095
| 19> O 2.8754032859 0.4335356688 0.5721861685
| 20> O 1.0442533637 2.5169595983 -0.2324606454
| 21> O -1.7354535085 1.768660648 -0.1985139646
| 22> O -3.4025753678 -0.568363145 0.5986271125
| 23> H -2.4125184926 -2.1756643239 -0.2622582831
| 24> H -2.625468447 -0.7481355206 -1.3157196509
| 25> H 1.7330550072 -3.041643324 -0.1597020561
| 26> H 3.1140404578 1.3661750146 0.4432865415
| 27> H 0.8550209648 2.6321571227 -1.1747668295
| 28> H -1.9835979634 1.8037971961 0.7362534336
| 29> H -4.2868059917 -0.7897142927 0.2750018182
| 30> *
| 31>
| 32>                          ****END OF INPUT****

CARTESIAN COORDINATES (ANGSTROEM)
---------------------------------
  C     -2.437621   -1.079279   -0.288999
  C     -1.067781   -0.571965    0.169830
  H     -1.085397   -0.519348    1.271587
  C     -0.729017    0.818248   -0.398000
  H     -0.628440    0.725322   -1.487181
  C      0.624344    1.244048    0.191925
  H      0.545319    1.318802    1.284192
  C      1.691869    0.183571   -0.139655
  H      1.888634    0.177490   -1.223132
  C      1.209792   -1.224173    0.244906
  H      1.204690   -1.289323    1.353078
  O     -0.086647   -1.500257   -0.245155
  O      2.068756   -2.143900   -0.313193
  O      2.875403    0.433536    0.572186
  O      1.044253    2.516960   -0.232461
  O     -1.735454    1.768661   -0.198514
  O     -3.402575   -0.568363    0.598627
  H     -2.412518   -2.175664   -0.262258
  H     -2.625468   -0.748136   -1.315720
  H      1.733055   -3.041643   -0.159702
  H      3.114040    1.366175    0.443287
  H      0.855021    2.632157   -1.174767
  H     -1.983598    1.803797    0.736253
  H     -4.286806   -0.789714    0.275002

 Total Charge           Charge          ....    0
 Multiplicity           Mult            ....    1
 Number of Electrons    NEL             ....   96
 Basis Dimension        Dim             ....  192

ORBITAL ENERGIES
----------------

  NO   OCC          E(Eh)            E(eV)
   0   2.0000     -18.773834      -510.8620
   1   2.0000     -18.758977      -510.4577
   2   2.0000     -18.757287      -510.4117
   3   2.0000     -18.756322      -510.3855
   4   2.0000     -18.752377      -510.2781
   5   2.0000     -18.742800      -510.0175
   6   2.0000      -9.985485      -271.7189
   7   2.0000      -9.948651      -270.7166
   8   2.0000      -9.945667      -270.6354
   9   2.0000      -9.941207      -270.5140
  10   2.0000      -9.938076      -270.4288
  11   2.0000      -9.935899      -270.3696
  12   2.0000      -0.983410       -26.7599
  13   2.0000      -0.946383       -25.7524
  14   2.0000      -0.936038       -25.4709
  15   2.0000      -0.926651       -25.2155
  16   2.0000      -0.916006       -24.9258
  17   2.0000      -0.910919       -24.7874
  18   2.0000      -0.703666       -19.1477
  19   2.0000      -0.692095       -18.8329
  20   2.0000      -0.622280       -16.9331
  21   2.0000      -0.582957       -15.8631
  22   2.0000      -0.557201       -15.1622
  23   2.0000      -0.538528       -14.6541
  24   2.0000      -0.502547       -13.6750
  25   2.0000      -0.486784       -13.2461
  26   2.0000      -0.479343       -13.0436
  27   2.0000      -0.456877       -12.4322
  28   2.0000      -0.447372       -12.1736
  29   2.0000      -0.435072       -11.8389
  30   2.0000      -0.417602       -11.3635
  31   2.0000      -0.409580       -11.1452
  32   2.0000      -0.386324       -10.5124
  33   2.0000      -0.376786       -10.2529
  34   2.0000      -0.365701        -9.9512
  35   2.0000      -0.348597        -9.4858
  36   2.0000      -0.313086        -8.5195
  37   2.0000      -0.312651        -8.5077
  38   2.0000      -0.301505        -8.2044
  39   2.0000      -0.295497        -8.0409
  40   2.0000      -0.281920        -7.6714
  41   2.0000      -0.277272        -7.5450
  42   2.0000      -0.251812        -6.8522
  43   2.0000      -0.242462        -6.5977
  44   2.0000      -0.236370        -6.4320
  45   2.0000      -0.223680        -6.0866
  46   2.0000      -0.210327        -5.7233
  47   2.0000      -0.199731        -5.4350
  48   0.0000       0.012221         0.3325
  49   0.0000       0.022100         0.6014
  50   0.0000       0.035079         0.9546
  51   0.0000       0.036475         0.9925
  52   0.0000       0.053782         1.4635

MULLIKEN ATOMIC CHARGES
-----------------------
   0 C :    0.099990
   1 C :   -0.030626
   2 H :    0.056928
   3 C :    0.043804
   4 H :    0.053572
   5 C :    0.064375
   6 H :    0.050512
   7 C :    0.046362
   8 H :    0.045821
   9 C :    0.201831
  10 H :    0.040892
  11 O :   -0.311887
  12 O :   -0.368423
  13 O :   -0.411342
  14 O :   -0.410807
  15 O :   -0.398623
  16 O :   -0.438830
  17 H :    0.078068
  18 H :    0.071155
  19 H :    0.304742
  20 H :    0.302712
  21 H :    0.302765
  22 H :    0.302704
  23 H :    0.304305
Sum of atomic charges:   -0.0000000

LOEWDIN ATOMIC CHARGES
----------------------
   0 C :   -0.119616
   1 C :   -0.067166
   2 H :    0.103057
   3 C :   -0.085391
   4 H :    0.110846
   5 C :   -0.089685
   6 H :    0.111021
   7 C :   -0.085882
   8 H :    0.102495
   9 C :    0.008716
  10 H :    0.083214
  11 O :   -0.154379
  12 O :   -0.285988
  13 O :   -0.316591
  14 O :   -0.311225
  15 O :   -0.304380
  16 O :   -0.341813
  17 H :    0.101072
  18 H :    0.103435
  19 H :    0.289324
  20 H :    0.284062
  21 H :    0.288135
  22 H :    0.287264
  23 H :    0.289474

  Mayer bond orders larger than 0.100000
B(  0-C ,  1-C ) :   1.0357 B(  0-C , 16-O ) :   1.0898 B(  0-C , 17-H ) :   0.9145
B(  0-C , 18-H ) :   0.9058 B(  1-C ,  2-H ) :   0.8809 B(  1-C ,  3-C ) :   1.0123
B(  1-C , 11-O ) :   0.9987 B(  3-C ,  4-H ) :   0.8570 B(  3-C ,  5-C ) :   0.9938
B(  3-C , 15-O ) :   1.0800 B(  5-C ,  6-H ) :   0.8669 B(  5-C ,  7-C ) :   0.9955
B(  5-C , 14-O ) :   1.0621 B(  7-C ,  8-H ) :   0.8614 B(  7-C ,  9-C ) :   0.9843
B(  7-C , 13-O ) :   1.0809 B(  9-C , 10-H ) :   0.8850 B(  9-C , 11-O ) :   1.0031
B(  9-C , 12-O ) :   1.1961 B( 12-O , 19-H ) :   0.8408 B( 13-O , 20-H ) :   0.8347
B( 14-O , 21-H ) :   0.8463 B( 15-O , 22-H ) :   0.8412 B( 16-O , 23-H ) :   0.8482

Dispersion correction           -0.023702878
FINAL SINGLE POINT ENERGY      -685.691552620820

DIPOLE MOMENT
-------------

Method             : SCF
Type of density    : Electron Density
Multiplicity       :   1
Irrep              :   0
Energy             :  -685.8204342952217303 Eh
Relativity type    :
Basis              : AO
                                X                 Y                 Z
Electronic contribution:      2.432100041       0.176189368       0.011491696
Nuclear contribution   :     -3.442529948      -0.499186013      -0.240635790
                        -----------------------------------------
Total Dipole Moment    :     -1.010429907      -0.322996645      -0.229144094
                        -----------------------------------------
Magnitude (a.u.)       :      1.085266071
Magnitude (Debye)      :      2.758527128

Rotational constants in cm-1:             0.042569             0.024485             0.016536
Rotational constants in MHz :          1276.181847           734.049551           495.748647

                             ****ORCA TERMINATED NORMALLY****
TOTAL RUN TIME: 0 days 0 hours 0 minutes 11 seconds 818 msec
