                         Program Version 6.0.0  -   RELEASE  -
|  1> ! pbe def2-sv(p) def2/J RI DEFGRID1 loosescf d4 GCP(DFT/SV(P)) printgap
|  2> %output
|  3>     printlevel normal
|  4> end
|  5> * xyz 0 1
|  6> C 1.1718604465 1.451347688 -0.3175766691
|  7> C 0.711719519 -0.0034106948 -0.4355078445
|  8> C 1.5873685162 -0.9175455159 0.426027897
|  9> C -0.7254491049 -0.1110346517 0.0487562284
| 10> O -1.0492129943 0.2265140664 1.1701645487
| 11> C -1.7031095319 -0.6618086187 -0.9441553808
| 12> H 1.0487775741 1.7944332914 0.7073140986
| 13> H 2.2187676146 1.5369500261 -0.5948749501
| 14> H 0.5830607794 2.0934352252 -0.9686265549
| 15> H 0.7707971106 -0.3218631232 -1.4787261402
| 16> H 1.4886965378 -0.6417591758 1.4737668327
| 17> H 2.6292164025 -0.8211000129 0.1330057877
| 18> H 1.2861334715 -1.9564634687 0.3129283822
| 19> H -1.3764478458 -1.650403464 -1.2582836569
| 20> H -1.7177959762 -0.0204478272 -1.8224385848
| 21> H -2.6980139287 -0.7192014199 -0.5114215388
| 22> *
| 23>
| 24>                          ****END OF INPUT****

CARTESIAN COORDINATES (ANGSTROEM)
---------------------------------
  C      1.171860    1.451348   -0.317577
  C      0.711720   -0.003411   -0.435508
  C      1.587369   -0.917546    0.426028
  C     -0.725449   -0.111035    0.048756
  O     -1.049213    0.226514    1.170165
  C     -1.703110   -0.661809   -0.944155
  H      1.048778    1.794433    0.707314
  H      2.218768    1.536950   -0.594875
  H      0.583061    2.093435   -0.968627
  H      0.770797   -0.321863   -1.478726
  H      1.488697   -0.641759    1.473767
  H      2.629216   -0.821100    0.133006
  H      1.286133   -1.956463    0.312928
  H     -1.376448   -1.650403   -1.258284
  H     -1.717796   -0.020448   -1.822439
  H     -2.698014   -0.719201   -0.511422

 Total Charge           Charge          ....    0
 Multiplicity           Mult            ....    1
 Number of Electrons    NEL             ....   48
 Basis Dimension        Dim             ....  104

ORBITAL ENERGIES
----------------

  NO   OCC          E(Eh)            E(eV)
   0   2.0000     -18.738251      -509.8937
   1   2.0000      -9.970141      -271.3013
   2   2.0000      -9.902530      -269.4615
   3   2.0000      -9.886813      -269.0339
   4   2.0000      -9.882278      -268.9105
   5   2.0000      -9.880851      -268.8716
   6   2.0000      -0.934995       -25.4425
   7   2.0000      -0.728574       -19.8255
   8   2.0000      -0.668732       -18.1971
   9   2.0000      -0.618011       -16.8169
  10   2.0000      -0.552041       -15.0218
  11   2.0000      -0.458747       -12.4831
  12   2.0000      -0.430214       -11.7067
  13   2.0000      -0.408007       -11.1024
  14   2.0000      -0.405225       -11.0267
  15   2.0000      -0.372720       -10.1422
  16   2.0000      -0.361490        -9.8366
  17   2.0000      -0.358392        -9.7523
  18   2.0000      -0.346935        -9.4406
  19   2.0000      -0.316941        -8.6244
  20   2.0000      -0.313079        -8.5193
  21   2.0000      -0.297815        -8.1040
  22   2.0000      -0.294414        -8.0114
  23   2.0000      -0.195066        -5.3080
  24   0.0000      -0.049085        -1.3357
  25   0.0000       0.026362         0.7173
  26   0.0000       0.066050         1.7973
  27   0.0000       0.073443         1.9985
  28   0.0000       0.088608         2.4111

MULLIKEN ATOMIC CHARGES
-----------------------
   0 C :   -0.247926
   1 C :   -0.168961
   2 C :   -0.248929
   3 C :    0.013205
   4 O :   -0.171521
   5 C :   -0.252939
   6 H :    0.117670
   7 H :    0.103000
   8 H :    0.101473
   9 H :    0.065498
  10 H :    0.117379
  11 H :    0.104889
  12 H :    0.101476
  13 H :    0.124503
  14 H :    0.125597
  15 H :    0.115586
Sum of atomic charges:   -0.0000000

LOEWDIN ATOMIC CHARGES
----------------------
   0 C :   -0.321512
   1 C :   -0.181894
   2 C :   -0.320296
   3 C :    0.053647
   4 O :   -0.131396
   5 C :   -0.360933
   6 H :    0.126686
   7 H :    0.119981
   8 H :    0.118842
   9 H :    0.115056
  10 H :    0.126707
  11 H :    0.120587
  12 H :    0.118604
  13 H :    0.141553
  14 H :    0.142277
  15 H :    0.132092

  Mayer bond orders larger than 0.100000
B(  0-C ,  1-C ) :   1.0948 B(  0-C ,  6-H ) :   0.9438 B(  0-C ,  7-H ) :   0.9500
B(  0-C ,  8-H ) :   0.9528 B(  1-C ,  2-C ) :   1.0934 B(  1-C ,  3-C ) :   0.9106
B(  1-C ,  9-H ) :   0.9017 B(  2-C , 10-H ) :   0.9450 B(  2-C , 11-H ) :   0.9496
B(  2-C , 12-H ) :   0.9519 B(  3-C ,  4-O ) :   2.1827 B(  3-C ,  5-C ) :   1.0871
B(  5-C , 13-H ) :   0.9230 B(  5-C , 14-H ) :   0.9230 B(  5-C , 15-H ) :   0.9339

Dispersion correction           -0.011763290
FINAL SINGLE POINT ENERGY      -271.143393120478

DIPOLE MOMENT
-------------

Method             : SCF
Type of density    : Electron Density
Multiplicity       :   1
Irrep              :   0
Energy             :  -271.1973845690174585 Eh
Relativity type    :
Basis              : AO
                                X                 Y                 Z
Electronic contribution:     -3.643138615       0.393597035       2.844123538
Nuclear contribution   :      3.955871567      -0.659378961      -3.742206504
                        -----------------------------------------
Total Dipole Moment    :      0.312732952      -0.265781927      -0.898082966
                        -----------------------------------------
Magnitude (a.u.)       :      0.987418324
Magnitude (Debye)      :      2.509817920

Rotational constants in cm-1:             0.159880             0.086205             0.083395
Rotational constants in MHz :          4793.071740          2584.372602          2500.125914

                             ****ORCA TERMINATED NORMALLY****
TOTAL RUN TIME: 0 days 0 hours 0 minutes 6 seconds 180 msec
