                         Program Version 6.0.0  -   RELEASE  -
|  1> ! pbe def2-sv(p) def2/J RI DEFGRID1 loosescf d4 GCP(DFT/SV(P)) printgap
|  2> %output
|  3>     printlevel normal
|  4> end
|  5> * xyz 0 1
|  6> C -2.0209220203 -0.5588269987 -0.6890081087
|  7> C -1.209715238 -0.0806152283 0.5370729965
|  8> H -1.8744959634 -0.0312930228 1.4059044396
|  9> C -0.6208865375 1.3253865225 0.3011793957
| 10> H -1.3496313351 1.911746322 -0.269321399
| 11> C 0.7027552817 1.2876714386 -0.5022322254
| 12> H 1.161043632 2.2803251034 -0.3998892259
| 13> C 1.6594543961 0.245568708 0.0981975171
| 14> H 2.5165450487 0.1298832883 -0.5802683732
| 15> C 0.934336824 -1.1125691201 0.1952528808
| 16> H 1.5557722633 -1.8268714205 0.7631855059
| 17> O -0.2316440283 -1.0264661025 0.9582087693
| 18> O 0.7154423955 -1.5865869034 -1.1018693288
| 19> O 2.0611905748 0.6994129313 1.3651133275
| 20> O 0.5035239631 1.0732048413 -1.8756966698
| 21> O -0.4448635171 2.013141611 1.5145593787
| 22> O -2.07682635 -1.9716595592 -0.6909420946
| 23> H -1.557057773 -0.1993423471 -1.61475434
| 24> H -3.0212003396 -0.1230356692 -0.6083366177
| 25> H 0.0030088213 -2.2516562057 -1.067614513
| 26> H 2.7306743678 0.1086518143 1.7391992348
| 27> H 0.5518473193 0.1146577217 -2.0475401051
| 28> H 0.3283039509 1.6414874179 1.9719776385
| 29> H -2.7940115386 -2.2593502061 -1.2716741564
| 30> *
| 31>
| 32>                          ****END OF INPUT****

CARTESIAN COORDINATES (ANGSTROEM)
---------------------------------
  C     -2.020922   -0.558827   -0.689008
  C     -1.209715   -0.080615    0.537073
  H     -1.874496   -0.031293    1.405904
  C     -0.620887    1.325387    0.301179
  H     -1.349631    1.911746   -0.269321
  C      0.702755    1.287671   -0.502232
  H      1.161044    2.280325   -0.399889
  C      1.659454    0.245569    0.098198
  H      2.516545    0.129883   -0.580268
  C      0.934337   -1.112569    0.195253
  H      1.555772   -1.826871    0.763186
  O     -0.231644   -1.026466    0.958209
  O      0.715442   -1.586587   -1.101869
  O      2.061191    0.699413    1.365113
  O      0.503524    1.073205   -1.875697
  O     -0.444864    2.013142    1.514559
  O     -2.076826   -1.971660   -0.690942
  H     -1.557058   -0.199342   -1.614754
  H     -3.021200   -0.123036   -0.608337
  H      0.003009   -2.251656   -1.067615
  H      2.730674    0.108652    1.739199
  H      0.551847    0.114658   -2.047540
  H      0.328304    1.641487    1.971978
  H     -2.794012   -2.259350   -1.271674

 Total Charge           Charge          ....    0
 Multiplicity           Mult            ....    1
 Number of Electrons    NEL             ....   96
 Basis Dimension        Dim             ....  192

ORBITAL ENERGIES
----------------

  NO   OCC          E(Eh)            E(eV)
   0   2.0000     -18.777811      -510.9702
   1   2.0000     -18.776339      -510.9302
   2   2.0000     -18.768222      -510.7093
   3   2.0000     -18.766913      -510.6737
   4   2.0000     -18.741513      -509.9825
   5   2.0000     -18.730593      -509.6853
   6   2.0000      -9.992330      -271.9051
   7   2.0000      -9.951150      -270.7845
   8   2.0000      -9.940121      -270.4844
   9   2.0000      -9.938796      -270.4484
  10   2.0000      -9.938428      -270.4384
  11   2.0000      -9.932654      -270.2812
  12   2.0000      -0.990791       -26.9608
  13   2.0000      -0.951571       -25.8936
  14   2.0000      -0.938439       -25.5362
  15   2.0000      -0.921810       -25.0837
  16   2.0000      -0.920318       -25.0431
  17   2.0000      -0.904083       -24.6013
  18   2.0000      -0.700343       -19.0573
  19   2.0000      -0.691714       -18.8225
  20   2.0000      -0.621439       -16.9102
  21   2.0000      -0.590756       -16.0753
  22   2.0000      -0.572696       -15.5839
  23   2.0000      -0.526720       -14.3328
  24   2.0000      -0.495723       -13.4893
  25   2.0000      -0.488122       -13.2825
  26   2.0000      -0.473419       -12.8824
  27   2.0000      -0.467964       -12.7339
  28   2.0000      -0.438276       -11.9261
  29   2.0000      -0.434657       -11.8276
  30   2.0000      -0.420532       -11.4433
  31   2.0000      -0.401224       -10.9179
  32   2.0000      -0.389670       -10.6034
  33   2.0000      -0.374556       -10.1922
  34   2.0000      -0.368575       -10.0294
  35   2.0000      -0.345061        -9.3896
  36   2.0000      -0.341614        -9.2958
  37   2.0000      -0.326571        -8.8864
  38   2.0000      -0.311813        -8.4849
  39   2.0000      -0.291099        -7.9212
  40   2.0000      -0.286502        -7.7961
  41   2.0000      -0.261237        -7.1086
  42   2.0000      -0.252425        -6.8688
  43   2.0000      -0.245955        -6.6928
  44   2.0000      -0.239813        -6.5257
  45   2.0000      -0.229759        -6.2521
  46   2.0000      -0.215163        -5.8549
  47   2.0000      -0.192964        -5.2508
  48   0.0000       0.006290         0.1712
  49   0.0000       0.009834         0.2676
  50   0.0000       0.043529         1.1845
  51   0.0000       0.055163         1.5011
  52   0.0000       0.075563         2.0562

MULLIKEN ATOMIC CHARGES
-----------------------
   0 C :   -0.028748
   1 C :    0.066795
   2 H :    0.076657
   3 C :    0.069313
   4 H :    0.075666
   5 C :    0.042927
   6 H :    0.084968
   7 C :   -0.001183
   8 H :    0.085334
   9 C :    0.195638
  10 H :    0.052560
  11 O :   -0.300906
  12 O :   -0.429514
  13 O :   -0.417552
  14 O :   -0.420791
  15 O :   -0.434059
  16 O :   -0.435324
  17 H :    0.075823
  18 H :    0.087913
  19 H :    0.317938
  20 H :    0.311043
  21 H :    0.312383
  22 H :    0.303766
  23 H :    0.309352
Sum of atomic charges:   -0.0000000

LOEWDIN ATOMIC CHARGES
----------------------
   0 C :   -0.152845
   1 C :   -0.063265
   2 H :    0.120819
   3 C :   -0.069745
   4 H :    0.118982
   5 C :   -0.064679
   6 H :    0.118456
   7 C :   -0.090165
   8 H :    0.110437
   9 C :   -0.007289
  10 H :    0.090561
  11 O :   -0.132298
  12 O :   -0.316978
  13 O :   -0.303267
  14 O :   -0.320452
  15 O :   -0.323449
  16 O :   -0.334655
  17 H :    0.095391
  18 H :    0.110251
  19 H :    0.283881
  20 H :    0.293462
  21 H :    0.271141
  22 H :    0.274007
  23 H :    0.291699

  Mayer bond orders larger than 0.100000
B(  0-C ,  1-C ) :   1.0322 B(  0-C , 16-O ) :   1.0507 B(  0-C , 17-H ) :   0.9032
B(  0-C , 18-H ) :   0.9135 B(  1-C ,  2-H ) :   0.8961 B(  1-C ,  3-C ) :   0.9826
B(  1-C , 11-O ) :   1.0092 B(  3-C ,  4-H ) :   0.8928 B(  3-C ,  5-C ) :   0.9648
B(  3-C , 15-O ) :   1.0534 B(  5-C ,  6-H ) :   0.9009 B(  5-C ,  7-C ) :   1.0070
B(  5-C , 14-O ) :   1.0809 B(  7-C ,  8-H ) :   0.8975 B(  7-C ,  9-C ) :   0.9600
B(  7-C , 13-O ) :   1.0271 B(  9-C , 10-H ) :   0.9053 B(  9-C , 11-O ) :   1.0940
B(  9-C , 12-O ) :   1.0809 B( 12-O , 19-H ) :   0.7882 B( 12-O , 21-H ) :   0.1055
B( 13-O , 20-H ) :   0.8389 B( 14-O , 21-H ) :   0.7897 B( 15-O , 22-H ) :   0.8190
B( 16-O , 23-H ) :   0.8462

Dispersion correction           -0.026420703
FINAL SINGLE POINT ENERGY      -685.698687125372

DIPOLE MOMENT
-------------

Method             : SCF
Type of density    : Electron Density
Multiplicity       :   1
Irrep              :   0
Energy             :  -685.8329075463357185 Eh
Relativity type    :
Basis              : AO
                                X                 Y                 Z
Electronic contribution:      1.645291853      -0.725067580       1.633462794
Nuclear contribution   :     -1.633244006      -0.485421737      -1.854253238
                        -----------------------------------------
Total Dipole Moment    :      0.012047848      -1.210489317      -0.220790444
                        -----------------------------------------
Magnitude (a.u.)       :      1.230519386
Magnitude (Debye)      :      3.127731713

Rotational constants in cm-1:             0.042778             0.029107             0.025923
Rotational constants in MHz :          1282.450051           872.606300           777.149341

                             ****ORCA TERMINATED NORMALLY****
TOTAL RUN TIME: 0 days 0 hours 0 minutes 12 seconds 449 msec
