                         Program Version 6.0.0  -   RELEASE  -
|  1> ! pbe def2-sv(p) def2/J RI DEFGRID1 loosescf d4 GCP(DFT/SV(P)) printgap
|  2> %output
|  3>     printlevel normal
|  4> end
|  5> * xyz 0 1
|  6> C -2.4061034784 -1.1340211361 -0.3528335247
|  7> C -1.0743633001 -0.6240146699 0.2247008696
|  8> H -1.1303949641 -0.6500431114 1.3264433166
|  9> C -0.7657652791 0.8131900628 -0.2321844999
| 10> H -0.7954953172 0.8533836418 -1.3270353815
| 11> C 0.6412966703 1.2336650443 0.2284909991
| 12> H 0.6533688786 1.2913015732 1.3329432685
| 13> C 1.6736230045 0.1856740885 -0.2160145814
| 14> H 1.7148577195 0.1774220007 -1.3102456676
| 15> C 1.2179891216 -1.205983901 0.2873425469
| 16> H 1.1906669405 -1.2045625256 1.391160683
| 17> O -0.0671411133 -1.5075802222 -0.2226181466
| 18> O 2.0788841174 -2.2186297109 -0.0632638525
| 19> O 2.9770018326 0.4828491196 0.1958860972
| 20> O 0.9951278011 2.4823863706 -0.3103542199
| 21> O -1.7311716249 1.7375451631 0.2063980249
| 22> O -3.5190135851 -0.474267272 0.184898378
| 23> H -2.5106928786 -2.1896562746 -0.0949280999
| 24> H -2.3735739172 -1.0440884523 -1.4452357728
| 25> H 2.0934798928 -2.3256636267 -1.0271625368
| 26> H 3.0207773673 0.5534014727 1.16050751
| 27> H 0.2246528105 3.0711396339 -0.2664673084
| 28> H -1.7651279763 1.7436271087 1.1753903355
| 29> H -3.4684982573 0.467243613 -0.0507033799
| 30> *
| 31>
| 32>                          ****END OF INPUT****

CARTESIAN COORDINATES (ANGSTROEM)
---------------------------------
  C     -2.406103   -1.134021   -0.352834
  C     -1.074363   -0.624015    0.224701
  H     -1.130395   -0.650043    1.326443
  C     -0.765765    0.813190   -0.232184
  H     -0.795495    0.853384   -1.327035
  C      0.641297    1.233665    0.228491
  H      0.653369    1.291302    1.332943
  C      1.673623    0.185674   -0.216015
  H      1.714858    0.177422   -1.310246
  C      1.217989   -1.205984    0.287343
  H      1.190667   -1.204563    1.391161
  O     -0.067141   -1.507580   -0.222618
  O      2.078884   -2.218630   -0.063264
  O      2.977002    0.482849    0.195886
  O      0.995128    2.482386   -0.310354
  O     -1.731172    1.737545    0.206398
  O     -3.519014   -0.474267    0.184898
  H     -2.510693   -2.189656   -0.094928
  H     -2.373574   -1.044088   -1.445236
  H      2.093480   -2.325664   -1.027163
  H      3.020777    0.553401    1.160508
  H      0.224653    3.071140   -0.266467
  H     -1.765128    1.743627    1.175390
  H     -3.468498    0.467244   -0.050703

 Total Charge           Charge          ....    0
 Multiplicity           Mult            ....    1
 Number of Electrons    NEL             ....   96
 Basis Dimension        Dim             ....  192

ORBITAL ENERGIES
----------------

  NO   OCC          E(Eh)            E(eV)
   0   2.0000     -18.791432      -511.3409
   1   2.0000     -18.780226      -511.0359
   2   2.0000     -18.762978      -510.5666
   3   2.0000     -18.755881      -510.3735
   4   2.0000     -18.753636      -510.3124
   5   2.0000     -18.748327      -510.1679
   6   2.0000      -9.992638      -271.9135
   7   2.0000      -9.959968      -271.0245
   8   2.0000      -9.954752      -270.8826
   9   2.0000      -9.953715      -270.8544
  10   2.0000      -9.947564      -270.6870
  11   2.0000      -9.935890      -270.3693
  12   2.0000      -0.990220       -26.9452
  13   2.0000      -0.970111       -26.3981
  14   2.0000      -0.941405       -25.6169
  15   2.0000      -0.927080       -25.2271
  16   2.0000      -0.924411       -25.1545
  17   2.0000      -0.917929       -24.9781
  18   2.0000      -0.713179       -19.4066
  19   2.0000      -0.696275       -18.9466
  20   2.0000      -0.619997       -16.8710
  21   2.0000      -0.597692       -16.2640
  22   2.0000      -0.567629       -15.4460
  23   2.0000      -0.562934       -15.3182
  24   2.0000      -0.511582       -13.9208
  25   2.0000      -0.489159       -13.3107
  26   2.0000      -0.483515       -13.1571
  27   2.0000      -0.474025       -12.8989
  28   2.0000      -0.458032       -12.4637
  29   2.0000      -0.435968       -11.8633
  30   2.0000      -0.425403       -11.5758
  31   2.0000      -0.414242       -11.2721
  32   2.0000      -0.395985       -10.7753
  33   2.0000      -0.375530       -10.2187
  34   2.0000      -0.371323       -10.1042
  35   2.0000      -0.356476        -9.7002
  36   2.0000      -0.330688        -8.9985
  37   2.0000      -0.316646        -8.6164
  38   2.0000      -0.311885        -8.4868
  39   2.0000      -0.306173        -8.3314
  40   2.0000      -0.298592        -8.1251
  41   2.0000      -0.281585        -7.6623
  42   2.0000      -0.265040        -7.2121
  43   2.0000      -0.251243        -6.8367
  44   2.0000      -0.241899        -6.5824
  45   2.0000      -0.230525        -6.2729
  46   2.0000      -0.219480        -5.9724
  47   2.0000      -0.204020        -5.5517
  48   0.0000      -0.003758        -0.1023
  49   0.0000       0.015294         0.4162
  50   0.0000       0.024827         0.6756
  51   0.0000       0.040551         1.1035
  52   0.0000       0.050581         1.3764

MULLIKEN ATOMIC CHARGES
-----------------------
   0 C :    0.099007
   1 C :   -0.007489
   2 H :    0.046358
   3 C :    0.005352
   4 H :    0.075092
   5 C :    0.068833
   6 H :    0.020012
   7 C :    0.066334
   8 H :    0.057502
   9 C :    0.179042
  10 H :    0.036175
  11 O :   -0.300043
  12 O :   -0.361364
  13 O :   -0.394161
  14 O :   -0.396912
  15 O :   -0.420634
  16 O :   -0.446389
  17 H :    0.098082
  18 H :    0.069009
  19 H :    0.305548
  20 H :    0.297321
  21 H :    0.300606
  22 H :    0.307463
  23 H :    0.295259
Sum of atomic charges:   -0.0000000

LOEWDIN ATOMIC CHARGES
----------------------
   0 C :   -0.119238
   1 C :   -0.079476
   2 H :    0.097814
   3 C :   -0.089705
   4 H :    0.122392
   5 C :   -0.084098
   6 H :    0.086640
   7 C :   -0.089858
   8 H :    0.119296
   9 C :   -0.006293
  10 H :    0.090538
  11 O :   -0.152405
  12 O :   -0.278160
  13 O :   -0.298193
  14 O :   -0.315744
  15 O :   -0.300893
  16 O :   -0.339475
  17 H :    0.119261
  18 H :    0.099338
  19 H :    0.291604
  20 H :    0.285609
  21 H :    0.281780
  22 H :    0.288263
  23 H :    0.271002

  Mayer bond orders larger than 0.100000
B(  0-C ,  1-C ) :   1.0240 B(  0-C , 16-O ) :   1.0885 B(  0-C , 17-H ) :   0.9217
B(  0-C , 18-H ) :   0.9118 B(  1-C ,  2-H ) :   0.8714 B(  1-C ,  3-C ) :   0.9913
B(  1-C , 11-O ) :   0.9921 B(  3-C ,  4-H ) :   0.8643 B(  3-C ,  5-C ) :   1.0146
B(  3-C , 15-O ) :   0.9882 B(  5-C ,  6-H ) :   0.8617 B(  5-C ,  7-C ) :   0.9885
B(  5-C , 14-O ) :   1.1175 B(  7-C ,  8-H ) :   0.8588 B(  7-C ,  9-C ) :   0.9561
B(  7-C , 13-O ) :   1.0687 B(  9-C , 10-H ) :   0.8754 B(  9-C , 11-O ) :   0.9880
B(  9-C , 12-O ) :   1.1768 B( 12-O , 19-H ) :   0.8420 B( 13-O , 20-H ) :   0.8483
B( 14-O , 21-H ) :   0.8335 B( 15-O , 22-H ) :   0.8358 B( 16-O , 23-H ) :   0.8227

Dispersion correction           -0.023883582
FINAL SINGLE POINT ENERGY      -685.695695156415

DIPOLE MOMENT
-------------

Method             : SCF
Type of density    : Electron Density
Multiplicity       :   1
Irrep              :   0
Energy             :  -685.8259200351063782 Eh
Relativity type    :
Basis              : AO
                                X                 Y                 Z
Electronic contribution:      2.601922504      -0.129643572      -0.388380036
Nuclear contribution   :     -2.940594942       0.704975594       0.811070584
                        -----------------------------------------
Total Dipole Moment    :     -0.338672437       0.575332022       0.422690548
                        -----------------------------------------
Magnitude (a.u.)       :      0.790172927
Magnitude (Debye)      :      2.008459966

Rotational constants in cm-1:             0.043609             0.024374             0.016368
Rotational constants in MHz :          1307.353866           730.716438           490.694588

                             ****ORCA TERMINATED NORMALLY****
TOTAL RUN TIME: 0 days 0 hours 0 minutes 11 seconds 687 msec
