                         Program Version 6.0.0  -   RELEASE  -
|  1> ! r2scan-3c def2/J RI DEFGRID2 scfconv6 printgap
|  2> %output
|  3>     printlevel normal
|  4> end
|  5> * xyz 0 1
|  6> C -2.5341057943 -1.0334237149 -0.0007410357
|  7> C -1.2297978912 -0.2961354742 0.0012094869
|  8> C -1.2129541661 1.0958854338 0.0005324701
|  9> C -0.0135000524 1.780941209 -0.0003480495
| 10> C 1.1893403562 1.0953948046 -0.0004356283
| 11> C 1.1843312499 -0.2931074703 -0.000153613
| 12> C -0.0260508587 -0.9801574847 0.0005865512
| 13> O 2.3323616724 -1.0275446897 -1.92857e-05
| 14> H -2.3738920354 -2.1065633973 0.0503543171
| 15> H -3.1413314415 -0.7273319214 0.8490956224
| 16> H -3.0919021483 -0.8058882359 -0.907707806
| 17> H -2.1459014221 1.6391931781 0.0008840936
| 18> H -0.0085650225 2.8606568087 -0.0004907953
| 19> H 2.1241776217 1.6369167319 -0.0008763055
| 20> H -0.0002541002 -2.0593570219 0.0013143406
| 21> H 3.1064101132 -0.4449338999 -1.49772e-05
| 22> *
| 23>
| 24>                          ****END OF INPUT****

CARTESIAN COORDINATES (ANGSTROEM)
---------------------------------
  C     -2.534106   -1.033424   -0.000741
  C     -1.229798   -0.296135    0.001209
  C     -1.212954    1.095885    0.000532
  C     -0.013500    1.780941   -0.000348
  C      1.189340    1.095395   -0.000436
  C      1.184331   -0.293107   -0.000154
  C     -0.026051   -0.980157    0.000587
  O      2.332362   -1.027545   -0.000019
  H     -2.373892   -2.106563    0.050354
  H     -3.141331   -0.727332    0.849096
  H     -3.091902   -0.805888   -0.907708
  H     -2.145901    1.639193    0.000884
  H     -0.008565    2.860657   -0.000491
  H      2.124178    1.636917   -0.000876
  H     -0.000254   -2.059357    0.001314
  H      3.106410   -0.444934   -0.000015

 Total Charge           Charge          ....    0
 Multiplicity           Mult            ....    1
 Number of Electrons    NEL             ....   58
 Basis Dimension        Dim             ....  197

ORBITAL ENERGIES
----------------

  NO   OCC          E(Eh)            E(eV)
   0   2.0000     -18.984173      -516.5856
   1   2.0000     -10.094665      -274.6898
   2   2.0000     -10.043260      -273.2910
   3   2.0000     -10.034778      -273.0602
   4   2.0000     -10.030346      -272.9396
   5   2.0000     -10.026512      -272.8353
   6   2.0000     -10.024992      -272.7939
   7   2.0000     -10.021930      -272.7106
   8   2.0000      -1.027217       -27.9520
   9   2.0000      -0.823700       -22.4140
  10   2.0000      -0.740887       -20.1606
  11   2.0000      -0.709566       -19.3083
  12   2.0000      -0.656118       -17.8539
  13   2.0000      -0.580275       -15.7901
  14   2.0000      -0.572118       -15.5681
  15   2.0000      -0.497239       -13.5306
  16   2.0000      -0.466409       -12.6916
  17   2.0000      -0.442535       -12.0420
  18   2.0000      -0.405751       -11.0410
  19   2.0000      -0.395959       -10.7746
  20   2.0000      -0.380217       -10.3462
  21   2.0000      -0.372690       -10.1414
  22   2.0000      -0.367790       -10.0081
  23   2.0000      -0.341606        -9.2956
  24   2.0000      -0.325007        -8.8439
  25   2.0000      -0.304235        -8.2787
  26   2.0000      -0.302973        -8.2443
  27   2.0000      -0.228944        -6.2299
  28   2.0000      -0.202658        -5.5146
  29   0.0000      -0.027065        -0.7365
  30   0.0000      -0.015959        -0.4343
  31   0.0000       0.058414         1.5895
  32   0.0000       0.078884         2.1466
  33   0.0000       0.108747         2.9592

MULLIKEN ATOMIC CHARGES
-----------------------
   0 C :   -0.525438
   1 C :    0.249477
   2 C :   -0.240733
   3 C :   -0.133566
   4 C :   -0.338259
   5 C :    0.416652
   6 C :   -0.381554
   7 O :   -0.414365
   8 H :    0.151913
   9 H :    0.159416
  10 H :    0.162201
  11 H :    0.146222
  12 H :    0.145071
  13 H :    0.137068
  14 H :    0.155657
  15 H :    0.310239
Sum of atomic charges:    0.0000000

LOEWDIN ATOMIC CHARGES
----------------------
   0 C :   -0.387880
   1 C :   -0.086641
   2 C :   -0.191265
   3 C :   -0.148136
   4 C :   -0.184946
   5 C :    0.186045
   6 C :   -0.146703
   7 O :   -0.497920
   8 H :    0.159214
   9 H :    0.165000
  10 H :    0.165680
  11 H :    0.168279
  12 H :    0.167439
  13 H :    0.167665
  14 H :    0.180346
  15 H :    0.283822

  Mayer bond orders larger than 0.100000
B(  0-C ,  1-C ) :   0.7833 B(  0-C ,  8-H ) :   0.9958 B(  0-C ,  9-H ) :   0.9781
B(  0-C , 10-H ) :   0.9749 B(  1-C ,  2-C ) :   1.3672 B(  1-C ,  6-C ) :   1.4146
B(  2-C ,  3-C ) :   1.4719 B(  2-C , 11-H ) :   0.9504 B(  3-C ,  4-C ) :   1.4121
B(  3-C , 12-H ) :   0.9429 B(  4-C ,  5-C ) :   1.3573 B(  4-C , 13-H ) :   0.9369
B(  5-C ,  6-C ) :   1.4755 B(  5-C ,  7-O ) :   0.9107 B(  6-C ,  7-O ) :   0.1039
B(  6-C , 14-H ) :   0.9313 B(  7-O , 15-H ) :   0.8843

Dispersion correction           -0.004908806
FINAL SINGLE POINT ENERGY      -346.702539932867

DIPOLE MOMENT
-------------

Method             : SCF
Type of density    : Electron Density
Multiplicity       :   1
Irrep              :   0
Energy             :  -346.7030738864820023 Eh
Relativity type    :
Basis              : AO
                                X                 Y                 Z
Electronic contribution:      5.284106193       0.367469586       0.003990582
Nuclear contribution   :     -5.154665222      -0.022106685      -0.006981716
                        -----------------------------------------
Total Dipole Moment    :      0.129440971       0.345362901      -0.002991134
                        -----------------------------------------
Magnitude (a.u.)       :      0.368835255
Magnitude (Debye)      :      0.937504714

Rotational constants in cm-1:             0.124304             0.060291             0.040907
Rotational constants in MHz :          3726.539175          1807.491785          1226.353804

                             ****ORCA TERMINATED NORMALLY****
TOTAL RUN TIME: 0 days 0 hours 0 minutes 20 seconds 761 msec
