                         Program Version 6.0.0  -   RELEASE  -
|  1> ! r2scan-3c def2/J RI DEFGRID2 scfconv6 printgap
|  2> %output
|  3>     printlevel normal
|  4> end
|  5> %cpcm
|  6>     smd true
|  7>     smdsolvent "water"
|  8> end
|  9> * xyz 0 1
| 10> C -2.5341057943 -1.0334237149 -0.0007410357
| 11> C -1.2297978912 -0.2961354742 0.0012094869
| 12> C -1.2129541661 1.0958854338 0.0005324701
| 13> C -0.0135000524 1.780941209 -0.0003480495
| 14> C 1.1893403562 1.0953948046 -0.0004356283
| 15> C 1.1843312499 -0.2931074703 -0.000153613
| 16> C -0.0260508587 -0.9801574847 0.0005865512
| 17> O 2.3323616724 -1.0275446897 -1.92857e-05
| 18> H -2.3738920354 -2.1065633973 0.0503543171
| 19> H -3.1413314415 -0.7273319214 0.8490956224
| 20> H -3.0919021483 -0.8058882359 -0.907707806
| 21> H -2.1459014221 1.6391931781 0.0008840936
| 22> H -0.0085650225 2.8606568087 -0.0004907953
| 23> H 2.1241776217 1.6369167319 -0.0008763055
| 24> H -0.0002541002 -2.0593570219 0.0013143406
| 25> H 3.1064101132 -0.4449338999 -1.49772e-05
| 26> *
| 27>
| 28>                          ****END OF INPUT****

CARTESIAN COORDINATES (ANGSTROEM)
---------------------------------
  C     -2.534106   -1.033424   -0.000741
  C     -1.229798   -0.296135    0.001209
  C     -1.212954    1.095885    0.000532
  C     -0.013500    1.780941   -0.000348
  C      1.189340    1.095395   -0.000436
  C      1.184331   -0.293107   -0.000154
  C     -0.026051   -0.980157    0.000587
  O      2.332362   -1.027545   -0.000019
  H     -2.373892   -2.106563    0.050354
  H     -3.141331   -0.727332    0.849096
  H     -3.091902   -0.805888   -0.907708
  H     -2.145901    1.639193    0.000884
  H     -0.008565    2.860657   -0.000491
  H      2.124178    1.636917   -0.000876
  H     -0.000254   -2.059357    0.001314
  H      3.106410   -0.444934   -0.000015

 Total Charge           Charge          ....    0
 Multiplicity           Mult            ....    1
 Number of Electrons    NEL             ....   58
 Basis Dimension        Dim             ....  197

ORBITAL ENERGIES
----------------

  NO   OCC          E(Eh)            E(eV)
   0   2.0000     -18.982156      -516.5307
   1   2.0000     -10.095336      -274.7081
   2   2.0000     -10.043591      -273.3000
   3   2.0000     -10.033222      -273.0179
   4   2.0000     -10.027051      -272.8499
   5   2.0000     -10.025429      -272.8058
   6   2.0000     -10.021047      -272.6865
   7   2.0000     -10.018166      -272.6082
   8   2.0000      -1.025177       -27.8965
   9   2.0000      -0.824558       -22.4374
  10   2.0000      -0.738453       -20.0943
  11   2.0000      -0.709701       -19.3119
  12   2.0000      -0.651693       -17.7335
  13   2.0000      -0.576930       -15.6991
  14   2.0000      -0.570350       -15.5200
  15   2.0000      -0.492988       -13.4149
  16   2.0000      -0.462938       -12.5972
  17   2.0000      -0.441124       -12.0036
  18   2.0000      -0.401861       -10.9352
  19   2.0000      -0.394055       -10.7228
  20   2.0000      -0.375216       -10.2102
  21   2.0000      -0.371717       -10.1149
  22   2.0000      -0.365340        -9.9414
  23   2.0000      -0.337964        -9.1965
  24   2.0000      -0.321456        -8.7473
  25   2.0000      -0.305273        -8.3069
  26   2.0000      -0.301500        -8.2042
  27   2.0000      -0.231521        -6.3000
  28   2.0000      -0.205529        -5.5927
  29   0.0000      -0.028851        -0.7851
  30   0.0000      -0.018303        -0.4980
  31   0.0000       0.081613         2.2208
  32   0.0000       0.088357         2.4043
  33   0.0000       0.117146         3.1877

MULLIKEN ATOMIC CHARGES
-----------------------
   0 C :   -0.542056
   1 C :    0.204056
   2 C :   -0.268267
   3 C :   -0.172542
   4 C :   -0.335306
   5 C :    0.368035
   6 C :   -0.409499
   7 O :   -0.459493
   8 H :    0.170762
   9 H :    0.175179
  10 H :    0.177614
  11 H :    0.176249
  12 H :    0.178016
  13 H :    0.184096
  14 H :    0.183378
  15 H :    0.369778
Sum of atomic charges:    0.0000000

LOEWDIN ATOMIC CHARGES
----------------------
   0 C :   -0.392613
   1 C :   -0.094685
   2 C :   -0.203953
   3 C :   -0.161040
   4 C :   -0.184625
   5 C :    0.172684
   6 C :   -0.163666
   7 O :   -0.515525
   8 H :    0.164921
   9 H :    0.171074
  10 H :    0.171708
  11 H :    0.178110
  12 H :    0.178361
  13 H :    0.185137
  14 H :    0.188497
  15 H :    0.305616

  Mayer bond orders larger than 0.100000
B(  0-C ,  1-C ) :   0.7965 B(  0-C ,  8-H ) :   0.9910 B(  0-C ,  9-H ) :   0.9704
B(  0-C , 10-H ) :   0.9674 B(  1-C ,  2-C ) :   1.3348 B(  1-C ,  6-C ) :   1.4054
B(  2-C ,  3-C ) :   1.4238 B(  2-C , 11-H ) :   0.9602 B(  3-C ,  4-C ) :   1.3623
B(  3-C , 12-H ) :   0.9582 B(  4-C ,  5-C ) :   1.3539 B(  4-C , 13-H ) :   0.9496
B(  5-C ,  6-C ) :   1.4129 B(  5-C ,  7-O ) :   0.9181 B(  6-C , 14-H ) :   0.9412
B(  7-O , 15-H ) :   0.8527

Dispersion correction           -0.004908806
FINAL SINGLE POINT ENERGY      -346.711220490297

DIPOLE MOMENT
-------------

Method             : SCF
Type of density    : Electron Density
Multiplicity       :   1
Irrep              :   0
Energy             :  -346.7117544439117864 Eh
Relativity type    :
Basis              : AO
                                X                 Y                 Z
Electronic contribution:      5.365439071       0.544364334       0.002847696
Nuclear contribution   :     -5.154665222      -0.022106685      -0.006981716
                        -----------------------------------------
Total Dipole Moment    :      0.210773849       0.522257649      -0.004134020
                        -----------------------------------------
Magnitude (a.u.)       :      0.563201347
Magnitude (Debye)      :      1.431544058

Rotational constants in cm-1:             0.124304             0.060291             0.040907
Rotational constants in MHz :          3726.539175          1807.491785          1226.353804

                             ****ORCA TERMINATED NORMALLY****
TOTAL RUN TIME: 0 days 0 hours 0 minutes 25 seconds 22 msec
