                         Program Version 6.0.0  -   RELEASE  -
|  1> ! r2scan-3c def2/J RI DEFGRID2 scfconv6 printgap
|  2> %output
|  3>     printlevel normal
|  4> end
|  5> * xyz 0 1
|  6> C -1.9612025612 -1.0277807501 -0.5073651594
|  7> C -1.4618410413 0.0556316725 0.4447447124
|  8> C -0.0252580245 0.4413426579 0.1998974509
|  9> O 0.3933671065 1.5809848964 0.2522320408
| 10> O 0.7429107029 -0.6092675027 -0.0508736932
| 11> C 2.1377573923 -0.4023531014 -0.286558532
| 12> H -1.9094733713 -0.6827720882 -1.5368308497
| 13> H -1.3570012286 -1.9248749426 -0.411109037
| 14> H -2.9937238158 -1.2704722434 -0.2744650188
| 15> H -1.5211087083 -0.3051743277 1.4742551335
| 16> H -2.0643750543 0.9608998286 0.3669175173
| 17> H 2.6547285158 -1.246389969 0.1621317654
| 18> H 2.4567109335 0.5385566152 0.1633704683
| 19> H 2.3142908767 -0.3745571463 -1.3616476656
| 20> *
| 21>
| 22>                          ****END OF INPUT****

CARTESIAN COORDINATES (ANGSTROEM)
---------------------------------
  C     -1.961203   -1.027781   -0.507365
  C     -1.461841    0.055632    0.444745
  C     -0.025258    0.441343    0.199897
  O      0.393367    1.580985    0.252232
  O      0.742911   -0.609268   -0.050874
  C      2.137757   -0.402353   -0.286559
  H     -1.909473   -0.682772   -1.536831
  H     -1.357001   -1.924875   -0.411109
  H     -2.993724   -1.270472   -0.274465
  H     -1.521109   -0.305174    1.474255
  H     -2.064375    0.960900    0.366918
  H      2.654729   -1.246390    0.162132
  H      2.456711    0.538557    0.163370
  H      2.314291   -0.374557   -1.361648

 Total Charge           Charge          ....    0
 Multiplicity           Mult            ....    1
 Number of Electrons    NEL             ....   48
 Basis Dimension        Dim             ....  164

ORBITAL ENERGIES
----------------

  NO   OCC          E(Eh)            E(eV)
   0   2.0000     -19.000776      -517.0374
   1   2.0000     -18.927828      -515.0524
   2   2.0000     -10.153591      -276.2933
   3   2.0000     -10.086918      -274.4790
   4   2.0000     -10.045722      -273.3580
   5   2.0000     -10.028353      -272.8853
   6   2.0000      -1.074554       -29.2401
   7   2.0000      -0.975537       -26.5457
   8   2.0000      -0.762261       -20.7422
   9   2.0000      -0.694668       -18.9029
  10   2.0000      -0.615751       -16.7554
  11   2.0000      -0.535994       -14.5851
  12   2.0000      -0.470629       -12.8065
  13   2.0000      -0.458569       -12.4783
  14   2.0000      -0.439945       -11.9715
  15   2.0000      -0.416862       -11.3434
  16   2.0000      -0.393954       -10.7200
  17   2.0000      -0.376943       -10.2571
  18   2.0000      -0.352861        -9.6018
  19   2.0000      -0.337423        -9.1817
  20   2.0000      -0.326045        -8.8721
  21   2.0000      -0.313723        -8.5368
  22   2.0000      -0.273567        -7.4441
  23   2.0000      -0.234602        -6.3839
  24   0.0000      -0.014932        -0.4063
  25   0.0000       0.064276         1.7490
  26   0.0000       0.096781         2.6336
  27   0.0000       0.120565         3.2807
  28   0.0000       0.125197         3.4068

MULLIKEN ATOMIC CHARGES
-----------------------
   0 C :   -0.459040
   1 C :   -0.297296
   2 C :    0.389079
   3 O :   -0.430080
   4 O :   -0.179828
   5 C :   -0.295011
   6 H :    0.148746
   7 H :    0.161541
   8 H :    0.147331
   9 H :    0.163831
  10 H :    0.168450
  11 H :    0.148135
  12 H :    0.183574
  13 H :    0.150570
Sum of atomic charges:   -0.0000000

LOEWDIN ATOMIC CHARGES
----------------------
   0 C :   -0.398480
   1 C :   -0.235240
   2 C :    0.356940
   3 O :   -0.435578
   4 O :   -0.608552
   5 C :   -0.043762
   6 H :    0.155636
   7 H :    0.164075
   8 H :    0.151385
   9 H :    0.179183
  10 H :    0.176550
  11 H :    0.174874
  12 H :    0.190292
  13 H :    0.172678

  Mayer bond orders larger than 0.100000
B(  0-C ,  1-C ) :   0.8947 B(  0-C ,  6-H ) :   0.9770 B(  0-C ,  7-H ) :   0.9727
B(  0-C ,  8-H ) :   0.9698 B(  1-C ,  2-C ) :   1.0047 B(  1-C ,  9-H ) :   0.9336
B(  1-C , 10-H ) :   0.9810 B(  2-C ,  3-O ) :   1.8489 B(  2-C ,  4-O ) :   1.0559
B(  4-O ,  5-C ) :   0.8413 B(  5-C , 11-H ) :   0.9692 B(  5-C , 12-H ) :   0.9667
B(  5-C , 13-H ) :   0.9605

Dispersion correction           -0.003007444
FINAL SINGLE POINT ENERGY      -307.630169954117

DIPOLE MOMENT
-------------

Method             : SCF
Type of density    : Electron Density
Multiplicity       :   1
Irrep              :   0
Energy             :  -307.6366587256030698 Eh
Relativity type    :
Basis              : AO
                                X                 Y                 Z
Electronic contribution:      2.259645400       3.170985069       1.234315945
Nuclear contribution   :     -2.253455794      -4.024199525      -1.326754843
                        -----------------------------------------
Total Dipole Moment    :      0.006189606      -0.853214456      -0.092438898
                        -----------------------------------------
Magnitude (a.u.)       :      0.858229671
Magnitude (Debye)      :      2.181446462

Rotational constants in cm-1:             0.202103             0.088675             0.065978
Rotational constants in MHz :          6058.883649          2658.405864          1977.958681

                             ****ORCA TERMINATED NORMALLY****
TOTAL RUN TIME: 0 days 0 hours 0 minutes 16 seconds 613 msec
