                         Program Version 6.0.0  -   RELEASE  -
|  1> ! r2scan-3c def2/J RI DEFGRID2 scfconv6 printgap
|  2> %output
|  3>     printlevel normal
|  4> end
|  5> %cpcm
|  6>     smd true
|  7>     smdsolvent "water"
|  8> end
|  9> * xyz 0 1
| 10> C -1.9612025612 -1.0277807501 -0.5073651594
| 11> C -1.4618410413 0.0556316725 0.4447447124
| 12> C -0.0252580245 0.4413426579 0.1998974509
| 13> O 0.3933671065 1.5809848964 0.2522320408
| 14> O 0.7429107029 -0.6092675027 -0.0508736932
| 15> C 2.1377573923 -0.4023531014 -0.286558532
| 16> H -1.9094733713 -0.6827720882 -1.5368308497
| 17> H -1.3570012286 -1.9248749426 -0.411109037
| 18> H -2.9937238158 -1.2704722434 -0.2744650188
| 19> H -1.5211087083 -0.3051743277 1.4742551335
| 20> H -2.0643750543 0.9608998286 0.3669175173
| 21> H 2.6547285158 -1.246389969 0.1621317654
| 22> H 2.4567109335 0.5385566152 0.1633704683
| 23> H 2.3142908767 -0.3745571463 -1.3616476656
| 24> *
| 25>
| 26>                          ****END OF INPUT****

CARTESIAN COORDINATES (ANGSTROEM)
---------------------------------
  C     -1.961203   -1.027781   -0.507365
  C     -1.461841    0.055632    0.444745
  C     -0.025258    0.441343    0.199897
  O      0.393367    1.580985    0.252232
  O      0.742911   -0.609268   -0.050874
  C      2.137757   -0.402353   -0.286559
  H     -1.909473   -0.682772   -1.536831
  H     -1.357001   -1.924875   -0.411109
  H     -2.993724   -1.270472   -0.274465
  H     -1.521109   -0.305174    1.474255
  H     -2.064375    0.960900    0.366918
  H      2.654729   -1.246390    0.162132
  H      2.456711    0.538557    0.163370
  H      2.314291   -0.374557   -1.361648

 Total Charge           Charge          ....    0
 Multiplicity           Mult            ....    1
 Number of Electrons    NEL             ....   48
 Basis Dimension        Dim             ....  164

ORBITAL ENERGIES
----------------

  NO   OCC          E(Eh)            E(eV)
   0   2.0000     -19.004712      -517.1445
   1   2.0000     -18.942658      -515.4559
   2   2.0000     -10.162890      -276.5463
   3   2.0000     -10.075846      -274.1777
   4   2.0000     -10.038546      -273.1627
   5   2.0000     -10.018279      -272.6112
   6   2.0000      -1.080033       -29.3892
   7   2.0000      -0.988370       -26.8949
   8   2.0000      -0.756647       -20.5894
   9   2.0000      -0.687676       -18.7126
  10   2.0000      -0.608844       -16.5675
  11   2.0000      -0.532719       -14.4960
  12   2.0000      -0.468662       -12.7529
  13   2.0000      -0.458719       -12.4824
  14   2.0000      -0.449892       -12.2422
  15   2.0000      -0.412026       -11.2118
  16   2.0000      -0.386545       -10.5184
  17   2.0000      -0.374728       -10.1969
  18   2.0000      -0.349304        -9.5050
  19   2.0000      -0.329782        -8.9738
  20   2.0000      -0.323845        -8.8123
  21   2.0000      -0.310538        -8.4502
  22   2.0000      -0.279816        -7.6142
  23   2.0000      -0.249805        -6.7976
  24   0.0000      -0.021656        -0.5893
  25   0.0000       0.070845         1.9278
  26   0.0000       0.104287         2.8378
  27   0.0000       0.132200         3.5973
  28   0.0000       0.134430         3.6580

MULLIKEN ATOMIC CHARGES
-----------------------
   0 C :   -0.494788
   1 C :   -0.306225
   2 C :    0.430360
   3 O :   -0.519299
   4 O :   -0.194362
   5 C :   -0.315850
   6 H :    0.164819
   7 H :    0.164909
   8 H :    0.165209
   9 H :    0.195034
  10 H :    0.175436
  11 H :    0.175325
  12 H :    0.180908
  13 H :    0.178523
Sum of atomic charges:   -0.0000000

LOEWDIN ATOMIC CHARGES
----------------------
   0 C :   -0.400930
   1 C :   -0.232779
   2 C :    0.367527
   3 O :   -0.499449
   4 O :   -0.608377
   5 C :   -0.039348
   6 H :    0.159851
   7 H :    0.164157
   8 H :    0.158201
   9 H :    0.191595
  10 H :    0.180150
  11 H :    0.186798
  12 H :    0.189520
  13 H :    0.183083

  Mayer bond orders larger than 0.100000
B(  0-C ,  1-C ) :   0.8821 B(  0-C ,  6-H ) :   0.9748 B(  0-C ,  7-H ) :   0.9717
B(  0-C ,  8-H ) :   0.9652 B(  1-C ,  2-C ) :   1.0062 B(  1-C ,  9-H ) :   0.9216
B(  1-C , 10-H ) :   0.9761 B(  2-C ,  3-O ) :   1.7792 B(  2-C ,  4-O ) :   1.0867
B(  4-O ,  5-C ) :   0.8262 B(  5-C , 11-H ) :   0.9596 B(  5-C , 12-H ) :   0.9634
B(  5-C , 13-H ) :   0.9522

Dispersion correction           -0.003007444
FINAL SINGLE POINT ENERGY      -307.635033455096

DIPOLE MOMENT
-------------

Method             : SCF
Type of density    : Electron Density
Multiplicity       :   1
Irrep              :   0
Energy             :  -307.6415222265817420 Eh
Relativity type    :
Basis              : AO
                                X                 Y                 Z
Electronic contribution:      2.224975838       2.835372422       1.213289704
Nuclear contribution   :     -2.253455794      -4.024199525      -1.326754843
                        -----------------------------------------
Total Dipole Moment    :     -0.028479956      -1.188827103      -0.113465139
                        -----------------------------------------
Magnitude (a.u.)       :      1.194569096
Magnitude (Debye)      :      3.036353339

Rotational constants in cm-1:             0.202103             0.088675             0.065978
Rotational constants in MHz :          6058.883649          2658.405864          1977.958681

                             ****ORCA TERMINATED NORMALLY****
TOTAL RUN TIME: 0 days 0 hours 0 minutes 21 seconds 158 msec
