                         Program Version 6.0.0  -   RELEASE  -
|  1> ! pbe def2-sv(p) def2/J RI DEFGRID1 loosescf d4 GCP(DFT/SV(P)) printgap
|  2> %output
|  3>     printlevel normal
|  4> end
|  5> * xyz 0 1
|  6> C -2.1788825789 -0.9405201394 -0.2124741224
|  7> C -1.1494676318 -0.3713528583 0.7801139342
|  8> H -1.6480684502 -0.3961336813 1.7586490769
|  9> C -0.7511406235 1.0933180236 0.5051215081
| 10> H -1.6028015789 1.6029914234 0.0338852877
| 11> C 0.4616504549 1.2590597835 -0.4371536024
| 12> H 0.8278446079 2.285065833 -0.2996196754
| 13> C 1.5945423407 0.3085016267 -0.0117087225
| 14> H 2.3556535364 0.2943984833 -0.7991934243
| 15> C 1.0800313615 -1.1349326181 0.1454740867
| 16> H 1.8507009715 -1.7094422609 0.6851061736
| 17> O -0.0377675655 -1.2377400285 0.9935710438
| 18> O 0.8548658672 -1.6569357852 -1.1230128545
| 19> O 2.2293643008 0.7435781035 1.1627437672
| 20> O 0.1348023549 1.1532757676 -1.7898724791
| 21> O -0.3875992205 1.738402774 1.7092976486
| 22> O -1.7480088994 -0.8439141562 -1.5493232416
| 23> H -3.1110453165 -0.3794673201 -0.0695900295
| 24> H -2.3474561403 -1.9892642775 0.0629282668
| 25> H 0.6413133609 -2.6000630034 -1.0643320146
| 26> H 1.5486607947 1.0240636345 1.7987976572
| 27> H -0.2661897515 0.2784453023 -1.953255053
| 28> H -1.1586933347 1.8375125282 2.2860797063
| 29> H -2.4478966205 -1.1588809757 -2.1376008193
| 30> *
| 31>
| 32>                          ****END OF INPUT****

CARTESIAN COORDINATES (ANGSTROEM)
---------------------------------
  C     -2.178883   -0.940520   -0.212474
  C     -1.149468   -0.371353    0.780114
  H     -1.648068   -0.396134    1.758649
  C     -0.751141    1.093318    0.505122
  H     -1.602802    1.602991    0.033885
  C      0.461650    1.259060   -0.437154
  H      0.827845    2.285066   -0.299620
  C      1.594542    0.308502   -0.011709
  H      2.355654    0.294398   -0.799193
  C      1.080031   -1.134933    0.145474
  H      1.850701   -1.709442    0.685106
  O     -0.037768   -1.237740    0.993571
  O      0.854866   -1.656936   -1.123013
  O      2.229364    0.743578    1.162744
  O      0.134802    1.153276   -1.789872
  O     -0.387599    1.738403    1.709298
  O     -1.748009   -0.843914   -1.549323
  H     -3.111045   -0.379467   -0.069590
  H     -2.347456   -1.989264    0.062928
  H      0.641313   -2.600063   -1.064332
  H      1.548661    1.024064    1.798798
  H     -0.266190    0.278445   -1.953255
  H     -1.158693    1.837513    2.286080
  H     -2.447897   -1.158881   -2.137601

 Total Charge           Charge          ....    0
 Multiplicity           Mult            ....    1
 Number of Electrons    NEL             ....   96
 Basis Dimension        Dim             ....  192

ORBITAL ENERGIES
----------------

  NO   OCC          E(Eh)            E(eV)
   0   2.0000     -18.775750      -510.9141
   1   2.0000     -18.770107      -510.7606
   2   2.0000     -18.763036      -510.5682
   3   2.0000     -18.755367      -510.3595
   4   2.0000     -18.726404      -509.5714
   5   2.0000     -18.721461      -509.4369
   6   2.0000      -9.972143      -271.3558
   7   2.0000      -9.955509      -270.9032
   8   2.0000      -9.952128      -270.8112
   9   2.0000      -9.948155      -270.7031
  10   2.0000      -9.927815      -270.1496
  11   2.0000      -9.920519      -269.9510
  12   2.0000      -0.975242       -26.5377
  13   2.0000      -0.948330       -25.8054
  14   2.0000      -0.945324       -25.7236
  15   2.0000      -0.908194       -24.7132
  16   2.0000      -0.907493       -24.6941
  17   2.0000      -0.897611       -24.4252
  18   2.0000      -0.708857       -19.2890
  19   2.0000      -0.674361       -18.3503
  20   2.0000      -0.627813       -17.0837
  21   2.0000      -0.578468       -15.7409
  22   2.0000      -0.572572       -15.5805
  23   2.0000      -0.507391       -13.8068
  24   2.0000      -0.506945       -13.7947
  25   2.0000      -0.497608       -13.5406
  26   2.0000      -0.468803       -12.7568
  27   2.0000      -0.454774       -12.3750
  28   2.0000      -0.431022       -11.7287
  29   2.0000      -0.429007       -11.6739
  30   2.0000      -0.412089       -11.2135
  31   2.0000      -0.401789       -10.9332
  32   2.0000      -0.392331       -10.6759
  33   2.0000      -0.376731       -10.2514
  34   2.0000      -0.356025        -9.6879
  35   2.0000      -0.343542        -9.3482
  36   2.0000      -0.329475        -8.9655
  37   2.0000      -0.320787        -8.7291
  38   2.0000      -0.305887        -8.3236
  39   2.0000      -0.286706        -7.8017
  40   2.0000      -0.261034        -7.1031
  41   2.0000      -0.259305        -7.0560
  42   2.0000      -0.248503        -6.7621
  43   2.0000      -0.239886        -6.5276
  44   2.0000      -0.232535        -6.3276
  45   2.0000      -0.222846        -6.0640
  46   2.0000      -0.211145        -5.7455
  47   2.0000      -0.184220        -5.0129
  48   0.0000      -0.001585        -0.0431
  49   0.0000       0.010553         0.2872
  50   0.0000       0.037479         1.0199
  51   0.0000       0.054855         1.4927
  52   0.0000       0.068200         1.8558

MULLIKEN ATOMIC CHARGES
-----------------------
   0 C :    0.027888
   1 C :    0.068995
   2 H :    0.056788
   3 C :    0.001359
   4 H :    0.071954
   5 C :    0.059200
   6 H :    0.080266
   7 C :    0.060506
   8 H :    0.080796
   9 C :    0.167073
  10 H :    0.063375
  11 O :   -0.319756
  12 O :   -0.386887
  13 O :   -0.431994
  14 O :   -0.431254
  15 O :   -0.422569
  16 O :   -0.428333
  17 H :    0.071757
  18 H :    0.079865
  19 H :    0.296210
  20 H :    0.300088
  21 H :    0.315336
  22 H :    0.305907
  23 H :    0.313431
Sum of atomic charges:    0.0000000

LOEWDIN ATOMIC CHARGES
----------------------
   0 C :   -0.134974
   1 C :   -0.067260
   2 H :    0.117626
   3 C :   -0.075346
   4 H :    0.108691
   5 C :   -0.068183
   6 H :    0.119546
   7 C :   -0.080781
   8 H :    0.122547
   9 C :   -0.016439
  10 H :    0.097939
  11 O :   -0.152166
  12 O :   -0.303491
  13 O :   -0.321293
  14 O :   -0.320735
  15 O :   -0.310843
  16 O :   -0.321378
  17 H :    0.101578
  18 H :    0.103147
  19 H :    0.282147
  20 H :    0.271565
  21 H :    0.266793
  22 H :    0.287719
  23 H :    0.293589

  Mayer bond orders larger than 0.100000
B(  0-C ,  1-C ) :   1.0640 B(  0-C , 16-O ) :   1.0601 B(  0-C , 17-H ) :   0.9072
B(  0-C , 18-H ) :   0.9089 B(  1-C ,  2-H ) :   0.8880 B(  1-C ,  3-C ) :   0.9702
B(  1-C , 11-O ) :   1.0208 B(  3-C ,  4-H ) :   0.8972 B(  3-C ,  5-C ) :   0.9851
B(  3-C , 15-O ) :   1.0034 B(  5-C ,  6-H ) :   0.8962 B(  5-C ,  7-C ) :   0.9881
B(  5-C , 14-O ) :   1.1070 B(  7-C ,  8-H ) :   0.8889 B(  7-C ,  9-C ) :   0.9789
B(  7-C , 13-O ) :   1.0585 B(  9-C , 10-H ) :   0.9007 B(  9-C , 11-O ) :   1.0352
B(  9-C , 12-O ) :   1.1269 B( 12-O , 19-H ) :   0.8392 B( 13-O , 20-H ) :   0.8175
B( 14-O , 21-H ) :   0.7903 B( 15-O , 22-H ) :   0.8422 B( 16-O , 23-H ) :   0.8390

Dispersion correction           -0.026366696
FINAL SINGLE POINT ENERGY      -685.694301887946

DIPOLE MOMENT
-------------

Method             : SCF
Type of density    : Electron Density
Multiplicity       :   1
Irrep              :   0
Energy             :  -685.8267328788690520 Eh
Relativity type    :
Basis              : AO
                                X                 Y                 Z
Electronic contribution:      2.845850547      -0.095803537       0.048994416
Nuclear contribution   :     -5.011203904      -0.855992076       0.274353216
                        -----------------------------------------
Total Dipole Moment    :     -2.165353358      -0.951795614       0.323347632
                        -----------------------------------------
Magnitude (a.u.)       :      2.387304703
Magnitude (Debye)      :      6.068046319

Rotational constants in cm-1:             0.040144             0.031069             0.027419
Rotational constants in MHz :          1203.476270           931.413612           821.996283

                             ****ORCA TERMINATED NORMALLY****
TOTAL RUN TIME: 0 days 0 hours 0 minutes 12 seconds 424 msec
