                         Program Version 6.0.0  -   RELEASE  -
|  1> ! wb97x-v def2-tzvp def2/J RIJCOSX DEFGRID2 scfconv7 GCP(DFT/TZ) printgap
|  2> %output
|  3>     printlevel normal
|  4> end
|  5> * xyz 0 1
|  6> C -2.9790032909544757 -0.3549128205263612 -0.0018768837824373677
|  7> C -1.968750131279246 0.5219700308731338 0.002051003569425169
|  8> C -0.5341636297252359 0.216460023066093 0.0009976960199315796
|  9> C 0.38172392543827804 1.2798738696644931 0.00017684219034598818
| 10> C 1.753594695700651 1.0462833699407272 -0.0008974348509041907
| 11> C 2.238933908864028 -0.2586361340098471 -0.0010089229795180435
| 12> C 1.33974228297094 -1.3265666977261377 -7.592689838335094e-05
| 13> C -0.029198440913495934 -1.0945812412456275 0.0009238061047481447
| 14> H -4.0073728497852 -0.0077152063017320895 -0.0010424817923193619
| 15> H -2.8237123100663464 -1.4301854130876879 -0.0067936476968797135
| 16> H -2.204784116537992 1.5856504671072982 0.005456668265133808
| 17> H 0.006367398093056911 2.299733008381798 0.00035682967368969054
| 18> H 2.443601949031339 1.8845203596556266 -0.0015087005729781475
| 19> H 3.308199083881371 -0.44528815774113006 -0.0017586590637174138
| 20> H 1.7107305678333886 -2.3470089571175787 0.00011984819175589802
| 21> H -0.7100699716626927 -1.9397699979484269 0.0020277081113760113
| 22> *
| 23>
| 24>                          ****END OF INPUT****

CARTESIAN COORDINATES (ANGSTROEM)
---------------------------------
  C     -2.979003   -0.354913   -0.001877
  C     -1.968750    0.521970    0.002051
  C     -0.534164    0.216460    0.000998
  C      0.381724    1.279874    0.000177
  C      1.753595    1.046283   -0.000897
  C      2.238934   -0.258636   -0.001009
  C      1.339742   -1.326567   -0.000076
  C     -0.029198   -1.094581    0.000924
  H     -4.007373   -0.007715   -0.001042
  H     -2.823712   -1.430185   -0.006794
  H     -2.204784    1.585650    0.005457
  H      0.006367    2.299733    0.000357
  H      2.443602    1.884520   -0.001509
  H      3.308199   -0.445288   -0.001759
  H      1.710731   -2.347009    0.000120
  H     -0.710070   -1.939770    0.002028

 Total Charge           Charge          ....    0
 Multiplicity           Mult            ....    1
 Number of Electrons    NEL             ....   56
 Basis Dimension        Dim             ....  296

ORBITAL ENERGIES
----------------

  NO   OCC          E(Eh)            E(eV)
   0   2.0000     -12.064080      -328.2803
   1   2.0000     -12.058140      -328.1187
   2   2.0000     -12.055443      -328.0453
   3   2.0000     -12.055260      -328.0403
   4   2.0000     -12.053739      -327.9989
   5   2.0000     -12.052995      -327.9787
   6   2.0000     -12.051974      -327.9509
   7   2.0000     -12.046295      -327.7964
   8   2.0000      -1.388647       -37.7870
   9   2.0000      -1.317325       -35.8462
  10   2.0000      -1.275731       -34.7144
  11   2.0000      -1.254830       -34.1456
  12   2.0000      -1.129025       -30.7223
  13   2.0000      -1.107314       -30.1316
  14   2.0000      -1.043558       -28.3967
  15   2.0000      -0.965968       -26.2853
  16   2.0000      -0.957513       -26.0552
  17   2.0000      -0.927883       -25.2490
  18   2.0000      -0.896239       -24.3879
  19   2.0000      -0.887546       -24.1514
  20   2.0000      -0.876170       -23.8418
  21   2.0000      -0.830525       -22.5997
  22   2.0000      -0.809167       -22.0186
  23   2.0000      -0.792661       -21.5694
  24   2.0000      -0.780583       -21.2407
  25   2.0000      -0.695308       -18.9203
  26   2.0000      -0.641026       -17.4432
  27   2.0000      -0.611816       -16.6484
  28   0.0000      -0.270363        -7.3569
  29   0.0000      -0.236865        -6.4454
  30   0.0000      -0.166632        -4.5343
  31   0.0000      -0.055789        -1.5181
  32   0.0000      -0.045728        -1.2443

MULLIKEN ATOMIC CHARGES
-----------------------
   0 C :   -0.245371
   1 C :   -0.182913
   2 C :    0.255675
   3 C :   -0.192685
   4 C :   -0.113675
   5 C :   -0.131139
   6 C :   -0.105276
   7 C :   -0.202217
   8 H :    0.125594
   9 H :    0.110253
  10 H :    0.106729
  11 H :    0.115139
  12 H :    0.117371
  13 H :    0.118696
  14 H :    0.117793
  15 H :    0.106025
Sum of atomic charges:    0.0000000

LOEWDIN ATOMIC CHARGES
----------------------
   0 C :   -0.190059
   1 C :   -0.155586
   2 C :   -0.138054
   3 C :   -0.103785
   4 C :   -0.139097
   5 C :   -0.139067
   6 C :   -0.138153
   7 C :   -0.094178
   8 H :    0.121223
   9 H :    0.117567
  10 H :    0.146260
  11 H :    0.144233
  12 H :    0.142040
  13 H :    0.141102
  14 H :    0.142110
  15 H :    0.143445

  Mayer bond orders larger than 0.100000
B(  0-C ,  1-C ) :   1.9217 B(  0-C ,  8-H ) :   0.9704 B(  0-C ,  9-H ) :   0.9616
B(  1-C ,  2-C ) :   0.9699 B(  1-C , 10-H ) :   0.9746 B(  2-C ,  3-C ) :   1.3669
B(  2-C ,  7-C ) :   1.3321 B(  3-C ,  4-C ) :   1.4401 B(  3-C , 11-H ) :   0.9697
B(  4-C ,  5-C ) :   1.4314 B(  4-C , 12-H ) :   0.9747 B(  5-C ,  6-C ) :   1.4030
B(  5-C , 13-H ) :   0.9711 B(  6-C ,  7-C ) :   1.4810 B(  6-C , 14-H ) :   0.9724
B(  7-C , 15-H ) :   0.9696

FINAL SINGLE POINT ENERGY      -309.654766774984

DIPOLE MOMENT
-------------

Method             : SCF
Type of density    : Electron Density
Multiplicity       :   1
Irrep              :   0
Energy             :  -309.6627843575835755 Eh
Relativity type    :
Basis              : AO
                                X                 Y                 Z
Electronic contribution:      2.215555415       0.374811655       0.002707353
Nuclear contribution   :     -2.146464189      -0.372141707      -0.002971057
                        -----------------------------------------
Total Dipole Moment    :      0.069091226       0.002669948      -0.000263704
                        -----------------------------------------
Magnitude (a.u.)       :      0.069143299
Magnitude (Debye)      :      0.175748298

Rotational constants in cm-1:             0.172802             0.051605             0.039738
Rotational constants in MHz :          5180.466167          1547.067573          1191.304233

                             ****ORCA TERMINATED NORMALLY****
TOTAL RUN TIME: 0 days 0 hours 2 minutes 19 seconds 698 msec
