                         Program Version 6.0.0  -   RELEASE  -
|  1> ! wb97x-v def2-tzvp def2/J RIJCOSX DEFGRID2 scfconv7 GCP(DFT/TZ) printgap
|  2> %output
|  3>     printlevel normal
|  4> end
|  5> %cpcm
|  6>     smd true
|  7>     smdsolvent "water"
|  8> end
|  9> * xyz 0 1
| 10> C -2.9790032909544757 -0.3549128205263612 -0.0018768837824373677
| 11> C -1.968750131279246 0.5219700308731338 0.002051003569425169
| 12> C -0.5341636297252359 0.216460023066093 0.0009976960199315796
| 13> C 0.38172392543827804 1.2798738696644931 0.00017684219034598818
| 14> C 1.753594695700651 1.0462833699407272 -0.0008974348509041907
| 15> C 2.238933908864028 -0.2586361340098471 -0.0010089229795180435
| 16> C 1.33974228297094 -1.3265666977261377 -7.592689838335094e-05
| 17> C -0.029198440913495934 -1.0945812412456275 0.0009238061047481447
| 18> H -4.0073728497852 -0.0077152063017320895 -0.0010424817923193619
| 19> H -2.8237123100663464 -1.4301854130876879 -0.0067936476968797135
| 20> H -2.204784116537992 1.5856504671072982 0.005456668265133808
| 21> H 0.006367398093056911 2.299733008381798 0.00035682967368969054
| 22> H 2.443601949031339 1.8845203596556266 -0.0015087005729781475
| 23> H 3.308199083881371 -0.44528815774113006 -0.0017586590637174138
| 24> H 1.7107305678333886 -2.3470089571175787 0.00011984819175589802
| 25> H -0.7100699716626927 -1.9397699979484269 0.0020277081113760113
| 26> *
| 27>
| 28>                          ****END OF INPUT****

CARTESIAN COORDINATES (ANGSTROEM)
---------------------------------
  C     -2.979003   -0.354913   -0.001877
  C     -1.968750    0.521970    0.002051
  C     -0.534164    0.216460    0.000998
  C      0.381724    1.279874    0.000177
  C      1.753595    1.046283   -0.000897
  C      2.238934   -0.258636   -0.001009
  C      1.339742   -1.326567   -0.000076
  C     -0.029198   -1.094581    0.000924
  H     -4.007373   -0.007715   -0.001042
  H     -2.823712   -1.430185   -0.006794
  H     -2.204784    1.585650    0.005457
  H      0.006367    2.299733    0.000357
  H      2.443602    1.884520   -0.001509
  H      3.308199   -0.445288   -0.001759
  H      1.710731   -2.347009    0.000120
  H     -0.710070   -1.939770    0.002028

 Total Charge           Charge          ....    0
 Multiplicity           Mult            ....    1
 Number of Electrons    NEL             ....   56
 Basis Dimension        Dim             ....  296

ORBITAL ENERGIES
----------------

  NO   OCC          E(Eh)            E(eV)
   0   2.0000     -12.062519      -328.2378
   1   2.0000     -12.054144      -328.0099
   2   2.0000     -12.051815      -327.9466
   3   2.0000     -12.051620      -327.9413
   4   2.0000     -12.050266      -327.9044
   5   2.0000     -12.049425      -327.8815
   6   2.0000     -12.048371      -327.8528
   7   2.0000     -12.040990      -327.6520
   8   2.0000      -1.387384       -37.7526
   9   2.0000      -1.315018       -35.7835
  10   2.0000      -1.273359       -34.6499
  11   2.0000      -1.252354       -34.0783
  12   2.0000      -1.125816       -30.6350
  13   2.0000      -1.104084       -30.0437
  14   2.0000      -1.039372       -28.2828
  15   2.0000      -0.961490       -26.1635
  16   2.0000      -0.954290       -25.9675
  17   2.0000      -0.922627       -25.1059
  18   2.0000      -0.891160       -24.2497
  19   2.0000      -0.882632       -24.0176
  20   2.0000      -0.871181       -23.7060
  21   2.0000      -0.825304       -22.4577
  22   2.0000      -0.803951       -21.8766
  23   2.0000      -0.786677       -21.4066
  24   2.0000      -0.780852       -21.2481
  25   2.0000      -0.694579       -18.9005
  26   2.0000      -0.640244       -17.4219
  27   2.0000      -0.610985       -16.6258
  28   0.0000      -0.269356        -7.3296
  29   0.0000      -0.235723        -6.4143
  30   0.0000      -0.165052        -4.4913
  31   0.0000      -0.054317        -1.4780
  32   0.0000      -0.036896        -1.0040

MULLIKEN ATOMIC CHARGES
-----------------------
   0 C :   -0.321736
   1 C :   -0.232242
   2 C :    0.211694
   3 C :   -0.227859
   4 C :   -0.153333
   5 C :   -0.174315
   6 C :   -0.146341
   7 C :   -0.241465
   8 H :    0.166344
   9 H :    0.158850
  10 H :    0.154915
  11 H :    0.161291
  12 H :    0.160802
  13 H :    0.162448
  14 H :    0.161760
  15 H :    0.159187
Sum of atomic charges:    0.0000000

LOEWDIN ATOMIC CHARGES
----------------------
   0 C :   -0.200032
   1 C :   -0.167830
   2 C :   -0.152527
   3 C :   -0.110206
   4 C :   -0.147857
   5 C :   -0.147414
   6 C :   -0.147000
   7 C :   -0.103232
   8 H :    0.128391
   9 H :    0.127241
  10 H :    0.156116
  11 H :    0.155291
  12 H :    0.151722
  13 H :    0.150703
  14 H :    0.151820
  15 H :    0.154814

  Mayer bond orders larger than 0.100000
B(  0-C ,  1-C ) :   1.9036 B(  0-C ,  8-H ) :   0.9675 B(  0-C ,  9-H ) :   0.9594
B(  1-C ,  2-C ) :   0.9608 B(  1-C , 10-H ) :   0.9730 B(  2-C ,  3-C ) :   1.3541
B(  2-C ,  7-C ) :   1.3120 B(  3-C ,  4-C ) :   1.4180 B(  3-C , 11-H ) :   0.9742
B(  4-C ,  5-C ) :   1.4078 B(  4-C , 12-H ) :   0.9783 B(  5-C ,  6-C ) :   1.3819
B(  5-C , 13-H ) :   0.9732 B(  6-C ,  7-C ) :   1.4583 B(  6-C , 14-H ) :   0.9754
B(  7-C , 15-H ) :   0.9716

FINAL SINGLE POINT ENERGY      -309.656947979027

DIPOLE MOMENT
-------------

Method             : SCF
Type of density    : Electron Density
Multiplicity       :   1
Irrep              :   0
Energy             :  -309.6649655616273549 Eh
Relativity type    :
Basis              : AO
                                X                 Y                 Z
Electronic contribution:      2.223367951       0.371395412       0.002606902
Nuclear contribution   :     -2.146464189      -0.372141707      -0.002971057
                        -----------------------------------------
Total Dipole Moment    :      0.076903762      -0.000746295      -0.000364155
                        -----------------------------------------
Magnitude (a.u.)       :      0.076908245
Magnitude (Debye)      :      0.195485224

Rotational constants in cm-1:             0.172802             0.051605             0.039738
Rotational constants in MHz :          5180.466167          1547.067573          1191.304233

                             ****ORCA TERMINATED NORMALLY****
TOTAL RUN TIME: 0 days 0 hours 2 minutes 13 seconds 610 msec
