                         Program Version 6.0.0  -   RELEASE  -
|  1> ! r2scan-3c def2/J RI DEFGRID2 scfconv6 printgap
|  2> %output
|  3>     printlevel normal
|  4> end
|  5> * xyz 0 1
|  6> C -2.1120834437 -0.8828802453 0.8871548818
|  7> C -1.5990393311 0.3954803616 0.222145281
|  8> C -1.8740849478 0.3560535447 -1.2786656313
|  9> C -0.1506179193 0.7594102977 0.6089201745
| 10> C 1.0856364242 0.0322928226 0.0322228177
| 11> C 1.3996394001 0.482998995 -1.3980887767
| 12> C 2.2752326954 0.4379555304 0.9171970188
| 13> C 0.9672377419 -1.4914043733 0.0686891614
| 14> H -1.877067841 -0.8848994404 1.949017123
| 15> H -3.1936436153 -0.9412380441 0.7797826957
| 16> H -1.6844609222 -1.7720511628 0.4365969377
| 17> H -2.2000862801 1.2182771095 0.6336116549
| 18> H -1.4199143139 -0.5167994244 -1.7395885241
| 19> H -2.9473516213 0.3020046345 -1.4521205297
| 20> H -1.4954951764 1.2516828546 -1.7642474466
| 21> H -0.0174354336 1.8203848405 0.3777790689
| 22> H -0.1000030813 0.6680456935 1.6976914242
| 23> H 0.6466023621 0.1456178136 -2.1013736208
| 24> H 2.3578667207 0.0727728698 -1.7114923747
| 25> H 1.4618506127 1.5677049406 -1.4529142138
| 26> H 3.1996236487 0.0143602531 0.530832793
| 27> H 2.1379826054 0.081240415 1.9356969773
| 28> H 2.381633994 1.5202358305 0.9444685363
| 29> H 0.2304633058 -1.8468355151 -0.6455315444
| 30> H 0.6909082413 -1.8325268973 1.0629372178
| 31> H 1.9248076114 -1.9393848252 -0.1910920531
| 32> *
| 33>
| 34>                          ****END OF INPUT****

CARTESIAN COORDINATES (ANGSTROEM)
---------------------------------
  C     -2.112083   -0.882880    0.887155
  C     -1.599039    0.395480    0.222145
  C     -1.874085    0.356054   -1.278666
  C     -0.150618    0.759410    0.608920
  C      1.085636    0.032293    0.032223
  C      1.399639    0.482999   -1.398089
  C      2.275233    0.437956    0.917197
  C      0.967238   -1.491404    0.068689
  H     -1.877068   -0.884899    1.949017
  H     -3.193644   -0.941238    0.779783
  H     -1.684461   -1.772051    0.436597
  H     -2.200086    1.218277    0.633612
  H     -1.419914   -0.516799   -1.739589
  H     -2.947352    0.302005   -1.452121
  H     -1.495495    1.251683   -1.764247
  H     -0.017435    1.820385    0.377779
  H     -0.100003    0.668046    1.697691
  H      0.646602    0.145618   -2.101374
  H      2.357867    0.072773   -1.711492
  H      1.461851    1.567705   -1.452914
  H      3.199624    0.014360    0.530833
  H      2.137983    0.081240    1.935697
  H      2.381634    1.520236    0.944469
  H      0.230463   -1.846836   -0.645532
  H      0.690908   -1.832527    1.062937
  H      1.924808   -1.939385   -0.191092

 Total Charge           Charge          ....    0
 Multiplicity           Mult            ....    1
 Number of Electrons    NEL             ....   66
 Basis Dimension        Dim             ....  242

ORBITAL ENERGIES
----------------

  NO   OCC          E(Eh)            E(eV)
   0   2.0000     -10.039712      -273.1944
   1   2.0000     -10.031789      -272.9789
   2   2.0000     -10.018240      -272.6102
   3   2.0000     -10.012994      -272.4674
   4   2.0000     -10.011648      -272.4308
   5   2.0000     -10.011170      -272.4178
   6   2.0000     -10.010560      -272.4012
   7   2.0000     -10.009721      -272.3784
   8   2.0000      -0.793933       -21.6040
   9   2.0000      -0.750714       -20.4280
  10   2.0000      -0.653729       -17.7889
  11   2.0000      -0.653598       -17.7853
  12   2.0000      -0.641763       -17.4633
  13   2.0000      -0.639819       -17.4104
  14   2.0000      -0.536175       -14.5901
  15   2.0000      -0.486824       -13.2471
  16   2.0000      -0.435537       -11.8516
  17   2.0000      -0.423077       -11.5125
  18   2.0000      -0.413483       -11.2514
  19   2.0000      -0.397515       -10.8169
  20   2.0000      -0.388642       -10.5755
  21   2.0000      -0.381348       -10.3770
  22   2.0000      -0.360392        -9.8068
  23   2.0000      -0.349811        -9.5188
  24   2.0000      -0.339481        -9.2377
  25   2.0000      -0.328550        -8.9403
  26   2.0000      -0.327172        -8.9028
  27   2.0000      -0.320694        -8.7265
  28   2.0000      -0.303010        -8.2453
  29   2.0000      -0.295282        -8.0350
  30   2.0000      -0.281773        -7.6674
  31   2.0000      -0.275244        -7.4898
  32   2.0000      -0.260916        -7.0999
  33   0.0000       0.067773         1.8442
  34   0.0000       0.104341         2.8393
  35   0.0000       0.111041         3.0216
  36   0.0000       0.120937         3.2909
  37   0.0000       0.125027         3.4022

MULLIKEN ATOMIC CHARGES
-----------------------
   0 C :   -0.498568
   1 C :   -0.008826
   2 C :   -0.523024
   3 C :   -0.328502
   4 C :    0.168721
   5 C :   -0.513267
   6 C :   -0.496738
   7 C :   -0.533399
   8 H :    0.148561
   9 H :    0.144591
  10 H :    0.153362
  11 H :    0.144686
  12 H :    0.149938
  13 H :    0.145152
  14 H :    0.154421
  15 H :    0.153545
  16 H :    0.149678
  17 H :    0.158319
  18 H :    0.148912
  19 H :    0.158109
  20 H :    0.152853
  21 H :    0.153823
  22 H :    0.152291
  23 H :    0.154174
  24 H :    0.161971
  25 H :    0.149216
Sum of atomic charges:    0.0000000

LOEWDIN ATOMIC CHARGES
----------------------
   0 C :   -0.419988
   1 C :   -0.240153
   2 C :   -0.417702
   3 C :   -0.291580
   4 C :   -0.205834
   5 C :   -0.408814
   6 C :   -0.411188
   7 C :   -0.406370
   8 H :    0.152674
   9 H :    0.151936
  10 H :    0.153777
  11 H :    0.156874
  12 H :    0.149152
  13 H :    0.152864
  14 H :    0.154796
  15 H :    0.163162
  16 H :    0.163859
  17 H :    0.157243
  18 H :    0.155273
  19 H :    0.156172
  20 H :    0.154017
  21 H :    0.155013
  22 H :    0.157116
  23 H :    0.152642
  24 H :    0.158524
  25 H :    0.156536

  Mayer bond orders larger than 0.100000
B(  0-C ,  1-C ) :   0.9190 B(  0-C ,  8-H ) :   0.9818 B(  0-C ,  9-H ) :   0.9720
B(  0-C , 10-H ) :   0.9717 B(  1-C ,  2-C ) :   0.8744 B(  1-C ,  3-C ) :   0.9150
B(  1-C , 11-H ) :   0.9754 B(  2-C , 12-H ) :   0.9846 B(  2-C , 13-H ) :   0.9690
B(  2-C , 14-H ) :   0.9729 B(  3-C ,  4-C ) :   0.8679 B(  3-C , 15-H ) :   0.9696
B(  3-C , 16-H ) :   0.9798 B(  4-C ,  5-C ) :   0.9278 B(  4-C ,  6-C ) :   0.9353
B(  4-C ,  7-C ) :   0.8942 B(  5-C , 17-H ) :   0.9621 B(  5-C , 18-H ) :   0.9762
B(  5-C , 19-H ) :   0.9826 B(  6-C , 20-H ) :   0.9782 B(  6-C , 21-H ) :   0.9763
B(  6-C , 22-H ) :   0.9745 B(  7-C , 23-H ) :   0.9778 B(  7-C , 24-H ) :   0.9736
B(  7-C , 25-H ) :   0.9713

Dispersion correction           -0.008252238
FINAL SINGLE POINT ENERGY      -315.582277474878

DIPOLE MOMENT
-------------

Method             : SCF
Type of density    : Electron Density
Multiplicity       :   1
Irrep              :   0
Energy             :  -315.5871068588191406 Eh
Relativity type    :
Basis              : AO
                                X                 Y                 Z
Electronic contribution:     -0.129471044       1.050647847       0.687803796
Nuclear contribution   :      0.090326969      -1.005153930      -0.666043985
                        -----------------------------------------
Total Dipole Moment    :     -0.039144075       0.045493917       0.021759812
                        -----------------------------------------
Magnitude (a.u.)       :      0.063839208
Magnitude (Debye)      :      0.162266372

Rotational constants in cm-1:             0.094414             0.044897             0.040545
Rotational constants in MHz :          2830.467897          1345.992365          1215.512793

                             ****ORCA TERMINATED NORMALLY****
TOTAL RUN TIME: 0 days 0 hours 0 minutes 28 seconds 718 msec
