                         Program Version 6.0.0  -   RELEASE  -
|  1> ! r2scan-3c def2/J RI DEFGRID2 scfconv6 printgap
|  2> %output
|  3>     printlevel normal
|  4> end
|  5> %cpcm
|  6>     smd true
|  7>     smdsolvent "water"
|  8> end
|  9> * xyz 0 1
| 10> C -2.1120834437 -0.8828802453 0.8871548818
| 11> C -1.5990393311 0.3954803616 0.222145281
| 12> C -1.8740849478 0.3560535447 -1.2786656313
| 13> C -0.1506179193 0.7594102977 0.6089201745
| 14> C 1.0856364242 0.0322928226 0.0322228177
| 15> C 1.3996394001 0.482998995 -1.3980887767
| 16> C 2.2752326954 0.4379555304 0.9171970188
| 17> C 0.9672377419 -1.4914043733 0.0686891614
| 18> H -1.877067841 -0.8848994404 1.949017123
| 19> H -3.1936436153 -0.9412380441 0.7797826957
| 20> H -1.6844609222 -1.7720511628 0.4365969377
| 21> H -2.2000862801 1.2182771095 0.6336116549
| 22> H -1.4199143139 -0.5167994244 -1.7395885241
| 23> H -2.9473516213 0.3020046345 -1.4521205297
| 24> H -1.4954951764 1.2516828546 -1.7642474466
| 25> H -0.0174354336 1.8203848405 0.3777790689
| 26> H -0.1000030813 0.6680456935 1.6976914242
| 27> H 0.6466023621 0.1456178136 -2.1013736208
| 28> H 2.3578667207 0.0727728698 -1.7114923747
| 29> H 1.4618506127 1.5677049406 -1.4529142138
| 30> H 3.1996236487 0.0143602531 0.530832793
| 31> H 2.1379826054 0.081240415 1.9356969773
| 32> H 2.381633994 1.5202358305 0.9444685363
| 33> H 0.2304633058 -1.8468355151 -0.6455315444
| 34> H 0.6909082413 -1.8325268973 1.0629372178
| 35> H 1.9248076114 -1.9393848252 -0.1910920531
| 36> *
| 37>
| 38>                          ****END OF INPUT****

CARTESIAN COORDINATES (ANGSTROEM)
---------------------------------
  C     -2.112083   -0.882880    0.887155
  C     -1.599039    0.395480    0.222145
  C     -1.874085    0.356054   -1.278666
  C     -0.150618    0.759410    0.608920
  C      1.085636    0.032293    0.032223
  C      1.399639    0.482999   -1.398089
  C      2.275233    0.437956    0.917197
  C      0.967238   -1.491404    0.068689
  H     -1.877068   -0.884899    1.949017
  H     -3.193644   -0.941238    0.779783
  H     -1.684461   -1.772051    0.436597
  H     -2.200086    1.218277    0.633612
  H     -1.419914   -0.516799   -1.739589
  H     -2.947352    0.302005   -1.452121
  H     -1.495495    1.251683   -1.764247
  H     -0.017435    1.820385    0.377779
  H     -0.100003    0.668046    1.697691
  H      0.646602    0.145618   -2.101374
  H      2.357867    0.072773   -1.711492
  H      1.461851    1.567705   -1.452914
  H      3.199624    0.014360    0.530833
  H      2.137983    0.081240    1.935697
  H      2.381634    1.520236    0.944469
  H      0.230463   -1.846836   -0.645532
  H      0.690908   -1.832527    1.062937
  H      1.924808   -1.939385   -0.191092

 Total Charge           Charge          ....    0
 Multiplicity           Mult            ....    1
 Number of Electrons    NEL             ....   66
 Basis Dimension        Dim             ....  242

ORBITAL ENERGIES
----------------

  NO   OCC          E(Eh)            E(eV)
   0   2.0000     -10.032008      -272.9848
   1   2.0000     -10.023532      -272.7542
   2   2.0000     -10.009384      -272.3692
   3   2.0000     -10.003988      -272.2224
   4   2.0000     -10.003326      -272.2043
   5   2.0000     -10.002717      -272.1878
   6   2.0000     -10.002557      -272.1834
   7   2.0000     -10.001708      -272.1603
   8   2.0000      -0.785660       -21.3789
   9   2.0000      -0.742547       -20.2057
  10   2.0000      -0.645869       -17.5750
  11   2.0000      -0.645527       -17.5657
  12   2.0000      -0.634114       -17.2551
  13   2.0000      -0.632147       -17.2016
  14   2.0000      -0.528283       -14.3753
  15   2.0000      -0.479047       -13.0355
  16   2.0000      -0.427124       -11.6226
  17   2.0000      -0.414750       -11.2859
  18   2.0000      -0.405362       -11.0305
  19   2.0000      -0.389454       -10.5976
  20   2.0000      -0.380430       -10.3520
  21   2.0000      -0.373433       -10.1616
  22   2.0000      -0.351970        -9.5776
  23   2.0000      -0.341970        -9.3055
  24   2.0000      -0.331383        -9.0174
  25   2.0000      -0.320365        -8.7176
  26   2.0000      -0.318675        -8.6716
  27   2.0000      -0.312440        -8.5019
  28   2.0000      -0.294998        -8.0273
  29   2.0000      -0.287428        -7.8213
  30   2.0000      -0.273605        -7.4452
  31   2.0000      -0.267118        -7.2687
  32   2.0000      -0.252535        -6.8718
  33   0.0000       0.077252         2.1021
  34   0.0000       0.112510         3.0615
  35   0.0000       0.119216         3.2440
  36   0.0000       0.127983         3.4826
  37   0.0000       0.131457         3.5771

MULLIKEN ATOMIC CHARGES
-----------------------
   0 C :   -0.543712
   1 C :    0.007699
   2 C :   -0.562957
   3 C :   -0.350689
   4 C :    0.224740
   5 C :   -0.564178
   6 C :   -0.547908
   7 C :   -0.579741
   8 H :    0.159009
   9 H :    0.154503
  10 H :    0.163195
  11 H :    0.150543
  12 H :    0.166664
  13 H :    0.154236
  14 H :    0.160928
  15 H :    0.162285
  16 H :    0.157145
  17 H :    0.168003
  18 H :    0.159767
  19 H :    0.169210
  20 H :    0.164649
  21 H :    0.165121
  22 H :    0.162231
  23 H :    0.171004
  24 H :    0.169367
  25 H :    0.158884
Sum of atomic charges:    0.0000000

LOEWDIN ATOMIC CHARGES
----------------------
   0 C :   -0.428731
   1 C :   -0.238106
   2 C :   -0.425801
   3 C :   -0.294201
   4 C :   -0.200803
   5 C :   -0.417498
   6 C :   -0.420430
   7 C :   -0.414321
   8 H :    0.154894
   9 H :    0.153497
  10 H :    0.155824
  11 H :    0.158386
  12 H :    0.153829
  13 H :    0.154162
  14 H :    0.156091
  15 H :    0.165088
  16 H :    0.165616
  17 H :    0.159300
  18 H :    0.157101
  19 H :    0.158445
  20 H :    0.156475
  21 H :    0.157379
  22 H :    0.158706
  23 H :    0.157268
  24 H :    0.159929
  25 H :    0.157904

  Mayer bond orders larger than 0.100000
B(  0-C ,  1-C ) :   0.9071 B(  0-C ,  8-H ) :   0.9789 B(  0-C ,  9-H ) :   0.9712
B(  0-C , 10-H ) :   0.9718 B(  1-C ,  2-C ) :   0.8673 B(  1-C ,  3-C ) :   0.9158
B(  1-C , 11-H ) :   0.9778 B(  2-C , 12-H ) :   0.9810 B(  2-C , 13-H ) :   0.9683
B(  2-C , 14-H ) :   0.9707 B(  3-C ,  4-C ) :   0.8645 B(  3-C , 15-H ) :   0.9697
B(  3-C , 16-H ) :   0.9794 B(  4-C ,  5-C ) :   0.9126 B(  4-C ,  6-C ) :   0.9178
B(  4-C ,  7-C ) :   0.8836 B(  5-C , 17-H ) :   0.9623 B(  5-C , 18-H ) :   0.9761
B(  5-C , 19-H ) :   0.9805 B(  6-C , 20-H ) :   0.9770 B(  6-C , 21-H ) :   0.9747
B(  6-C , 22-H ) :   0.9741 B(  7-C , 23-H ) :   0.9742 B(  7-C , 24-H ) :   0.9719
B(  7-C , 25-H ) :   0.9715

Dispersion correction           -0.008252238
FINAL SINGLE POINT ENERGY      -315.578481789147

DIPOLE MOMENT
-------------

Method             : SCF
Type of density    : Electron Density
Multiplicity       :   1
Irrep              :   0
Energy             :  -315.5833111730881342 Eh
Relativity type    :
Basis              : AO
                                X                 Y                 Z
Electronic contribution:     -0.140221578       1.052256976       0.685274584
Nuclear contribution   :      0.090326969      -1.005153930      -0.666043985
                        -----------------------------------------
Total Dipole Moment    :     -0.049894610       0.047103047       0.019230599
                        -----------------------------------------
Magnitude (a.u.)       :      0.071259982
Magnitude (Debye)      :      0.181128480

Rotational constants in cm-1:             0.094414             0.044897             0.040545
Rotational constants in MHz :          2830.467897          1345.992365          1215.512793

                             ****ORCA TERMINATED NORMALLY****
TOTAL RUN TIME: 0 days 0 hours 0 minutes 35 seconds 113 msec
