                         Program Version 6.0.0  -   RELEASE  -
|  1> ! r2scan-3c def2/J RI DEFGRID2 scfconv6 printgap
|  2> %output
|  3>     printlevel normal
|  4> end
|  5> * xyz 0 1
|  6> C -1.5013743566 0.7544213832 0.0815179136
|  7> C -1.3908844263 -0.6710935019 -0.4523095518
|  8> C -0.1339277464 -1.2107553281 0.2331264314
|  9> C 0.7830948428 0.0086164629 0.4583803819
| 10> C -0.0544711189 1.2391534967 0.0535152526
| 11> O 1.9515950697 -0.1455160973 -0.3259836136
| 12> H -1.8713385 0.7402816948 1.1078080492
| 13> H -2.1601137811 1.3801868022 -0.5178937533
| 14> H -2.2696605236 -1.2742227247 -0.2326325545
| 15> H -1.2463529474 -0.6475926539 -1.5329297197
| 16> H -0.3861302248 -1.6675486602 1.1891236381
| 17> H 0.3893436708 -1.9471293769 -0.374380112
| 18> H 1.0724384255 0.0722249793 1.517772896
| 19> H 0.1171468619 2.0915194643 0.7089194329
| 20> H 0.2192333063 1.5169557955 -0.9659468791
| 21> H 2.535549495 0.6111420462 -0.1848290315
| 22> *
| 23>
| 24>                          ****END OF INPUT****

CARTESIAN COORDINATES (ANGSTROEM)
---------------------------------
  C     -1.501374    0.754421    0.081518
  C     -1.390884   -0.671094   -0.452310
  C     -0.133928   -1.210755    0.233126
  C      0.783095    0.008616    0.458380
  C     -0.054471    1.239153    0.053515
  O      1.951595   -0.145516   -0.325984
  H     -1.871338    0.740282    1.107808
  H     -2.160114    1.380187   -0.517894
  H     -2.269661   -1.274223   -0.232633
  H     -1.246353   -0.647593   -1.532930
  H     -0.386130   -1.667549    1.189124
  H      0.389344   -1.947129   -0.374380
  H      1.072438    0.072225    1.517773
  H      0.117147    2.091519    0.708919
  H      0.219233    1.516956   -0.965947
  H      2.535549    0.611142   -0.184829

 Total Charge           Charge          ....    0
 Multiplicity           Mult            ....    1
 Number of Electrons    NEL             ....   48
 Basis Dimension        Dim             ....  169

ORBITAL ENERGIES
----------------

  NO   OCC          E(Eh)            E(eV)
   0   2.0000     -18.942660      -515.4560
   1   2.0000     -10.075911      -274.1795
   2   2.0000     -10.024174      -272.7716
   3   2.0000     -10.021206      -272.6909
   4   2.0000     -10.020964      -272.6843
   5   2.0000     -10.018483      -272.6168
   6   2.0000      -0.981022       -26.6950
   7   2.0000      -0.795670       -21.6513
   8   2.0000      -0.677647       -18.4397
   9   2.0000      -0.662876       -18.0378
  10   2.0000      -0.542874       -14.7724
  11   2.0000      -0.527852       -14.3636
  12   2.0000      -0.486478       -13.2377
  13   2.0000      -0.451355       -12.2820
  14   2.0000      -0.416196       -11.3253
  15   2.0000      -0.387075       -10.5328
  16   2.0000      -0.368650       -10.0315
  17   2.0000      -0.337981        -9.1969
  18   2.0000      -0.311466        -8.4754
  19   2.0000      -0.307356        -8.3636
  20   2.0000      -0.303110        -8.2481
  21   2.0000      -0.294245        -8.0068
  22   2.0000      -0.277776        -7.5587
  23   2.0000      -0.227945        -6.2027
  24   0.0000       0.060707         1.6519
  25   0.0000       0.088612         2.4112
  26   0.0000       0.103192         2.8080
  27   0.0000       0.129171         3.5149
  28   0.0000       0.139848         3.8055

MULLIKEN ATOMIC CHARGES
-----------------------
   0 C :   -0.276028
   1 C :   -0.285234
   2 C :   -0.345748
   3 C :    0.044081
   4 C :   -0.365522
   5 O :   -0.431187
   6 H :    0.150106
   7 H :    0.151133
   8 H :    0.149158
   9 H :    0.155464
  10 H :    0.148346
  11 H :    0.168984
  12 H :    0.136722
  13 H :    0.148921
  14 H :    0.167079
  15 H :    0.283726
Sum of atomic charges:    0.0000000

LOEWDIN ATOMIC CHARGES
----------------------
   0 C :   -0.299675
   1 C :   -0.300810
   2 C :   -0.272178
   3 C :    0.066075
   4 C :   -0.291285
   5 O :   -0.619459
   6 H :    0.155087
   7 H :    0.156502
   8 H :    0.155627
   9 H :    0.157781
  10 H :    0.159541
  11 H :    0.178125
  12 H :    0.161475
  13 H :    0.156370
  14 H :    0.170067
  15 H :    0.266757

  Mayer bond orders larger than 0.100000
B(  0-C ,  1-C ) :   0.8952 B(  0-C ,  4-C ) :   0.9095 B(  0-C ,  6-H ) :   0.9865
B(  0-C ,  7-H ) :   0.9566 B(  1-C ,  2-C ) :   0.9251 B(  1-C ,  8-H ) :   0.9544
B(  1-C ,  9-H ) :   0.9885 B(  2-C ,  3-C ) :   0.9654 B(  2-C , 10-H ) :   0.9736
B(  2-C , 11-H ) :   0.9662 B(  3-C ,  4-C ) :   0.9295 B(  3-C ,  5-O ) :   0.9174
B(  3-C , 12-H ) :   0.9634 B(  4-C , 13-H ) :   0.9520 B(  4-C , 14-H ) :   1.0001
B(  5-O , 15-H ) :   0.9029

Dispersion correction           -0.003948203
FINAL SINGLE POINT ENERGY      -271.697121149421

DIPOLE MOMENT
-------------

Method             : SCF
Type of density    : Electron Density
Multiplicity       :   1
Irrep              :   0
Energy             :  -271.7007875125004830 Eh
Relativity type    :
Basis              : AO
                                X                 Y                 Z
Electronic contribution:      3.198103145      -0.370846068      -0.354660407
Nuclear contribution   :     -3.348339320       0.819503213       0.665964270
                        -----------------------------------------
Total Dipole Moment    :     -0.150236175       0.448657145       0.311303863
                        -----------------------------------------
Magnitude (a.u.)       :      0.566369347
Magnitude (Debye)      :      1.439596474

Rotational constants in cm-1:             0.202160             0.106229             0.080680
Rotational constants in MHz :          6060.610810          3184.680009          2418.734719

                             ****ORCA TERMINATED NORMALLY****
TOTAL RUN TIME: 0 days 0 hours 0 minutes 20 seconds 170 msec
