                         Program Version 6.0.0  -   RELEASE  -
|  1> ! r2scan-3c def2/J RI DEFGRID2 scfconv6 printgap
|  2> %output
|  3>     printlevel normal
|  4> end
|  5> %cpcm
|  6>     smd true
|  7>     smdsolvent "water"
|  8> end
|  9> * xyz 0 1
| 10> C -1.5013743566 0.7544213832 0.0815179136
| 11> C -1.3908844263 -0.6710935019 -0.4523095518
| 12> C -0.1339277464 -1.2107553281 0.2331264314
| 13> C 0.7830948428 0.0086164629 0.4583803819
| 14> C -0.0544711189 1.2391534967 0.0535152526
| 15> O 1.9515950697 -0.1455160973 -0.3259836136
| 16> H -1.8713385 0.7402816948 1.1078080492
| 17> H -2.1601137811 1.3801868022 -0.5178937533
| 18> H -2.2696605236 -1.2742227247 -0.2326325545
| 19> H -1.2463529474 -0.6475926539 -1.5329297197
| 20> H -0.3861302248 -1.6675486602 1.1891236381
| 21> H 0.3893436708 -1.9471293769 -0.374380112
| 22> H 1.0724384255 0.0722249793 1.517772896
| 23> H 0.1171468619 2.0915194643 0.7089194329
| 24> H 0.2192333063 1.5169557955 -0.9659468791
| 25> H 2.535549495 0.6111420462 -0.1848290315
| 26> *
| 27>
| 28>                          ****END OF INPUT****

CARTESIAN COORDINATES (ANGSTROEM)
---------------------------------
  C     -1.501374    0.754421    0.081518
  C     -1.390884   -0.671094   -0.452310
  C     -0.133928   -1.210755    0.233126
  C      0.783095    0.008616    0.458380
  C     -0.054471    1.239153    0.053515
  O      1.951595   -0.145516   -0.325984
  H     -1.871338    0.740282    1.107808
  H     -2.160114    1.380187   -0.517894
  H     -2.269661   -1.274223   -0.232633
  H     -1.246353   -0.647593   -1.532930
  H     -0.386130   -1.667549    1.189124
  H      0.389344   -1.947129   -0.374380
  H      1.072438    0.072225    1.517773
  H      0.117147    2.091519    0.708919
  H      0.219233    1.516956   -0.965947
  H      2.535549    0.611142   -0.184829

 Total Charge           Charge          ....    0
 Multiplicity           Mult            ....    1
 Number of Electrons    NEL             ....   48
 Basis Dimension        Dim             ....  169

ORBITAL ENERGIES
----------------

  NO   OCC          E(Eh)            E(eV)
   0   2.0000     -18.947106      -515.5770
   1   2.0000     -10.071585      -274.0618
   2   2.0000     -10.015662      -272.5400
   3   2.0000     -10.014739      -272.5149
   4   2.0000     -10.014219      -272.5008
   5   2.0000     -10.013044      -272.4688
   6   2.0000      -0.984289       -26.7839
   7   2.0000      -0.789652       -21.4875
   8   2.0000      -0.671769       -18.2798
   9   2.0000      -0.657606       -17.8944
  10   2.0000      -0.536523       -14.5995
  11   2.0000      -0.524047       -14.2600
  12   2.0000      -0.483155       -13.1473
  13   2.0000      -0.445394       -12.1198
  14   2.0000      -0.409968       -11.1558
  15   2.0000      -0.381959       -10.3936
  16   2.0000      -0.368138       -10.0175
  17   2.0000      -0.338079        -9.1996
  18   2.0000      -0.306655        -8.3445
  19   2.0000      -0.299922        -8.1613
  20   2.0000      -0.297008        -8.0820
  21   2.0000      -0.287038        -7.8107
  22   2.0000      -0.277170        -7.5422
  23   2.0000      -0.231988        -6.3127
  24   0.0000       0.073929         2.0117
  25   0.0000       0.097128         2.6430
  26   0.0000       0.114438         3.1140
  27   0.0000       0.134556         3.6615
  28   0.0000       0.145007         3.9458

MULLIKEN ATOMIC CHARGES
-----------------------
   0 C :   -0.286386
   1 C :   -0.304858
   2 C :   -0.361843
   3 C :    0.048337
   4 C :   -0.374338
   5 O :   -0.519015
   6 H :    0.162390
   7 H :    0.160713
   8 H :    0.159223
   9 H :    0.162414
  10 H :    0.165148
  11 H :    0.164920
  12 H :    0.152151
  13 H :    0.164277
  14 H :    0.167994
  15 H :    0.338874
Sum of atomic charges:    0.0000000

LOEWDIN ATOMIC CHARGES
----------------------
   0 C :   -0.302456
   1 C :   -0.304141
   2 C :   -0.278689
   3 C :    0.067228
   4 C :   -0.288613
   5 O :   -0.655888
   6 H :    0.159035
   7 H :    0.159254
   8 H :    0.158604
   9 H :    0.158775
  10 H :    0.165214
  11 H :    0.174254
  12 H :    0.169511
  13 H :    0.162197
  14 H :    0.170634
  15 H :    0.285081

  Mayer bond orders larger than 0.100000
B(  0-C ,  1-C ) :   0.8891 B(  0-C ,  4-C ) :   0.9024 B(  0-C ,  6-H ) :   0.9827
B(  0-C ,  7-H ) :   0.9554 B(  1-C ,  2-C ) :   0.9244 B(  1-C ,  8-H ) :   0.9517
B(  1-C ,  9-H ) :   0.9889 B(  2-C ,  3-C ) :   0.9612 B(  2-C , 10-H ) :   0.9687
B(  2-C , 11-H ) :   0.9678 B(  3-C ,  4-C ) :   0.9488 B(  3-C ,  5-O ) :   0.9000
B(  3-C , 12-H ) :   0.9586 B(  4-C , 13-H ) :   0.9497 B(  4-C , 14-H ) :   0.9973
B(  5-O , 15-H ) :   0.8767

Dispersion correction           -0.003948203
FINAL SINGLE POINT ENERGY      -271.704176496779

DIPOLE MOMENT
-------------

Method             : SCF
Type of density    : Electron Density
Multiplicity       :   1
Irrep              :   0
Energy             :  -271.7078428598576920 Eh
Relativity type    :
Basis              : AO
                                X                 Y                 Z
Electronic contribution:      3.131769092      -0.153129587      -0.176693227
Nuclear contribution   :     -3.348339320       0.819503213       0.665964270
                        -----------------------------------------
Total Dipole Moment    :     -0.216570228       0.666373626       0.489271043
                        -----------------------------------------
Magnitude (a.u.)       :      0.854600858
Magnitude (Debye)      :      2.172222752

Rotational constants in cm-1:             0.202160             0.106229             0.080680
Rotational constants in MHz :          6060.610810          3184.680009          2418.734719

                             ****ORCA TERMINATED NORMALLY****
TOTAL RUN TIME: 0 days 0 hours 0 minutes 23 seconds 823 msec
