                         Program Version 6.0.0  -   RELEASE  -
|  1> ! pbe def2-sv(p) def2/J RI DEFGRID1 loosescf d4 GCP(DFT/SV(P)) printgap
|  2> %output
|  3>     printlevel normal
|  4> end
|  5> * xyz 0 1
|  6> C -2.9730487891 1.2547324347 -0.000766692
|  7> C -1.7489545518 0.3889931194 0.0005425107
|  8> C -1.8366462659 -0.9905439103 0.0004683122
|  9> C -0.6888516284 -1.7697801601 0.0001398531
| 10> C 0.5628157994 -1.1841548795 -0.0001148914
| 11> C 0.6666380739 0.2197322621 -2.96028e-05
| 12> C -0.4876631154 0.9822530416 0.0003075569
| 13> O 1.9421114798 0.7177486019 -0.0002036314
| 14> C 2.1130654548 2.1200525512 0.0003985076
| 15> O 1.7198377166 -1.9091143588 -0.0003394797
| 16> H -2.9742500319 1.9110165441 0.8676730273
| 17> H -2.9933554757 1.8799164704 -0.8918229382
| 18> H -3.8736098849 0.6479220682 0.019219296
| 19> H -2.8023510085 -1.472140426 0.0006442019
| 20> H -0.7709094555 -2.846820131 0.0001524417
| 21> H -0.4252216682 2.0587693177 0.0003839422
| 22> H 1.6768947623 2.5713468991 0.8958896407
| 23> H 1.675571298 2.5724058379 -0.8938982341
| 24> H 3.189611689 2.2752172203 -0.0003316411
| 25> H 1.5143767861 -2.8563998958 -0.0005564284
| 26> *
| 27>
| 28>                          ****END OF INPUT****

CARTESIAN COORDINATES (ANGSTROEM)
---------------------------------
  C     -2.973049    1.254732   -0.000767
  C     -1.748955    0.388993    0.000543
  C     -1.836646   -0.990544    0.000468
  C     -0.688852   -1.769780    0.000140
  C      0.562816   -1.184155   -0.000115
  C      0.666638    0.219732   -0.000030
  C     -0.487663    0.982253    0.000308
  O      1.942111    0.717749   -0.000204
  C      2.113065    2.120053    0.000399
  O      1.719838   -1.909114   -0.000339
  H     -2.974250    1.911017    0.867673
  H     -2.993355    1.879916   -0.891823
  H     -3.873610    0.647922    0.019219
  H     -2.802351   -1.472140    0.000644
  H     -0.770909   -2.846820    0.000152
  H     -0.425222    2.058769    0.000384
  H      1.676895    2.571347    0.895890
  H      1.675571    2.572406   -0.893898
  H      3.189612    2.275217   -0.000332
  H      1.514377   -2.856400   -0.000556

 Total Charge           Charge          ....    0
 Multiplicity           Mult            ....    1
 Number of Electrons    NEL             ....   74
 Basis Dimension        Dim             ....  160

ORBITAL ENERGIES
----------------

  NO   OCC          E(Eh)            E(eV)
   0   2.0000     -18.779341      -511.0119
   1   2.0000     -18.774813      -510.8886
   2   2.0000      -9.943323      -270.5716
   3   2.0000      -9.942873      -270.5593
   4   2.0000      -9.935952      -270.3710
   5   2.0000      -9.889815      -269.1155
   6   2.0000      -9.884724      -268.9770
   7   2.0000      -9.881858      -268.8990
   8   2.0000      -9.878572      -268.8096
   9   2.0000      -9.877568      -268.7823
  10   2.0000      -0.966374       -26.2964
  11   2.0000      -0.946894       -25.7663
  12   2.0000      -0.767742       -20.8913
  13   2.0000      -0.690807       -18.7978
  14   2.0000      -0.671512       -18.2728
  15   2.0000      -0.630412       -17.1544
  16   2.0000      -0.601693       -16.3729
  17   2.0000      -0.552517       -15.0348
  18   2.0000      -0.518392       -14.1062
  19   2.0000      -0.492976       -13.4146
  20   2.0000      -0.456081       -12.4106
  21   2.0000      -0.439159       -11.9501
  22   2.0000      -0.416024       -11.3206
  23   2.0000      -0.402291       -10.9469
  24   2.0000      -0.386895       -10.5280
  25   2.0000      -0.373486       -10.1631
  26   2.0000      -0.370988       -10.0951
  27   2.0000      -0.353430        -9.6173
  28   2.0000      -0.349293        -9.5048
  29   2.0000      -0.329846        -8.9756
  30   2.0000      -0.310110        -8.4385
  31   2.0000      -0.295843        -8.0503
  32   2.0000      -0.289625        -7.8811
  33   2.0000      -0.274943        -7.4816
  34   2.0000      -0.268468        -7.3054
  35   2.0000      -0.204752        -5.5716
  36   2.0000      -0.170859        -4.6493
  37   0.0000      -0.020732        -0.5641
  38   0.0000      -0.007465        -0.2031
  39   0.0000       0.027133         0.7383
  40   0.0000       0.044150         1.2014
  41   0.0000       0.057822         1.5734

MULLIKEN ATOMIC CHARGES
-----------------------
   0 C :   -0.222171
   1 C :    0.083676
   2 C :   -0.126727
   3 C :   -0.189695
   4 C :    0.197109
   5 C :    0.231219
   6 C :   -0.305271
   7 O :   -0.265154
   8 C :   -0.110556
   9 O :   -0.330889
  10 H :    0.108801
  11 H :    0.109489
  12 H :    0.097498
  13 H :    0.027804
  14 H :    0.019169
  15 H :    0.019463
  16 H :    0.107914
  17 H :    0.107937
  18 H :    0.125007
  19 H :    0.315379
Sum of atomic charges:   -0.0000000

LOEWDIN ATOMIC CHARGES
----------------------
   0 C :   -0.321884
   1 C :   -0.062582
   2 C :   -0.142751
   3 C :   -0.175476
   4 C :    0.005411
   5 C :    0.015776
   6 C :   -0.171946
   7 O :   -0.087806
   8 C :   -0.201549
   9 O :   -0.233775
  10 H :    0.127715
  11 H :    0.128061
  12 H :    0.122786
  13 H :    0.119194
  14 H :    0.119875
  15 H :    0.124319
  16 H :    0.107782
  17 H :    0.107771
  18 H :    0.122209
  19 H :    0.296870

  Mayer bond orders larger than 0.100000
B(  0-C ,  1-C ) :   1.0952 B(  0-C , 10-H ) :   0.9377 B(  0-C , 11-H ) :   0.9373
B(  0-C , 12-H ) :   0.9461 B(  1-C ,  2-C ) :   1.4222 B(  1-C ,  6-C ) :   1.2917
B(  2-C ,  3-C ) :   1.2965 B(  2-C , 13-H ) :   0.9614 B(  3-C ,  4-C ) :   1.3599
B(  3-C , 14-H ) :   0.9650 B(  4-C ,  5-C ) :   1.3343 B(  4-C ,  9-O ) :   1.2111
B(  5-C ,  6-C ) :   1.3202 B(  5-C ,  7-O ) :   1.1646 B(  6-C , 15-H ) :   0.9707
B(  7-O ,  8-C ) :   0.9947 B(  8-C , 16-H ) :   0.9409 B(  8-C , 17-H ) :   0.9409
B(  8-C , 18-H ) :   0.9585 B(  9-O , 19-H ) :   0.8424

Dispersion correction           -0.020038140
FINAL SINGLE POINT ENERGY      -460.305380304689

DIPOLE MOMENT
-------------

Method             : SCF
Type of density    : Electron Density
Multiplicity       :   1
Irrep              :   0
Energy             :  -460.3723842184232353 Eh
Relativity type    :
Basis              : AO
                                X                 Y                 Z
Electronic contribution:      5.188400905      -6.219588245       0.001151998
Nuclear contribution   :     -5.371405357       6.306768824      -0.002491093
                        -----------------------------------------
Total Dipole Moment    :     -0.183004452       0.087180579      -0.001339095
                        -----------------------------------------
Magnitude (a.u.)       :      0.202713778
Magnitude (Debye)      :      0.515257477

Rotational constants in cm-1:             0.061998             0.039608             0.024390
Rotational constants in MHz :          1858.641577          1187.414498           731.193744

                             ****ORCA TERMINATED NORMALLY****
TOTAL RUN TIME: 0 days 0 hours 0 minutes 9 seconds 960 msec
