                         Program Version 6.0.0  -   RELEASE  -
|  1> ! pbe def2-sv(p) def2/J RI DEFGRID1 loosescf d4 GCP(DFT/SV(P)) printgap
|  2> %output
|  3>     printlevel normal
|  4> end
|  5> * xyz 0 1
|  6> C 2.3524656412 -0.6539723749 0.170473309
|  7> C 0.8616219518 -0.5049621246 0.467124758
|  8> H 0.6872726675 -0.8561527138 1.4923115154
|  9> C 0.0316963727 -1.3858908512 -0.4688448384
| 10> C -1.4532458346 -1.2982469112 -0.1306730128
| 11> C -1.9317965551 0.1481891931 -0.1968808267
| 12> C -1.1033539722 1.0244943968 0.7381118601
| 13> C 0.3955689577 0.9615883173 0.4186306009
| 14> H 0.9262051053 1.5023919942 1.2129294928
| 15> C 0.716588011 1.6680860135 -0.8981165099
| 16> H 2.9356253615 0.0227246769 0.7911653074
| 17> H 2.6745713899 -1.6722120839 0.3772689755
| 18> H 2.5640334966 -0.4390220572 -0.8736086058
| 19> H 0.1906475266 -1.0789167895 -1.5039699013
| 20> H 0.3689370836 -2.4210993685 -0.3789036149
| 21> H -2.0297160471 -1.9153184154 -0.8231482189
| 22> H -1.6166179406 -1.6857748341 0.8781614585
| 23> H -1.8478247449 0.515100217 -1.2208108471
| 24> H -2.9844067553 0.2043097276 0.0889883813
| 25> H -1.4467362734 2.0594436967 0.6763252039
| 26> H -1.2584249533 0.6851581818 1.7657186878
| 27> H 1.7907560219 1.7627633129 -1.0304402322
| 28> H 0.2891211499 2.6686376549 -0.8902092847
| 29> H 0.3111755646 1.1331537773 -1.7513826048
| 30> *
| 31>
| 32>                          ****END OF INPUT****

CARTESIAN COORDINATES (ANGSTROEM)
---------------------------------
  C      2.352466   -0.653972    0.170473
  C      0.861622   -0.504962    0.467125
  H      0.687273   -0.856153    1.492312
  C      0.031696   -1.385891   -0.468845
  C     -1.453246   -1.298247   -0.130673
  C     -1.931797    0.148189   -0.196881
  C     -1.103354    1.024494    0.738112
  C      0.395569    0.961588    0.418631
  H      0.926205    1.502392    1.212929
  C      0.716588    1.668086   -0.898117
  H      2.935625    0.022725    0.791165
  H      2.674571   -1.672212    0.377269
  H      2.564033   -0.439022   -0.873609
  H      0.190648   -1.078917   -1.503970
  H      0.368937   -2.421099   -0.378904
  H     -2.029716   -1.915318   -0.823148
  H     -1.616618   -1.685775    0.878161
  H     -1.847825    0.515100   -1.220811
  H     -2.984407    0.204310    0.088988
  H     -1.446736    2.059444    0.676325
  H     -1.258425    0.685158    1.765719
  H      1.790756    1.762763   -1.030440
  H      0.289121    2.668638   -0.890209
  H      0.311176    1.133154   -1.751383

 Total Charge           Charge          ....    0
 Multiplicity           Mult            ....    1
 Number of Electrons    NEL             ....   64
 Basis Dimension        Dim             ....  144

ORBITAL ENERGIES
----------------

  NO   OCC          E(Eh)            E(eV)
   0   2.0000      -9.885796      -269.0062
   1   2.0000      -9.885566      -268.9999
   2   2.0000      -9.875804      -268.7343
   3   2.0000      -9.875534      -268.7269
   4   2.0000      -9.874737      -268.7052
   5   2.0000      -9.874599      -268.7015
   6   2.0000      -9.868571      -268.5375
   7   2.0000      -9.868344      -268.5313
   8   2.0000      -0.757449       -20.6112
   9   2.0000      -0.685002       -18.6399
  10   2.0000      -0.675399       -18.3785
  11   2.0000      -0.616215       -16.7681
  12   2.0000      -0.586422       -15.9573
  13   2.0000      -0.530812       -14.4441
  14   2.0000      -0.514242       -13.9932
  15   2.0000      -0.468000       -12.7349
  16   2.0000      -0.428698       -11.6655
  17   2.0000      -0.408633       -11.1195
  18   2.0000      -0.387682       -10.5494
  19   2.0000      -0.385157       -10.4807
  20   2.0000      -0.366036        -9.9603
  21   2.0000      -0.353815        -9.6278
  22   2.0000      -0.341721        -9.2987
  23   2.0000      -0.332990        -9.0611
  24   2.0000      -0.320244        -8.7143
  25   2.0000      -0.309032        -8.4092
  26   2.0000      -0.297717        -8.1013
  27   2.0000      -0.292086        -7.9481
  28   2.0000      -0.282398        -7.6844
  29   2.0000      -0.265671        -7.2293
  30   2.0000      -0.249076        -6.7777
  31   2.0000      -0.247221        -6.7272
  32   0.0000       0.030312         0.8248
  33   0.0000       0.046562         1.2670
  34   0.0000       0.060756         1.6533
  35   0.0000       0.068661         1.8684
  36   0.0000       0.090507         2.4628

MULLIKEN ATOMIC CHARGES
-----------------------
   0 C :   -0.213022
   1 C :   -0.162483
   2 H :    0.058917
   3 C :   -0.137809
   4 C :   -0.127704
   5 C :   -0.165028
   6 C :   -0.112551
   7 C :   -0.131264
   8 H :    0.059294
   9 C :   -0.268144
  10 H :    0.094260
  11 H :    0.093814
  12 H :    0.097632
  13 H :    0.075723
  14 H :    0.077110
  15 H :    0.080859
  16 H :    0.068268
  17 H :    0.078889
  18 H :    0.082147
  19 H :    0.077059
  20 H :    0.068265
  21 H :    0.103587
  22 H :    0.096211
  23 H :    0.105968
Sum of atomic charges:    0.0000000

LOEWDIN ATOMIC CHARGES
----------------------
   0 C :   -0.329006
   1 C :   -0.144729
   2 H :    0.112647
   3 C :   -0.218795
   4 C :   -0.224027
   5 C :   -0.228325
   6 C :   -0.216823
   7 C :   -0.143946
   8 H :    0.112766
   9 C :   -0.333920
  10 H :    0.116218
  11 H :    0.117532
  12 H :    0.116468
  13 H :    0.113051
  14 H :    0.114917
  15 H :    0.114358
  16 H :    0.112701
  17 H :    0.114034
  18 H :    0.116044
  19 H :    0.112461
  20 H :    0.112620
  21 H :    0.119498
  22 H :    0.119343
  23 H :    0.114913

  Mayer bond orders larger than 0.100000
B(  0-C ,  1-C ) :   1.1179 B(  0-C , 10-H ) :   0.9474 B(  0-C , 11-H ) :   0.9465
B(  0-C , 12-H ) :   0.9405 B(  1-C ,  2-H ) :   0.8908 B(  1-C ,  3-C ) :   1.0891
B(  1-C ,  7-C ) :   1.0496 B(  3-C ,  4-C ) :   1.1363 B(  3-C , 13-H ) :   0.9076
B(  3-C , 14-H ) :   0.9150 B(  4-C ,  5-C ) :   1.1346 B(  4-C , 15-H ) :   0.9194
B(  4-C , 16-H ) :   0.9104 B(  5-C ,  6-C ) :   1.1323 B(  5-C , 17-H ) :   0.9153
B(  5-C , 18-H ) :   0.9176 B(  6-C ,  7-C ) :   1.0976 B(  6-C , 19-H ) :   0.9168
B(  6-C , 20-H ) :   0.9093 B(  7-C ,  8-H ) :   0.8890 B(  7-C ,  9-C ) :   1.1000
B(  9-C , 21-H ) :   0.9429 B(  9-C , 22-H ) :   0.9470 B(  9-C , 23-H ) :   0.9421

Dispersion correction           -0.023128324
FINAL SINGLE POINT ENERGY      -313.703038220561

DIPOLE MOMENT
-------------

Method             : SCF
Type of density    : Electron Density
Multiplicity       :   1
Irrep              :   0
Energy             :  -313.7834669291819978 Eh
Relativity type    :
Basis              : AO
                                X                 Y                 Z
Electronic contribution:     -1.460373162      -0.455933364       1.135846914
Nuclear contribution   :      1.458485761       0.455184489      -1.116042774
                        -----------------------------------------
Total Dipole Moment    :     -0.001887401      -0.000748875       0.019804140
                        -----------------------------------------
Magnitude (a.u.)       :      0.019907964
Magnitude (Debye)      :      0.050602024

Rotational constants in cm-1:             0.089149             0.064226             0.046329
Rotational constants in MHz :          2672.633102          1925.453827          1388.906702

                             ****ORCA TERMINATED NORMALLY****
TOTAL RUN TIME: 0 days 0 hours 0 minutes 10 seconds 523 msec
