                         Program Version 6.0.0  -   RELEASE  -
|  1> ! r2scan-3c def2/J RI DEFGRID2 scfconv6 printgap
|  2> %output
|  3>     printlevel normal
|  4> end
|  5> * xyz 0 1
|  6> C -2.6762108421 -1.683769931 0.8299933043
|  7> C -2.3237607481 -1.0065406673 -0.4971466628
|  8> C -1.2963250252 0.0726482911 -0.2937022333
|  9> C -1.7067821775 1.3780310046 -0.188433227
| 10> C -0.7997940793 2.4214794794 0.0402655033
| 11> C 0.5327648011 2.1535600675 0.1665780004
| 12> C 1.0062718532 0.8288874499 0.0671425198
| 13> C 0.08683788 -0.2311362765 -0.1652282959
| 14> C 0.6012361432 -1.5434363136 -0.2595792355
| 15> C 1.9388655903 -1.7934235922 -0.1270973629
| 16> C 2.8405800404 -0.7448765441 0.105665881
| 17> C 2.380761217 0.5377537597 0.198024476
| 18> H -3.0770619698 -0.9520857337 1.5278003576
| 19> H -1.794309008 -2.1332347269 1.279799437
| 20> H -3.4222256426 -2.4588083091 0.6722396823
| 21> H -3.2279435411 -0.5615185204 -0.9168068617
| 22> H -1.9620547444 -1.7516608674 -1.206905941
| 23> H -2.7573915385 1.6134460033 -0.2840990545
| 24> H -1.1660160464 3.4347061208 0.1155153358
| 25> H 1.2436754061 2.9473783071 0.3448121034
| 26> H -0.0704437622 -2.3674615395 -0.4402495281
| 27> H 2.3103442433 -2.8048533156 -0.2020663171
| 28> H 3.8939492692 -0.9595373257 0.2079465113
| 29> H 3.064734079 1.3558665629 0.3739526421
| 30> *
| 31>
| 32>                          ****END OF INPUT****

CARTESIAN COORDINATES (ANGSTROEM)
---------------------------------
  C     -2.676211   -1.683770    0.829993
  C     -2.323761   -1.006541   -0.497147
  C     -1.296325    0.072648   -0.293702
  C     -1.706782    1.378031   -0.188433
  C     -0.799794    2.421479    0.040266
  C      0.532765    2.153560    0.166578
  C      1.006272    0.828887    0.067143
  C      0.086838   -0.231136   -0.165228
  C      0.601236   -1.543436   -0.259579
  C      1.938866   -1.793424   -0.127097
  C      2.840580   -0.744877    0.105666
  C      2.380761    0.537754    0.198024
  H     -3.077062   -0.952086    1.527800
  H     -1.794309   -2.133235    1.279799
  H     -3.422226   -2.458808    0.672240
  H     -3.227944   -0.561519   -0.916807
  H     -1.962055   -1.751661   -1.206906
  H     -2.757392    1.613446   -0.284099
  H     -1.166016    3.434706    0.115515
  H      1.243675    2.947378    0.344812
  H     -0.070444   -2.367462   -0.440250
  H      2.310344   -2.804853   -0.202066
  H      3.893949   -0.959537    0.207947
  H      3.064734    1.355867    0.373953

 Total Charge           Charge          ....    0
 Multiplicity           Mult            ....    1
 Number of Electrons    NEL             ....   84
 Basis Dimension        Dim             ....  288

ORBITAL ENERGIES
----------------

  NO   OCC          E(Eh)            E(eV)
   0   2.0000     -10.044258      -273.3181
   1   2.0000     -10.043650      -273.3016
   2   2.0000     -10.042910      -273.2815
   3   2.0000     -10.035735      -273.0862
   4   2.0000     -10.035568      -273.0817
   5   2.0000     -10.035324      -273.0750
   6   2.0000     -10.035193      -273.0715
   7   2.0000     -10.034755      -273.0596
   8   2.0000     -10.033573      -273.0274
   9   2.0000     -10.032323      -272.9934
  10   2.0000     -10.030966      -272.9565
  11   2.0000     -10.021804      -272.7072
  12   2.0000      -0.847248       -23.0548
  13   2.0000      -0.795936       -21.6585
  14   2.0000      -0.764937       -20.8150
  15   2.0000      -0.719221       -19.5710
  16   2.0000      -0.711491       -19.3606
  17   2.0000      -0.681341       -18.5402
  18   2.0000      -0.605920       -16.4879
  19   2.0000      -0.588728       -16.0201
  20   2.0000      -0.582782       -15.8583
  21   2.0000      -0.541864       -14.7449
  22   2.0000      -0.484521       -13.1845
  23   2.0000      -0.476307       -12.9610
  24   2.0000      -0.465277       -12.6608
  25   2.0000      -0.428041       -11.6476
  26   2.0000      -0.415957       -11.3188
  27   2.0000      -0.401889       -10.9359
  28   2.0000      -0.391902       -10.6642
  29   2.0000      -0.382166       -10.3993
  30   2.0000      -0.374655       -10.1949
  31   2.0000      -0.367599       -10.0029
  32   2.0000      -0.354344        -9.6422
  33   2.0000      -0.341554        -9.2942
  34   2.0000      -0.331523        -9.0212
  35   2.0000      -0.318828        -8.6758
  36   2.0000      -0.305290        -8.3074
  37   2.0000      -0.300954        -8.1894
  38   2.0000      -0.289485        -7.8773
  39   2.0000      -0.260512        -7.0889
  40   2.0000      -0.231268        -6.2931
  41   2.0000      -0.199132        -5.4186
  42   0.0000      -0.065629        -1.7859
  43   0.0000      -0.035390        -0.9630
  44   0.0000       0.000280         0.0076
  45   0.0000       0.064746         1.7618
  46   0.0000       0.074346         2.0231

MULLIKEN ATOMIC CHARGES
-----------------------
   0 C :   -0.459269
   1 C :   -0.323440
   2 C :    0.154062
   3 C :   -0.217536
   4 C :   -0.158266
   5 C :   -0.257943
   6 C :    0.154970
   7 C :    0.175114
   8 C :   -0.292201
   9 C :   -0.159378
  10 C :   -0.157316
  11 C :   -0.218164
  12 H :    0.149176
  13 H :    0.154403
  14 H :    0.149599
  15 H :    0.147121
  16 H :    0.148707
  17 H :    0.146352
  18 H :    0.143781
  19 H :    0.143060
  20 H :    0.144018
  21 H :    0.144713
  22 H :    0.145206
  23 H :    0.143230
Sum of atomic charges:   -0.0000000

LOEWDIN ATOMIC CHARGES
----------------------
   0 C :   -0.405467
   1 C :   -0.288248
   2 C :   -0.071001
   3 C :   -0.162745
   4 C :   -0.160827
   5 C :   -0.151122
   6 C :   -0.055271
   7 C :   -0.048919
   8 C :   -0.148935
   9 C :   -0.164227
  10 C :   -0.165796
  11 C :   -0.143192
  12 H :    0.155030
  13 H :    0.155453
  14 H :    0.149963
  15 H :    0.162380
  16 H :    0.160525
  17 H :    0.168673
  18 H :    0.167599
  19 H :    0.169935
  20 H :    0.171034
  21 H :    0.167244
  22 H :    0.167558
  23 H :    0.170355

  Mayer bond orders larger than 0.100000
B(  0-C ,  1-C ) :   0.9279 B(  0-C , 12-H ) :   0.9748 B(  0-C , 13-H ) :   0.9770
B(  0-C , 14-H ) :   0.9744 B(  1-C ,  2-C ) :   0.7857 B(  1-C , 15-H ) :   0.9790
B(  1-C , 16-H ) :   0.9888 B(  2-C ,  3-C ) :   1.4577 B(  2-C ,  7-C ) :   1.2756
B(  3-C ,  4-C ) :   1.2988 B(  3-C , 17-H ) :   0.9297 B(  4-C ,  5-C ) :   1.5103
B(  4-C , 18-H ) :   0.9496 B(  5-C ,  6-C ) :   1.1784 B(  5-C , 19-H ) :   0.9493
B(  6-C ,  7-C ) :   1.4625 B(  6-C , 11-C ) :   1.1720 B(  7-C ,  8-C ) :   1.2154
B(  8-C ,  9-C ) :   1.5270 B(  8-C , 20-H ) :   0.9422 B(  9-C , 10-C ) :   1.2757
B(  9-C , 21-H ) :   0.9478 B( 10-C , 11-C ) :   1.5111 B( 10-C , 22-H ) :   0.9502
B( 11-C , 23-H ) :   0.9497

Dispersion correction           -0.009729692
FINAL SINGLE POINT ENERGY      -464.384325189668

DIPOLE MOMENT
-------------

Method             : SCF
Type of density    : Electron Density
Multiplicity       :   1
Irrep              :   0
Energy             :  -464.3813194866817184 Eh
Relativity type    :
Basis              : AO
                                X                 Y                 Z
Electronic contribution:      6.405274049       4.247648286      -1.366024609
Nuclear contribution   :     -6.534107679      -4.351006773       1.380927255
                        -----------------------------------------
Total Dipole Moment    :     -0.128833630      -0.103358487       0.014902646
                        -----------------------------------------
Magnitude (a.u.)       :      0.165840797
Magnitude (Debye)      :      0.421533805

Rotational constants in cm-1:             0.047010             0.030872             0.019608
Rotational constants in MHz :          1409.317999           925.508530           587.830937

                             ****ORCA TERMINATED NORMALLY****
TOTAL RUN TIME: 0 days 0 hours 0 minutes 32 seconds 792 msec
