                         Program Version 6.0.0  -   RELEASE  -
|  1> ! r2scan-3c def2/J RI DEFGRID2 scfconv6 printgap
|  2> %output
|  3>     printlevel normal
|  4> end
|  5> %cpcm
|  6>     smd true
|  7>     smdsolvent "water"
|  8> end
|  9> * xyz 0 1
| 10> C -2.6762108421 -1.683769931 0.8299933043
| 11> C -2.3237607481 -1.0065406673 -0.4971466628
| 12> C -1.2963250252 0.0726482911 -0.2937022333
| 13> C -1.7067821775 1.3780310046 -0.188433227
| 14> C -0.7997940793 2.4214794794 0.0402655033
| 15> C 0.5327648011 2.1535600675 0.1665780004
| 16> C 1.0062718532 0.8288874499 0.0671425198
| 17> C 0.08683788 -0.2311362765 -0.1652282959
| 18> C 0.6012361432 -1.5434363136 -0.2595792355
| 19> C 1.9388655903 -1.7934235922 -0.1270973629
| 20> C 2.8405800404 -0.7448765441 0.105665881
| 21> C 2.380761217 0.5377537597 0.198024476
| 22> H -3.0770619698 -0.9520857337 1.5278003576
| 23> H -1.794309008 -2.1332347269 1.279799437
| 24> H -3.4222256426 -2.4588083091 0.6722396823
| 25> H -3.2279435411 -0.5615185204 -0.9168068617
| 26> H -1.9620547444 -1.7516608674 -1.206905941
| 27> H -2.7573915385 1.6134460033 -0.2840990545
| 28> H -1.1660160464 3.4347061208 0.1155153358
| 29> H 1.2436754061 2.9473783071 0.3448121034
| 30> H -0.0704437622 -2.3674615395 -0.4402495281
| 31> H 2.3103442433 -2.8048533156 -0.2020663171
| 32> H 3.8939492692 -0.9595373257 0.2079465113
| 33> H 3.064734079 1.3558665629 0.3739526421
| 34> *
| 35>
| 36>                          ****END OF INPUT****

CARTESIAN COORDINATES (ANGSTROEM)
---------------------------------
  C     -2.676211   -1.683770    0.829993
  C     -2.323761   -1.006541   -0.497147
  C     -1.296325    0.072648   -0.293702
  C     -1.706782    1.378031   -0.188433
  C     -0.799794    2.421479    0.040266
  C      0.532765    2.153560    0.166578
  C      1.006272    0.828887    0.067143
  C      0.086838   -0.231136   -0.165228
  C      0.601236   -1.543436   -0.259579
  C      1.938866   -1.793424   -0.127097
  C      2.840580   -0.744877    0.105666
  C      2.380761    0.537754    0.198024
  H     -3.077062   -0.952086    1.527800
  H     -1.794309   -2.133235    1.279799
  H     -3.422226   -2.458808    0.672240
  H     -3.227944   -0.561519   -0.916807
  H     -1.962055   -1.751661   -1.206906
  H     -2.757392    1.613446   -0.284099
  H     -1.166016    3.434706    0.115515
  H      1.243675    2.947378    0.344812
  H     -0.070444   -2.367462   -0.440250
  H      2.310344   -2.804853   -0.202066
  H      3.893949   -0.959537    0.207947
  H      3.064734    1.355867    0.373953

 Total Charge           Charge          ....    0
 Multiplicity           Mult            ....    1
 Number of Electrons    NEL             ....   84
 Basis Dimension        Dim             ....  288

ORBITAL ENERGIES
----------------

  NO   OCC          E(Eh)            E(eV)
   0   2.0000     -10.045005      -273.3385
   1   2.0000     -10.044374      -273.3213
   2   2.0000     -10.043140      -273.2877
   3   2.0000     -10.034094      -273.0416
   4   2.0000     -10.034012      -273.0393
   5   2.0000     -10.033386      -273.0223
   6   2.0000     -10.033031      -273.0127
   7   2.0000     -10.032095      -272.9872
   8   2.0000     -10.030688      -272.9489
   9   2.0000     -10.028773      -272.8968
  10   2.0000     -10.026915      -272.8462
  11   2.0000     -10.013799      -272.4893
  12   2.0000      -0.848361       -23.0851
  13   2.0000      -0.795714       -21.6525
  14   2.0000      -0.762490       -20.7484
  15   2.0000      -0.716099       -19.4860
  16   2.0000      -0.711394       -19.3580
  17   2.0000      -0.678827       -18.4718
  18   2.0000      -0.601983       -16.3808
  19   2.0000      -0.585952       -15.9446
  20   2.0000      -0.581057       -15.8114
  21   2.0000      -0.538178       -14.6446
  22   2.0000      -0.480930       -13.0868
  23   2.0000      -0.472709       -12.8631
  24   2.0000      -0.462668       -12.5898
  25   2.0000      -0.422941       -11.5088
  26   2.0000      -0.410609       -11.1733
  27   2.0000      -0.397706       -10.8221
  28   2.0000      -0.388648       -10.5757
  29   2.0000      -0.378758       -10.3065
  30   2.0000      -0.374811       -10.1991
  31   2.0000      -0.363328        -9.8866
  32   2.0000      -0.351362        -9.5611
  33   2.0000      -0.336477        -9.1560
  34   2.0000      -0.325942        -8.8693
  35   2.0000      -0.312380        -8.5003
  36   2.0000      -0.307097        -8.3565
  37   2.0000      -0.296596        -8.0708
  38   2.0000      -0.285210        -7.7610
  39   2.0000      -0.262565        -7.1448
  40   2.0000      -0.234434        -6.3793
  41   2.0000      -0.201090        -5.4719
  42   0.0000      -0.067170        -1.8278
  43   0.0000      -0.037733        -1.0268
  44   0.0000      -0.001349        -0.0367
  45   0.0000       0.064550         1.7565
  46   0.0000       0.083566         2.2739

MULLIKEN ATOMIC CHARGES
-----------------------
   0 C :   -0.504737
   1 C :   -0.295378
   2 C :    0.105474
   3 C :   -0.228303
   4 C :   -0.195708
   5 C :   -0.272933
   6 C :    0.101619
   7 C :    0.154418
   8 C :   -0.297899
   9 C :   -0.198230
  10 C :   -0.187859
  11 C :   -0.235417
  12 H :    0.158283
  13 H :    0.163191
  14 H :    0.163991
  15 H :    0.163677
  16 H :    0.164809
  17 H :    0.177977
  18 H :    0.175498
  19 H :    0.176898
  20 H :    0.177519
  21 H :    0.177316
  22 H :    0.177863
  23 H :    0.177927
Sum of atomic charges:    0.0000000

LOEWDIN ATOMIC CHARGES
----------------------
   0 C :   -0.410711
   1 C :   -0.288034
   2 C :   -0.077024
   3 C :   -0.170592
   4 C :   -0.170517
   5 C :   -0.162134
   6 C :   -0.070751
   7 C :   -0.063056
   8 C :   -0.153910
   9 C :   -0.173261
  10 C :   -0.174317
  11 C :   -0.152441
  12 H :    0.155887
  13 H :    0.156586
  14 H :    0.155475
  15 H :    0.168497
  16 H :    0.167148
  17 H :    0.180283
  18 H :    0.178459
  19 H :    0.181665
  20 H :    0.183438
  21 H :    0.178353
  22 H :    0.178579
  23 H :    0.182378

  Mayer bond orders larger than 0.100000
B(  0-C ,  1-C ) :   0.9065 B(  0-C , 12-H ) :   0.9751 B(  0-C , 13-H ) :   0.9780
B(  0-C , 14-H ) :   0.9696 B(  1-C ,  2-C ) :   0.8174 B(  1-C , 15-H ) :   0.9702
B(  1-C , 16-H ) :   0.9809 B(  2-C ,  3-C ) :   1.4490 B(  2-C ,  7-C ) :   1.2267
B(  3-C ,  4-C ) :   1.2594 B(  3-C , 17-H ) :   0.9456 B(  4-C ,  5-C ) :   1.4687
B(  4-C , 18-H ) :   0.9662 B(  5-C ,  6-C ) :   1.1762 B(  5-C , 19-H ) :   0.9625
B(  6-C ,  7-C ) :   1.3715 B(  6-C , 11-C ) :   1.1757 B(  7-C ,  8-C ) :   1.2060
B(  8-C ,  9-C ) :   1.4922 B(  8-C , 20-H ) :   0.9536 B(  9-C , 10-C ) :   1.2376
B(  9-C , 21-H ) :   0.9611 B( 10-C , 11-C ) :   1.4738 B( 10-C , 22-H ) :   0.9622
B( 11-C , 23-H ) :   0.9587

Dispersion correction           -0.009729692
FINAL SINGLE POINT ENERGY      -464.387427961362

DIPOLE MOMENT
-------------

Method             : SCF
Type of density    : Electron Density
Multiplicity       :   1
Irrep              :   0
Energy             :  -464.3844222583760484 Eh
Relativity type    :
Basis              : AO
                                X                 Y                 Z
Electronic contribution:      6.331164497       4.169329857      -1.383978973
Nuclear contribution   :     -6.534107679      -4.351006773       1.380927255
                        -----------------------------------------
Total Dipole Moment    :     -0.202943181      -0.181676916      -0.003051717
                        -----------------------------------------
Magnitude (a.u.)       :      0.272399981
Magnitude (Debye)      :      0.692385727

Rotational constants in cm-1:             0.047010             0.030872             0.019608
Rotational constants in MHz :          1409.317999           925.508530           587.830937

                             ****ORCA TERMINATED NORMALLY****
TOTAL RUN TIME: 0 days 0 hours 0 minutes 37 seconds 782 msec
