                         Program Version 6.0.0  -   RELEASE  -
|  1> ! pbe def2-sv(p) def2/J RI DEFGRID1 loosescf d4 GCP(DFT/SV(P)) printgap
|  2> %output
|  3>     printlevel normal
|  4> end
|  5> * xyz 0 1
|  6> C 0.2353199146 1.3747108029 -0.0013662374
|  7> C 1.3082338529 0.483509006 -0.0009961972
|  8> C 1.0728522034 -0.8911041269 -0.0002289948
|  9> C -0.2353299819 -1.3745272863 -0.0001565595
| 10> C -1.3081968034 -0.483402519 -0.000404025
| 11> C -1.0729813972 0.8912810288 -0.000782335
| 12> Cl -2.3898078947 1.9847149084 -3.38912e-05
| 13> Cl -2.9135748001 -1.0768857439 0.0002194427
| 14> Cl -0.5243666983 -3.0614997437 0.0002669182
| 15> Cl 2.3894787551 -1.984724937 0.0001200155
| 16> Cl 2.9137972184 1.0765654596 7.13471e-05
| 17> Cl 0.5245080469 3.0616718784 0.0006890454
| 18> *
| 19>
| 20>                          ****END OF INPUT****

CARTESIAN COORDINATES (ANGSTROEM)
---------------------------------
  C      0.235320    1.374711   -0.001366
  C      1.308234    0.483509   -0.000996
  C      1.072852   -0.891104   -0.000229
  C     -0.235330   -1.374527   -0.000157
  C     -1.308197   -0.483403   -0.000404
  C     -1.072981    0.891281   -0.000782
  Cl    -2.389808    1.984715   -0.000034
  Cl    -2.913575   -1.076886    0.000219
  Cl    -0.524367   -3.061500    0.000267
  Cl     2.389479   -1.984725    0.000120
  Cl     2.913797    1.076565    0.000071
  Cl     0.524508    3.061672    0.000689

 Total Charge           Charge          ....    0
 Multiplicity           Mult            ....    1
 Number of Electrons    NEL             ....  138
 Basis Dimension        Dim             ....  192

ORBITAL ENERGIES
----------------

  NO   OCC          E(Eh)            E(eV)
   0   2.0000    -100.666468     -2739.2738
   1   2.0000    -100.666387     -2739.2717
   2   2.0000    -100.666378     -2739.2714
   3   2.0000    -100.666324     -2739.2699
   4   2.0000    -100.666314     -2739.2697
   5   2.0000    -100.666268     -2739.2684
   6   2.0000      -9.989252      -271.8214
   7   2.0000      -9.989211      -271.8202
   8   2.0000      -9.989209      -271.8202
   9   2.0000      -9.988935      -271.8127
  10   2.0000      -9.988910      -271.8121
  11   2.0000      -9.988907      -271.8120
  12   2.0000      -9.202301      -250.4073
  13   2.0000      -9.202231      -250.4054
  14   2.0000      -9.202223      -250.4052
  15   2.0000      -9.202177      -250.4040
  16   2.0000      -9.202168      -250.4037
  17   2.0000      -9.202135      -250.4028
  18   2.0000      -7.034025      -191.4055
  19   2.0000      -7.034013      -191.4052
  20   2.0000      -7.034007      -191.4051
  21   2.0000      -7.034000      -191.4049
  22   2.0000      -7.033997      -191.4048
  23   2.0000      -7.033985      -191.4045
  24   2.0000      -7.022235      -191.0847
  25   2.0000      -7.022228      -191.0846
  26   2.0000      -7.022225      -191.0845
  27   2.0000      -7.022217      -191.0842
  28   2.0000      -7.022205      -191.0839
  29   2.0000      -7.022200      -191.0838
  30   2.0000      -7.021105      -191.0540
  31   2.0000      -7.021083      -191.0534
  32   2.0000      -7.021073      -191.0531
  33   2.0000      -7.021050      -191.0525
  34   2.0000      -7.021037      -191.0521
  35   2.0000      -7.021026      -191.0518
  36   2.0000      -0.890517       -24.2322
  37   2.0000      -0.848151       -23.0794
  38   2.0000      -0.848135       -23.0789
  39   2.0000      -0.804131       -21.8815
  40   2.0000      -0.804106       -21.8808
  41   2.0000      -0.783215       -21.3124
  42   2.0000      -0.757919       -20.6240
  43   2.0000      -0.666660       -18.1407
  44   2.0000      -0.666625       -18.1398
  45   2.0000      -0.568916       -15.4810
  46   2.0000      -0.568908       -15.4808
  47   2.0000      -0.511418       -13.9164
  48   2.0000      -0.487053       -13.2534
  49   2.0000      -0.446538       -12.1509
  50   2.0000      -0.430501       -11.7145
  51   2.0000      -0.430481       -11.7140
  52   2.0000      -0.430070       -11.7028
  53   2.0000      -0.396474       -10.7886
  54   2.0000      -0.396467       -10.7884
  55   2.0000      -0.369461       -10.0535
  56   2.0000      -0.369448       -10.0532
  57   2.0000      -0.318094        -8.6558
  58   2.0000      -0.318075        -8.6553
  59   2.0000      -0.309476        -8.4213
  60   2.0000      -0.309455        -8.4207
  61   2.0000      -0.307604        -8.3703
  62   2.0000      -0.304403        -8.2832
  63   2.0000      -0.284394        -7.7387
  64   2.0000      -0.284354        -7.7377
  65   2.0000      -0.275537        -7.4977
  66   2.0000      -0.258077        -7.0226
  67   2.0000      -0.229030        -6.2322
  68   2.0000      -0.229007        -6.2316
  69   0.0000      -0.078029        -2.1233
  70   0.0000      -0.078009        -2.1227
  71   0.0000      -0.072458        -1.9717
  72   0.0000      -0.004954        -0.1348
  73   0.0000      -0.004924        -0.1340

MULLIKEN ATOMIC CHARGES
-----------------------
   0 C :    0.005745
   1 C :    0.006381
   2 C :    0.006259
   3 C :    0.006026
   4 C :    0.006198
   5 C :    0.006385
   6 Cl:   -0.006154
   7 Cl:   -0.006228
   8 Cl:   -0.006105
   9 Cl:   -0.006165
  10 Cl:   -0.006216
  11 Cl:   -0.006126
Sum of atomic charges:   -0.0000000

LOEWDIN ATOMIC CHARGES
----------------------
   0 C :   -0.182857
   1 C :   -0.182858
   2 C :   -0.182859
   3 C :   -0.182881
   4 C :   -0.182857
   5 C :   -0.182853
   6 Cl:    0.182849
   7 Cl:    0.182855
   8 Cl:    0.182883
   9 Cl:    0.182854
  10 Cl:    0.182849
  11 Cl:    0.182875

  Mayer bond orders larger than 0.100000
B(  0-C ,  1-C ) :   1.3978 B(  0-C ,  5-C ) :   1.3977 B(  0-C , 11-Cl) :   1.1233
B(  1-C ,  2-C ) :   1.3982 B(  1-C , 10-Cl) :   1.1232 B(  2-C ,  3-C ) :   1.3978
B(  2-C ,  9-Cl) :   1.1232 B(  3-C ,  4-C ) :   1.3979 B(  3-C ,  8-Cl) :   1.1234
B(  4-C ,  5-C ) :   1.3981 B(  4-C ,  7-Cl) :   1.1232 B(  5-C ,  6-Cl) :   1.1232

Dispersion correction           -0.028400615
FINAL SINGLE POINT ENERGY     -2987.387965420111

DIPOLE MOMENT
-------------

Method             : SCF
Type of density    : Electron Density
Multiplicity       :   1
Irrep              :   0
Energy             : -2987.3912774422956318 Eh
Relativity type    :
Basis              : AO
                                X                 Y                 Z
Electronic contribution:      0.000038267      -0.000218934       0.001895200
Nuclear contribution   :     -0.000046478       0.000212311      -0.001789025
                        -----------------------------------------
Total Dipole Moment    :     -0.000008210      -0.000006623       0.000106175
                        -----------------------------------------
Magnitude (a.u.)       :      0.000106697
Magnitude (Debye)      :      0.000271203

Rotational constants in cm-1:             0.015378             0.015375             0.007688
Rotational constants in MHz :           461.020318           460.919523           230.484971

                             ****ORCA TERMINATED NORMALLY****
TOTAL RUN TIME: 0 days 0 hours 0 minutes 12 seconds 752 msec
