                         Program Version 6.0.0  -   RELEASE  -
|  1> ! r2scan-3c def2/J RI DEFGRID2 scfconv6 printgap
|  2> %output
|  3>     printlevel normal
|  4> end
|  5> * xyz 0 1
|  6> C -2.4324135004 1.1632138087 0.0611261506
|  7> C -1.4288334317 0.0378140691 -0.191689722
|  8> C -2.1000084125 -1.3116432561 0.0624078263
|  9> C -0.1798031383 0.2197591818 0.6912846328
| 10> C 1.1854901297 0.021249721 0.0050419857
| 11> C 1.4207401183 1.1058569731 -1.0497599502
| 12> C 2.272912063 0.1432530579 1.0794584602
| 13> C 1.2930963832 -1.3598900452 -0.6440986384
| 14> H -3.3191776991 1.0294228134 -0.5549241597
| 15> H -2.7392648738 1.1696216146 1.1050835702
| 16> H -1.9939177378 2.1296932905 -0.1767009354
| 17> H -1.1406187599 0.0812159968 -1.2458353198
| 18> H -2.9533153482 -1.4425512539 -0.600108972
| 19> H -1.4070984815 -2.1307396076 -0.107385378
| 20> H -2.4550594815 -1.3679189172 1.0896619514
| 21> H -0.187051684 1.2294593155 1.107997891
| 22> H -0.2437253093 -0.4720700778 1.5340745556
| 23> H 2.4057430614 0.9888255973 -1.4961690215
| 24> H 1.364649054 2.093942063 -0.5983688975
| 25> H 0.6823052916 1.0516715094 -1.8452940961
| 26> H 3.2602421715 0.0357958853 0.6360204259
| 27> H 2.1528232171 -0.6285749889 1.8364677986
| 28> H 2.2218328174 1.1133871242 1.5687649638
| 29> H 1.1218392005 -2.1414852793 0.0927422853
| 30> H 2.2877121409 -1.4991879988 -1.0626731951
| 31> H 0.5705123054 -1.4742384789 -1.4474574627
| 32> *
| 33>
| 34>                          ****END OF INPUT****

CARTESIAN COORDINATES (ANGSTROEM)
---------------------------------
  C     -2.432414    1.163214    0.061126
  C     -1.428833    0.037814   -0.191690
  C     -2.100008   -1.311643    0.062408
  C     -0.179803    0.219759    0.691285
  C      1.185490    0.021250    0.005042
  C      1.420740    1.105857   -1.049760
  C      2.272912    0.143253    1.079458
  C      1.293096   -1.359890   -0.644099
  H     -3.319178    1.029423   -0.554924
  H     -2.739265    1.169622    1.105084
  H     -1.993918    2.129693   -0.176701
  H     -1.140619    0.081216   -1.245835
  H     -2.953315   -1.442551   -0.600109
  H     -1.407098   -2.130740   -0.107385
  H     -2.455059   -1.367919    1.089662
  H     -0.187052    1.229459    1.107998
  H     -0.243725   -0.472070    1.534075
  H      2.405743    0.988826   -1.496169
  H      1.364649    2.093942   -0.598369
  H      0.682305    1.051672   -1.845294
  H      3.260242    0.035796    0.636020
  H      2.152823   -0.628575    1.836468
  H      2.221833    1.113387    1.568765
  H      1.121839   -2.141485    0.092742
  H      2.287712   -1.499188   -1.062673
  H      0.570512   -1.474238   -1.447457

 Total Charge           Charge          ....    0
 Multiplicity           Mult            ....    1
 Number of Electrons    NEL             ....   66
 Basis Dimension        Dim             ....  242

ORBITAL ENERGIES
----------------

  NO   OCC          E(Eh)            E(eV)
   0   2.0000     -10.039433      -273.1869
   1   2.0000     -10.029486      -272.9162
   2   2.0000     -10.016446      -272.5614
   3   2.0000     -10.012451      -272.4527
   4   2.0000     -10.012381      -272.4507
   5   2.0000     -10.012099      -272.4431
   6   2.0000     -10.011785      -272.4345
   7   2.0000     -10.011605      -272.4296
   8   2.0000      -0.796048       -21.6616
   9   2.0000      -0.751744       -20.4560
  10   2.0000      -0.653111       -17.7720
  11   2.0000      -0.649507       -17.6740
  12   2.0000      -0.643740       -17.5171
  13   2.0000      -0.640061       -17.4170
  14   2.0000      -0.533115       -14.5068
  15   2.0000      -0.496289       -13.5047
  16   2.0000      -0.437437       -11.9033
  17   2.0000      -0.422697       -11.5022
  18   2.0000      -0.411415       -11.1952
  19   2.0000      -0.395333       -10.7576
  20   2.0000      -0.388284       -10.5657
  21   2.0000      -0.383292       -10.4299
  22   2.0000      -0.353923        -9.6307
  23   2.0000      -0.351768        -9.5721
  24   2.0000      -0.347852        -9.4655
  25   2.0000      -0.330790        -9.0013
  26   2.0000      -0.324371        -8.8266
  27   2.0000      -0.317223        -8.6321
  28   2.0000      -0.303831        -8.2677
  29   2.0000      -0.295648        -8.0450
  30   2.0000      -0.281617        -7.6632
  31   2.0000      -0.275383        -7.4935
  32   2.0000      -0.268270        -7.3000
  33   0.0000       0.073801         2.0082
  34   0.0000       0.097422         2.6510
  35   0.0000       0.107225         2.9177
  36   0.0000       0.115594         3.1455
  37   0.0000       0.125867         3.4250

MULLIKEN ATOMIC CHARGES
-----------------------
   0 C :   -0.505603
   1 C :    0.026376
   2 C :   -0.522729
   3 C :   -0.365783
   4 C :    0.131982
   5 C :   -0.504160
   6 C :   -0.490582
   7 C :   -0.523406
   8 H :    0.143599
   9 H :    0.151677
  10 H :    0.147970
  11 H :    0.146747
  12 H :    0.146041
  13 H :    0.154094
  14 H :    0.152463
  15 H :    0.162612
  16 H :    0.159263
  17 H :    0.153077
  18 H :    0.154516
  19 H :    0.150990
  20 H :    0.154028
  21 H :    0.152619
  22 H :    0.151618
  23 H :    0.160308
  24 H :    0.151939
  25 H :    0.160346
Sum of atomic charges:    0.0000000

LOEWDIN ATOMIC CHARGES
----------------------
   0 C :   -0.416781
   1 C :   -0.247232
   2 C :   -0.417632
   3 C :   -0.287939
   4 C :   -0.209208
   5 C :   -0.407820
   6 C :   -0.409158
   7 C :   -0.408312
   8 H :    0.151302
   9 H :    0.153866
  10 H :    0.151981
  11 H :    0.154663
  12 H :    0.151665
  13 H :    0.154230
  14 H :    0.152716
  15 H :    0.164313
  16 H :    0.165132
  17 H :    0.156554
  18 H :    0.156814
  19 H :    0.153936
  20 H :    0.154961
  21 H :    0.155811
  22 H :    0.156346
  23 H :    0.156887
  24 H :    0.156532
  25 H :    0.156373

  Mayer bond orders larger than 0.100000
B(  0-C ,  1-C ) :   0.8884 B(  0-C ,  8-H ) :   0.9770 B(  0-C ,  9-H ) :   0.9866
B(  0-C , 10-H ) :   0.9809 B(  1-C ,  2-C ) :   0.9023 B(  1-C ,  3-C ) :   0.8073
B(  1-C , 11-H ) :   0.9648 B(  2-C , 12-H ) :   0.9785 B(  2-C , 13-H ) :   0.9697
B(  2-C , 14-H ) :   0.9908 B(  3-C ,  4-C ) :   0.8785 B(  3-C , 15-H ) :   0.9965
B(  3-C , 16-H ) :   0.9819 B(  4-C ,  5-C ) :   0.9425 B(  4-C ,  6-C ) :   0.9396
B(  4-C ,  7-C ) :   0.8938 B(  5-C , 17-H ) :   0.9757 B(  5-C , 18-H ) :   0.9780
B(  5-C , 19-H ) :   0.9686 B(  6-C , 20-H ) :   0.9788 B(  6-C , 21-H ) :   0.9778
B(  6-C , 22-H ) :   0.9759 B(  7-C , 23-H ) :   0.9790 B(  7-C , 24-H ) :   0.9717
B(  7-C , 25-H ) :   0.9698

Dispersion correction           -0.007999748
FINAL SINGLE POINT ENERGY      -315.587794218147

DIPOLE MOMENT
-------------

Method             : SCF
Type of density    : Electron Density
Multiplicity       :   1
Irrep              :   0
Energy             :  -315.5926166643789088 Eh
Relativity type    :
Basis              : AO
                                X                 Y                 Z
Electronic contribution:      0.368118457       0.223030079       0.128494535
Nuclear contribution   :     -0.348592826      -0.219277825      -0.153956073
                        -----------------------------------------
Total Dipole Moment    :      0.019525631       0.003752254      -0.025461538
                        -----------------------------------------
Magnitude (a.u.)       :      0.032305102
Magnitude (Debye)      :      0.082113043

Rotational constants in cm-1:             0.098209             0.041020             0.036822
Rotational constants in MHz :          2944.240101          1229.739440          1103.908417

                             ****ORCA TERMINATED NORMALLY****
TOTAL RUN TIME: 0 days 0 hours 0 minutes 28 seconds 14 msec
