                         Program Version 6.0.0  -   RELEASE  -
|  1> ! r2scan-3c def2/J RI DEFGRID2 scfconv6 printgap
|  2> %output
|  3>     printlevel normal
|  4> end
|  5> %cpcm
|  6>     smd true
|  7>     smdsolvent "water"
|  8> end
|  9> * xyz 0 1
| 10> C -2.4324135004 1.1632138087 0.0611261506
| 11> C -1.4288334317 0.0378140691 -0.191689722
| 12> C -2.1000084125 -1.3116432561 0.0624078263
| 13> C -0.1798031383 0.2197591818 0.6912846328
| 14> C 1.1854901297 0.021249721 0.0050419857
| 15> C 1.4207401183 1.1058569731 -1.0497599502
| 16> C 2.272912063 0.1432530579 1.0794584602
| 17> C 1.2930963832 -1.3598900452 -0.6440986384
| 18> H -3.3191776991 1.0294228134 -0.5549241597
| 19> H -2.7392648738 1.1696216146 1.1050835702
| 20> H -1.9939177378 2.1296932905 -0.1767009354
| 21> H -1.1406187599 0.0812159968 -1.2458353198
| 22> H -2.9533153482 -1.4425512539 -0.600108972
| 23> H -1.4070984815 -2.1307396076 -0.107385378
| 24> H -2.4550594815 -1.3679189172 1.0896619514
| 25> H -0.187051684 1.2294593155 1.107997891
| 26> H -0.2437253093 -0.4720700778 1.5340745556
| 27> H 2.4057430614 0.9888255973 -1.4961690215
| 28> H 1.364649054 2.093942063 -0.5983688975
| 29> H 0.6823052916 1.0516715094 -1.8452940961
| 30> H 3.2602421715 0.0357958853 0.6360204259
| 31> H 2.1528232171 -0.6285749889 1.8364677986
| 32> H 2.2218328174 1.1133871242 1.5687649638
| 33> H 1.1218392005 -2.1414852793 0.0927422853
| 34> H 2.2877121409 -1.4991879988 -1.0626731951
| 35> H 0.5705123054 -1.4742384789 -1.4474574627
| 36> *
| 37>
| 38>                          ****END OF INPUT****

CARTESIAN COORDINATES (ANGSTROEM)
---------------------------------
  C     -2.432414    1.163214    0.061126
  C     -1.428833    0.037814   -0.191690
  C     -2.100008   -1.311643    0.062408
  C     -0.179803    0.219759    0.691285
  C      1.185490    0.021250    0.005042
  C      1.420740    1.105857   -1.049760
  C      2.272912    0.143253    1.079458
  C      1.293096   -1.359890   -0.644099
  H     -3.319178    1.029423   -0.554924
  H     -2.739265    1.169622    1.105084
  H     -1.993918    2.129693   -0.176701
  H     -1.140619    0.081216   -1.245835
  H     -2.953315   -1.442551   -0.600109
  H     -1.407098   -2.130740   -0.107385
  H     -2.455059   -1.367919    1.089662
  H     -0.187052    1.229459    1.107998
  H     -0.243725   -0.472070    1.534075
  H      2.405743    0.988826   -1.496169
  H      1.364649    2.093942   -0.598369
  H      0.682305    1.051672   -1.845294
  H      3.260242    0.035796    0.636020
  H      2.152823   -0.628575    1.836468
  H      2.221833    1.113387    1.568765
  H      1.121839   -2.141485    0.092742
  H      2.287712   -1.499188   -1.062673
  H      0.570512   -1.474238   -1.447457

 Total Charge           Charge          ....    0
 Multiplicity           Mult            ....    1
 Number of Electrons    NEL             ....   66
 Basis Dimension        Dim             ....  242

ORBITAL ENERGIES
----------------

  NO   OCC          E(Eh)            E(eV)
   0   2.0000     -10.031584      -272.9733
   1   2.0000     -10.021206      -272.6909
   2   2.0000     -10.007850      -272.3275
   3   2.0000     -10.004925      -272.2478
   4   2.0000     -10.004093      -272.2252
   5   2.0000     -10.003588      -272.2115
   6   2.0000     -10.003440      -272.2074
   7   2.0000     -10.003434      -272.2073
   8   2.0000      -0.787770       -21.4363
   9   2.0000      -0.743890       -20.2423
  10   2.0000      -0.645267       -17.5586
  11   2.0000      -0.641784       -17.4638
  12   2.0000      -0.636419       -17.3178
  13   2.0000      -0.632336       -17.2067
  14   2.0000      -0.525388       -14.2965
  15   2.0000      -0.488411       -13.2903
  16   2.0000      -0.429245       -11.6804
  17   2.0000      -0.414491       -11.2789
  18   2.0000      -0.403550       -10.9812
  19   2.0000      -0.387543       -10.5456
  20   2.0000      -0.380326       -10.3492
  21   2.0000      -0.375311       -10.2127
  22   2.0000      -0.346258        -9.4221
  23   2.0000      -0.344329        -9.3697
  24   2.0000      -0.339636        -9.2420
  25   2.0000      -0.322454        -8.7744
  26   2.0000      -0.316490        -8.6121
  27   2.0000      -0.309171        -8.4130
  28   2.0000      -0.295541        -8.0421
  29   2.0000      -0.287972        -7.8361
  30   2.0000      -0.273466        -7.4414
  31   2.0000      -0.267058        -7.2670
  32   2.0000      -0.260305        -7.0833
  33   0.0000       0.082897         2.2558
  34   0.0000       0.105587         2.8732
  35   0.0000       0.116375         3.1667
  36   0.0000       0.122657         3.3377
  37   0.0000       0.133464         3.6317

MULLIKEN ATOMIC CHARGES
-----------------------
   0 C :   -0.545935
   1 C :    0.037197
   2 C :   -0.564524
   3 C :   -0.387359
   4 C :    0.188827
   5 C :   -0.556697
   6 C :   -0.543969
   7 C :   -0.566527
   8 H :    0.154069
   9 H :    0.160864
  10 H :    0.157296
  11 H :    0.160616
  12 H :    0.156342
  13 H :    0.161591
  14 H :    0.162569
  15 H :    0.169438
  16 H :    0.166560
  17 H :    0.164355
  18 H :    0.165314
  19 H :    0.164317
  20 H :    0.165646
  21 H :    0.164027
  22 H :    0.162702
  23 H :    0.170227
  24 H :    0.162668
  25 H :    0.170386
Sum of atomic charges:    0.0000000

LOEWDIN ATOMIC CHARGES
----------------------
   0 C :   -0.425556
   1 C :   -0.245739
   2 C :   -0.425985
   3 C :   -0.290559
   4 C :   -0.204096
   5 C :   -0.416778
   6 C :   -0.418532
   7 C :   -0.415931
   8 H :    0.153191
   9 H :    0.155589
  10 H :    0.154007
  11 H :    0.158769
  12 H :    0.153485
  13 H :    0.155806
  14 H :    0.154766
  15 H :    0.165787
  16 H :    0.166586
  17 H :    0.158743
  18 H :    0.158984
  19 H :    0.157012
  20 H :    0.157431
  21 H :    0.158030
  22 H :    0.158363
  23 H :    0.159338
  24 H :    0.158321
  25 H :    0.158967

  Mayer bond orders larger than 0.100000
B(  0-C ,  1-C ) :   0.8799 B(  0-C ,  8-H ) :   0.9761 B(  0-C ,  9-H ) :   0.9844
B(  0-C , 10-H ) :   0.9779 B(  1-C ,  2-C ) :   0.8932 B(  1-C ,  3-C ) :   0.8057
B(  1-C , 11-H ) :   0.9653 B(  2-C , 12-H ) :   0.9773 B(  2-C , 13-H ) :   0.9685
B(  2-C , 14-H ) :   0.9884 B(  3-C ,  4-C ) :   0.8750 B(  3-C , 15-H ) :   0.9957
B(  3-C , 16-H ) :   0.9815 B(  4-C ,  5-C ) :   0.9282 B(  4-C ,  6-C ) :   0.9208
B(  4-C ,  7-C ) :   0.8855 B(  5-C , 17-H ) :   0.9747 B(  5-C , 18-H ) :   0.9763
B(  5-C , 19-H ) :   0.9673 B(  6-C , 20-H ) :   0.9774 B(  6-C , 21-H ) :   0.9767
B(  6-C , 22-H ) :   0.9753 B(  7-C , 23-H ) :   0.9760 B(  7-C , 24-H ) :   0.9715
B(  7-C , 25-H ) :   0.9684

Dispersion correction           -0.007999748
FINAL SINGLE POINT ENERGY      -315.583608374917

DIPOLE MOMENT
-------------

Method             : SCF
Type of density    : Electron Density
Multiplicity       :   1
Irrep              :   0
Energy             :  -315.5884308211490179 Eh
Relativity type    :
Basis              : AO
                                X                 Y                 Z
Electronic contribution:      0.373142158       0.220284867       0.109247902
Nuclear contribution   :     -0.348592826      -0.219277825      -0.153956073
                        -----------------------------------------
Total Dipole Moment    :      0.024549332       0.001007042      -0.044708171
                        -----------------------------------------
Magnitude (a.u.)       :      0.051014746
Magnitude (Debye)      :      0.129669181

Rotational constants in cm-1:             0.098209             0.041020             0.036822
Rotational constants in MHz :          2944.240101          1229.739440          1103.908417

                             ****ORCA TERMINATED NORMALLY****
TOTAL RUN TIME: 0 days 0 hours 0 minutes 35 seconds 345 msec
