                         Program Version 6.0.0  -   RELEASE  -
|  1> ! r2scan-3c def2/J RI DEFGRID2 scfconv6 printgap
|  2> %output
|  3>     printlevel normal
|  4> end
|  5> * xyz 0 1
|  6> C -2.2620734995 0.221992427 -0.3370424861
|  7> C -0.9695859853 0.2898137428 0.4743305131
|  8> C 0.0004775844 -0.7665731617 0.0419335833
|  9> C 1.297669566 -0.5974177807 -0.16508529
| 10> C 2.044488057 0.6918178316 0.0016334038
| 11> H -2.054023101 0.3790047672 -1.3930905299
| 12> H -2.9602418247 0.9864797829 -0.0047557715
| 13> H -2.7351239346 -0.750843223 -0.2219330351
| 14> H -0.5239257607 1.2786484786 0.3681139312
| 15> H -1.2071336146 0.1393855595 1.5324764848
| 16> H -0.4346941682 -1.7473276675 -0.1035140237
| 17> H 1.8895925181 -1.4442697962 -0.4862830915
| 18> H 3.1160371933 0.5185287187 -0.0384402109
| 19> H 1.8046335533 1.1617071921 0.9532280641
| 20> H 1.7824798876 1.389636782 -0.7937156318
| 21> *
| 22>
| 23>                          ****END OF INPUT****

CARTESIAN COORDINATES (ANGSTROEM)
---------------------------------
  C     -2.262073    0.221992   -0.337042
  C     -0.969586    0.289814    0.474331
  C      0.000478   -0.766573    0.041934
  C      1.297670   -0.597418   -0.165085
  C      2.044488    0.691818    0.001633
  H     -2.054023    0.379005   -1.393091
  H     -2.960242    0.986480   -0.004756
  H     -2.735124   -0.750843   -0.221933
  H     -0.523926    1.278648    0.368114
  H     -1.207134    0.139386    1.532476
  H     -0.434694   -1.747328   -0.103514
  H      1.889593   -1.444270   -0.486283
  H      3.116037    0.518529   -0.038440
  H      1.804634    1.161707    0.953228
  H      1.782480    1.389637   -0.793716

 Total Charge           Charge          ....    0
 Multiplicity           Mult            ....    1
 Number of Electrons    NEL             ....   40
 Basis Dimension        Dim             ....  145

ORBITAL ENERGIES
----------------

  NO   OCC          E(Eh)            E(eV)
   0   2.0000     -10.028022      -272.8764
   1   2.0000     -10.022354      -272.7221
   2   2.0000     -10.021351      -272.6948
   3   2.0000     -10.019118      -272.6341
   4   2.0000     -10.018185      -272.6087
   5   2.0000      -0.772159       -21.0115
   6   2.0000      -0.717828       -19.5331
   7   2.0000      -0.646621       -17.5955
   8   2.0000      -0.582062       -15.8387
   9   2.0000      -0.494075       -13.4445
  10   2.0000      -0.445793       -12.1307
  11   2.0000      -0.406707       -11.0670
  12   2.0000      -0.397143       -10.8068
  13   2.0000      -0.380120       -10.3436
  14   2.0000      -0.349233        -9.5031
  15   2.0000      -0.338249        -9.2042
  16   2.0000      -0.330458        -8.9922
  17   2.0000      -0.310745        -8.4558
  18   2.0000      -0.290033        -7.8922
  19   2.0000      -0.217250        -5.9117
  20   0.0000      -0.004111        -0.1119
  21   0.0000       0.093110         2.5337
  22   0.0000       0.118233         3.2173
  23   0.0000       0.130589         3.5535
  24   0.0000       0.144427         3.9301

MULLIKEN ATOMIC CHARGES
-----------------------
   0 C :   -0.456074
   1 C :   -0.250074
   2 C :   -0.145950
   3 C :   -0.143810
   4 C :   -0.497171
   5 H :    0.148152
   6 H :    0.144362
   7 H :    0.140701
   8 H :    0.142301
   9 H :    0.150932
  10 H :    0.146799
  11 H :    0.152193
  12 H :    0.145187
  13 H :    0.159889
  14 H :    0.162562
Sum of atomic charges:   -0.0000000

LOEWDIN ATOMIC CHARGES
----------------------
   0 C :   -0.416871
   1 C :   -0.305117
   2 C :   -0.209941
   3 C :   -0.216945
   4 C :   -0.422593
   5 H :    0.152759
   6 H :    0.149386
   7 H :    0.149931
   8 H :    0.157780
   9 H :    0.161785
  10 H :    0.162459
  11 H :    0.159967
  12 H :    0.155573
  13 H :    0.159610
  14 H :    0.162217

  Mayer bond orders larger than 0.100000
B(  0-C ,  1-C ) :   0.8899 B(  0-C ,  5-H ) :   0.9794 B(  0-C ,  6-H ) :   0.9735
B(  0-C ,  7-H ) :   0.9778 B(  1-C ,  2-C ) :   0.9287 B(  1-C ,  8-H ) :   0.9818
B(  1-C ,  9-H ) :   0.9699 B(  2-C ,  3-C ) :   1.9480 B(  2-C , 10-H ) :   0.9392
B(  3-C ,  4-C ) :   0.8921 B(  3-C , 11-H ) :   0.9478 B(  4-C , 12-H ) :   0.9739
B(  4-C , 13-H ) :   0.9850 B(  4-C , 14-H ) :   0.9720

Dispersion correction           -0.003252075
FINAL SINGLE POINT ENERGY      -196.459146987465

DIPOLE MOMENT
-------------

Method             : SCF
Type of density    : Electron Density
Multiplicity       :   1
Irrep              :   0
Energy             :  -196.4620306032337567 Eh
Relativity type    :
Basis              : AO
                                X                 Y                 Z
Electronic contribution:      1.218629196      -1.655090217       0.212065179
Nuclear contribution   :     -1.240637231       1.792799300      -0.176295377
                        -----------------------------------------
Total Dipole Moment    :     -0.022008035       0.137709083       0.035769803
                        -----------------------------------------
Magnitude (a.u.)       :      0.143970914
Magnitude (Debye)      :      0.365944981

Rotational constants in cm-1:             0.406005             0.086021             0.077749
Rotational constants in MHz :         12171.716516          2578.837042          2330.842744

                             ****ORCA TERMINATED NORMALLY****
TOTAL RUN TIME: 0 days 0 hours 0 minutes 10 seconds 992 msec
