                         Program Version 6.0.0  -   RELEASE  -
|  1> ! r2scan-3c def2/J RI DEFGRID2 scfconv6 printgap
|  2> %output
|  3>     printlevel normal
|  4> end
|  5> %cpcm
|  6>     smd true
|  7>     smdsolvent "water"
|  8> end
|  9> * xyz 0 1
| 10> C -2.2620734995 0.221992427 -0.3370424861
| 11> C -0.9695859853 0.2898137428 0.4743305131
| 12> C 0.0004775844 -0.7665731617 0.0419335833
| 13> C 1.297669566 -0.5974177807 -0.16508529
| 14> C 2.044488057 0.6918178316 0.0016334038
| 15> H -2.054023101 0.3790047672 -1.3930905299
| 16> H -2.9602418247 0.9864797829 -0.0047557715
| 17> H -2.7351239346 -0.750843223 -0.2219330351
| 18> H -0.5239257607 1.2786484786 0.3681139312
| 19> H -1.2071336146 0.1393855595 1.5324764848
| 20> H -0.4346941682 -1.7473276675 -0.1035140237
| 21> H 1.8895925181 -1.4442697962 -0.4862830915
| 22> H 3.1160371933 0.5185287187 -0.0384402109
| 23> H 1.8046335533 1.1617071921 0.9532280641
| 24> H 1.7824798876 1.389636782 -0.7937156318
| 25> *
| 26>
| 27>                          ****END OF INPUT****

CARTESIAN COORDINATES (ANGSTROEM)
---------------------------------
  C     -2.262073    0.221992   -0.337042
  C     -0.969586    0.289814    0.474331
  C      0.000478   -0.766573    0.041934
  C      1.297670   -0.597418   -0.165085
  C      2.044488    0.691818    0.001633
  H     -2.054023    0.379005   -1.393091
  H     -2.960242    0.986480   -0.004756
  H     -2.735124   -0.750843   -0.221933
  H     -0.523926    1.278648    0.368114
  H     -1.207134    0.139386    1.532476
  H     -0.434694   -1.747328   -0.103514
  H      1.889593   -1.444270   -0.486283
  H      3.116037    0.518529   -0.038440
  H      1.804634    1.161707    0.953228
  H      1.782480    1.389637   -0.793716

 Total Charge           Charge          ....    0
 Multiplicity           Mult            ....    1
 Number of Electrons    NEL             ....   40
 Basis Dimension        Dim             ....  145

ORBITAL ENERGIES
----------------

  NO   OCC          E(Eh)            E(eV)
   0   2.0000     -10.021772      -272.7063
   1   2.0000     -10.020702      -272.6772
   2   2.0000     -10.017887      -272.6006
   3   2.0000     -10.014114      -272.4979
   4   2.0000     -10.011145      -272.4171
   5   2.0000      -0.769158       -20.9299
   6   2.0000      -0.712617       -19.3913
   7   2.0000      -0.642061       -17.4714
   8   2.0000      -0.576970       -15.7002
   9   2.0000      -0.489575       -13.3220
  10   2.0000      -0.441221       -12.0062
  11   2.0000      -0.401196       -10.9171
  12   2.0000      -0.391898       -10.6641
  13   2.0000      -0.374141       -10.1809
  14   2.0000      -0.342532        -9.3208
  15   2.0000      -0.332403        -9.0451
  16   2.0000      -0.324922        -8.8416
  17   2.0000      -0.304210        -8.2780
  18   2.0000      -0.285075        -7.7573
  19   2.0000      -0.218190        -5.9373
  20   0.0000      -0.004000        -0.1088
  21   0.0000       0.099026         2.6946
  22   0.0000       0.124621         3.3911
  23   0.0000       0.137269         3.7353
  24   0.0000       0.151256         4.1159

MULLIKEN ATOMIC CHARGES
-----------------------
   0 C :   -0.490220
   1 C :   -0.249668
   2 C :   -0.194674
   3 C :   -0.193700
   4 C :   -0.514944
   5 H :    0.154393
   6 H :    0.157255
   7 H :    0.154860
   8 H :    0.158015
   9 H :    0.162267
  10 H :    0.170093
  11 H :    0.175995
  12 H :    0.161781
  13 H :    0.172538
  14 H :    0.176011
Sum of atomic charges:   -0.0000000

LOEWDIN ATOMIC CHARGES
----------------------
   0 C :   -0.423836
   1 C :   -0.307566
   2 C :   -0.224397
   3 C :   -0.230715
   4 C :   -0.428799
   5 H :    0.153597
   6 H :    0.153379
   7 H :    0.153715
   8 H :    0.162321
   9 H :    0.166393
  10 H :    0.168217
  11 H :    0.165748
  12 H :    0.160213
  13 H :    0.164128
  14 H :    0.167602

  Mayer bond orders larger than 0.100000
B(  0-C ,  1-C ) :   0.8812 B(  0-C ,  5-H ) :   0.9778 B(  0-C ,  6-H ) :   0.9706
B(  0-C ,  7-H ) :   0.9749 B(  1-C ,  2-C ) :   0.9151 B(  1-C ,  8-H ) :   0.9833
B(  1-C ,  9-H ) :   0.9636 B(  2-C ,  3-C ) :   1.9141 B(  2-C , 10-H ) :   0.9426
B(  3-C ,  4-C ) :   0.8861 B(  3-C , 11-H ) :   0.9522 B(  4-C , 12-H ) :   0.9705
B(  4-C , 13-H ) :   0.9801 B(  4-C , 14-H ) :   0.9656

Dispersion correction           -0.003252075
FINAL SINGLE POINT ENERGY      -196.457916577939

DIPOLE MOMENT
-------------

Method             : SCF
Type of density    : Electron Density
Multiplicity       :   1
Irrep              :   0
Energy             :  -196.4608001937082236 Eh
Relativity type    :
Basis              : AO
                                X                 Y                 Z
Electronic contribution:      1.203202799      -1.594879429       0.236929962
Nuclear contribution   :     -1.240637231       1.792799300      -0.176295377
                        -----------------------------------------
Total Dipole Moment    :     -0.037434432       0.197919871       0.060634586
                        -----------------------------------------
Magnitude (a.u.)       :      0.210357232
Magnitude (Debye)      :      0.534685591

Rotational constants in cm-1:             0.406005             0.086021             0.077749
Rotational constants in MHz :         12171.716516          2578.837042          2330.842744

                             ****ORCA TERMINATED NORMALLY****
TOTAL RUN TIME: 0 days 0 hours 0 minutes 13 seconds 777 msec
