                         Program Version 6.0.0  -   RELEASE  -
|  1> ! r2scan-3c def2/J RI DEFGRID2 scfconv6 printgap
|  2> %output
|  3>     printlevel normal
|  4> end
|  5> * xyz 0 1
|  6> C -2.7364182537 -0.1785634385 -0.6881518614
|  7> C -1.9311075974 0.1997788363 0.5567871215
|  8> C -0.4579605178 0.0790347555 0.2965236325
|  9> C 0.1601069843 -1.1687592838 0.2332908518
| 10> C 1.5144709971 -1.2351939536 -0.0376453678
| 11> C 2.2135783647 -0.053454905 -0.2365345392
| 12> C 1.5126914729 1.1376827244 -0.1498517162
| 13> N 0.2162356183 1.2082799862 0.1085472283
| 14> H -2.5256418874 -1.2034215689 -0.9850159945
| 15> H -2.4797806354 0.4790728709 -1.5149694784
| 16> H -3.8002275495 -0.085850002 -0.4870412394
| 17> H -2.208863129 -0.4586900723 1.381905042
| 18> H -2.1511071028 1.2299457252 0.8349486746
| 19> H -0.4169707982 -2.0653414015 0.39930473
| 20> H 2.0187776512 -2.1888219697 -0.0911924658
| 21> H 3.2704138362 -0.0559869916 -0.4495478577
| 22> H 2.0069487639 2.0900420398 -0.2920073622
| 23> *
| 24>
| 25>                          ****END OF INPUT****

CARTESIAN COORDINATES (ANGSTROEM)
---------------------------------
  C     -2.736418   -0.178563   -0.688152
  C     -1.931108    0.199779    0.556787
  C     -0.457961    0.079035    0.296524
  C      0.160107   -1.168759    0.233291
  C      1.514471   -1.235194   -0.037645
  C      2.213578   -0.053455   -0.236535
  C      1.512691    1.137683   -0.149852
  N      0.216236    1.208280    0.108547
  H     -2.525642   -1.203422   -0.985016
  H     -2.479781    0.479073   -1.514969
  H     -3.800228   -0.085850   -0.487041
  H     -2.208863   -0.458690    1.381905
  H     -2.151107    1.229946    0.834949
  H     -0.416971   -2.065341    0.399305
  H      2.018778   -2.188822   -0.091192
  H      3.270414   -0.055987   -0.449548
  H      2.006949    2.090042   -0.292007

 Total Charge           Charge          ....    0
 Multiplicity           Mult            ....    1
 Number of Electrons    NEL             ....   58
 Basis Dimension        Dim             ....  202

ORBITAL ENERGIES
----------------

  NO   OCC          E(Eh)            E(eV)
   0   2.0000     -14.149434      -385.0257
   1   2.0000     -10.070919      -274.0436
   2   2.0000     -10.063789      -273.8496
   3   2.0000     -10.052124      -273.5322
   4   2.0000     -10.040670      -273.2205
   5   2.0000     -10.040532      -273.2168
   6   2.0000     -10.030107      -272.9331
   7   2.0000     -10.022719      -272.7320
   8   2.0000      -0.913663       -24.8620
   9   2.0000      -0.772828       -21.0297
  10   2.0000      -0.764494       -20.8029
  11   2.0000      -0.703344       -19.1390
  12   2.0000      -0.615618       -16.7518
  13   2.0000      -0.599645       -16.3172
  14   2.0000      -0.559621       -15.2280
  15   2.0000      -0.484868       -13.1939
  16   2.0000      -0.460822       -12.5396
  17   2.0000      -0.434243       -11.8164
  18   2.0000      -0.407578       -11.0908
  19   2.0000      -0.402643       -10.9565
  20   2.0000      -0.381769       -10.3885
  21   2.0000      -0.371543       -10.1102
  22   2.0000      -0.354546        -9.6477
  23   2.0000      -0.336717        -9.1625
  24   2.0000      -0.314952        -8.5703
  25   2.0000      -0.312309        -8.4984
  26   2.0000      -0.269442        -7.3319
  27   2.0000      -0.237338        -6.4583
  28   2.0000      -0.220460        -5.9990
  29   0.0000      -0.050176        -1.3654
  30   0.0000      -0.038219        -1.0400
  31   0.0000       0.076911         2.0929
  32   0.0000       0.102580         2.7913
  33   0.0000       0.105435         2.8690

MULLIKEN ATOMIC CHARGES
-----------------------
   0 C :   -0.476130
   1 C :   -0.367413
   2 C :    0.282269
   3 C :   -0.211599
   4 C :   -0.170530
   5 C :   -0.102127
   6 C :   -0.115204
   7 N :   -0.194021
   8 H :    0.148358
   9 H :    0.156621
  10 H :    0.149345
  11 H :    0.143414
  12 H :    0.170858
  13 H :    0.154499
  14 H :    0.148589
  15 H :    0.149462
  16 H :    0.133609
Sum of atomic charges:   -0.0000000

LOEWDIN ATOMIC CHARGES
----------------------
   0 C :   -0.402610
   1 C :   -0.261607
   2 C :    0.132304
   3 C :   -0.142926
   4 C :   -0.122592
   5 C :   -0.158299
   6 C :    0.083375
   7 N :   -0.616783
   8 H :    0.151102
   9 H :    0.156994
  10 H :    0.150791
  11 H :    0.161699
  12 H :    0.175728
  13 H :    0.170994
  14 H :    0.168745
  15 H :    0.169310
  16 H :    0.183774

  Mayer bond orders larger than 0.100000
B(  0-C ,  1-C ) :   0.8993 B(  0-C ,  8-H ) :   0.9800 B(  0-C ,  9-H ) :   0.9771
B(  0-C , 10-H ) :   0.9707 B(  1-C ,  2-C ) :   0.8389 B(  1-C , 11-H ) :   0.9890
B(  1-C , 12-H ) :   0.9950 B(  2-C ,  3-C ) :   1.3802 B(  2-C ,  7-N ) :   1.3168
B(  3-C ,  4-C ) :   1.4594 B(  3-C , 13-H ) :   0.9114 B(  4-C ,  5-C ) :   1.3929
B(  4-C , 14-H ) :   0.9499 B(  5-C ,  6-C ) :   1.3712 B(  5-C , 15-H ) :   0.9362
B(  6-C ,  7-N ) :   1.4711 B(  6-C , 16-H ) :   0.9813

Dispersion correction           -0.005224195
FINAL SINGLE POINT ENERGY      -326.819106567469

DIPOLE MOMENT
-------------

Method             : SCF
Type of density    : Electron Density
Multiplicity       :   1
Irrep              :   0
Energy             :  -326.8211652119330779 Eh
Relativity type    :
Basis              : AO
                                X                 Y                 Z
Electronic contribution:      6.059502399       1.426433853       1.093662143
Nuclear contribution   :     -5.896564743      -2.112745909      -1.128599445
                        -----------------------------------------
Total Dipole Moment    :      0.162937655      -0.686312056      -0.034937302
                        -----------------------------------------
Magnitude (a.u.)       :      0.706253165
Magnitude (Debye)      :      1.795152882

Rotational constants in cm-1:             0.156768             0.051576             0.042499
Rotational constants in MHz :          4699.790273          1546.204981          1274.087577

                             ****ORCA TERMINATED NORMALLY****
TOTAL RUN TIME: 0 days 0 hours 0 minutes 22 seconds 359 msec
