                         Program Version 6.0.0  -   RELEASE  -
|  1> ! r2scan-3c def2/J RI DEFGRID2 scfconv6 printgap
|  2> %output
|  3>     printlevel normal
|  4> end
|  5> %cpcm
|  6>     smd true
|  7>     smdsolvent "water"
|  8> end
|  9> * xyz 0 1
| 10> C -2.7364182537 -0.1785634385 -0.6881518614
| 11> C -1.9311075974 0.1997788363 0.5567871215
| 12> C -0.4579605178 0.0790347555 0.2965236325
| 13> C 0.1601069843 -1.1687592838 0.2332908518
| 14> C 1.5144709971 -1.2351939536 -0.0376453678
| 15> C 2.2135783647 -0.053454905 -0.2365345392
| 16> C 1.5126914729 1.1376827244 -0.1498517162
| 17> N 0.2162356183 1.2082799862 0.1085472283
| 18> H -2.5256418874 -1.2034215689 -0.9850159945
| 19> H -2.4797806354 0.4790728709 -1.5149694784
| 20> H -3.8002275495 -0.085850002 -0.4870412394
| 21> H -2.208863129 -0.4586900723 1.381905042
| 22> H -2.1511071028 1.2299457252 0.8349486746
| 23> H -0.4169707982 -2.0653414015 0.39930473
| 24> H 2.0187776512 -2.1888219697 -0.0911924658
| 25> H 3.2704138362 -0.0559869916 -0.4495478577
| 26> H 2.0069487639 2.0900420398 -0.2920073622
| 27> *
| 28>
| 29>                          ****END OF INPUT****

CARTESIAN COORDINATES (ANGSTROEM)
---------------------------------
  C     -2.736418   -0.178563   -0.688152
  C     -1.931108    0.199779    0.556787
  C     -0.457961    0.079035    0.296524
  C      0.160107   -1.168759    0.233291
  C      1.514471   -1.235194   -0.037645
  C      2.213578   -0.053455   -0.236535
  C      1.512691    1.137683   -0.149852
  N      0.216236    1.208280    0.108547
  H     -2.525642   -1.203422   -0.985016
  H     -2.479781    0.479073   -1.514969
  H     -3.800228   -0.085850   -0.487041
  H     -2.208863   -0.458690    1.381905
  H     -2.151107    1.229946    0.834949
  H     -0.416971   -2.065341    0.399305
  H      2.018778   -2.188822   -0.091192
  H      3.270414   -0.055987   -0.449548
  H      2.006949    2.090042   -0.292007

 Total Charge           Charge          ....    0
 Multiplicity           Mult            ....    1
 Number of Electrons    NEL             ....   58
 Basis Dimension        Dim             ....  202

ORBITAL ENERGIES
----------------

  NO   OCC          E(Eh)            E(eV)
   0   2.0000     -14.153666      -385.1408
   1   2.0000     -10.070508      -274.0324
   2   2.0000     -10.062499      -273.8145
   3   2.0000     -10.046813      -273.3877
   4   2.0000     -10.035905      -273.0909
   5   2.0000     -10.035726      -273.0860
   6   2.0000     -10.025075      -272.7962
   7   2.0000     -10.015220      -272.5280
   8   2.0000      -0.916332       -24.9347
   9   2.0000      -0.770197       -20.9581
  10   2.0000      -0.761401       -20.7188
  11   2.0000      -0.698936       -19.0190
  12   2.0000      -0.611434       -16.6380
  13   2.0000      -0.596095       -16.2206
  14   2.0000      -0.555763       -15.1231
  15   2.0000      -0.479155       -13.0385
  16   2.0000      -0.457902       -12.4602
  17   2.0000      -0.427381       -11.6296
  18   2.0000      -0.403008       -10.9664
  19   2.0000      -0.397105       -10.8058
  20   2.0000      -0.380334       -10.3494
  21   2.0000      -0.365843        -9.9551
  22   2.0000      -0.349575        -9.5124
  23   2.0000      -0.332080        -9.0364
  24   2.0000      -0.309500        -8.4219
  25   2.0000      -0.306574        -8.3423
  26   2.0000      -0.270590        -7.3631
  27   2.0000      -0.236403        -6.4329
  28   2.0000      -0.227393        -6.1877
  29   0.0000      -0.050453        -1.3729
  30   0.0000      -0.037383        -1.0172
  31   0.0000       0.081557         2.2193
  32   0.0000       0.105491         2.8706
  33   0.0000       0.111873         3.0442

MULLIKEN ATOMIC CHARGES
-----------------------
   0 C :   -0.511851
   1 C :   -0.363875
   2 C :    0.256774
   3 C :   -0.225162
   4 C :   -0.185531
   5 C :   -0.139301
   6 C :   -0.131229
   7 N :   -0.243832
   8 H :    0.166934
   9 H :    0.159654
  10 H :    0.164128
  11 H :    0.163640
  12 H :    0.169436
  13 H :    0.189559
  14 H :    0.185425
  15 H :    0.184977
  16 H :    0.160254
Sum of atomic charges:   -0.0000000

LOEWDIN ATOMIC CHARGES
----------------------
   0 C :   -0.407869
   1 C :   -0.262952
   2 C :    0.125445
   3 C :   -0.140275
   4 C :   -0.120359
   5 C :   -0.159761
   6 C :    0.073509
   7 N :   -0.661332
   8 H :    0.157034
   9 H :    0.156121
  10 H :    0.155865
  11 H :    0.170460
  12 H :    0.173126
  13 H :    0.184584
  14 H :    0.182038
  15 H :    0.181822
  16 H :    0.192544

  Mayer bond orders larger than 0.100000
B(  0-C ,  1-C ) :   0.8873 B(  0-C ,  8-H ) :   0.9776 B(  0-C ,  9-H ) :   0.9747
B(  0-C , 10-H ) :   0.9669 B(  1-C ,  2-C ) :   0.8456 B(  1-C , 11-H ) :   0.9763
B(  1-C , 12-H ) :   1.0004 B(  2-C ,  3-C ) :   1.3819 B(  2-C ,  7-N ) :   1.3082
B(  3-C ,  4-C ) :   1.4308 B(  3-C , 13-H ) :   0.9149 B(  4-C ,  5-C ) :   1.3656
B(  4-C , 14-H ) :   0.9520 B(  5-C ,  6-C ) :   1.3729 B(  5-C , 15-H ) :   0.9384
B(  6-C ,  7-N ) :   1.4582 B(  6-C , 16-H ) :   0.9705

Dispersion correction           -0.005224195
FINAL SINGLE POINT ENERGY      -326.825093370746

DIPOLE MOMENT
-------------

Method             : SCF
Type of density    : Electron Density
Multiplicity       :   1
Irrep              :   0
Energy             :  -326.8271520152101175 Eh
Relativity type    :
Basis              : AO
                                X                 Y                 Z
Electronic contribution:      6.145481447       1.043090986       1.093075556
Nuclear contribution   :     -5.896564743      -2.112745909      -1.128599445
                        -----------------------------------------
Total Dipole Moment    :      0.248916704      -1.069654923      -0.035523889
                        -----------------------------------------
Magnitude (a.u.)       :      1.098809868
Magnitude (Debye)      :      2.792952726

Rotational constants in cm-1:             0.156768             0.051576             0.042499
Rotational constants in MHz :          4699.790273          1546.204981          1274.087577

                             ****ORCA TERMINATED NORMALLY****
TOTAL RUN TIME: 0 days 0 hours 0 minutes 31 seconds 489 msec
