                         Program Version 6.0.0  -   RELEASE  -
|  1> ! wb97x-v def2-tzvp def2/J RIJCOSX DEFGRID2 scfconv7 GCP(DFT/TZ) printgap
|  2> %output
|  3>     printlevel normal
|  4> end
|  5> * xyz 0 1
|  6> C -1.7536224537955003 1.0857995000659741 0.037490652440922215
|  7> C -0.8883999968328455 -0.13388278886946364 -0.1111201112960303
|  8> O -1.4007385757586075 -1.233402912517698 -0.3007932092986323
|  9> C 0.6276309929806008 0.029436867549636574 -0.021310775179823122
| 10> C 0.968495938999973 0.20621096438868927 1.4732236317900547
| 11> C 1.084564384864323 1.2687741343319574 -0.8050680539328402
| 12> C 1.3307768510206752 -1.2173184217799007 -0.5593484837766872
| 13> H -1.7850127440134274 1.5995939554618164 -0.9318417259364431
| 14> H -2.7698063430527715 0.7917663437975633 0.30533847719521656
| 15> H -1.3558055007575471 1.7985107808391763 0.763281646892302
| 16> H 0.5177090197100853 1.111501092217177 1.8897664300708135
| 17> H 0.6296479491519436 -0.6549691727985909 2.0583854139509468
| 18> H 2.0553054903286228 0.28731241589900247 1.5800202070010925
| 19> H 2.175020013784471 1.3478300995893757 -0.7457313457451106
| 20> H 0.6588879508320882 2.1905675928590007 -0.3993769100293377
| 21> H 0.8057561051302564 1.1919891600700625 -1.861404311274829
| 22> H 1.0514826027345425 -2.110767810070981 0.005537082044984147
| 23> H 2.4144150708128316 -1.0866431713414686 -0.47820595922220943
| 24> H 1.0832503628552617 -1.3860196403845881 -1.6125648705700741
| 25> *
| 26>
| 27>                          ****END OF INPUT****

CARTESIAN COORDINATES (ANGSTROEM)
---------------------------------
  C     -1.753622    1.085800    0.037491
  C     -0.888400   -0.133883   -0.111120
  O     -1.400739   -1.233403   -0.300793
  C      0.627631    0.029437   -0.021311
  C      0.968496    0.206211    1.473224
  C      1.084564    1.268774   -0.805068
  C      1.330777   -1.217318   -0.559348
  H     -1.785013    1.599594   -0.931842
  H     -2.769806    0.791766    0.305338
  H     -1.355806    1.798511    0.763282
  H      0.517709    1.111501    1.889766
  H      0.629648   -0.654969    2.058385
  H      2.055305    0.287312    1.580020
  H      2.175020    1.347830   -0.745731
  H      0.658888    2.190568   -0.399377
  H      0.805756    1.191989   -1.861404
  H      1.051483   -2.110768    0.005537
  H      2.414415   -1.086643   -0.478206
  H      1.083250   -1.386020   -1.612565

 Total Charge           Charge          ....    0
 Multiplicity           Mult            ....    1
 Number of Electrons    NEL             ....   56
 Basis Dimension        Dim             ....  289

ORBITAL ENERGIES
----------------

  NO   OCC          E(Eh)            E(eV)
   0   2.0000     -21.656645      -589.3073
   1   2.0000     -12.134745      -330.2032
   2   2.0000     -12.070422      -328.4529
   3   2.0000     -12.051399      -327.9352
   4   2.0000     -12.048738      -327.8628
   5   2.0000     -12.047850      -327.8387
   6   2.0000     -12.033412      -327.4458
   7   2.0000      -1.700328       -46.2683
   8   2.0000      -1.344445       -36.5842
   9   2.0000      -1.253602       -34.1122
  10   2.0000      -1.191612       -32.4254
  11   2.0000      -1.183122       -32.1944
  12   2.0000      -1.118107       -30.4252
  13   2.0000      -1.048967       -28.5438
  14   2.0000      -0.960803       -26.1448
  15   2.0000      -0.953729       -25.9523
  16   2.0000      -0.912604       -24.8332
  17   2.0000      -0.878936       -23.9171
  18   2.0000      -0.871016       -23.7016
  19   2.0000      -0.848411       -23.0864
  20   2.0000      -0.837177       -22.7808
  21   2.0000      -0.832211       -22.6456
  22   2.0000      -0.822373       -22.3779
  23   2.0000      -0.814891       -22.1743
  24   2.0000      -0.805234       -21.9115
  25   2.0000      -0.783591       -21.3226
  26   2.0000      -0.780088       -21.2273
  27   2.0000      -0.765419       -20.8281
  28   0.0000      -0.309278        -8.4159
  29   0.0000      -0.061918        -1.6849
  30   0.0000      -0.048888        -1.3303
  31   0.0000      -0.035556        -0.9675
  32   0.0000      -0.020859        -0.5676

MULLIKEN ATOMIC CHARGES
-----------------------
   0 C :   -0.379627
   1 C :    0.190963
   2 O :   -0.311262
   3 C :    0.101422
   4 C :   -0.368179
   5 C :   -0.373752
   6 C :   -0.343227
   7 H :    0.137933
   8 H :    0.143546
   9 H :    0.126457
  10 H :    0.108883
  11 H :    0.133278
  12 H :    0.119021
  13 H :    0.119615
  14 H :    0.117006
  15 H :    0.126719
  16 H :    0.128481
  17 H :    0.108031
  18 H :    0.114694
Sum of atomic charges:    0.0000000

LOEWDIN ATOMIC CHARGES
----------------------
   0 C :   -0.258463
   1 C :   -0.293698
   2 O :    0.113317
   3 C :   -0.331192
   4 C :   -0.243642
   5 C :   -0.249933
   6 C :   -0.250525
   7 H :    0.140387
   8 H :    0.132419
   9 H :    0.125608
  10 H :    0.118513
  11 H :    0.127841
  12 H :    0.125835
  13 H :    0.125649
  14 H :    0.120871
  15 H :    0.124650
  16 H :    0.127431
  17 H :    0.120056
  18 H :    0.124878

  Mayer bond orders larger than 0.100000
B(  0-C ,  1-C ) :   0.9651 B(  0-C ,  7-H ) :   0.9460 B(  0-C ,  8-H ) :   0.9776
B(  0-C ,  9-H ) :   0.9747 B(  1-C ,  2-O ) :   2.1468 B(  1-C ,  3-C ) :   0.9004
B(  3-C ,  4-C ) :   0.9644 B(  3-C ,  5-C ) :   0.9565 B(  3-C ,  6-C ) :   0.9898
B(  4-C , 10-H ) :   0.9657 B(  4-C , 11-H ) :   0.9784 B(  4-C , 12-H ) :   0.9762
B(  5-C , 13-H ) :   0.9734 B(  5-C , 14-H ) :   0.9669 B(  5-C , 15-H ) :   0.9837
B(  6-C , 16-H ) :   0.9704 B(  6-C , 17-H ) :   0.9784 B(  6-C , 18-H ) :   0.9722

FINAL SINGLE POINT ENERGY      -311.110096805773

DIPOLE MOMENT
-------------

Method             : SCF
Type of density    : Electron Density
Multiplicity       :   1
Irrep              :   0
Energy             :  -311.1233822305734407 Eh
Relativity type    :
Basis              : AO
                                X                 Y                 Z
Electronic contribution:     -4.641402541      -3.692364396      -0.805205017
Nuclear contribution   :      5.170506239       4.717939920       0.991167948
                        -----------------------------------------
Total Dipole Moment    :      0.529103697       1.025575525       0.185962931
                        -----------------------------------------
Magnitude (a.u.)       :      1.168904654
Magnitude (Debye)      :      2.971119513

Rotational constants in cm-1:             0.106550             0.077261             0.064268
Rotational constants in MHz :          3194.282173          2316.212706          1926.700356

                             ****ORCA TERMINATED NORMALLY****
TOTAL RUN TIME: 0 days 0 hours 2 minutes 23 seconds 644 msec
