                         Program Version 6.0.0  -   RELEASE  -
|  1> ! wb97x-v def2-tzvp def2/J RIJCOSX DEFGRID2 scfconv7 GCP(DFT/TZ) printgap
|  2> %output
|  3>     printlevel normal
|  4> end
|  5> %cpcm
|  6>     smd true
|  7>     smdsolvent "water"
|  8> end
|  9> * xyz 0 1
| 10> C -1.7536224537955003 1.0857995000659741 0.037490652440922215
| 11> C -0.8883999968328455 -0.13388278886946364 -0.1111201112960303
| 12> O -1.4007385757586075 -1.233402912517698 -0.3007932092986323
| 13> C 0.6276309929806008 0.029436867549636574 -0.021310775179823122
| 14> C 0.968495938999973 0.20621096438868927 1.4732236317900547
| 15> C 1.084564384864323 1.2687741343319574 -0.8050680539328402
| 16> C 1.3307768510206752 -1.2173184217799007 -0.5593484837766872
| 17> H -1.7850127440134274 1.5995939554618164 -0.9318417259364431
| 18> H -2.7698063430527715 0.7917663437975633 0.30533847719521656
| 19> H -1.3558055007575471 1.7985107808391763 0.763281646892302
| 20> H 0.5177090197100853 1.111501092217177 1.8897664300708135
| 21> H 0.6296479491519436 -0.6549691727985909 2.0583854139509468
| 22> H 2.0553054903286228 0.28731241589900247 1.5800202070010925
| 23> H 2.175020013784471 1.3478300995893757 -0.7457313457451106
| 24> H 0.6588879508320882 2.1905675928590007 -0.3993769100293377
| 25> H 0.8057561051302564 1.1919891600700625 -1.861404311274829
| 26> H 1.0514826027345425 -2.110767810070981 0.005537082044984147
| 27> H 2.4144150708128316 -1.0866431713414686 -0.47820595922220943
| 28> H 1.0832503628552617 -1.3860196403845881 -1.6125648705700741
| 29> *
| 30>
| 31>                          ****END OF INPUT****

CARTESIAN COORDINATES (ANGSTROEM)
---------------------------------
  C     -1.753622    1.085800    0.037491
  C     -0.888400   -0.133883   -0.111120
  O     -1.400739   -1.233403   -0.300793
  C      0.627631    0.029437   -0.021311
  C      0.968496    0.206211    1.473224
  C      1.084564    1.268774   -0.805068
  C      1.330777   -1.217318   -0.559348
  H     -1.785013    1.599594   -0.931842
  H     -2.769806    0.791766    0.305338
  H     -1.355806    1.798511    0.763282
  H      0.517709    1.111501    1.889766
  H      0.629648   -0.654969    2.058385
  H      2.055305    0.287312    1.580020
  H      2.175020    1.347830   -0.745731
  H      0.658888    2.190568   -0.399377
  H      0.805756    1.191989   -1.861404
  H      1.051483   -2.110768    0.005537
  H      2.414415   -1.086643   -0.478206
  H      1.083250   -1.386020   -1.612565

 Total Charge           Charge          ....    0
 Multiplicity           Mult            ....    1
 Number of Electrons    NEL             ....   56
 Basis Dimension        Dim             ....  289

ORBITAL ENERGIES
----------------

  NO   OCC          E(Eh)            E(eV)
   0   2.0000     -21.666672      -589.5801
   1   2.0000     -12.141314      -330.3820
   2   2.0000     -12.062107      -328.2266
   3   2.0000     -12.038358      -327.5804
   4   2.0000     -12.033315      -327.4432
   5   2.0000     -12.030536      -327.3675
   6   2.0000     -12.026213      -327.2499
   7   2.0000      -1.713667       -46.6313
   8   2.0000      -1.335058       -36.3288
   9   2.0000      -1.245654       -33.8960
  10   2.0000      -1.175909       -31.9981
  11   2.0000      -1.173504       -31.9327
  12   2.0000      -1.118461       -30.4349
  13   2.0000      -1.054362       -28.6906
  14   2.0000      -0.964182       -26.2367
  15   2.0000      -0.945326       -25.7236
  16   2.0000      -0.921557       -25.0768
  17   2.0000      -0.866278       -23.5726
  18   2.0000      -0.862640       -23.4736
  19   2.0000      -0.842938       -22.9375
  20   2.0000      -0.826109       -22.4796
  21   2.0000      -0.821809       -22.3626
  22   2.0000      -0.807186       -21.9646
  23   2.0000      -0.804433       -21.8897
  24   2.0000      -0.791756       -21.5448
  25   2.0000      -0.771782       -21.0013
  26   2.0000      -0.769102       -20.9283
  27   2.0000      -0.760342       -20.6899
  28   0.0000      -0.306909        -8.3514
  29   0.0000      -0.054776        -1.4905
  30   0.0000      -0.038964        -1.0603
  31   0.0000      -0.020889        -0.5684
  32   0.0000      -0.006816        -0.1855

MULLIKEN ATOMIC CHARGES
-----------------------
   0 C :   -0.421255
   1 C :    0.269663
   2 O :   -0.451556
   3 C :    0.154539
   4 C :   -0.421100
   5 C :   -0.427630
   6 C :   -0.424134
   7 H :    0.170489
   8 H :    0.147116
   9 H :    0.164586
  10 H :    0.139760
  11 H :    0.138784
  12 H :    0.140217
  13 H :    0.138913
  14 H :    0.141615
  15 H :    0.140857
  16 H :    0.130102
  17 H :    0.135985
  18 H :    0.133050
Sum of atomic charges:    0.0000000

LOEWDIN ATOMIC CHARGES
----------------------
   0 C :   -0.252913
   1 C :   -0.271733
   2 O :    0.034627
   3 C :   -0.326032
   4 C :   -0.243829
   5 C :   -0.249096
   6 C :   -0.260751
   7 H :    0.151659
   8 H :    0.132491
   9 H :    0.139015
  10 H :    0.126335
  11 H :    0.128208
  12 H :    0.130905
  13 H :    0.129651
  14 H :    0.127322
  15 H :    0.128080
  16 H :    0.123346
  17 H :    0.127554
  18 H :    0.125162

  Mayer bond orders larger than 0.100000
B(  0-C ,  1-C ) :   0.9935 B(  0-C ,  7-H ) :   0.9360 B(  0-C ,  8-H ) :   0.9689
B(  0-C ,  9-H ) :   0.9621 B(  1-C ,  2-O ) :   1.9899 B(  1-C ,  3-C ) :   0.9106
B(  3-C ,  4-C ) :   0.9490 B(  3-C ,  5-C ) :   0.9467 B(  3-C ,  6-C ) :   0.9604
B(  4-C , 10-H ) :   0.9645 B(  4-C , 11-H ) :   0.9732 B(  4-C , 12-H ) :   0.9736
B(  5-C , 13-H ) :   0.9713 B(  5-C , 14-H ) :   0.9656 B(  5-C , 15-H ) :   0.9783
B(  6-C , 16-H ) :   0.9708 B(  6-C , 17-H ) :   0.9773 B(  6-C , 18-H ) :   0.9766

FINAL SINGLE POINT ENERGY      -311.116696098129

DIPOLE MOMENT
-------------

Method             : SCF
Type of density    : Electron Density
Multiplicity       :   1
Irrep              :   0
Energy             :  -311.1299815229293131 Eh
Relativity type    :
Basis              : AO
                                X                 Y                 Z
Electronic contribution:     -4.397477230      -3.130690413      -0.714755781
Nuclear contribution   :      5.170506239       4.717939920       0.991167948
                        -----------------------------------------
Total Dipole Moment    :      0.773029008       1.587249507       0.276412167
                        -----------------------------------------
Magnitude (a.u.)       :      1.786991475
Magnitude (Debye)      :      4.542171357

Rotational constants in cm-1:             0.106550             0.077261             0.064268
Rotational constants in MHz :          3194.282173          2316.212706          1926.700356

                             ****ORCA TERMINATED NORMALLY****
TOTAL RUN TIME: 0 days 0 hours 2 minutes 28 seconds 700 msec
