                         Program Version 6.0.0  -   RELEASE  -
|  1> ! r2scan-3c def2/J RI DEFGRID2 scfconv6 printgap
|  2> %output
|  3>     printlevel normal
|  4> end
|  5> %cpcm
|  6>     smd true
|  7>     smdsolvent "water"
|  8> end
|  9> * xyz 0 1
| 10> C 1.7436252237 -0.8622428898 0.4165725847
| 11> C 0.9549218402 0.0297835274 -0.5425474395
| 12> C -0.4660934423 0.2994228959 -0.1090588209
| 13> O -0.9786518501 1.3950810673 -0.1827158307
| 14> O -1.172200909 -0.7279621632 0.3508707353
| 15> H 1.6891607092 -0.4750404772 1.4311515512
| 16> H 1.3873702761 -1.8890246874 0.4097514381
| 17> H 2.7865807649 -0.8742663422 0.1135586477
| 18> H 1.441076803 0.9993555781 -0.6526566657
| 19> H 0.9097159948 -0.4322249384 -1.5322528052
| 20> H -0.6748171969 -1.5664939096 0.3619525862
| 21> *
| 22>
| 23>                          ****END OF INPUT****

CARTESIAN COORDINATES (ANGSTROEM)
---------------------------------
  C      1.743625   -0.862243    0.416573
  C      0.954922    0.029784   -0.542547
  C     -0.466093    0.299423   -0.109059
  O     -0.978652    1.395081   -0.182716
  O     -1.172201   -0.727962    0.350871
  H      1.689161   -0.475040    1.431152
  H      1.387370   -1.889025    0.409751
  H      2.786581   -0.874266    0.113559
  H      1.441077    0.999356   -0.652657
  H      0.909716   -0.432225   -1.532253
  H     -0.674817   -1.566494    0.361953

 Total Charge           Charge          ....    0
 Multiplicity           Mult            ....    1
 Number of Electrons    NEL             ....   40
 Basis Dimension        Dim             ....  135

ORBITAL ENERGIES
----------------

  NO   OCC          E(Eh)            E(eV)
   0   2.0000     -19.004644      -517.1427
   1   2.0000     -18.944410      -515.5036
   2   2.0000     -10.169204      -276.7181
   3   2.0000     -10.041459      -273.2420
   4   2.0000     -10.023782      -272.7610
   5   2.0000      -1.077656       -29.3245
   6   2.0000      -0.991675       -26.9849
   7   2.0000      -0.747972       -20.3533
   8   2.0000      -0.625176       -17.0119
   9   2.0000      -0.587450       -15.9853
  10   2.0000      -0.481085       -13.0910
  11   2.0000      -0.447481       -12.1766
  12   2.0000      -0.435712       -11.8563
  13   2.0000      -0.398122       -10.8335
  14   2.0000      -0.366036        -9.9603
  15   2.0000      -0.356232        -9.6936
  16   2.0000      -0.329555        -8.9676
  17   2.0000      -0.319983        -8.7072
  18   2.0000      -0.300581        -8.1792
  19   2.0000      -0.251875        -6.8539
  20   0.0000      -0.024946        -0.6788
  21   0.0000       0.068013         1.8507
  22   0.0000       0.120238         3.2718
  23   0.0000       0.138203         3.7607
  24   0.0000       0.152831         4.1587

MULLIKEN ATOMIC CHARGES
-----------------------
   0 C :   -0.487597
   1 C :   -0.299930
   2 C :    0.384724
   3 O :   -0.491124
   4 O :   -0.370033
   5 H :    0.172141
   6 H :    0.159847
   7 H :    0.172704
   8 H :    0.175841
   9 H :    0.201571
  10 H :    0.381856
Sum of atomic charges:   -0.0000000

LOEWDIN ATOMIC CHARGES
----------------------
   0 C :   -0.405863
   1 C :   -0.252165
   2 C :    0.351396
   3 O :   -0.480493
   4 O :   -0.394564
   5 H :    0.162755
   6 H :    0.157856
   7 H :    0.163880
   8 H :    0.183135
   9 H :    0.193204
  10 H :    0.320859

  Mayer bond orders larger than 0.100000
B(  0-C ,  1-C ) :   0.8833 B(  0-C ,  5-H ) :   0.9747 B(  0-C ,  6-H ) :   0.9626
B(  0-C ,  7-H ) :   0.9621 B(  1-C ,  2-C ) :   0.9954 B(  1-C ,  8-H ) :   0.9627
B(  1-C ,  9-H ) :   0.9171 B(  2-C ,  3-O ) :   1.8998 B(  2-C ,  4-O ) :   1.1064
B(  4-O , 10-H ) :   0.8344

Dispersion correction           -0.002148447
FINAL SINGLE POINT ENERGY      -268.356975805687

DIPOLE MOMENT
-------------

Method             : SCF
Type of density    : Electron Density
Multiplicity       :   1
Irrep              :   0
Energy             :  -268.3612432454169721 Eh
Relativity type    :
Basis              : AO
                                X                 Y                 Z
Electronic contribution:     -5.438352505       2.033441213      -0.224091395
Nuclear contribution   :      7.041038667      -3.965788512       0.125870898
                        -----------------------------------------
Total Dipole Moment    :      1.602686161      -1.932347299      -0.098220497
                        -----------------------------------------
Magnitude (a.u.)       :      2.512412442
Magnitude (Debye)      :      6.386044921

Rotational constants in cm-1:             0.307230             0.132140             0.100906
Rotational constants in MHz :          9210.513284          3961.459776          3025.097466

                             ****ORCA TERMINATED NORMALLY****
TOTAL RUN TIME: 0 days 0 hours 0 minutes 14 seconds 708 msec
