                         Program Version 6.0.0  -   RELEASE  -
|  1> ! pbe def2-sv(p) def2/J RI DEFGRID1 loosescf d4 GCP(DFT/SV(P)) printgap
|  2> %output
|  3>     printlevel normal
|  4> end
|  5> * xyz 0 1
|  6> C -2.9823165437 1.2434909785 -0.009486353
|  7> C -1.7459398758 0.39533735 0.0070547028
|  8> C -1.8355083185 -0.9862562045 0.005604038
|  9> C -0.6905826811 -1.7666437283 0.0015653575
| 10> C 0.5630278543 -1.1823125144 -0.0014054947
| 11> C 0.6686006019 0.2200235529 -0.0001092999
| 12> C -0.485664691 0.985669424 0.0037231383
| 13> O 1.9447112554 0.7172840847 -0.0013968449
| 14> C 2.1175317587 2.1192403035 0.0030444969
| 15> O 1.7184640948 -1.9102439388 -0.003539841
| 16> H -2.7627508765 2.2576474856 0.3121751507
| 17> H -3.3913562776 1.2855149591 -1.0184989277
| 18> H -3.7433952942 0.8222079703 0.6426730686
| 19> H -2.8034599226 -1.4632068961 0.0086573972
| 20> H -0.7735047148 -2.8436395118 0.002375578
| 21> H -0.4174090779 2.0617806372 0.0042737165
| 22> H 1.6813927756 2.5747185378 -0.8903911075
| 23> H 3.1943267274 2.2729070049 0.0033958898
| 24> H 1.6817359302 2.5689931491 0.8995496494
| 25> H 1.5103453422 -2.8569571605 -0.0049018667
| 26> *
| 27>
| 28>                          ****END OF INPUT****

CARTESIAN COORDINATES (ANGSTROEM)
---------------------------------
  C     -2.982317    1.243491   -0.009486
  C     -1.745940    0.395337    0.007055
  C     -1.835508   -0.986256    0.005604
  C     -0.690583   -1.766644    0.001565
  C      0.563028   -1.182313   -0.001405
  C      0.668601    0.220024   -0.000109
  C     -0.485665    0.985669    0.003723
  O      1.944711    0.717284   -0.001397
  C      2.117532    2.119240    0.003044
  O      1.718464   -1.910244   -0.003540
  H     -2.762751    2.257647    0.312175
  H     -3.391356    1.285515   -1.018499
  H     -3.743395    0.822208    0.642673
  H     -2.803460   -1.463207    0.008657
  H     -0.773505   -2.843640    0.002376
  H     -0.417409    2.061781    0.004274
  H      1.681393    2.574719   -0.890391
  H      3.194327    2.272907    0.003396
  H      1.681736    2.568993    0.899550
  H      1.510345   -2.856957   -0.004902

 Total Charge           Charge          ....    0
 Multiplicity           Mult            ....    1
 Number of Electrons    NEL             ....   74
 Basis Dimension        Dim             ....  160

ORBITAL ENERGIES
----------------

  NO   OCC          E(Eh)            E(eV)
   0   2.0000     -18.778826      -510.9978
   1   2.0000     -18.774449      -510.8787
   2   2.0000      -9.942781      -270.5568
   3   2.0000      -9.942083      -270.5378
   4   2.0000      -9.935609      -270.3617
   5   2.0000      -9.889959      -269.1195
   6   2.0000      -9.885283      -268.9922
   7   2.0000      -9.882271      -268.9103
   8   2.0000      -9.878168      -268.7986
   9   2.0000      -9.877791      -268.7884
  10   2.0000      -0.965838       -26.2818
  11   2.0000      -0.946431       -25.7537
  12   2.0000      -0.767701       -20.8902
  13   2.0000      -0.690731       -18.7958
  14   2.0000      -0.671331       -18.2678
  15   2.0000      -0.630510       -17.1570
  16   2.0000      -0.601448       -16.3662
  17   2.0000      -0.552271       -15.0281
  18   2.0000      -0.518282       -14.1032
  19   2.0000      -0.492861       -13.4114
  20   2.0000      -0.455675       -12.3995
  21   2.0000      -0.439092       -11.9483
  22   2.0000      -0.415587       -11.3087
  23   2.0000      -0.402180       -10.9439
  24   2.0000      -0.387517       -10.5449
  25   2.0000      -0.373311       -10.1583
  26   2.0000      -0.370604       -10.0847
  27   2.0000      -0.353120        -9.6089
  28   2.0000      -0.349561        -9.5120
  29   2.0000      -0.329384        -8.9630
  30   2.0000      -0.310918        -8.4605
  31   2.0000      -0.295605        -8.0438
  32   2.0000      -0.289379        -7.8744
  33   2.0000      -0.274414        -7.4672
  34   2.0000      -0.267900        -7.2899
  35   2.0000      -0.205835        -5.6010
  36   2.0000      -0.169660        -4.6167
  37   0.0000      -0.018458        -0.5023
  38   0.0000      -0.010330        -0.2811
  39   0.0000       0.026998         0.7347
  40   0.0000       0.043970         1.1965
  41   0.0000       0.058359         1.5880

MULLIKEN ATOMIC CHARGES
-----------------------
   0 C :   -0.224635
   1 C :    0.081943
   2 C :   -0.119884
   3 C :   -0.189101
   4 C :    0.191596
   5 C :    0.230083
   6 C :   -0.305025
   7 O :   -0.265683
   8 C :   -0.110589
   9 O :   -0.330961
  10 H :    0.098416
  11 H :    0.115217
  12 H :    0.106341
  13 H :    0.026531
  14 H :    0.020075
  15 H :    0.019901
  16 H :    0.107919
  17 H :    0.124834
  18 H :    0.107892
  19 H :    0.315130
Sum of atomic charges:   -0.0000000

LOEWDIN ATOMIC CHARGES
----------------------
   0 C :   -0.321285
   1 C :   -0.062579
   2 C :   -0.141138
   3 C :   -0.173417
   4 C :    0.004279
   5 C :    0.014625
   6 C :   -0.173083
   7 O :   -0.088079
   8 C :   -0.201671
   9 O :   -0.234216
  10 H :    0.121869
  11 H :    0.130654
  12 H :    0.126716
  13 H :    0.119015
  14 H :    0.119844
  15 H :    0.124173
  16 H :    0.107713
  17 H :    0.122129
  18 H :    0.107776
  19 H :    0.296676

  Mayer bond orders larger than 0.100000
B(  0-C ,  1-C ) :   1.0948 B(  0-C , 10-H ) :   0.9447 B(  0-C , 11-H ) :   0.9347
B(  0-C , 12-H ) :   0.9418 B(  1-C ,  2-C ) :   1.4025 B(  1-C ,  6-C ) :   1.3121
B(  2-C ,  3-C ) :   1.3113 B(  2-C , 13-H ) :   0.9678 B(  3-C ,  4-C ) :   1.3503
B(  3-C , 14-H ) :   0.9650 B(  4-C ,  5-C ) :   1.3455 B(  4-C ,  9-O ) :   1.2111
B(  5-C ,  6-C ) :   1.3083 B(  5-C ,  7-O ) :   1.1624 B(  6-C , 15-H ) :   0.9641
B(  7-O ,  8-C ) :   0.9949 B(  8-C , 16-H ) :   0.9411 B(  8-C , 17-H ) :   0.9584
B(  8-C , 18-H ) :   0.9409 B(  9-O , 19-H ) :   0.8424

Dispersion correction           -0.020037359
FINAL SINGLE POINT ENERGY      -460.305048532424

DIPOLE MOMENT
-------------

Method             : SCF
Type of density    : Electron Density
Multiplicity       :   1
Irrep              :   0
Energy             :  -460.3720562951460806 Eh
Relativity type    :
Basis              : AO
                                X                 Y                 Z
Electronic contribution:      5.192640160      -6.184938724       0.020611748
Nuclear contribution   :     -5.409694905       6.249265684      -0.038248628
                        -----------------------------------------
Total Dipole Moment    :     -0.217054745       0.064326960      -0.017636879
                        -----------------------------------------
Magnitude (a.u.)       :      0.227072190
Magnitude (Debye)      :      0.577171639

Rotational constants in cm-1:             0.062152             0.039494             0.024371
Rotational constants in MHz :          1863.283848          1183.992507           730.614281

                             ****ORCA TERMINATED NORMALLY****
TOTAL RUN TIME: 0 days 0 hours 0 minutes 10 seconds 98 msec
