                         Program Version 6.0.0  -   RELEASE  -
|  1> ! pbe def2-sv(p) def2/J RI DEFGRID1 loosescf d4 GCP(DFT/SV(P)) printgap
|  2> %output
|  3>     printlevel normal
|  4> end
|  5> * xyz 0 1
|  6> C 1.5788967303 1.6336113918 0.8425046403
|  7> C 0.2789277698 0.8825945739 1.1965041222
|  8> H -0.080359578 1.2683704693 2.1523853641
|  9> C 0.3129201021 -0.674743105 1.2799203617
| 10> H -0.0695846821 -0.9895147725 2.2533857393
| 11> C 1.6499944679 -1.4004381937 1.0926311603
| 12> O 2.43547922 -0.8733874226 0.0519776721
| 13> S 3.6556629277 0.1473348124 0.5740262907
| 14> O 4.4504357516 -0.567198988 1.5410653208
| 15> O 2.6959425328 1.1112357085 1.5251916289
| 16> C -0.736488259 -1.0898023554 0.2115256378
| 17> C -0.2032114041 -0.6922235058 -1.1494293941
| 18> C -0.2603300584 0.6453393233 -1.2151160517
| 19> C -0.8084156355 1.1359794624 0.1130674188
| 20> C -1.8139487276 0.0010528642 0.4045776449
| 21> Cl -3.1266769484 -0.0924503174 -0.7846748841
| 22> Cl -2.5326095796 0.0495720143 2.007984364
| 23> Cl -1.4606396183 2.7621996783 0.0990220077
| 24> Cl 0.2112441998 1.6691661542 -2.478046434
| 25> Cl 0.3782545497 -1.794897706 -2.2863976042
| 26> Cl -1.2910779309 -2.7487170195 0.3421320697
| 27> H 1.4690372774 2.6791235247 1.1386038874
| 28> H 1.7649683696 1.5860112582 -0.2330088399
| 29> H 2.2238779446 -1.3542395929 2.0251993016
| 30> H 1.4498564308 -2.4513011601 0.8643250929
| 31> *
| 32>
| 33>                          ****END OF INPUT****

CARTESIAN COORDINATES (ANGSTROEM)
---------------------------------
  C      1.578897    1.633611    0.842505
  C      0.278928    0.882595    1.196504
  H     -0.080360    1.268370    2.152385
  C      0.312920   -0.674743    1.279920
  H     -0.069585   -0.989515    2.253386
  C      1.649994   -1.400438    1.092631
  O      2.435479   -0.873387    0.051978
  S      3.655663    0.147335    0.574026
  O      4.450436   -0.567199    1.541065
  O      2.695943    1.111236    1.525192
  C     -0.736488   -1.089802    0.211526
  C     -0.203211   -0.692224   -1.149429
  C     -0.260330    0.645339   -1.215116
  C     -0.808416    1.135979    0.113067
  C     -1.813949    0.001053    0.404578
  Cl    -3.126677   -0.092450   -0.784675
  Cl    -2.532610    0.049572    2.007984
  Cl    -1.460640    2.762200    0.099022
  Cl     0.211244    1.669166   -2.478046
  Cl     0.378255   -1.794898   -2.286398
  Cl    -1.291078   -2.748717    0.342132
  H      1.469037    2.679124    1.138604
  H      1.764968    1.586011   -0.233009
  H      2.223878   -1.354240    2.025199
  H      1.449856   -2.451301    0.864325

 Total Charge           Charge          ....    0
 Multiplicity           Mult            ....    1
 Number of Electrons    NEL             ....  202
 Basis Dimension        Dim             ....  306

ORBITAL ENERGIES
----------------

  NO   OCC          E(Eh)            E(eV)
   0   2.0000    -100.676499     -2739.5468
   1   2.0000    -100.671840     -2739.4200
   2   2.0000    -100.666624     -2739.2781
   3   2.0000    -100.659452     -2739.0829
   4   2.0000    -100.658801     -2739.0652
   5   2.0000    -100.654822     -2738.9570
   6   2.0000     -88.209352     -2400.2985
   7   2.0000     -18.807835      -511.7872
   8   2.0000     -18.804534      -511.6974
   9   2.0000     -18.769596      -510.7467
  10   2.0000     -10.043651      -273.3016
  11   2.0000     -10.011745      -272.4334
  12   2.0000     -10.008744      -272.3518
  13   2.0000      -9.981648      -271.6145
  14   2.0000      -9.980790      -271.5911
  15   2.0000      -9.969912      -271.2951
  16   2.0000      -9.962664      -271.0979
  17   2.0000      -9.946571      -270.6600
  18   2.0000      -9.944922      -270.6151
  19   2.0000      -9.211933      -250.6694
  20   2.0000      -9.207565      -250.5506
  21   2.0000      -9.202726      -250.4189
  22   2.0000      -9.195305      -250.2170
  23   2.0000      -9.194539      -250.1961
  24   2.0000      -9.190779      -250.0938
  25   2.0000      -7.835488      -213.2145
  26   2.0000      -7.043427      -191.6614
  27   2.0000      -7.039129      -191.5444
  28   2.0000      -7.034373      -191.4150
  29   2.0000      -7.032111      -191.3535
  30   2.0000      -7.031016      -191.3237
  31   2.0000      -7.027615      -191.2311
  32   2.0000      -7.026992      -191.2142
  33   2.0000      -7.026636      -191.2045
  34   2.0000      -7.026204      -191.1927
  35   2.0000      -7.022793      -191.0999
  36   2.0000      -7.022260      -191.0854
  37   2.0000      -7.022105      -191.0812
  38   2.0000      -7.014941      -190.8863
  39   2.0000      -7.014651      -190.8784
  40   2.0000      -7.014185      -190.8657
  41   2.0000      -7.013899      -190.8579
  42   2.0000      -7.010190      -190.7570
  43   2.0000      -7.010012      -190.7521
  44   2.0000      -5.864111      -159.5706
  45   2.0000      -5.862840      -159.5360
  46   2.0000      -5.853141      -159.2721
  47   2.0000      -1.048083       -28.5198
  48   2.0000      -0.958233       -26.0748
  49   2.0000      -0.949911       -25.8484
  50   2.0000      -0.916974       -24.9521
  51   2.0000      -0.844740       -22.9865
  52   2.0000      -0.832863       -22.6634
  53   2.0000      -0.807441       -21.9716
  54   2.0000      -0.799678       -21.7604
  55   2.0000      -0.776405       -21.1271
  56   2.0000      -0.771991       -21.0069
  57   2.0000      -0.728822       -19.8323
  58   2.0000      -0.694329       -18.8936
  59   2.0000      -0.669826       -18.2269
  60   2.0000      -0.629172       -17.1206
  61   2.0000      -0.628239       -17.0953
  62   2.0000      -0.565805       -15.3963
  63   2.0000      -0.552625       -15.0377
  64   2.0000      -0.539605       -14.6834
  65   2.0000      -0.513511       -13.9734
  66   2.0000      -0.503559       -13.7025
  67   2.0000      -0.494469       -13.4552
  68   2.0000      -0.483330       -13.1521
  69   2.0000      -0.468640       -12.7524
  70   2.0000      -0.456709       -12.4277
  71   2.0000      -0.441883       -12.0243
  72   2.0000      -0.434228       -11.8160
  73   2.0000      -0.430375       -11.7111
  74   2.0000      -0.424362       -11.5475
  75   2.0000      -0.410740       -11.1768
  76   2.0000      -0.406007       -11.0480
  77   2.0000      -0.399951       -10.8832
  78   2.0000      -0.393068       -10.6959
  79   2.0000      -0.377851       -10.2819
  80   2.0000      -0.366664        -9.9774
  81   2.0000      -0.364030        -9.9058
  82   2.0000      -0.348335        -9.4787
  83   2.0000      -0.331280        -9.0146
  84   2.0000      -0.325129        -8.8472
  85   2.0000      -0.322001        -8.7621
  86   2.0000      -0.313455        -8.5295
  87   2.0000      -0.305175        -8.3042
  88   2.0000      -0.297490        -8.0951
  89   2.0000      -0.294357        -8.0099
  90   2.0000      -0.292078        -7.9478
  91   2.0000      -0.290336        -7.9005
  92   2.0000      -0.284553        -7.7431
  93   2.0000      -0.282783        -7.6949
  94   2.0000      -0.281692        -7.6652
  95   2.0000      -0.276514        -7.5243
  96   2.0000      -0.274558        -7.4711
  97   2.0000      -0.272316        -7.4101
  98   2.0000      -0.261131        -7.1057
  99   2.0000      -0.250187        -6.8079
 100   2.0000      -0.226017        -6.1502
 101   0.0000      -0.069706        -1.8968
 102   0.0000      -0.060622        -1.6496
 103   0.0000      -0.043594        -1.1863
 104   0.0000      -0.024187        -0.6582
 105   0.0000      -0.011968        -0.3257

MULLIKEN ATOMIC CHARGES
-----------------------
   0 C :    0.054431
   1 C :   -0.043686
   2 H :    0.095964
   3 C :   -0.036660
   4 H :    0.098683
   5 C :    0.042089
   6 O :   -0.411553
   7 S :    0.807916
   8 O :   -0.395094
   9 O :   -0.403367
  10 C :   -0.138238
  11 C :    0.110693
  12 C :   -0.006863
  13 C :   -0.088291
  14 C :   -0.135116
  15 Cl:    0.012790
  16 Cl:    0.013718
  17 Cl:   -0.023130
  18 Cl:    0.003407
  19 Cl:    0.004317
  20 Cl:   -0.018329
  21 H :    0.111138
  22 H :    0.114060
  23 H :    0.121234
  24 H :    0.109885
Sum of atomic charges:   -0.0000000

LOEWDIN ATOMIC CHARGES
----------------------
   0 C :   -0.141761
   1 C :   -0.143922
   2 H :    0.132715
   3 C :   -0.146039
   4 H :    0.135774
   5 C :   -0.149229
   6 O :   -0.307181
   7 S :    0.913633
   8 O :   -0.437923
   9 O :   -0.299478
  10 C :   -0.168738
  11 C :   -0.198227
  12 C :   -0.214626
  13 C :   -0.167155
  14 C :   -0.229310
  15 Cl:    0.123944
  16 Cl:    0.146156
  17 Cl:    0.131767
  18 Cl:    0.205219
  19 Cl:    0.213456
  20 Cl:    0.135999
  21 H :    0.127007
  22 H :    0.099986
  23 H :    0.115461
  24 H :    0.122474

  Mayer bond orders larger than 0.100000
B(  0-C ,  1-C ) :   1.0532 B(  0-C ,  9-O ) :   0.9776 B(  0-C , 21-H ) :   0.9101
B(  0-C , 22-H ) :   0.8928 B(  1-C ,  2-H ) :   0.8443 B(  1-C ,  3-C ) :   1.0436
B(  1-C , 13-C ) :   0.9808 B(  3-C ,  4-H ) :   0.8445 B(  3-C ,  5-C ) :   1.0537
B(  3-C , 10-C ) :   0.9967 B(  5-C ,  6-O ) :   0.9538 B(  5-C , 23-H ) :   0.8943
B(  5-C , 24-H ) :   0.9065 B(  6-O ,  7-S ) :   0.8745 B(  7-S ,  8-O ) :   1.8505
B(  7-S ,  9-O ) :   0.8956 B( 10-C , 11-C ) :   0.9079 B( 10-C , 14-C ) :   0.8254
B( 10-C , 20-Cl) :   1.1293 B( 11-C , 12-C ) :   1.7622 B( 11-C , 19-Cl) :   1.1477
B( 12-C , 13-C ) :   0.8981 B( 12-C , 18-Cl) :   1.1342 B( 13-C , 14-C ) :   0.8293
B( 13-C , 17-Cl) :   1.1278 B( 14-C , 15-Cl) :   1.1484 B( 14-C , 16-Cl) :   1.1418

Dispersion correction           -0.059975252
FINAL SINGLE POINT ENERGY     -3728.106610367844

DIPOLE MOMENT
-------------

Method             : SCF
Type of density    : Electron Density
Multiplicity       :   1
Irrep              :   0
Energy             : -3728.1603982349784019 Eh
Relativity type    :
Basis              : AO
                                X                 Y                 Z
Electronic contribution:    -17.086425403      -0.538168020     -11.934613090
Nuclear contribution   :     16.873948816       0.891874113      11.884195324
                        -----------------------------------------
Total Dipole Moment    :     -0.212476587       0.353706093      -0.050417766
                        -----------------------------------------
Magnitude (a.u.)       :      0.415687685
Magnitude (Debye)      :      1.056594126

Rotational constants in cm-1:             0.010071             0.006546             0.006150
Rotational constants in MHz :           301.910051           196.229355           184.373837

                             ****ORCA TERMINATED NORMALLY****
TOTAL RUN TIME: 0 days 0 hours 0 minutes 25 seconds 683 msec
