                         Program Version 6.0.0  -   RELEASE  -
|  1> ! pbe def2-sv(p) def2/J RI DEFGRID1 loosescf d4 GCP(DFT/SV(P)) printgap
|  2> %output
|  3>     printlevel normal
|  4> end
|  5> * xyz 0 1
|  6> C 3.279699929 1.0664807799 -0.0006673541
|  7> N 2.2764131313 0.0343686395 -0.0002808234
|  8> C 2.473428274 -1.2925208293 -0.0017551516
|  9> N 1.3559233895 -1.9961242507 -0.0012879334
| 10> C 0.3749621901 -1.0701311162 0.0004098799
| 11> C 0.9139175083 0.213608334 0.0009453171
| 12> C 0.0944360043 1.3792743662 0.0013685333
| 13> O 0.4768435695 2.5464855036 0.0028647718
| 14> N -1.2601225941 1.0550933314 -0.000434476
| 15> C -1.8184126439 -0.2151951126 -0.0003234196
| 16> O -3.0333858467 -0.3548014973 -0.0016533575
| 17> N -0.9678011988 -1.2870779591 0.0001051527
| 18> C -1.4849423656 -2.6421712582 0.0028262095
| 19> C -2.2200270866 2.1502003131 -0.0020563829
| 20> H 3.9070588636 0.977858604 0.8854068286
| 21> H 3.9019413386 0.9822599755 -0.890812773
| 22> H 2.7787329035 2.0323772611 0.003044759
| 23> H 3.4463815458 -1.7403258305 -0.0031107879
| 24> H -1.1811340799 -3.1452794214 0.9187598743
| 25> H -1.0816403195 -3.1814345486 -0.8514360887
| 26> H -2.5691119896 -2.5855185904 -0.0561787711
| 27> H -1.656936494 3.0798681523 -0.0010771805
| 28> H -2.8527597442 2.0835106171 0.8815093813
| 29> H -2.8496216579 2.0834499205 -0.8878671893
| 30> *
| 31>
| 32>                          ****END OF INPUT****

CARTESIAN COORDINATES (ANGSTROEM)
---------------------------------
  C      3.279700    1.066481   -0.000667
  N      2.276413    0.034369   -0.000281
  C      2.473428   -1.292521   -0.001755
  N      1.355923   -1.996124   -0.001288
  C      0.374962   -1.070131    0.000410
  C      0.913918    0.213608    0.000945
  C      0.094436    1.379274    0.001369
  O      0.476844    2.546486    0.002865
  N     -1.260123    1.055093   -0.000434
  C     -1.818413   -0.215195   -0.000323
  O     -3.033386   -0.354801   -0.001653
  N     -0.967801   -1.287078    0.000105
  C     -1.484942   -2.642171    0.002826
  C     -2.220027    2.150200   -0.002056
  H      3.907059    0.977859    0.885407
  H      3.901941    0.982260   -0.890813
  H      2.778733    2.032377    0.003045
  H      3.446382   -1.740326   -0.003111
  H     -1.181134   -3.145279    0.918760
  H     -1.081640   -3.181435   -0.851436
  H     -2.569112   -2.585519   -0.056179
  H     -1.656936    3.079868   -0.001077
  H     -2.852760    2.083511    0.881509
  H     -2.849622    2.083450   -0.887867

 Total Charge           Charge          ....    0
 Multiplicity           Mult            ....    1
 Number of Electrons    NEL             ....  102
 Basis Dimension        Dim             ....  216

ORBITAL ENERGIES
----------------

  NO   OCC          E(Eh)            E(eV)
   0   2.0000     -18.731194      -509.7017
   1   2.0000     -18.723316      -509.4873
   2   2.0000     -14.080550      -383.1512
   3   2.0000     -14.056899      -382.5077
   4   2.0000     -14.048937      -382.2910
   5   2.0000     -13.992482      -380.7548
   6   2.0000     -10.017325      -272.5853
   7   2.0000      -9.999559      -272.1018
   8   2.0000      -9.965756      -271.1820
   9   2.0000      -9.960146      -271.0294
  10   2.0000      -9.941897      -270.5328
  11   2.0000      -9.934425      -270.3295
  12   2.0000      -9.922481      -270.0044
  13   2.0000      -9.911749      -269.7124
  14   2.0000      -0.980715       -26.6866
  15   2.0000      -0.959345       -26.1051
  16   2.0000      -0.939725       -25.5712
  17   2.0000      -0.886281       -24.1169
  18   2.0000      -0.850799       -23.1514
  19   2.0000      -0.825457       -22.4618
  20   2.0000      -0.720513       -19.6062
  21   2.0000      -0.671908       -18.2835
  22   2.0000      -0.666587       -18.1388
  23   2.0000      -0.643262       -17.5041
  24   2.0000      -0.598007       -16.2726
  25   2.0000      -0.582478       -15.8500
  26   2.0000      -0.547525       -14.8989
  27   2.0000      -0.527195       -14.3457
  28   2.0000      -0.484702       -13.1894
  29   2.0000      -0.463369       -12.6089
  30   2.0000      -0.461641       -12.5619
  31   2.0000      -0.439053       -11.9472
  32   2.0000      -0.432303       -11.7636
  33   2.0000      -0.410667       -11.1748
  34   2.0000      -0.406196       -11.0531
  35   2.0000      -0.404882       -11.0174
  36   2.0000      -0.383438       -10.4339
  37   2.0000      -0.379053       -10.3146
  38   2.0000      -0.375969       -10.2306
  39   2.0000      -0.366922        -9.9845
  40   2.0000      -0.352463        -9.5910
  41   2.0000      -0.347637        -9.4597
  42   2.0000      -0.346555        -9.4302
  43   2.0000      -0.341024        -9.2797
  44   2.0000      -0.286467        -7.7952
  45   2.0000      -0.252045        -6.8585
  46   2.0000      -0.250853        -6.8261
  47   2.0000      -0.235355        -6.4043
  48   2.0000      -0.232464        -6.3257
  49   2.0000      -0.210860        -5.7378
  50   2.0000      -0.194009        -5.2793
  51   0.0000      -0.061885        -1.6840
  52   0.0000      -0.008003        -0.2178
  53   0.0000      -0.000269        -0.0073
  54   0.0000       0.039037         1.0623
  55   0.0000       0.057618         1.5679

MULLIKEN ATOMIC CHARGES
-----------------------
   0 C :   -0.191061
   1 N :   -0.140284
   2 C :    0.030883
   3 N :   -0.118087
   4 C :    0.027637
   5 C :   -0.042019
   6 C :    0.152225
   7 O :   -0.198032
   8 N :   -0.279148
   9 C :    0.193342
  10 O :   -0.227386
  11 N :   -0.195218
  12 C :   -0.152287
  13 C :   -0.153216
  14 H :    0.130041
  15 H :    0.130075
  16 H :    0.165774
  17 H :    0.081072
  18 H :    0.124094
  19 H :    0.125253
  20 H :    0.146892
  21 H :    0.141814
  22 H :    0.123841
  23 H :    0.123795
Sum of atomic charges:    0.0000000

LOEWDIN ATOMIC CHARGES
----------------------
   0 C :   -0.251411
   1 N :    0.066518
   2 C :   -0.071965
   3 N :   -0.122340
   4 C :   -0.002689
   5 C :   -0.099958
   6 C :    0.026123
   7 O :   -0.199809
   8 N :   -0.022050
   9 C :    0.048619
  10 O :   -0.204220
  11 N :    0.002756
  12 C :   -0.241691
  13 C :   -0.248019
  14 H :    0.130698
  15 H :    0.130692
  16 H :    0.147109
  17 H :    0.122613
  18 H :    0.128465
  19 H :    0.129384
  20 H :    0.139965
  21 H :    0.134596
  22 H :    0.128315
  23 H :    0.128299

  Mayer bond orders larger than 0.100000
B(  0-C ,  1-N ) :   0.9752 B(  0-C , 14-H ) :   0.9505 B(  0-C , 15-H ) :   0.9505
B(  0-C , 16-H ) :   0.9213 B(  1-N ,  2-C ) :   1.2687 B(  1-N ,  5-C ) :   1.1689
B(  2-C ,  3-N ) :   1.5389 B(  2-C , 17-H ) :   0.9573 B(  3-N ,  4-C ) :   1.4449
B(  4-C ,  5-C ) :   1.3149 B(  4-C , 11-N ) :   1.1349 B(  5-C ,  6-C ) :   1.0450
B(  6-C ,  7-O ) :   2.0444 B(  6-C ,  8-N ) :   1.0484 B(  8-N ,  9-C ) :   1.0582
B(  8-N , 13-C ) :   0.9770 B(  9-C , 10-O ) :   2.0125 B(  9-C , 11-N ) :   1.0852
B( 11-N , 12-C ) :   0.9763 B( 12-C , 18-H ) :   0.9544 B( 12-C , 19-H ) :   0.9519
B( 12-C , 20-H ) :   0.9268 B( 13-C , 21-H ) :   0.9186 B( 13-C , 22-H ) :   0.9527
B( 13-C , 23-H ) :   0.9528

Dispersion correction           -0.029719902
FINAL SINGLE POINT ENERGY      -679.000544152099

DIPOLE MOMENT
-------------

Method             : SCF
Type of density    : Electron Density
Multiplicity       :   1
Irrep              :   0
Energy             :  -679.0824055175111198 Eh
Relativity type    :
Basis              : AO
                                X                 Y                 Z
Electronic contribution:     -0.310222274      -0.849508834       0.000181281
Nuclear contribution   :      1.698820097       0.570895160      -0.001645494
                        -----------------------------------------
Total Dipole Moment    :      1.388597824      -0.278613674      -0.001464213
                        -----------------------------------------
Magnitude (a.u.)       :      1.416273857
Magnitude (Debye)      :      3.599882058

Rotational constants in cm-1:             0.035842             0.023807             0.014422
Rotational constants in MHz :          1074.513986           713.721896           432.348550

                             ****ORCA TERMINATED NORMALLY****
TOTAL RUN TIME: 0 days 0 hours 0 minutes 16 seconds 232 msec
