                         Program Version 6.0.0  -   RELEASE  -
|  1> ! pbe def2-sv(p) def2/J RI DEFGRID1 loosescf d4 GCP(DFT/SV(P)) printgap
|  2> %output
|  3>     printlevel normal
|  4> end
|  5> * xyz 0 1
|  6> C -2.5531895013 -0.6900615316 -0.3310887315
|  7> C -1.1605839203 -0.3328494944 0.2086225075
|  8> H -1.1757112882 -0.3131075165 1.3125087783
|  9> C -0.7019977701 1.0402386359 -0.3120225415
| 10> H -0.7246476536 1.0251883051 -1.40707323
| 11> C 0.7384578885 1.3386184407 0.1411430919
| 12> H 0.7575872313 1.4981648006 1.233188211
| 13> C 1.6737620295 0.1660570435 -0.1659879491
| 14> H 1.8352077545 0.1222760119 -1.2517007238
| 15> C 1.0428232932 -1.1662686317 0.2841954893
| 16> H 1.0137297863 -1.1748017647 1.396732132
| 17> O -0.2588531309 -1.3356983625 -0.2160609121
| 18> O 1.8313992566 -2.1923533505 -0.1977768694
| 19> O 2.8806457127 0.3790219644 0.5176196849
| 20> O 1.2347011067 2.478359562 -0.5141312472
| 21> O -1.5674796089 2.0771206941 0.0716181752
| 22> O -3.179751533 -1.7288368493 0.372914173
| 23> H -2.4362310353 -1.0497985225 -1.3547472629
| 24> H -3.1671160681 0.2179180891 -0.335008434
| 25> H 1.3409534876 -3.0280298688 -0.1486360307
| 26> H 3.5101584403 -0.3130059552 0.2660684003
| 27> H 0.5624753692 3.1772285069 -0.4706127877
| 28> H -1.5907604077 2.1482601308 1.0383834978
| 29> H -3.4088489878 -1.4319695577 1.2653726552
| 30> *
| 31>
| 32>                          ****END OF INPUT****

CARTESIAN COORDINATES (ANGSTROEM)
---------------------------------
  C     -2.553190   -0.690062   -0.331089
  C     -1.160584   -0.332849    0.208623
  H     -1.175711   -0.313108    1.312509
  C     -0.701998    1.040239   -0.312023
  H     -0.724648    1.025188   -1.407073
  C      0.738458    1.338618    0.141143
  H      0.757587    1.498165    1.233188
  C      1.673762    0.166057   -0.165988
  H      1.835208    0.122276   -1.251701
  C      1.042823   -1.166269    0.284195
  H      1.013730   -1.174802    1.396732
  O     -0.258853   -1.335698   -0.216061
  O      1.831399   -2.192353   -0.197777
  O      2.880646    0.379022    0.517620
  O      1.234701    2.478360   -0.514131
  O     -1.567480    2.077121    0.071618
  O     -3.179752   -1.728837    0.372914
  H     -2.436231   -1.049799   -1.354747
  H     -3.167116    0.217918   -0.335008
  H      1.340953   -3.028030   -0.148636
  H      3.510158   -0.313006    0.266068
  H      0.562475    3.177229   -0.470613
  H     -1.590760    2.148260    1.038383
  H     -3.408849   -1.431970    1.265373

 Total Charge           Charge          ....    0
 Multiplicity           Mult            ....    1
 Number of Electrons    NEL             ....   96
 Basis Dimension        Dim             ....  192

ORBITAL ENERGIES
----------------

  NO   OCC          E(Eh)            E(eV)
   0   2.0000     -18.776017      -510.9214
   1   2.0000     -18.775256      -510.9007
   2   2.0000     -18.766441      -510.6608
   3   2.0000     -18.750612      -510.2301
   4   2.0000     -18.747054      -510.1333
   5   2.0000     -18.745859      -510.1007
   6   2.0000      -9.986654      -271.7507
   7   2.0000      -9.952135      -270.8114
   8   2.0000      -9.950581      -270.7691
   9   2.0000      -9.945400      -270.6281
  10   2.0000      -9.939284      -270.4617
  11   2.0000      -9.935245      -270.3518
  12   2.0000      -0.989542       -26.9268
  13   2.0000      -0.956920       -26.0391
  14   2.0000      -0.934578       -25.4312
  15   2.0000      -0.927813       -25.2471
  16   2.0000      -0.919299       -25.0154
  17   2.0000      -0.912628       -24.8339
  18   2.0000      -0.707406       -19.2495
  19   2.0000      -0.693550       -18.8725
  20   2.0000      -0.618580       -16.8324
  21   2.0000      -0.592665       -16.1272
  22   2.0000      -0.563901       -15.3445
  23   2.0000      -0.535292       -14.5660
  24   2.0000      -0.502458       -13.6726
  25   2.0000      -0.493138       -13.4190
  26   2.0000      -0.488627       -13.2962
  27   2.0000      -0.460472       -12.5301
  28   2.0000      -0.455010       -12.3815
  29   2.0000      -0.438803       -11.9404
  30   2.0000      -0.417688       -11.3659
  31   2.0000      -0.396011       -10.7760
  32   2.0000      -0.389611       -10.6018
  33   2.0000      -0.377821       -10.2810
  34   2.0000      -0.362780        -9.8717
  35   2.0000      -0.357773        -9.7355
  36   2.0000      -0.325701        -8.8628
  37   2.0000      -0.320439        -8.7196
  38   2.0000      -0.304073        -8.2742
  39   2.0000      -0.298735        -8.1290
  40   2.0000      -0.279905        -7.6166
  41   2.0000      -0.277166        -7.5421
  42   2.0000      -0.261151        -7.1063
  43   2.0000      -0.247147        -6.7252
  44   2.0000      -0.235663        -6.4127
  45   2.0000      -0.226991        -6.1768
  46   2.0000      -0.215554        -5.8655
  47   2.0000      -0.198845        -5.4108
  48   0.0000       0.003312         0.0901
  49   0.0000       0.023311         0.6343
  50   0.0000       0.028085         0.7642
  51   0.0000       0.036875         1.0034
  52   0.0000       0.059527         1.6198

MULLIKEN ATOMIC CHARGES
-----------------------
   0 C :    0.093900
   1 C :   -0.003349
   2 H :    0.021063
   3 C :    0.011599
   4 H :    0.077039
   5 C :    0.089053
   6 H :    0.038990
   7 C :    0.055100
   8 H :    0.064636
   9 C :    0.177983
  10 H :    0.033555
  11 O :   -0.299936
  12 O :   -0.390883
  13 O :   -0.409232
  14 O :   -0.402808
  15 O :   -0.412816
  16 O :   -0.428828
  17 H :    0.092369
  18 H :    0.082417
  19 H :    0.312642
  20 H :    0.306737
  21 H :    0.298433
  22 H :    0.299553
  23 H :    0.292784
Sum of atomic charges:    0.0000000

LOEWDIN ATOMIC CHARGES
----------------------
   0 C :   -0.129512
   1 C :   -0.078628
   2 H :    0.088830
   3 C :   -0.085196
   4 H :    0.123970
   5 C :   -0.070338
   6 H :    0.097366
   7 C :   -0.076114
   8 H :    0.113174
   9 C :   -0.005659
  10 H :    0.076963
  11 O :   -0.146350
  12 O :   -0.302365
  13 O :   -0.312162
  14 O :   -0.314605
  15 O :   -0.304416
  16 O :   -0.331389
  17 H :    0.123267
  18 H :    0.102276
  19 H :    0.294033
  20 H :    0.289996
  21 H :    0.281117
  22 H :    0.284712
  23 H :    0.281028

  Mayer bond orders larger than 0.100000
B(  0-C ,  1-C ) :   1.0199 B(  0-C , 16-O ) :   1.0890 B(  0-C , 17-H ) :   0.9052
B(  0-C , 18-H ) :   0.9168 B(  1-C ,  2-H ) :   0.8691 B(  1-C ,  3-C ) :   0.9675
B(  1-C , 11-O ) :   0.9974 B(  3-C ,  4-H ) :   0.8660 B(  3-C ,  5-C ) :   1.0092
B(  3-C , 15-O ) :   1.0004 B(  5-C ,  6-H ) :   0.8666 B(  5-C ,  7-C ) :   1.0042
B(  5-C , 14-O ) :   1.1075 B(  7-C ,  8-H ) :   0.8674 B(  7-C ,  9-C ) :   0.9874
B(  7-C , 13-O ) :   1.0839 B(  9-C , 10-H ) :   0.8815 B(  9-C , 11-O ) :   1.0093
B(  9-C , 12-O ) :   1.1645 B( 12-O , 19-H ) :   0.8363 B( 13-O , 20-H ) :   0.8423
B( 14-O , 21-H ) :   0.8358 B( 15-O , 22-H ) :   0.8447 B( 16-O , 23-H ) :   0.8544

Dispersion correction           -0.023479917
FINAL SINGLE POINT ENERGY      -685.693743789764

DIPOLE MOMENT
-------------

Method             : SCF
Type of density    : Electron Density
Multiplicity       :   1
Irrep              :   0
Energy             :  -685.8227633878583447 Eh
Relativity type    :
Basis              : AO
                                X                 Y                 Z
Electronic contribution:      2.633118531      -0.854312662      -0.559604479
Nuclear contribution   :     -3.253901892       0.819240083       1.449486890
                        -----------------------------------------
Total Dipole Moment    :     -0.620783361      -0.035072579       0.889882410
                        -----------------------------------------
Magnitude (a.u.)       :      1.085584069
Magnitude (Debye)      :      2.759335416

Rotational constants in cm-1:             0.039478             0.025354             0.016324
Rotational constants in MHz :          1183.515514           760.084413           489.380489

                             ****ORCA TERMINATED NORMALLY****
TOTAL RUN TIME: 0 days 0 hours 0 minutes 11 seconds 559 msec
