                         Program Version 6.0.0  -   RELEASE  -
|  1> ! pbe def2-sv(p) def2/J RI DEFGRID1 loosescf d4 GCP(DFT/SV(P)) printgap
|  2> %output
|  3>     printlevel normal
|  4> end
|  5> * xyz 0 1
|  6> C -1.8559249173 -1.0857154361 -0.5604202628
|  7> C -1.0798924399 -0.529888878 0.6671592748
|  8> H -1.6938209721 -0.6653306717 1.5646444997
|  9> C -0.751536289 0.9667710234 0.5437737428
| 10> H -1.6447847208 1.4856358819 0.1728190939
| 11> C 0.4036447582 1.1988496963 -0.4527987751
| 12> H 0.6675338296 2.2639530853 -0.4185324692
| 13> C 1.6246564023 0.3787700748 -0.015632727
| 14> H 2.3798317973 0.402576948 -0.8105379073
| 15> C 1.2302491147 -1.1040463208 0.1772414518
| 16> H 2.0265861462 -1.5872760777 0.7610716201
| 17> O 0.0810052979 -1.3085120992 0.9586086683
| 18> O 1.1229200255 -1.6752803639 -1.0984312624
| 19> O 2.2466655021 0.8971558925 1.1257753281
| 20> O 0.0036488001 0.903287877 -1.7702024805
| 21> O -0.3476683819 1.5127518701 1.7809661759
| 22> O -2.6541465203 -0.1305634103 -1.214234619
| 23> H -2.5372360677 -1.8673034528 -0.2167093072
| 24> H -1.1451119069 -1.5325608576 -1.2592511582
| 25> H 1.1199172015 -2.6423428011 -1.0369332215
| 26> H 1.560822262 1.1137687638 1.7829020787
| 27> H 0.3554248624 0.0331515458 -2.0190786335
| 28> H -1.0846038635 1.4951021532 2.4079213298
| 29> H -2.0763581817 0.4327903668 -1.7574304021
| 30> *
| 31>
| 32>                          ****END OF INPUT****

CARTESIAN COORDINATES (ANGSTROEM)
---------------------------------
  C     -1.855925   -1.085715   -0.560420
  C     -1.079892   -0.529889    0.667159
  H     -1.693821   -0.665331    1.564644
  C     -0.751536    0.966771    0.543774
  H     -1.644785    1.485636    0.172819
  C      0.403645    1.198850   -0.452799
  H      0.667534    2.263953   -0.418532
  C      1.624656    0.378770   -0.015633
  H      2.379832    0.402577   -0.810538
  C      1.230249   -1.104046    0.177241
  H      2.026586   -1.587276    0.761072
  O      0.081005   -1.308512    0.958609
  O      1.122920   -1.675280   -1.098431
  O      2.246666    0.897156    1.125775
  O      0.003649    0.903288   -1.770202
  O     -0.347668    1.512752    1.780966
  O     -2.654147   -0.130563   -1.214235
  H     -2.537236   -1.867303   -0.216709
  H     -1.145112   -1.532561   -1.259251
  H      1.119917   -2.642343   -1.036933
  H      1.560822    1.113769    1.782902
  H      0.355425    0.033152   -2.019079
  H     -1.084604    1.495102    2.407921
  H     -2.076358    0.432790   -1.757430

 Total Charge           Charge          ....    0
 Multiplicity           Mult            ....    1
 Number of Electrons    NEL             ....   96
 Basis Dimension        Dim             ....  192

ORBITAL ENERGIES
----------------

  NO   OCC          E(Eh)            E(eV)
   0   2.0000     -18.785001      -511.1659
   1   2.0000     -18.777564      -510.9635
   2   2.0000     -18.771323      -510.7937
   3   2.0000     -18.769277      -510.7380
   4   2.0000     -18.741418      -509.9799
   5   2.0000     -18.739608      -509.9307
   6   2.0000      -9.991092      -271.8714
   7   2.0000      -9.950048      -270.7546
   8   2.0000      -9.949775      -270.7471
   9   2.0000      -9.947299      -270.6798
  10   2.0000      -9.945260      -270.6243
  11   2.0000      -9.928935      -270.1801
  12   2.0000      -0.990211       -26.9450
  13   2.0000      -0.955609       -26.0035
  14   2.0000      -0.942657       -25.6510
  15   2.0000      -0.924214       -25.1491
  16   2.0000      -0.920432       -25.0462
  17   2.0000      -0.912925       -24.8419
  18   2.0000      -0.705116       -19.1872
  19   2.0000      -0.691230       -18.8093
  20   2.0000      -0.628861       -17.1122
  21   2.0000      -0.586504       -15.9596
  22   2.0000      -0.578868       -15.7518
  23   2.0000      -0.528256       -14.3746
  24   2.0000      -0.523570       -14.2471
  25   2.0000      -0.490659       -13.3515
  26   2.0000      -0.478560       -13.0223
  27   2.0000      -0.459073       -12.4920
  28   2.0000      -0.448994       -12.2177
  29   2.0000      -0.424122       -11.5410
  30   2.0000      -0.417673       -11.3655
  31   2.0000      -0.399940       -10.8829
  32   2.0000      -0.395762       -10.7692
  33   2.0000      -0.382816       -10.4169
  34   2.0000      -0.367421        -9.9980
  35   2.0000      -0.357742        -9.7346
  36   2.0000      -0.344606        -9.3772
  37   2.0000      -0.329771        -8.9735
  38   2.0000      -0.317456        -8.6384
  39   2.0000      -0.294175        -8.0049
  40   2.0000      -0.282791        -7.6951
  41   2.0000      -0.268877        -7.3165
  42   2.0000      -0.260464        -7.0876
  43   2.0000      -0.251104        -6.8329
  44   2.0000      -0.244512        -6.6535
  45   2.0000      -0.229883        -6.2554
  46   2.0000      -0.213624        -5.8130
  47   2.0000      -0.202021        -5.4973
  48   0.0000       0.002040         0.0555
  49   0.0000       0.010434         0.2839
  50   0.0000       0.040331         1.0975
  51   0.0000       0.052233         1.4213
  52   0.0000       0.060872         1.6564

MULLIKEN ATOMIC CHARGES
-----------------------
   0 C :    0.015744
   1 C :    0.048471
   2 H :    0.056666
   3 C :    0.017186
   4 H :    0.082818
   5 C :    0.052662
   6 H :    0.087959
   7 C :    0.017337
   8 H :    0.086639
   9 C :    0.186697
  10 H :    0.076780
  11 O :   -0.315096
  12 O :   -0.408430
  13 O :   -0.426326
  14 O :   -0.430699
  15 O :   -0.430338
  16 O :   -0.439351
  17 H :    0.083564
  18 H :    0.071129
  19 H :    0.315365
  20 H :    0.306141
  21 H :    0.326542
  22 H :    0.314090
  23 H :    0.304453
Sum of atomic charges:   -0.0000000

LOEWDIN ATOMIC CHARGES
----------------------
   0 C :   -0.148590
   1 C :   -0.070523
   2 H :    0.111432
   3 C :   -0.084628
   4 H :    0.111994
   5 C :   -0.063507
   6 H :    0.118176
   7 C :   -0.083074
   8 H :    0.120696
   9 C :   -0.010882
  10 H :    0.106271
  11 O :   -0.146172
  12 O :   -0.312910
  13 O :   -0.315850
  14 O :   -0.307436
  15 O :   -0.309585
  16 O :   -0.341314
  17 H :    0.113427
  18 H :    0.095901
  19 H :    0.293526
  20 H :    0.275052
  21 H :    0.283166
  22 H :    0.294575
  23 H :    0.270255

  Mayer bond orders larger than 0.100000
B(  0-C ,  1-C ) :   0.9909 B(  0-C , 16-O ) :   1.1114 B(  0-C , 17-H ) :   0.9206
B(  0-C , 18-H ) :   0.9101 B(  1-C ,  2-H ) :   0.8924 B(  1-C ,  3-C ) :   1.0185
B(  1-C , 11-O ) :   0.9794 B(  3-C ,  4-H ) :   0.8805 B(  3-C ,  5-C ) :   0.9733
B(  3-C , 15-O ) :   1.0009 B(  5-C ,  6-H ) :   0.9023 B(  5-C ,  7-C ) :   1.0185
B(  5-C , 14-O ) :   1.0577 B(  7-C ,  8-H ) :   0.8962 B(  7-C ,  9-C ) :   0.9618
B(  7-C , 13-O ) :   1.0799 B(  9-C , 10-H ) :   0.9040 B(  9-C , 11-O ) :   1.0772
B(  9-C , 12-O ) :   1.0593 B( 12-O , 19-H ) :   0.8289 B( 13-O , 20-H ) :   0.8073
B( 14-O , 21-H ) :   0.7991 B( 15-O , 20-H ) :   0.1022 B( 15-O , 22-H ) :   0.8395
B( 16-O , 23-H ) :   0.8067

Dispersion correction           -0.026538246
FINAL SINGLE POINT ENERGY      -685.698549414604

DIPOLE MOMENT
-------------

Method             : SCF
Type of density    : Electron Density
Multiplicity       :   1
Irrep              :   0
Energy             :  -685.8337007997627097 Eh
Relativity type    :
Basis              : AO
                                X                 Y                 Z
Electronic contribution:      1.780433063       0.344922160       1.084843516
Nuclear contribution   :     -1.936998046      -0.998865287      -0.781072848
                        -----------------------------------------
Total Dipole Moment    :     -0.156564983      -0.653943127       0.303770668
                        -----------------------------------------
Magnitude (a.u.)       :      0.737855559
Magnitude (Debye)      :      1.875479785

Rotational constants in cm-1:             0.041034             0.030360             0.026211
Rotational constants in MHz :          1230.161975           910.170698           785.788229

                             ****ORCA TERMINATED NORMALLY****
TOTAL RUN TIME: 0 days 0 hours 0 minutes 12 seconds 835 msec
