                         Program Version 6.0.0  -   RELEASE  -
|  1> ! pbe def2-sv(p) def2/J RI DEFGRID1 loosescf d4 GCP(DFT/SV(P)) printgap
|  2> %output
|  3>     printlevel normal
|  4> end
|  5> * xyz 0 1
|  6> C -2.5831954501 -0.7018065241 0.6285202312
|  7> C -1.4689855588 -0.0225166204 -0.1178949716
|  8> O -1.5022511706 0.1027226571 -1.3259702467
|  9> C -0.3511478401 0.5304506541 0.7476710778
| 10> C 0.5478857469 1.5156110304 -0.0090272556
| 11> C 1.4284158578 0.8235103815 -1.0480143186
| 12> C 2.2524066585 -0.291785378 -0.4136309816
| 13> C 1.3310988846 -1.2945331411 0.2731396908
| 14> C 0.508464257 -0.5945279187 1.3492932125
| 15> H -2.1952140603 -1.4288070704 1.3346979801
| 16> H -3.1352131851 0.0498506762 1.1885944565
| 17> H -3.256202071 -1.1865824921 -0.0734275768
| 18> H -0.8378080348 1.0596698764 1.57447103
| 19> H -0.0748836965 2.2629984657 -0.5054899478
| 20> H 1.1835267172 2.0292919293 0.7156281333
| 21> H 0.7949449505 0.4062615268 -1.8321879637
| 22> H 2.0884215644 1.561200727 -1.5090578103
| 23> H 2.8476874747 -0.7925027926 -1.1792735808
| 24> H 2.9384714532 0.1329983215 0.3231066004
| 25> H 0.6640963385 -1.7401281528 -0.469198422
| 26> H 1.9188555547 -2.0963422558 0.7240762238
| 27> H -0.1173580209 -1.3165034444 1.8738335702
| 28> H 1.1865211704 -0.147813801 2.0792293156
| 29> *
| 30>
| 31>                          ****END OF INPUT****

CARTESIAN COORDINATES (ANGSTROEM)
---------------------------------
  C     -2.583195   -0.701807    0.628520
  C     -1.468986   -0.022517   -0.117895
  O     -1.502251    0.102723   -1.325970
  C     -0.351148    0.530451    0.747671
  C      0.547886    1.515611   -0.009027
  C      1.428416    0.823510   -1.048014
  C      2.252407   -0.291785   -0.413631
  C      1.331099   -1.294533    0.273140
  C      0.508464   -0.594528    1.349293
  H     -2.195214   -1.428807    1.334698
  H     -3.135213    0.049851    1.188594
  H     -3.256202   -1.186582   -0.073428
  H     -0.837808    1.059670    1.574471
  H     -0.074884    2.262998   -0.505490
  H      1.183527    2.029292    0.715628
  H      0.794945    0.406262   -1.832188
  H      2.088422    1.561201   -1.509058
  H      2.847687   -0.792503   -1.179274
  H      2.938471    0.132998    0.323107
  H      0.664096   -1.740128   -0.469198
  H      1.918856   -2.096342    0.724076
  H     -0.117358   -1.316503    1.873834
  H      1.186521   -0.147814    2.079229

 Total Charge           Charge          ....    0
 Multiplicity           Mult            ....    1
 Number of Electrons    NEL             ....   70
 Basis Dimension        Dim             ....  154

ORBITAL ENERGIES
----------------

  NO   OCC          E(Eh)            E(eV)
   0   2.0000     -18.743160      -510.0273
   1   2.0000      -9.973585      -271.3950
   2   2.0000      -9.900672      -269.4110
   3   2.0000      -9.894653      -269.2472
   4   2.0000      -9.887998      -269.0661
   5   2.0000      -9.883678      -268.9486
   6   2.0000      -9.881464      -268.8883
   7   2.0000      -9.878455      -268.8064
   8   2.0000      -9.871329      -268.6125
   9   2.0000      -0.938862       -25.5477
  10   2.0000      -0.759535       -20.6680
  11   2.0000      -0.692843       -18.8532
  12   2.0000      -0.666868       -18.1464
  13   2.0000      -0.654253       -17.8031
  14   2.0000      -0.559711       -15.2305
  15   2.0000      -0.541367       -14.7313
  16   2.0000      -0.508812       -13.8455
  17   2.0000      -0.451253       -12.2792
  18   2.0000      -0.439935       -11.9712
  19   2.0000      -0.418099       -11.3771
  20   2.0000      -0.412242       -11.2177
  21   2.0000      -0.392516       -10.6809
  22   2.0000      -0.381280       -10.3752
  23   2.0000      -0.374165       -10.1816
  24   2.0000      -0.358353        -9.7513
  25   2.0000      -0.343389        -9.3441
  26   2.0000      -0.333881        -9.0854
  27   2.0000      -0.329234        -8.9589
  28   2.0000      -0.316442        -8.6108
  29   2.0000      -0.314166        -8.5489
  30   2.0000      -0.300521        -8.1776
  31   2.0000      -0.279278        -7.5995
  32   2.0000      -0.261040        -7.1033
  33   2.0000      -0.259042        -7.0489
  34   2.0000      -0.195197        -5.3116
  35   0.0000      -0.052618        -1.4318
  36   0.0000       0.023823         0.6483
  37   0.0000       0.050920         1.3856
  38   0.0000       0.062554         1.7022
  39   0.0000       0.074607         2.0302

MULLIKEN ATOMIC CHARGES
-----------------------
   0 C :   -0.244536
   1 C :    0.008369
   2 O :   -0.165083
   3 C :   -0.170495
   4 C :   -0.097155
   5 C :   -0.162934
   6 C :   -0.154463
   7 C :   -0.156471
   8 C :   -0.143261
   9 H :    0.122018
  10 H :    0.123702
  11 H :    0.116974
  12 H :    0.079278
  13 H :    0.086034
  14 H :    0.070974
  15 H :    0.103257
  16 H :    0.079930
  17 H :    0.084964
  18 H :    0.068819
  19 H :    0.092006
  20 H :    0.085881
  21 H :    0.089267
  22 H :    0.082926
Sum of atomic charges:    0.0000000

LOEWDIN ATOMIC CHARGES
----------------------
   0 C :   -0.361250
   1 C :    0.053271
   2 O :   -0.125695
   3 C :   -0.170683
   4 C :   -0.212032
   5 C :   -0.233436
   6 C :   -0.225404
   7 C :   -0.228437
   8 C :   -0.208447
   9 H :    0.135785
  10 H :    0.145173
  11 H :    0.134153
  12 H :    0.128879
  13 H :    0.120777
  14 H :    0.114465
  15 H :    0.123489
  16 H :    0.114907
  17 H :    0.116418
  18 H :    0.110181
  19 H :    0.118344
  20 H :    0.117226
  21 H :    0.112812
  22 H :    0.119506

  Mayer bond orders larger than 0.100000
B(  0-C ,  1-C ) :   1.0805 B(  0-C ,  9-H ) :   0.9251 B(  0-C , 10-H ) :   0.9203
B(  0-C , 11-H ) :   0.9336 B(  1-C ,  2-O ) :   2.1699 B(  1-C ,  3-C ) :   0.9156
B(  3-C ,  4-C ) :   1.0864 B(  3-C ,  8-C ) :   1.0651 B(  3-C , 12-H ) :   0.8754
B(  4-C ,  5-C ) :   1.1308 B(  4-C , 13-H ) :   0.9131 B(  4-C , 14-H ) :   0.9123
B(  5-C ,  6-C ) :   1.1334 B(  5-C , 15-H ) :   0.9054 B(  5-C , 16-H ) :   0.9166
B(  6-C ,  7-C ) :   1.1304 B(  6-C , 17-H ) :   0.9197 B(  6-C , 18-H ) :   0.9159
B(  7-C ,  8-C ) :   1.1285 B(  7-C , 19-H ) :   0.9099 B(  7-C , 20-H ) :   0.9178
B(  8-C , 21-H ) :   0.9131 B(  8-C , 22-H ) :   0.9084

Dispersion correction           -0.022822790
FINAL SINGLE POINT ENERGY      -387.608299045515

DIPOLE MOMENT
-------------

Method             : SCF
Type of density    : Electron Density
Multiplicity       :   1
Irrep              :   0
Energy             :  -387.6860419292743245 Eh
Relativity type    :
Basis              : AO
                                X                 Y                 Z
Electronic contribution:     -3.703121401       1.012846509      -3.018535849
Nuclear contribution   :      3.735868801      -1.130287943       3.962851108
                        -----------------------------------------
Total Dipole Moment    :      0.032747399      -0.117441433       0.944315260
                        -----------------------------------------
Magnitude (a.u.)       :      0.952153450
Magnitude (Debye)      :      2.420181734

Rotational constants in cm-1:             0.086582             0.044120             0.038152
Rotational constants in MHz :          2595.671299          1322.698686          1143.773634

                             ****ORCA TERMINATED NORMALLY****
TOTAL RUN TIME: 0 days 0 hours 0 minutes 11 seconds 167 msec
