                         Program Version 6.0.0  -   RELEASE  -
|  1> ! pbe def2-sv(p) def2/J RI DEFGRID1 loosescf d4 GCP(DFT/SV(P)) printgap
|  2> %output
|  3>     printlevel normal
|  4> end
|  5> * xyz 0 1
|  6> C 1.4447053548 0.0313251369 1.1803082153
|  7> C 0.6819506425 0.4579123937 -0.0783142107
|  8> C 1.3913433048 -0.0316818526 -1.3378930986
|  9> C -0.7510454881 -0.0400372073 -0.0337156434
| 10> O -1.2242000335 -0.7346063894 -0.9120874719
| 11> C -1.5550246777 0.374419387 1.1654932255
| 12> H 2.4782142369 0.3582595478 1.1035839742
| 13> H 1.0114592294 0.4679826297 2.0744099941
| 14> H 1.4352034717 -1.052148423 1.2751307756
| 15> H 0.6305422026 1.5524958318 -0.1007568155
| 16> H 1.4611926799 -1.1171797562 -1.3305924606
| 17> H 2.3923895417 0.3860856719 -1.3967581505
| 18> H 0.832944458 0.2607567049 -2.2241516767
| 19> H -2.6154038502 0.3035094005 0.9382377434
| 20> H -1.2994620774 1.3793146866 1.4846175782
| 21> H -1.3365201532 -0.3153478907 1.9786957237
| 22> *
| 23>
| 24>                          ****END OF INPUT****

CARTESIAN COORDINATES (ANGSTROEM)
---------------------------------
  C      1.444705    0.031325    1.180308
  C      0.681951    0.457912   -0.078314
  C      1.391343   -0.031682   -1.337893
  C     -0.751045   -0.040037   -0.033716
  O     -1.224200   -0.734606   -0.912087
  C     -1.555025    0.374419    1.165493
  H      2.478214    0.358260    1.103584
  H      1.011459    0.467983    2.074410
  H      1.435203   -1.052148    1.275131
  H      0.630542    1.552496   -0.100757
  H      1.461193   -1.117180   -1.330592
  H      2.392390    0.386086   -1.396758
  H      0.832944    0.260757   -2.224152
  H     -2.615404    0.303509    0.938238
  H     -1.299462    1.379315    1.484618
  H     -1.336520   -0.315348    1.978696

 Total Charge           Charge          ....    0
 Multiplicity           Mult            ....    1
 Number of Electrons    NEL             ....   48
 Basis Dimension        Dim             ....  104

ORBITAL ENERGIES
----------------

  NO   OCC          E(Eh)            E(eV)
   0   2.0000     -18.737486      -509.8729
   1   2.0000      -9.969887      -271.2944
   2   2.0000      -9.903911      -269.4991
   3   2.0000      -9.889111      -269.0964
   4   2.0000      -9.885723      -269.0042
   5   2.0000      -9.872323      -268.6396
   6   2.0000      -0.934141       -25.4193
   7   2.0000      -0.730488       -19.8776
   8   2.0000      -0.666107       -18.1257
   9   2.0000      -0.615686       -16.7537
  10   2.0000      -0.555888       -15.1265
  11   2.0000      -0.461685       -12.5631
  12   2.0000      -0.427057       -11.6208
  13   2.0000      -0.414602       -11.2819
  14   2.0000      -0.396816       -10.7979
  15   2.0000      -0.380478       -10.3533
  16   2.0000      -0.359856        -9.7922
  17   2.0000      -0.352163        -9.5829
  18   2.0000      -0.343563        -9.3488
  19   2.0000      -0.315937        -8.5971
  20   2.0000      -0.312432        -8.5017
  21   2.0000      -0.299944        -8.1619
  22   2.0000      -0.298159        -8.1133
  23   2.0000      -0.194282        -5.2867
  24   0.0000      -0.048564        -1.3215
  25   0.0000       0.028710         0.7812
  26   0.0000       0.066874         1.8197
  27   0.0000       0.070685         1.9234
  28   0.0000       0.093885         2.5547

MULLIKEN ATOMIC CHARGES
-----------------------
   0 C :   -0.267508
   1 C :   -0.195296
   2 C :   -0.225274
   3 C :    0.003690
   4 O :   -0.166998
   5 C :   -0.248973
   6 H :    0.112385
   7 H :    0.108778
   8 H :    0.110041
   9 H :    0.094687
  10 H :    0.102061
  11 H :    0.093793
  12 H :    0.109091
  13 H :    0.120160
  14 H :    0.115051
  15 H :    0.134313
Sum of atomic charges:   -0.0000000

LOEWDIN ATOMIC CHARGES
----------------------
   0 C :   -0.323925
   1 C :   -0.185463
   2 C :   -0.328451
   3 C :    0.048175
   4 O :   -0.129035
   5 C :   -0.362121
   6 H :    0.125015
   7 H :    0.118786
   8 H :    0.123293
   9 H :    0.132020
  10 H :    0.123084
  11 H :    0.116625
  12 H :    0.124773
  13 H :    0.137407
  14 H :    0.131727
  15 H :    0.148093

  Mayer bond orders larger than 0.100000
B(  0-C ,  1-C ) :   1.0889 B(  0-C ,  6-H ) :   0.9503 B(  0-C ,  7-H ) :   0.9429
B(  0-C ,  8-H ) :   0.9510 B(  1-C ,  2-C ) :   1.1287 B(  1-C ,  3-C ) :   0.9359
B(  1-C ,  9-H ) :   0.8742 B(  2-C , 10-H ) :   0.9498 B(  2-C , 11-H ) :   0.9468
B(  2-C , 12-H ) :   0.9459 B(  3-C ,  4-O ) :   2.1979 B(  3-C ,  5-C ) :   1.0769
B(  5-C , 13-H ) :   0.9300 B(  5-C , 14-H ) :   0.9338 B(  5-C , 15-H ) :   0.9171

Dispersion correction           -0.011862904
FINAL SINGLE POINT ENERGY      -271.143301017042

DIPOLE MOMENT
-------------

Method             : SCF
Type of density    : Electron Density
Multiplicity       :   1
Irrep              :   0
Energy             :  -271.1974830095728066 Eh
Relativity type    :
Basis              : AO
                                X                 Y                 Z
Electronic contribution:     -4.251084738      -1.531591383      -2.793730099
Nuclear contribution   :      4.663812529       2.075328916       3.553767244
                        -----------------------------------------
Total Dipole Moment    :      0.412727791       0.543737534       0.760037146
                        -----------------------------------------
Magnitude (a.u.)       :      1.021592481
Magnitude (Debye)      :      2.596681726

Rotational constants in cm-1:             0.156567             0.104955             0.070481
Rotational constants in MHz :          4693.753576          3146.470564          2112.967460

                             ****ORCA TERMINATED NORMALLY****
TOTAL RUN TIME: 0 days 0 hours 0 minutes 6 seconds 351 msec
