                         Program Version 6.0.0  -   RELEASE  -
|  1> ! pbe def2-sv(p) def2/J RI DEFGRID1 loosescf d4 GCP(DFT/SV(P)) printgap
|  2> %output
|  3>     printlevel normal
|  4> end
|  5> * xyz 0 1
|  6> C -3.7816813081 -0.3628313394 -0.72281425
|  7> O -2.3496057546 -0.3850592733 -0.7038288348
|  8> C -1.7215723841 0.2171006139 0.2959047167
|  9> O -2.2862598462 0.7954462189 1.201487147
| 10> C -0.2417351292 0.0997185566 0.1557280449
| 11> C 0.4731859964 1.0725779338 -0.5298812622
| 12> C 1.8465881002 0.9728444837 -0.6496642243
| 13> C 2.5213813795 -0.1044633265 -0.0830107922
| 14> C 1.8010943541 -1.0798355808 0.6048911013
| 15> C 0.4304130062 -0.9775279213 0.722454834
| 16> O 3.8630201333 -0.2504735384 -0.1710711745
| 17> H -4.1460192764 0.5396502945 -0.2305633235
| 18> H -4.1595308787 -1.2416713241 -0.2007636466
| 19> H -4.0701138588 -0.3858808185 -1.7697133624
| 20> H -0.0462548564 1.9106329765 -0.9684264033
| 21> H 2.3924239938 1.7350140947 -1.184944276
| 22> H 2.3365338961 -1.9085561752 1.0388805115
| 23> H -0.1224167692 -1.7335665664 1.2580171286
| 24> H 4.2618220196 0.4814079541 -0.6671874521
| 25> *
| 26>
| 27>                          ****END OF INPUT****

CARTESIAN COORDINATES (ANGSTROEM)
---------------------------------
  C     -3.781681   -0.362831   -0.722814
  O     -2.349606   -0.385059   -0.703829
  C     -1.721572    0.217101    0.295905
  O     -2.286260    0.795446    1.201487
  C     -0.241735    0.099719    0.155728
  C      0.473186    1.072578   -0.529881
  C      1.846588    0.972844   -0.649664
  C      2.521381   -0.104463   -0.083011
  C      1.801094   -1.079836    0.604891
  C      0.430413   -0.977528    0.722455
  O      3.863020   -0.250474   -0.171071
  H     -4.146019    0.539650   -0.230563
  H     -4.159531   -1.241671   -0.200764
  H     -4.070114   -0.385881   -1.769713
  H     -0.046255    1.910633   -0.968426
  H      2.392424    1.735014   -1.184944
  H      2.336534   -1.908556    1.038881
  H     -0.122417   -1.733567    1.258017
  H      4.261822    0.481408   -0.667187

 Total Charge           Charge          ....    0
 Multiplicity           Mult            ....    1
 Number of Electrons    NEL             ....   80
 Basis Dimension        Dim             ....  170

ORBITAL ENERGIES
----------------

  NO   OCC          E(Eh)            E(eV)
   0   2.0000     -18.801411      -511.6124
   1   2.0000     -18.791217      -511.3350
   2   2.0000     -18.736280      -509.8401
   3   2.0000     -10.006117      -272.2803
   4   2.0000      -9.959369      -271.0082
   5   2.0000      -9.940431      -270.4929
   6   2.0000      -9.903157      -269.4786
   7   2.0000      -9.902057      -269.4487
   8   2.0000      -9.901716      -269.4394
   9   2.0000      -9.898333      -269.3473
  10   2.0000      -9.893131      -269.2058
  11   2.0000      -1.006500       -27.3883
  12   2.0000      -0.973042       -26.4778
  13   2.0000      -0.910695       -24.7813
  14   2.0000      -0.781755       -21.2726
  15   2.0000      -0.696559       -18.9543
  16   2.0000      -0.681216       -18.5368
  17   2.0000      -0.653725       -17.7888
  18   2.0000      -0.579313       -15.7639
  19   2.0000      -0.557749       -15.1771
  20   2.0000      -0.513780       -13.9807
  21   2.0000      -0.504140       -13.7184
  22   2.0000      -0.476866       -12.9762
  23   2.0000      -0.443550       -12.0696
  24   2.0000      -0.421803       -11.4779
  25   2.0000      -0.413271       -11.2457
  26   2.0000      -0.400804       -10.9064
  27   2.0000      -0.386969       -10.5300
  28   2.0000      -0.383991       -10.4489
  29   2.0000      -0.371477       -10.1084
  30   2.0000      -0.359000        -9.7689
  31   2.0000      -0.344655        -9.3785
  32   2.0000      -0.331215        -9.0128
  33   2.0000      -0.305509        -8.3133
  34   2.0000      -0.301378        -8.2009
  35   2.0000      -0.297343        -8.0911
  36   2.0000      -0.259151        -7.0519
  37   2.0000      -0.236435        -6.4337
  38   2.0000      -0.226322        -6.1585
  39   2.0000      -0.196660        -5.3514
  40   0.0000      -0.040937        -1.1139
  41   0.0000      -0.027271        -0.7421
  42   0.0000      -0.021594        -0.5876
  43   0.0000       0.017582         0.4784
  44   0.0000       0.042464         1.1555

MULLIKEN ATOMIC CHARGES
-----------------------
   0 C :   -0.120791
   1 O :   -0.237541
   2 C :    0.122096
   3 O :   -0.202064
   4 C :    0.086700
   5 C :   -0.085824
   6 C :   -0.164380
   7 C :    0.253363
   8 C :   -0.124116
   9 C :   -0.078761
  10 O :   -0.327394
  11 H :    0.128495
  12 H :    0.120939
  13 H :    0.123633
  14 H :    0.051165
  15 H :    0.031819
  16 H :    0.050372
  17 H :    0.053039
  18 H :    0.319248
Sum of atomic charges:   -0.0000000

LOEWDIN ATOMIC CHARGES
----------------------
   0 C :   -0.206845
   1 O :   -0.065474
   2 C :    0.042236
   3 O :   -0.156015
   4 C :   -0.076282
   5 C :   -0.098865
   6 C :   -0.172458
   7 C :    0.023421
   8 C :   -0.143364
   9 C :   -0.097437
  10 O :   -0.227368
  11 H :    0.122659
  12 H :    0.120451
  13 H :    0.121741
  14 H :    0.128654
  15 H :    0.122419
  16 H :    0.133174
  17 H :    0.129499
  18 H :    0.299853

  Mayer bond orders larger than 0.100000
B(  0-C ,  1-O ) :   0.9314 B(  0-C , 11-H ) :   0.9360 B(  0-C , 12-H ) :   0.9595
B(  0-C , 13-H ) :   0.9603 B(  1-O ,  2-C ) :   1.2324 B(  1-O ,  3-O ) :   0.1046
B(  2-C ,  3-O ) :   2.0687 B(  2-C ,  4-C ) :   0.8775 B(  4-C ,  5-C ) :   1.4110
B(  4-C ,  9-C ) :   1.3877 B(  5-C ,  6-C ) :   1.3606 B(  5-C , 14-H ) :   0.9618
B(  6-C ,  7-C ) :   1.3056 B(  6-C , 15-H ) :   0.9576 B(  7-C ,  8-C ) :   1.3519
B(  7-C , 10-O ) :   1.1987 B(  8-C ,  9-C ) :   1.3705 B(  8-C , 16-H ) :   0.9639
B(  9-C , 17-H ) :   0.9666 B( 10-O , 18-H ) :   0.8404

Dispersion correction           -0.019560316
FINAL SINGLE POINT ENERGY      -534.232556398528

DIPOLE MOMENT
-------------

Method             : SCF
Type of density    : Electron Density
Multiplicity       :   1
Irrep              :   0
Energy             :  -534.2963379630117515 Eh
Relativity type    :
Basis              : AO
                                X                 Y                 Z
Electronic contribution:      3.591957940       0.612886315       1.629182549
Nuclear contribution   :     -3.345289729      -0.563320652      -2.551400057
                        -----------------------------------------
Total Dipole Moment    :      0.246668212       0.049565663      -0.922217508
                        -----------------------------------------
Magnitude (a.u.)       :      0.955922117
Magnitude (Debye)      :      2.429760925

Rotational constants in cm-1:             0.113195             0.018321             0.017716
Rotational constants in MHz :          3393.505278           549.262001           531.123495

                             ****ORCA TERMINATED NORMALLY****
TOTAL RUN TIME: 0 days 0 hours 0 minutes 8 seconds 612 msec
