                         Program Version 6.0.0  -   RELEASE  -
|  1> ! pbe def2-sv(p) def2/J RI DEFGRID1 loosescf d4 GCP(DFT/SV(P)) printgap
|  2> %output
|  3>     printlevel normal
|  4> end
|  5> * xyz 0 1
|  6> C -1.6745270427 -1.3278509096 -0.5918922162
|  7> C -1.1425054292 -0.5076496831 0.6017238713
|  8> H -1.8940982035 -0.5225196927 1.4000961344
|  9> C -0.8767449328 0.9624824134 0.2128397669
| 10> H -1.2812782488 1.1407365918 -0.7900764543
| 11> C 0.6302045292 1.2777015638 0.1913421903
| 12> H 0.9917445648 1.4278173265 1.2221750861
| 13> C 1.4184669011 0.1095146193 -0.4054034582
| 14> H 1.0706852887 -0.0562457352 -1.4321979029
| 15> C 1.1668072114 -1.1654391636 0.4296416344
| 16> H 1.9719239596 -1.243686925 1.1769217581
| 17> O -0.0063885593 -1.1155785506 1.203231138
| 18> O 1.1843380136 -2.2551282244 -0.4393971631
| 19> O 2.7838632594 0.4369637969 -0.3838644935
| 20> O 0.8867567571 2.4223830725 -0.5814139442
| 21> O -1.5589652915 1.8710855117 1.0447597917
| 22> O -2.8056078092 -0.7433047857 -1.1814232352
| 23> H -1.8851372056 -2.3482744635 -0.2496761627
| 24> H -0.917296708 -1.3773256732 -1.3765585521
| 25> H 1.1735684188 -3.0860260114 0.0600406888
| 26> H 3.2649612344 -0.1175732441 -1.0138161974
| 27> H 0.3283198524 3.1458566379 -0.2584149319
| 28> H -1.2631033604 1.7633174661 1.9610248099
| 29> H -3.5434278811 -0.7503899045 -0.5549787338
| 30> *
| 31>
| 32>                          ****END OF INPUT****

CARTESIAN COORDINATES (ANGSTROEM)
---------------------------------
  C     -1.674527   -1.327851   -0.591892
  C     -1.142505   -0.507650    0.601724
  H     -1.894098   -0.522520    1.400096
  C     -0.876745    0.962482    0.212840
  H     -1.281278    1.140737   -0.790076
  C      0.630205    1.277702    0.191342
  H      0.991745    1.427817    1.222175
  C      1.418467    0.109515   -0.405403
  H      1.070685   -0.056246   -1.432198
  C      1.166807   -1.165439    0.429642
  H      1.971924   -1.243687    1.176922
  O     -0.006389   -1.115579    1.203231
  O      1.184338   -2.255128   -0.439397
  O      2.783863    0.436964   -0.383864
  O      0.886757    2.422383   -0.581414
  O     -1.558965    1.871086    1.044760
  O     -2.805608   -0.743305   -1.181423
  H     -1.885137   -2.348274   -0.249676
  H     -0.917297   -1.377326   -1.376559
  H      1.173568   -3.086026    0.060041
  H      3.264961   -0.117573   -1.013816
  H      0.328320    3.145857   -0.258415
  H     -1.263103    1.763317    1.961025
  H     -3.543428   -0.750390   -0.554979

 Total Charge           Charge          ....    0
 Multiplicity           Mult            ....    1
 Number of Electrons    NEL             ....   96
 Basis Dimension        Dim             ....  192

ORBITAL ENERGIES
----------------

  NO   OCC          E(Eh)            E(eV)
   0   2.0000     -18.770571      -510.7732
   1   2.0000     -18.767479      -510.6891
   2   2.0000     -18.755483      -510.3626
   3   2.0000     -18.753938      -510.3206
   4   2.0000     -18.748666      -510.1771
   5   2.0000     -18.741126      -509.9720
   6   2.0000      -9.984249      -271.6852
   7   2.0000      -9.943356      -270.5725
   8   2.0000      -9.942102      -270.5383
   9   2.0000      -9.939365      -270.4639
  10   2.0000      -9.936731      -270.3922
  11   2.0000      -9.931146      -270.2402
  12   2.0000      -0.981774       -26.7154
  13   2.0000      -0.940799       -25.6004
  14   2.0000      -0.932173       -25.3657
  15   2.0000      -0.927364       -25.2348
  16   2.0000      -0.915068       -24.9003
  17   2.0000      -0.909780       -24.7564
  18   2.0000      -0.699911       -19.0456
  19   2.0000      -0.690408       -18.7870
  20   2.0000      -0.618062       -16.8183
  21   2.0000      -0.588388       -16.0108
  22   2.0000      -0.568121       -15.4594
  23   2.0000      -0.512756       -13.9528
  24   2.0000      -0.507646       -13.8137
  25   2.0000      -0.490026       -13.3343
  26   2.0000      -0.477264       -12.9870
  27   2.0000      -0.463487       -12.6121
  28   2.0000      -0.444531       -12.0963
  29   2.0000      -0.423047       -11.5117
  30   2.0000      -0.414427       -11.2771
  31   2.0000      -0.397297       -10.8110
  32   2.0000      -0.383352       -10.4315
  33   2.0000      -0.373423       -10.1614
  34   2.0000      -0.360740        -9.8162
  35   2.0000      -0.345707        -9.4072
  36   2.0000      -0.333117        -9.0646
  37   2.0000      -0.308716        -8.4006
  38   2.0000      -0.293850        -7.9961
  39   2.0000      -0.291435        -7.9304
  40   2.0000      -0.279073        -7.5940
  41   2.0000      -0.262901        -7.1539
  42   2.0000      -0.258276        -7.0280
  43   2.0000      -0.245714        -6.6862
  44   2.0000      -0.239696        -6.5225
  45   2.0000      -0.217681        -5.9234
  46   2.0000      -0.215832        -5.8731
  47   2.0000      -0.197517        -5.3747
  48   0.0000       0.021177         0.5763
  49   0.0000       0.022559         0.6138
  50   0.0000       0.025688         0.6990
  51   0.0000       0.033635         0.9153
  52   0.0000       0.053492         1.4556

MULLIKEN ATOMIC CHARGES
-----------------------
   0 C :    0.012386
   1 C :    0.004643
   2 H :    0.050670
   3 C :    0.049895
   4 H :    0.085806
   5 C :    0.088081
   6 H :    0.041349
   7 C :   -0.003944
   8 H :    0.076653
   9 C :    0.197729
  10 H :    0.063082
  11 O :   -0.309036
  12 O :   -0.394944
  13 O :   -0.400093
  14 O :   -0.405547
  15 O :   -0.426048
  16 O :   -0.421545
  17 H :    0.073446
  18 H :    0.111974
  19 H :    0.302469
  20 H :    0.304751
  21 H :    0.299764
  22 H :    0.297963
  23 H :    0.300497
Sum of atomic charges:   -0.0000000

LOEWDIN ATOMIC CHARGES
----------------------
   0 C :   -0.144218
   1 C :   -0.080485
   2 H :    0.107387
   3 C :   -0.084216
   4 H :    0.124232
   5 C :   -0.066855
   6 H :    0.099818
   7 C :   -0.076695
   8 H :    0.113168
   9 C :   -0.013269
  10 H :    0.100562
  11 O :   -0.150322
  12 O :   -0.308729
  13 O :   -0.308843
  14 O :   -0.314805
  15 O :   -0.316714
  16 O :   -0.325334
  17 H :    0.097532
  18 H :    0.117419
  19 H :    0.285845
  20 H :    0.291606
  21 H :    0.284812
  22 H :    0.282000
  23 H :    0.286103

  Mayer bond orders larger than 0.100000
B(  0-C ,  1-C ) :   1.0218 B(  0-C , 16-O ) :   1.0528 B(  0-C , 17-H ) :   0.9151
B(  0-C , 18-H ) :   0.9082 B(  1-C ,  2-H ) :   0.8902 B(  1-C ,  3-C ) :   0.9657
B(  1-C , 11-O ) :   1.0280 B(  3-C ,  4-H ) :   0.8667 B(  3-C ,  5-C ) :   1.0191
B(  3-C , 15-O ) :   1.0121 B(  5-C ,  6-H ) :   0.8634 B(  5-C ,  7-C ) :   1.0023
B(  5-C , 14-O ) :   1.0989 B(  7-C ,  8-H ) :   0.8840 B(  7-C ,  9-C ) :   0.9784
B(  7-C , 13-O ) :   1.0984 B(  9-C , 10-H ) :   0.8867 B(  9-C , 11-O ) :   1.0523
B(  9-C , 12-O ) :   1.1220 B( 12-O , 19-H ) :   0.8402 B( 13-O , 20-H ) :   0.8480
B( 14-O , 21-H ) :   0.8405 B( 15-O , 22-H ) :   0.8504 B( 16-O , 23-H ) :   0.8499

Dispersion correction           -0.024517580
FINAL SINGLE POINT ENERGY      -685.687590777283

DIPOLE MOMENT
-------------

Method             : SCF
Type of density    : Electron Density
Multiplicity       :   1
Irrep              :   0
Energy             :  -685.8166001409083492 Eh
Relativity type    :
Basis              : AO
                                X                 Y                 Z
Electronic contribution:      1.656512117       0.991504210       0.709386183
Nuclear contribution   :     -1.853350922      -1.890018594       0.130593783
                        -----------------------------------------
Total Dipole Moment    :     -0.196838805      -0.898514383       0.839979966
                        -----------------------------------------
Magnitude (a.u.)       :      1.245648407
Magnitude (Debye)      :      3.166186630

Rotational constants in cm-1:             0.035896             0.029398             0.020005
Rotational constants in MHz :          1076.137467           881.330374           599.729807

                             ****ORCA TERMINATED NORMALLY****
TOTAL RUN TIME: 0 days 0 hours 0 minutes 11 seconds 959 msec
