                         Program Version 6.0.0  -   RELEASE  -
|  1> ! pbe def2-sv(p) def2/J RI DEFGRID1 loosescf d4 GCP(DFT/SV(P)) printgap
|  2> %output
|  3>     printlevel normal
|  4> end
|  5> * xyz 0 1
|  6> C -2.107039723 -0.5597115492 -0.7079500941
|  7> C -1.3594252808 -0.3144481455 0.6063304777
|  8> C -0.0086174765 0.2790235806 0.3061528529
|  9> O 0.2620656096 1.4610875548 0.3524881079
| 10> O 0.867117185 -0.6523843753 -0.0528753857
| 11> C 2.1810057059 -0.2217379106 -0.4161168804
| 12> H -1.553925139 -1.2581887026 -1.3304156922
| 13> H -3.088147082 -0.9749387202 -0.4987827654
| 14> H -2.2308189997 0.3738381688 -1.2518107997
| 15> H -1.2196179767 -1.258135476 1.1317741542
| 16> H -1.9136856905 0.3857880651 1.229991491
| 17> H 2.6283127146 0.3419278741 0.4035351493
| 18> H 2.1330579997 0.4157235887 -1.2997922451
| 19> H 2.7412659162 -1.1288871193 -0.6191048427
| 20> *
| 21>
| 22>                          ****END OF INPUT****

CARTESIAN COORDINATES (ANGSTROEM)
---------------------------------
  C     -2.107040   -0.559712   -0.707950
  C     -1.359425   -0.314448    0.606330
  C     -0.008617    0.279024    0.306153
  O      0.262066    1.461088    0.352488
  O      0.867117   -0.652384   -0.052875
  C      2.181006   -0.221738   -0.416117
  H     -1.553925   -1.258189   -1.330416
  H     -3.088147   -0.974939   -0.498783
  H     -2.230819    0.373838   -1.251811
  H     -1.219618   -1.258135    1.131774
  H     -1.913686    0.385788    1.229991
  H      2.628313    0.341928    0.403535
  H      2.133058    0.415724   -1.299792
  H      2.741266   -1.128887   -0.619105

 Total Charge           Charge          ....    0
 Multiplicity           Mult            ....    1
 Number of Electrons    NEL             ....   48
 Basis Dimension        Dim             ....  100

ORBITAL ENERGIES
----------------

  NO   OCC          E(Eh)            E(eV)
   0   2.0000     -18.799374      -511.5570
   1   2.0000     -18.730371      -509.6793
   2   2.0000     -10.003401      -272.2064
   3   2.0000      -9.941926      -270.5336
   4   2.0000      -9.898996      -269.3654
   5   2.0000      -9.888467      -269.0789
   6   2.0000      -1.005243       -27.3541
   7   2.0000      -0.907134       -24.6844
   8   2.0000      -0.716945       -19.5091
   9   2.0000      -0.656339       -17.8599
  10   2.0000      -0.575492       -15.6599
  11   2.0000      -0.507210       -13.8019
  12   2.0000      -0.449775       -12.2390
  13   2.0000      -0.432170       -11.7599
  14   2.0000      -0.422475       -11.4961
  15   2.0000      -0.389213       -10.5910
  16   2.0000      -0.380587       -10.3563
  17   2.0000      -0.364149        -9.9090
  18   2.0000      -0.335605        -9.1323
  19   2.0000      -0.317980        -8.6527
  20   2.0000      -0.314580        -8.5602
  21   2.0000      -0.299531        -8.1507
  22   2.0000      -0.257210        -6.9990
  23   2.0000      -0.214506        -5.8370
  24   0.0000      -0.019265        -0.5242
  25   0.0000       0.045046         1.2258
  26   0.0000       0.062920         1.7121
  27   0.0000       0.089076         2.4239
  28   0.0000       0.090109         2.4520

MULLIKEN ATOMIC CHARGES
-----------------------
   0 C :   -0.304771
   1 C :   -0.130334
   2 C :    0.088989
   3 O :   -0.212617
   4 O :   -0.245069
   5 C :   -0.108346
   6 H :    0.113516
   7 H :    0.116348
   8 H :    0.116142
   9 H :    0.102529
  10 H :    0.104815
  11 H :    0.120397
  12 H :    0.117971
  13 H :    0.120429
Sum of atomic charges:    0.0000000

LOEWDIN ATOMIC CHARGES
----------------------
   0 C :   -0.331140
   1 C :   -0.248993
   2 C :    0.033612
   3 O :   -0.170584
   4 O :   -0.077145
   5 C :   -0.203035
   6 H :    0.122508
   7 H :    0.123976
   8 H :    0.125036
   9 H :    0.132268
  10 H :    0.134447
  11 H :    0.120053
  12 H :    0.118934
  13 H :    0.120061

  Mayer bond orders larger than 0.100000
B(  0-C ,  1-C ) :   1.1405 B(  0-C ,  6-H ) :   0.9540 B(  0-C ,  7-H ) :   0.9525
B(  0-C ,  8-H ) :   0.9535 B(  1-C ,  2-C ) :   1.0305 B(  1-C ,  9-H ) :   0.9060
B(  1-C , 10-H ) :   0.9121 B(  2-C ,  3-O ) :   2.0619 B(  2-C ,  4-O ) :   1.2001
B(  4-O ,  5-C ) :   0.9404 B(  5-C , 11-H ) :   0.9511 B(  5-C , 12-H ) :   0.9532
B(  5-C , 13-H ) :   0.9590

Dispersion correction           -0.009183762
FINAL SINGLE POINT ENERGY      -307.026189313110

DIPOLE MOMENT
-------------

Method             : SCF
Type of density    : Electron Density
Multiplicity       :   1
Irrep              :   0
Energy             :  -307.0803181596528475 Eh
Relativity type    :
Basis              : AO
                                X                 Y                 Z
Electronic contribution:      2.444511556       2.190911077       1.901971441
Nuclear contribution   :     -2.331998476      -2.899019305      -2.091996688
                        -----------------------------------------
Total Dipole Moment    :      0.112513080      -0.708108228      -0.190025247
                        -----------------------------------------
Magnitude (a.u.)       :      0.741745273
Magnitude (Debye)      :      1.885366652

Rotational constants in cm-1:             0.220899             0.081567             0.068259
Rotational constants in MHz :          6622.378544          2445.313305          2046.346004

                             ****ORCA TERMINATED NORMALLY****
TOTAL RUN TIME: 0 days 0 hours 0 minutes 7 seconds 46 msec
