                         Program Version 6.0.0  -   RELEASE  -
|  1> ! wb97x-v def2-tzvp def2/J RIJCOSX DEFGRID2 scfconv7 GCP(DFT/TZ) printgap
|  2> %output
|  3>     printlevel normal
|  4> end
|  5> * xyz 0 1
|  6> C 1.2720407026544516 0.00016425204393827214 0.000129692501436219
|  7> C -0.1699392874254342 4.8616054142629904e-05 0.0014403324947473938
|  8> N -1.327796747191542 -0.0001256354408036141 -0.0012476373486125121
|  9> H 1.6419148066827385 -0.5338321008151891 0.8797326125858972
| 10> H 1.6412022493998866 1.0290724626563659 0.022181911060246626
| 11> H 1.6407487219096253 -0.49519637561734253 -0.9022402870487696
| 12> *
| 13>
| 14>                          ****END OF INPUT****

CARTESIAN COORDINATES (ANGSTROEM)
---------------------------------
  C      1.272041    0.000164    0.000130
  C     -0.169939    0.000049    0.001440
  N     -1.327797   -0.000126   -0.001248
  H      1.641915   -0.533832    0.879733
  H      1.641202    1.029072    0.022182
  H      1.640749   -0.495196   -0.902240

 Total Charge           Charge          ....    0
 Multiplicity           Mult            ....    1
 Number of Electrons    NEL             ....   22
 Basis Dimension        Dim             ....  111

ORBITAL ENERGIES
----------------

  NO   OCC          E(Eh)            E(eV)
   0   2.0000     -16.527784      -449.7439
   1   2.0000     -12.101855      -329.3082
   2   2.0000     -12.091291      -329.0207
   3   2.0000      -1.521296       -41.3966
   4   2.0000      -1.295871       -35.2624
   5   2.0000      -0.995727       -27.0951
   6   2.0000      -0.899018       -24.4635
   7   2.0000      -0.898925       -24.4610
   8   2.0000      -0.893608       -24.3163
   9   2.0000      -0.789220       -21.4758
  10   2.0000      -0.789200       -21.4752
  11   0.0000      -0.218113        -5.9352
  12   0.0000      -0.218094        -5.9347
  13   0.0000      -0.080899        -2.2014
  14   0.0000      -0.002421        -0.0659
  15   0.0000       0.032345         0.8801

MULLIKEN ATOMIC CHARGES
-----------------------
   0 C :   -0.222164
   1 C :   -0.224069
   2 N :   -0.026103
   3 H :    0.157420
   4 H :    0.157375
   5 H :    0.157541
Sum of atomic charges:   -0.0000000

LOEWDIN ATOMIC CHARGES
----------------------
   0 C :   -0.264396
   1 C :   -0.228198
   2 N :    0.045017
   3 H :    0.149188
   4 H :    0.149166
   5 H :    0.149223

  Mayer bond orders larger than 0.100000
B(  0-C ,  1-C ) :   0.9470 B(  0-C ,  3-H ) :   0.9553 B(  0-C ,  4-H ) :   0.9552
B(  0-C ,  5-H ) :   0.9553 B(  1-C ,  2-N ) :   3.1281

FINAL SINGLE POINT ENERGY      -132.758527047553

DIPOLE MOMENT
-------------

Method             : SCF
Type of density    : Electron Density
Multiplicity       :   1
Irrep              :   0
Energy             :  -132.7615215745529440 Eh
Relativity type    :
Basis              : AO
                                X                 Y                 Z
Electronic contribution:     -3.056768613       0.000116777       0.001315538
Nuclear contribution   :      4.639472524      -0.000017218      -0.000384865
                        -----------------------------------------
Total Dipole Moment    :      1.582703911       0.000099560       0.000930673
                        -----------------------------------------
Magnitude (a.u.)       :      1.582704188
Magnitude (Debye)      :      4.022914340

Rotational constants in cm-1:             5.262910             0.310911             0.310907
Rotational constants in MHz :        157778.073716          9320.875105          9320.755260

                             ****ORCA TERMINATED NORMALLY****
TOTAL RUN TIME: 0 days 0 hours 0 minutes 16 seconds 577 msec
