                         Program Version 6.0.0  -   RELEASE  -
|  1> ! wb97x-v def2-tzvp def2/J RIJCOSX DEFGRID2 scfconv7 GCP(DFT/TZ) printgap
|  2> %output
|  3>     printlevel normal
|  4> end
|  5> %cpcm
|  6>     smd true
|  7>     smdsolvent "water"
|  8> end
|  9> * xyz 0 1
| 10> C 1.2720407026544516 0.00016425204393827214 0.000129692501436219
| 11> C -0.1699392874254342 4.8616054142629904e-05 0.0014403324947473938
| 12> N -1.327796747191542 -0.0001256354408036141 -0.0012476373486125121
| 13> H 1.6419148066827385 -0.5338321008151891 0.8797326125858972
| 14> H 1.6412022493998866 1.0290724626563659 0.022181911060246626
| 15> H 1.6407487219096253 -0.49519637561734253 -0.9022402870487696
| 16> *
| 17>
| 18>                          ****END OF INPUT****

CARTESIAN COORDINATES (ANGSTROEM)
---------------------------------
  C      1.272041    0.000164    0.000130
  C     -0.169939    0.000049    0.001440
  N     -1.327797   -0.000126   -0.001248
  H      1.641915   -0.533832    0.879733
  H      1.641202    1.029072    0.022182
  H      1.640749   -0.495196   -0.902240

 Total Charge           Charge          ....    0
 Multiplicity           Mult            ....    1
 Number of Electrons    NEL             ....   22
 Basis Dimension        Dim             ....  111

ORBITAL ENERGIES
----------------

  NO   OCC          E(Eh)            E(eV)
   0   2.0000     -16.528479      -449.7628
   1   2.0000     -12.099144      -329.2344
   2   2.0000     -12.073779      -328.5442
   3   2.0000      -1.526978       -41.5512
   4   2.0000      -1.274931       -34.6926
   5   2.0000      -0.977772       -26.6065
   6   2.0000      -0.900753       -24.5107
   7   2.0000      -0.876586       -23.8531
   8   2.0000      -0.876523       -23.8514
   9   2.0000      -0.789519       -21.4839
  10   2.0000      -0.789491       -21.4831
  11   0.0000      -0.216355        -5.8873
  12   0.0000      -0.216335        -5.8868
  13   0.0000      -0.067004        -1.8233
  14   0.0000       0.030060         0.8180
  15   0.0000       0.065016         1.7692

MULLIKEN ATOMIC CHARGES
-----------------------
   0 C :   -0.235469
   1 C :   -0.170784
   2 N :   -0.151876
   3 H :    0.185978
   4 H :    0.186086
   5 H :    0.186064
Sum of atomic charges:   -0.0000000

LOEWDIN ATOMIC CHARGES
----------------------
   0 C :   -0.247189
   1 C :   -0.201924
   2 N :   -0.035393
   3 H :    0.161491
   4 H :    0.161506
   5 H :    0.161508

  Mayer bond orders larger than 0.100000
B(  0-C ,  1-C ) :   0.9680 B(  0-C ,  3-H ) :   0.9392 B(  0-C ,  4-H ) :   0.9393
B(  0-C ,  5-H ) :   0.9394 B(  1-C ,  2-N ) :   3.1171

FINAL SINGLE POINT ENERGY      -132.765379042741

DIPOLE MOMENT
-------------

Method             : SCF
Type of density    : Electron Density
Multiplicity       :   1
Irrep              :   0
Energy             :  -132.7683735697411294 Eh
Relativity type    :
Basis              : AO
                                X                 Y                 Z
Electronic contribution:     -2.557596923       0.000424889       0.001958184
Nuclear contribution   :      4.639472524      -0.000017218      -0.000384865
                        -----------------------------------------
Total Dipole Moment    :      2.081875601       0.000407672       0.001573319
                        -----------------------------------------
Magnitude (a.u.)       :      2.081876236
Magnitude (Debye)      :      5.291708852

Rotational constants in cm-1:             5.262910             0.310911             0.310907
Rotational constants in MHz :        157778.073716          9320.875105          9320.755260

                             ****ORCA TERMINATED NORMALLY****
TOTAL RUN TIME: 0 days 0 hours 0 minutes 17 seconds 632 msec
