                         Program Version 6.0.0  -   RELEASE  -
|  1> ! pbe def2-sv(p) def2/J RI DEFGRID1 loosescf d4 GCP(DFT/SV(P)) printgap
|  2> %output
|  3>     printlevel normal
|  4> end
|  5> * xyz 0 1
|  6> C -2.3507409028 -0.7824865841 0.7195467235
|  7> C -0.8872552011 -0.3114762936 0.7589105765
|  8> H -0.6434318704 0.0237032308 1.778912039
|  9> C -0.6238833674 0.8455381284 -0.2163529534
| 10> H -0.7765694507 0.4895546708 -1.2407886952
| 11> C 0.8307940867 1.3191916429 -0.0488067227
| 12> H 0.8706348504 1.9992956271 0.8204307769
| 13> C 1.7725935668 0.1505027308 0.2858383333
| 14> H 2.6967669329 0.3086200915 -0.2847771579
| 15> C 1.1640704251 -1.1863521928 -0.166467144
| 16> H 1.8062005718 -2.0161115654 0.1704603405
| 17> O -0.0775069343 -1.4442484556 0.4433920084
| 18> O 1.0787471309 -1.1629342761 -1.5550518198
| 19> O 2.0002077125 0.1641889253 1.6717225969
| 20> O 1.3173952265 1.9726552508 -1.1919063868
| 21> O -1.5249164457 1.9084073521 -0.0428483842
| 22> O -2.6688515321 -1.4434033464 -0.4763215125
| 23> H -3.0081642235 0.0863214441 0.774452526
| 24> H -2.5325842024 -1.4379432374 1.5800950843
| 25> H 0.8431508444 -2.0385344186 -1.8976330056
| 26> H 2.7182890188 -0.4434512612 1.9004338821
| 27> H 0.6549213088 2.6128489391 -1.492454769
| 28> H -1.4299571993 2.2746343579 0.8493101935
| 29> H -2.059492846 -2.1903632898 -0.568481649
| 30> *
| 31>
| 32>                          ****END OF INPUT****

CARTESIAN COORDINATES (ANGSTROEM)
---------------------------------
  C     -2.350741   -0.782487    0.719547
  C     -0.887255   -0.311476    0.758911
  H     -0.643432    0.023703    1.778912
  C     -0.623883    0.845538   -0.216353
  H     -0.776569    0.489555   -1.240789
  C      0.830794    1.319192   -0.048807
  H      0.870635    1.999296    0.820431
  C      1.772594    0.150503    0.285838
  H      2.696767    0.308620   -0.284777
  C      1.164070   -1.186352   -0.166467
  H      1.806201   -2.016112    0.170460
  O     -0.077507   -1.444248    0.443392
  O      1.078747   -1.162934   -1.555052
  O      2.000208    0.164189    1.671723
  O      1.317395    1.972655   -1.191906
  O     -1.524916    1.908407   -0.042848
  O     -2.668852   -1.443403   -0.476322
  H     -3.008164    0.086321    0.774453
  H     -2.532584   -1.437943    1.580095
  H      0.843151   -2.038534   -1.897633
  H      2.718289   -0.443451    1.900434
  H      0.654921    2.612849   -1.492455
  H     -1.429957    2.274634    0.849310
  H     -2.059493   -2.190363   -0.568482

 Total Charge           Charge          ....    0
 Multiplicity           Mult            ....    1
 Number of Electrons    NEL             ....   96
 Basis Dimension        Dim             ....  192

ORBITAL ENERGIES
----------------

  NO   OCC          E(Eh)            E(eV)
   0   2.0000     -18.772995      -510.8392
   1   2.0000     -18.765117      -510.6248
   2   2.0000     -18.764446      -510.6065
   3   2.0000     -18.757991      -510.4309
   4   2.0000     -18.744397      -510.0610
   5   2.0000     -18.738653      -509.9047
   6   2.0000      -9.990204      -271.8473
   7   2.0000      -9.946368      -270.6544
   8   2.0000      -9.940141      -270.4850
   9   2.0000      -9.938808      -270.4487
  10   2.0000      -9.934637      -270.3352
  11   2.0000      -9.924346      -270.0552
  12   2.0000      -0.983164       -26.7533
  13   2.0000      -0.942830       -25.6557
  14   2.0000      -0.937869       -25.5207
  15   2.0000      -0.924472       -25.1562
  16   2.0000      -0.916488       -24.9389
  17   2.0000      -0.906755       -24.6741
  18   2.0000      -0.701776       -19.0963
  19   2.0000      -0.689857       -18.7720
  20   2.0000      -0.616205       -16.7678
  21   2.0000      -0.593415       -16.1476
  22   2.0000      -0.556260       -15.1366
  23   2.0000      -0.523615       -14.2483
  24   2.0000      -0.511939       -13.9306
  25   2.0000      -0.488115       -13.2823
  26   2.0000      -0.471006       -12.8167
  27   2.0000      -0.462183       -12.5766
  28   2.0000      -0.437495       -11.9048
  29   2.0000      -0.428152       -11.6506
  30   2.0000      -0.421786       -11.4774
  31   2.0000      -0.388930       -10.5833
  32   2.0000      -0.377614       -10.2754
  33   2.0000      -0.370281       -10.0759
  34   2.0000      -0.360295        -9.8041
  35   2.0000      -0.353664        -9.6237
  36   2.0000      -0.340335        -9.2610
  37   2.0000      -0.309345        -8.4177
  38   2.0000      -0.297495        -8.0952
  39   2.0000      -0.293627        -7.9900
  40   2.0000      -0.275744        -7.5034
  41   2.0000      -0.270725        -7.3668
  42   2.0000      -0.253552        -6.8995
  43   2.0000      -0.239033        -6.5044
  44   2.0000      -0.230458        -6.2711
  45   2.0000      -0.225647        -6.1402
  46   2.0000      -0.213343        -5.8054
  47   2.0000      -0.200798        -5.4640
  48   0.0000       0.014009         0.3812
  49   0.0000       0.015863         0.4317
  50   0.0000       0.021395         0.5822
  51   0.0000       0.051060         1.3894
  52   0.0000       0.059147         1.6095

MULLIKEN ATOMIC CHARGES
-----------------------
   0 C :    0.103583
   1 C :   -0.012914
   2 H :    0.049909
   3 C :    0.041271
   4 H :    0.071273
   5 C :    0.105701
   6 H :    0.045520
   7 C :    0.036726
   8 H :    0.084638
   9 C :    0.156159
  10 H :    0.046091
  11 O :   -0.327930
  12 O :   -0.374259
  13 O :   -0.416160
  14 O :   -0.409418
  15 O :   -0.411691
  16 O :   -0.439619
  17 H :    0.080402
  18 H :    0.074402
  19 H :    0.303413
  20 H :    0.304708
  21 H :    0.303576
  22 H :    0.296771
  23 H :    0.287849
Sum of atomic charges:   -0.0000000

LOEWDIN ATOMIC CHARGES
----------------------
   0 C :   -0.126337
   1 C :   -0.078341
   2 H :    0.103466
   3 C :   -0.090160
   4 H :    0.123836
   5 C :   -0.063068
   6 H :    0.099740
   7 C :   -0.075399
   8 H :    0.118248
   9 C :   -0.012017
  10 H :    0.089152
  11 O :   -0.154365
  12 O :   -0.301035
  13 O :   -0.310582
  14 O :   -0.315022
  15 O :   -0.305987
  16 O :   -0.333466
  17 H :    0.117096
  18 H :    0.097481
  19 H :    0.286735
  20 H :    0.289651
  21 H :    0.286706
  22 H :    0.281173
  23 H :    0.272495

  Mayer bond orders larger than 0.100000
B(  0-C ,  1-C ) :   1.0270 B(  0-C , 16-O ) :   1.0728 B(  0-C , 17-H ) :   0.9086
B(  0-C , 18-H ) :   0.9179 B(  1-C ,  2-H ) :   0.8697 B(  1-C ,  3-C ) :   1.0410
B(  1-C , 11-O ) :   0.9740 B(  3-C ,  4-H ) :   0.8192 B(  3-C ,  5-C ) :   1.0650
B(  3-C , 15-O ) :   1.0114 B(  5-C ,  6-H ) :   0.8668 B(  5-C ,  7-C ) :   0.9792
B(  5-C , 14-O ) :   1.0985 B(  7-C ,  8-H ) :   0.8727 B(  7-C ,  9-C ) :   1.0381
B(  7-C , 13-O ) :   1.0335 B(  9-C , 10-H ) :   0.8942 B(  9-C , 11-O ) :   1.0578
B(  9-C , 12-O ) :   1.1562 B( 12-O , 19-H ) :   0.8395 B( 13-O , 20-H ) :   0.8465
B( 14-O , 21-H ) :   0.8416 B( 15-O , 22-H ) :   0.8450 B( 16-O , 23-H ) :   0.8401

Dispersion correction           -0.024901362
FINAL SINGLE POINT ENERGY      -685.690727139974

DIPOLE MOMENT
-------------

Method             : SCF
Type of density    : Electron Density
Multiplicity       :   1
Irrep              :   0
Energy             :  -685.8205520680357949 Eh
Relativity type    :
Basis              : AO
                                X                 Y                 Z
Electronic contribution:      1.553676767      -0.229721874      -1.571910497
Nuclear contribution   :     -0.805195034      -0.311012446       2.225136968
                        -----------------------------------------
Total Dipole Moment    :      0.748481734      -0.540734320       0.653226471
                        -----------------------------------------
Magnitude (a.u.)       :      1.131071763
Magnitude (Debye)      :      2.874955945

Rotational constants in cm-1:             0.040184             0.027306             0.022627
Rotational constants in MHz :          1204.673283           818.615053           678.346951

                             ****ORCA TERMINATED NORMALLY****
TOTAL RUN TIME: 0 days 0 hours 0 minutes 12 seconds 151 msec
