                         Program Version 6.0.0  -   RELEASE  -
|  1> ! pbe def2-sv(p) def2/J RI DEFGRID1 loosescf d4 GCP(DFT/SV(P)) printgap
|  2> %output
|  3>     printlevel normal
|  4> end
|  5> * xyz 0 1
|  6> C -2.6914522956 -0.475067411 0.6411701075
|  7> C -1.4689439776 -0.0283285271 -0.1105877669
|  8> O -1.4123056306 -0.0816621312 -1.3228982159
|  9> C -0.3496558896 0.4977496462 0.7665356025
| 10> C 0.5546033099 1.5162000594 0.0611269446
| 11> C 1.4441453959 0.8834730542 -1.0065366507
| 12> C 2.2632975997 -0.2622294233 -0.4225707336
| 13> C 1.3321794122 -1.3062592709 0.1846639583
| 14> C 0.4926125722 -0.6799728418 1.2925362414
| 15> H -3.2624462819 0.4125615718 0.908830129
| 16> H -3.3104076243 -1.108375745 0.0113213088
| 17> H -2.4227298906 -0.9922337021 1.5568347229
| 18> H -0.8210105119 0.9842980365 1.6266662542
| 19> H -0.0653962219 2.2906246173 -0.3961335126
| 20> H 1.1858910828 1.9901733252 0.8164885298
| 21> H 0.8192611392 0.5053681764 -1.8167214272
| 22> H 2.1066151096 1.6463865684 -1.4207807408
| 23> H 2.8750564295 -0.7159131505 -1.2042586482
| 24> H 2.9329507209 0.1216740754 0.3508975527
| 25> H 0.677517543 -1.7016472696 -0.5957497796
| 26> H 1.9117697731 -2.1370617351 0.5916503549
| 27> H -0.1556535163 -1.4345355326 1.7406956034
| 28> H 1.1571808543 -0.2996956092 2.0708148313
| 29> *
| 30>
| 31>                          ****END OF INPUT****

CARTESIAN COORDINATES (ANGSTROEM)
---------------------------------
  C     -2.691452   -0.475067    0.641170
  C     -1.468944   -0.028329   -0.110588
  O     -1.412306   -0.081662   -1.322898
  C     -0.349656    0.497750    0.766536
  C      0.554603    1.516200    0.061127
  C      1.444145    0.883473   -1.006537
  C      2.263298   -0.262229   -0.422571
  C      1.332179   -1.306259    0.184664
  C      0.492613   -0.679973    1.292536
  H     -3.262446    0.412562    0.908830
  H     -3.310408   -1.108376    0.011321
  H     -2.422730   -0.992234    1.556835
  H     -0.821011    0.984298    1.626666
  H     -0.065396    2.290625   -0.396134
  H      1.185891    1.990173    0.816489
  H      0.819261    0.505368   -1.816721
  H      2.106615    1.646387   -1.420781
  H      2.875056   -0.715913   -1.204259
  H      2.932951    0.121674    0.350898
  H      0.677518   -1.701647   -0.595750
  H      1.911770   -2.137062    0.591650
  H     -0.155654   -1.434536    1.740696
  H      1.157181   -0.299696    2.070815

 Total Charge           Charge          ....    0
 Multiplicity           Mult            ....    1
 Number of Electrons    NEL             ....   70
 Basis Dimension        Dim             ....  154

ORBITAL ENERGIES
----------------

  NO   OCC          E(Eh)            E(eV)
   0   2.0000     -18.742863      -510.0192
   1   2.0000      -9.973386      -271.3896
   2   2.0000      -9.900405      -269.4037
   3   2.0000      -9.894891      -269.2537
   4   2.0000      -9.888466      -269.0788
   5   2.0000      -9.883379      -268.9404
   6   2.0000      -9.881328      -268.8846
   7   2.0000      -9.877442      -268.7789
   8   2.0000      -9.870764      -268.5971
   9   2.0000      -0.938741       -25.5444
  10   2.0000      -0.758825       -20.6487
  11   2.0000      -0.693540       -18.8722
  12   2.0000      -0.666469       -18.1355
  13   2.0000      -0.654480       -17.8093
  14   2.0000      -0.558645       -15.2015
  15   2.0000      -0.541432       -14.7331
  16   2.0000      -0.507698       -13.8152
  17   2.0000      -0.452463       -12.3122
  18   2.0000      -0.437694       -11.9103
  19   2.0000      -0.415959       -11.3188
  20   2.0000      -0.412617       -11.2279
  21   2.0000      -0.393390       -10.7047
  22   2.0000      -0.380942       -10.3660
  23   2.0000      -0.375106       -10.2072
  24   2.0000      -0.358597        -9.7579
  25   2.0000      -0.341818        -9.3013
  26   2.0000      -0.333726        -9.0811
  27   2.0000      -0.328909        -8.9501
  28   2.0000      -0.316876        -8.6226
  29   2.0000      -0.312563        -8.5053
  30   2.0000      -0.299740        -8.1564
  31   2.0000      -0.280237        -7.6256
  32   2.0000      -0.260801        -7.0967
  33   2.0000      -0.259060        -7.0494
  34   2.0000      -0.193960        -5.2779
  35   0.0000      -0.051496        -1.4013
  36   0.0000       0.023882         0.6499
  37   0.0000       0.051978         1.4144
  38   0.0000       0.063719         1.7339
  39   0.0000       0.074341         2.0229

MULLIKEN ATOMIC CHARGES
-----------------------
   0 C :   -0.245876
   1 C :    0.009350
   2 O :   -0.167035
   3 C :   -0.168602
   4 C :   -0.105219
   5 C :   -0.156917
   6 C :   -0.156180
   7 C :   -0.155722
   8 C :   -0.136765
   9 H :    0.128571
  10 H :    0.118185
  11 H :    0.119449
  12 H :    0.071869
  13 H :    0.085100
  14 H :    0.072647
  15 H :    0.104629
  16 H :    0.078670
  17 H :    0.084920
  18 H :    0.067736
  19 H :    0.094832
  20 H :    0.085194
  21 H :    0.086376
  22 H :    0.084788
Sum of atomic charges:    0.0000000

LOEWDIN ATOMIC CHARGES
----------------------
   0 C :   -0.360671
   1 C :    0.054473
   2 O :   -0.128118
   3 C :   -0.169976
   4 C :   -0.210000
   5 C :   -0.234817
   6 C :   -0.225050
   7 C :   -0.229450
   8 C :   -0.206037
   9 H :    0.148044
  10 H :    0.134317
  11 H :    0.133155
  12 H :    0.124383
  13 H :    0.119352
  14 H :    0.115116
  15 H :    0.124364
  16 H :    0.114080
  17 H :    0.116618
  18 H :    0.109326
  19 H :    0.120510
  20 H :    0.116969
  21 H :    0.113934
  22 H :    0.119479

  Mayer bond orders larger than 0.100000
B(  0-C ,  1-C ) :   1.0844 B(  0-C ,  9-H ) :   0.9168 B(  0-C , 10-H ) :   0.9340
B(  0-C , 11-H ) :   0.9267 B(  1-C ,  2-O ) :   2.1612 B(  1-C ,  3-C ) :   0.9203
B(  3-C ,  4-C ) :   1.0782 B(  3-C ,  8-C ) :   1.0609 B(  3-C , 12-H ) :   0.8801
B(  4-C ,  5-C ) :   1.1316 B(  4-C , 13-H ) :   0.9181 B(  4-C , 14-H ) :   0.9128
B(  5-C ,  6-C ) :   1.1333 B(  5-C , 15-H ) :   0.9022 B(  5-C , 16-H ) :   0.9159
B(  6-C ,  7-C ) :   1.1308 B(  6-C , 17-H ) :   0.9195 B(  6-C , 18-H ) :   0.9169
B(  7-C ,  8-C ) :   1.1311 B(  7-C , 19-H ) :   0.9081 B(  7-C , 20-H ) :   0.9176
B(  8-C , 21-H ) :   0.9137 B(  8-C , 22-H ) :   0.9096

Dispersion correction           -0.022792418
FINAL SINGLE POINT ENERGY      -387.608562759828

DIPOLE MOMENT
-------------

Method             : SCF
Type of density    : Electron Density
Multiplicity       :   1
Irrep              :   0
Energy             :  -387.6863064893502155 Eh
Relativity type    :
Basis              : AO
                                X                 Y                 Z
Electronic contribution:     -3.425360115       0.432666941      -3.027190853
Nuclear contribution   :      3.383281957      -0.412480936       3.958724805
                        -----------------------------------------
Total Dipole Moment    :     -0.042078158       0.020186005       0.931533952
                        -----------------------------------------
Magnitude (a.u.)       :      0.932702283
Magnitude (Debye)      :      2.370740798

Rotational constants in cm-1:             0.089011             0.042834             0.038468
Rotational constants in MHz :          2668.470228          1284.131569          1153.231137

                             ****ORCA TERMINATED NORMALLY****
TOTAL RUN TIME: 0 days 0 hours 0 minutes 11 seconds 169 msec
