                         Program Version 6.0.0  -   RELEASE  -
|  1> ! r2scan-3c def2/J RI DEFGRID2 scfconv6 printgap
|  2> %output
|  3>     printlevel normal
|  4> end
|  5> * xyz 0 1
|  6> C 0.7403876821 -0.0003632483 0.0001558261
|  7> C 1.4443370511 0.9575402373 -0.7264498598
|  8> C 2.838106251 0.963657731 -0.7299307383
|  9> C 3.5346820834 0.0004171472 -0.0003517152
| 10> C 2.8389075377 -0.9633367324 0.7292974319
| 11> C 1.4450817877 -0.9580725316 0.7264092255
| 12> Cl 0.5842292941 -2.1276794561 1.6349361074
| 13> Cl 3.6958893832 -2.1455284448 1.6254198994
| 14> Cl 5.246482569 0.0011500261 -0.0003536078
| 15> Cl 3.6939890893 2.1463026033 -1.6264110527
| 16> Cl 0.5824377308 2.1267223496 -1.6346397017
| 17> C -0.7403984949 -0.0004266458 0.0003343802
| 18> C -1.4446394525 0.9574697338 0.7267841014
| 19> C -2.8384428469 0.9634392017 0.7297783289
| 20> C -3.53471968 0.0001572243 -9.53493e-05
| 21> C -2.8386359831 -0.9633761085 -0.7297045138
| 22> C -1.444845473 -0.9580373553 -0.7262788857
| 23> Cl -0.5833884981 -2.1278739231 -1.6342890149
| 24> Cl -3.6951250617 -2.1460254738 -1.6255962455
| 25> Cl -5.2465596693 0.0006007809 -0.0002944525
| 26> Cl -3.6947412869 2.1458871378 1.626115466
| 27> Cl -0.5831527254 2.1267599279 1.6351301405
| 28> *
| 29>
| 30>                          ****END OF INPUT****

CARTESIAN COORDINATES (ANGSTROEM)
---------------------------------
  C      0.740388   -0.000363    0.000156
  C      1.444337    0.957540   -0.726450
  C      2.838106    0.963658   -0.729931
  C      3.534682    0.000417   -0.000352
  C      2.838908   -0.963337    0.729297
  C      1.445082   -0.958073    0.726409
  Cl     0.584229   -2.127679    1.634936
  Cl     3.695889   -2.145528    1.625420
  Cl     5.246483    0.001150   -0.000354
  Cl     3.693989    2.146303   -1.626411
  Cl     0.582438    2.126722   -1.634640
  C     -0.740398   -0.000427    0.000334
  C     -1.444639    0.957470    0.726784
  C     -2.838443    0.963439    0.729778
  C     -3.534720    0.000157   -0.000095
  C     -2.838636   -0.963376   -0.729705
  C     -1.444845   -0.958037   -0.726279
  Cl    -0.583388   -2.127874   -1.634289
  Cl    -3.695125   -2.146025   -1.625596
  Cl    -5.246560    0.000601   -0.000294
  Cl    -3.694741    2.145887    1.626115
  Cl    -0.583153    2.126760    1.635130

 Total Charge           Charge          ....    0
 Multiplicity           Mult            ....    1
 Number of Electrons    NEL             ....  242
 Basis Dimension        Dim             ....  498

ORBITAL ENERGIES
----------------

  NO   OCC          E(Eh)            E(eV)
   0   2.0000    -101.250995     -2755.1796
   1   2.0000    -101.250991     -2755.1795
   2   2.0000    -101.250481     -2755.1656
   3   2.0000    -101.250478     -2755.1656
   4   2.0000    -101.250475     -2755.1655
   5   2.0000    -101.250470     -2755.1654
   6   2.0000    -101.249470     -2755.1381
   7   2.0000    -101.249467     -2755.1381
   8   2.0000    -101.249465     -2755.1380
   9   2.0000    -101.249463     -2755.1379
  10   2.0000     -10.147966      -276.1402
  11   2.0000     -10.147959      -276.1400
  12   2.0000     -10.144598      -276.0485
  13   2.0000     -10.144592      -276.0484
  14   2.0000     -10.144571      -276.0478
  15   2.0000     -10.144563      -276.0476
  16   2.0000     -10.144136      -276.0360
  17   2.0000     -10.144132      -276.0359
  18   2.0000     -10.144130      -276.0358
  19   2.0000     -10.144120      -276.0355
  20   2.0000     -10.106846      -275.0213
  21   2.0000     -10.106646      -275.0158
  22   2.0000      -9.406764      -255.9710
  23   2.0000      -9.406761      -255.9710
  24   2.0000      -9.406322      -255.9590
  25   2.0000      -9.406320      -255.9590
  26   2.0000      -9.406312      -255.9588
  27   2.0000      -9.406311      -255.9587
  28   2.0000      -9.405213      -255.9289
  29   2.0000      -9.405210      -255.9288
  30   2.0000      -9.405209      -255.9287
  31   2.0000      -9.405205      -255.9286
  32   2.0000      -7.153498      -194.6566
  33   2.0000      -7.153495      -194.6565
  34   2.0000      -7.152917      -194.6408
  35   2.0000      -7.152916      -194.6407
  36   2.0000      -7.152909      -194.6405
  37   2.0000      -7.152907      -194.6405
  38   2.0000      -7.151939      -194.6141
  39   2.0000      -7.151936      -194.6141
  40   2.0000      -7.151934      -194.6140
  41   2.0000      -7.151931      -194.6139
  42   2.0000      -7.143093      -194.3734
  43   2.0000      -7.143090      -194.3734
  44   2.0000      -7.142582      -194.3595
  45   2.0000      -7.142581      -194.3595
  46   2.0000      -7.142573      -194.3593
  47   2.0000      -7.142573      -194.3593
  48   2.0000      -7.141947      -194.3423
  49   2.0000      -7.141944      -194.3422
  50   2.0000      -7.141695      -194.3354
  51   2.0000      -7.141694      -194.3354
  52   2.0000      -7.141686      -194.3352
  53   2.0000      -7.141685      -194.3351
  54   2.0000      -7.141503      -194.3302
  55   2.0000      -7.141500      -194.3301
  56   2.0000      -7.141498      -194.3300
  57   2.0000      -7.141494      -194.3299
  58   2.0000      -7.140450      -194.3015
  59   2.0000      -7.140447      -194.3014
  60   2.0000      -7.140445      -194.3014
  61   2.0000      -7.140442      -194.3013
  62   2.0000      -0.948287       -25.8042
  63   2.0000      -0.937537       -25.5117
  64   2.0000      -0.898900       -24.4603
  65   2.0000      -0.896009       -24.3816
  66   2.0000      -0.895011       -24.3545
  67   2.0000      -0.875143       -23.8138
  68   2.0000      -0.851069       -23.1588
  69   2.0000      -0.847422       -23.0595
  70   2.0000      -0.838711       -22.8225
  71   2.0000      -0.833313       -22.6756
  72   2.0000      -0.810928       -22.0665
  73   2.0000      -0.804085       -21.8803
  74   2.0000      -0.758945       -20.6519
  75   2.0000      -0.711700       -19.3663
  76   2.0000      -0.711664       -19.3654
  77   2.0000      -0.709669       -19.3111
  78   2.0000      -0.636917       -17.3314
  79   2.0000      -0.606001       -16.4901
  80   2.0000      -0.600714       -16.3462
  81   2.0000      -0.590956       -16.0807
  82   2.0000      -0.539174       -14.6717
  83   2.0000      -0.528993       -14.3946
  84   2.0000      -0.523487       -14.2448
  85   2.0000      -0.503049       -13.6886
  86   2.0000      -0.478140       -13.0109
  87   2.0000      -0.466210       -12.6862
  88   2.0000      -0.452388       -12.3101
  89   2.0000      -0.452229       -12.3058
  90   2.0000      -0.451865       -12.2959
  91   2.0000      -0.448621       -12.2076
  92   2.0000      -0.447249       -12.1703
  93   2.0000      -0.430157       -11.7052
  94   2.0000      -0.415342       -11.3020
  95   2.0000      -0.412922       -11.2362
  96   2.0000      -0.405367       -11.0306
  97   2.0000      -0.396880       -10.7997
  98   2.0000      -0.386217       -10.5095
  99   2.0000      -0.375545       -10.2191
 100   2.0000      -0.374010       -10.1773
 101   2.0000      -0.346821        -9.4375
 102   2.0000      -0.337302        -9.1785
 103   2.0000      -0.332023        -9.0348
 104   2.0000      -0.331948        -9.0328
 105   2.0000      -0.329729        -8.9724
 106   2.0000      -0.329588        -8.9685
 107   2.0000      -0.329533        -8.9671
 108   2.0000      -0.327811        -8.9202
 109   2.0000      -0.318156        -8.6575
 110   2.0000      -0.315659        -8.5895
 111   2.0000      -0.307168        -8.3585
 112   2.0000      -0.305342        -8.3088
 113   2.0000      -0.304608        -8.2888
 114   2.0000      -0.300416        -8.1747
 115   2.0000      -0.286680        -7.8010
 116   2.0000      -0.285842        -7.7781
 117   2.0000      -0.257177        -6.9981
 118   2.0000      -0.248379        -6.7587
 119   2.0000      -0.244945        -6.6653
 120   2.0000      -0.244681        -6.6581
 121   0.0000      -0.095224        -2.5912
 122   0.0000      -0.084057        -2.2873
 123   0.0000      -0.081203        -2.2096
 124   0.0000      -0.077822        -2.1176
 125   0.0000      -0.076658        -2.0860

MULLIKEN ATOMIC CHARGES
-----------------------
   0 C :    0.088774
   1 C :    0.075978
   2 C :   -0.012124
   3 C :    0.048726
   4 C :   -0.012044
   5 C :    0.075877
   6 Cl:   -0.053748
   7 Cl:   -0.053997
   8 Cl:   -0.049645
   9 Cl:   -0.053968
  10 Cl:   -0.053799
  11 C :    0.088658
  12 C :    0.075943
  13 C :   -0.012114
  14 C :    0.048716
  15 C :   -0.011956
  16 C :    0.075934
  17 Cl:   -0.053870
  18 Cl:   -0.053976
  19 Cl:   -0.049654
  20 Cl:   -0.053966
  21 Cl:   -0.053745
Sum of atomic charges:    0.0000000

LOEWDIN ATOMIC CHARGES
----------------------
   0 C :   -0.111975
   1 C :   -0.163346
   2 C :   -0.195050
   3 C :   -0.187931
   4 C :   -0.195028
   5 C :   -0.163372
   6 Cl:    0.214248
   7 Cl:    0.194497
   8 Cl:    0.199170
   9 Cl:    0.194538
  10 Cl:    0.214237
  11 C :   -0.111960
  12 C :   -0.163379
  13 C :   -0.195044
  14 C :   -0.187918
  15 C :   -0.195043
  16 C :   -0.163282
  17 Cl:    0.214152
  18 Cl:    0.194535
  19 Cl:    0.199151
  20 Cl:    0.194539
  21 Cl:    0.214261

  Mayer bond orders larger than 0.100000
B(  0-C ,  1-C ) :   1.1893 B(  0-C ,  5-C ) :   1.1891 B(  0-C ,  6-Cl) :  -0.1024
B(  0-C , 10-Cl) :  -0.1025 B(  0-C , 11-C ) :   0.7355 B(  0-C , 12-C ) :  -0.1182
B(  0-C , 16-C ) :  -0.1183 B(  1-C ,  2-C ) :   1.0384 B(  1-C , 10-Cl) :   1.2469
B(  1-C , 11-C ) :  -0.1182 B(  2-C ,  3-C ) :   1.0785 B(  2-C ,  9-Cl) :   1.2932
B(  3-C ,  4-C ) :   1.0785 B(  3-C ,  8-Cl) :   1.2988 B(  4-C ,  5-C ) :   1.0383
B(  4-C ,  7-Cl) :   1.2932 B(  5-C ,  6-Cl) :   1.2470 B(  5-C , 11-C ) :  -0.1182
B( 11-C , 12-C ) :   1.1891 B( 11-C , 16-C ) :   1.1892 B( 11-C , 17-Cl) :  -0.1024
B( 11-C , 21-Cl) :  -0.1024 B( 12-C , 13-C ) :   1.0385 B( 12-C , 21-Cl) :   1.2470
B( 13-C , 14-C ) :   1.0785 B( 13-C , 20-Cl) :   1.2932 B( 14-C , 15-C ) :   1.0784
B( 14-C , 19-Cl) :   1.2988 B( 15-C , 16-C ) :   1.0383 B( 15-C , 18-Cl) :   1.2932
B( 16-C , 17-Cl) :   1.2469

Dispersion correction           -0.019894679
FINAL SINGLE POINT ENERGY     -5058.941722944112

DIPOLE MOMENT
-------------

Method             : SCF
Type of density    : Electron Density
Multiplicity       :   1
Irrep              :   0
Energy             : -5058.9389225049699235 Eh
Relativity type    :
Basis              : AO
                                X                 Y                 Z
Electronic contribution:     -0.000008575       0.000553668       0.000224638
Nuclear contribution   :     -0.000081640      -0.000423504      -0.000023540
                        -----------------------------------------
Total Dipole Moment    :     -0.000090215       0.000130164       0.000201098
                        -----------------------------------------
Magnitude (a.u.)       :      0.000255973
Magnitude (Debye)      :      0.000650630

Rotational constants in cm-1:             0.007704             0.003042             0.002754
Rotational constants in MHz :           230.951717            91.197699            82.575150

                             ****ORCA TERMINATED NORMALLY****
TOTAL RUN TIME: 0 days 0 hours 1 minutes 25 seconds 234 msec
