                         Program Version 6.0.0  -   RELEASE  -
|  1> ! r2scan-3c def2/J RI DEFGRID2 scfconv6 printgap
|  2> %output
|  3>     printlevel normal
|  4> end
|  5> %cpcm
|  6>     smd true
|  7>     smdsolvent "water"
|  8> end
|  9> * xyz 0 1
| 10> C 0.7403876821 -0.0003632483 0.0001558261
| 11> C 1.4443370511 0.9575402373 -0.7264498598
| 12> C 2.838106251 0.963657731 -0.7299307383
| 13> C 3.5346820834 0.0004171472 -0.0003517152
| 14> C 2.8389075377 -0.9633367324 0.7292974319
| 15> C 1.4450817877 -0.9580725316 0.7264092255
| 16> Cl 0.5842292941 -2.1276794561 1.6349361074
| 17> Cl 3.6958893832 -2.1455284448 1.6254198994
| 18> Cl 5.246482569 0.0011500261 -0.0003536078
| 19> Cl 3.6939890893 2.1463026033 -1.6264110527
| 20> Cl 0.5824377308 2.1267223496 -1.6346397017
| 21> C -0.7403984949 -0.0004266458 0.0003343802
| 22> C -1.4446394525 0.9574697338 0.7267841014
| 23> C -2.8384428469 0.9634392017 0.7297783289
| 24> C -3.53471968 0.0001572243 -9.53493e-05
| 25> C -2.8386359831 -0.9633761085 -0.7297045138
| 26> C -1.444845473 -0.9580373553 -0.7262788857
| 27> Cl -0.5833884981 -2.1278739231 -1.6342890149
| 28> Cl -3.6951250617 -2.1460254738 -1.6255962455
| 29> Cl -5.2465596693 0.0006007809 -0.0002944525
| 30> Cl -3.6947412869 2.1458871378 1.626115466
| 31> Cl -0.5831527254 2.1267599279 1.6351301405
| 32> *
| 33>
| 34>                          ****END OF INPUT****

CARTESIAN COORDINATES (ANGSTROEM)
---------------------------------
  C      0.740388   -0.000363    0.000156
  C      1.444337    0.957540   -0.726450
  C      2.838106    0.963658   -0.729931
  C      3.534682    0.000417   -0.000352
  C      2.838908   -0.963337    0.729297
  C      1.445082   -0.958073    0.726409
  Cl     0.584229   -2.127679    1.634936
  Cl     3.695889   -2.145528    1.625420
  Cl     5.246483    0.001150   -0.000354
  Cl     3.693989    2.146303   -1.626411
  Cl     0.582438    2.126722   -1.634640
  C     -0.740398   -0.000427    0.000334
  C     -1.444639    0.957470    0.726784
  C     -2.838443    0.963439    0.729778
  C     -3.534720    0.000157   -0.000095
  C     -2.838636   -0.963376   -0.729705
  C     -1.444845   -0.958037   -0.726279
  Cl    -0.583388   -2.127874   -1.634289
  Cl    -3.695125   -2.146025   -1.625596
  Cl    -5.246560    0.000601   -0.000294
  Cl    -3.694741    2.145887    1.626115
  Cl    -0.583153    2.126760    1.635130

 Total Charge           Charge          ....    0
 Multiplicity           Mult            ....    1
 Number of Electrons    NEL             ....  242
 Basis Dimension        Dim             ....  498

ORBITAL ENERGIES
----------------

  NO   OCC          E(Eh)            E(eV)
   0   2.0000    -101.248841     -2755.1210
   1   2.0000    -101.248838     -2755.1210
   2   2.0000    -101.247519     -2755.0851
   3   2.0000    -101.247516     -2755.0850
   4   2.0000    -101.247515     -2755.0849
   5   2.0000    -101.247508     -2755.0848
   6   2.0000    -101.247472     -2755.0838
   7   2.0000    -101.247470     -2755.0837
   8   2.0000    -101.247469     -2755.0837
   9   2.0000    -101.247467     -2755.0836
  10   2.0000     -10.143728      -276.0249
  11   2.0000     -10.143722      -276.0247
  12   2.0000     -10.140297      -275.9315
  13   2.0000     -10.140291      -275.9314
  14   2.0000     -10.140267      -275.9307
  15   2.0000     -10.140261      -275.9305
  16   2.0000     -10.139691      -275.9150
  17   2.0000     -10.139686      -275.9149
  18   2.0000     -10.139683      -275.9148
  19   2.0000     -10.139673      -275.9145
  20   2.0000     -10.102001      -274.8894
  21   2.0000     -10.101801      -274.8840
  22   2.0000      -9.404649      -255.9135
  23   2.0000      -9.404647      -255.9134
  24   2.0000      -9.403389      -255.8792
  25   2.0000      -9.403386      -255.8792
  26   2.0000      -9.403381      -255.8790
  27   2.0000      -9.403378      -255.8789
  28   2.0000      -9.403260      -255.8757
  29   2.0000      -9.403258      -255.8757
  30   2.0000      -9.403257      -255.8756
  31   2.0000      -9.403254      -255.8755
  32   2.0000      -7.151321      -194.5973
  33   2.0000      -7.151319      -194.5973
  34   2.0000      -7.149944      -194.5599
  35   2.0000      -7.149941      -194.5598
  36   2.0000      -7.149936      -194.5597
  37   2.0000      -7.149933      -194.5596
  38   2.0000      -7.149920      -194.5592
  39   2.0000      -7.149918      -194.5592
  40   2.0000      -7.149917      -194.5591
  41   2.0000      -7.149914      -194.5591
  42   2.0000      -7.140979      -194.3159
  43   2.0000      -7.140978      -194.3159
  44   2.0000      -7.139885      -194.2862
  45   2.0000      -7.139884      -194.2861
  46   2.0000      -7.139668      -194.2802
  47   2.0000      -7.139665      -194.2802
  48   2.0000      -7.139659      -194.2800
  49   2.0000      -7.139657      -194.2799
  50   2.0000      -7.139557      -194.2772
  51   2.0000      -7.139556      -194.2772
  52   2.0000      -7.139555      -194.2772
  53   2.0000      -7.139551      -194.2771
  54   2.0000      -7.138782      -194.2561
  55   2.0000      -7.138779      -194.2561
  56   2.0000      -7.138774      -194.2559
  57   2.0000      -7.138771      -194.2558
  58   2.0000      -7.138546      -194.2497
  59   2.0000      -7.138545      -194.2497
  60   2.0000      -7.138543      -194.2496
  61   2.0000      -7.138540      -194.2496
  62   2.0000      -0.943946       -25.6861
  63   2.0000      -0.933444       -25.4003
  64   2.0000      -0.895606       -24.3707
  65   2.0000      -0.892765       -24.2934
  66   2.0000      -0.891579       -24.2611
  67   2.0000      -0.871936       -23.7266
  68   2.0000      -0.848348       -23.0847
  69   2.0000      -0.844670       -22.9846
  70   2.0000      -0.836326       -22.7576
  71   2.0000      -0.830980       -22.6121
  72   2.0000      -0.807262       -21.9667
  73   2.0000      -0.800212       -21.7749
  74   2.0000      -0.754941       -20.5430
  75   2.0000      -0.707681       -19.2570
  76   2.0000      -0.707642       -19.2559
  77   2.0000      -0.705399       -19.1949
  78   2.0000      -0.632748       -17.2179
  79   2.0000      -0.602120       -16.3845
  80   2.0000      -0.596836       -16.2407
  81   2.0000      -0.586953       -15.9718
  82   2.0000      -0.535018       -14.5586
  83   2.0000      -0.524791       -14.2803
  84   2.0000      -0.519956       -14.1487
  85   2.0000      -0.499784       -13.5998
  86   2.0000      -0.475121       -12.9287
  87   2.0000      -0.463252       -12.6057
  88   2.0000      -0.449032       -12.2188
  89   2.0000      -0.448879       -12.2146
  90   2.0000      -0.448291       -12.1986
  91   2.0000      -0.443601       -12.0710
  92   2.0000      -0.442303       -12.0357
  93   2.0000      -0.427024       -11.6199
  94   2.0000      -0.412005       -11.2112
  95   2.0000      -0.409501       -11.1431
  96   2.0000      -0.401926       -10.9370
  97   2.0000      -0.393300       -10.7022
  98   2.0000      -0.382696       -10.4137
  99   2.0000      -0.372215       -10.1285
 100   2.0000      -0.370425       -10.0798
 101   2.0000      -0.344533        -9.3752
 102   2.0000      -0.334963        -9.1148
 103   2.0000      -0.330129        -8.9833
 104   2.0000      -0.330019        -8.9803
 105   2.0000      -0.327983        -8.9249
 106   2.0000      -0.327780        -8.9193
 107   2.0000      -0.327469        -8.9109
 108   2.0000      -0.325262        -8.8508
 109   2.0000      -0.315709        -8.5909
 110   2.0000      -0.313333        -8.5262
 111   2.0000      -0.305190        -8.3046
 112   2.0000      -0.303215        -8.2509
 113   2.0000      -0.301560        -8.2059
 114   2.0000      -0.297501        -8.0954
 115   2.0000      -0.284845        -7.7510
 116   2.0000      -0.283930        -7.7261
 117   2.0000      -0.253338        -6.8937
 118   2.0000      -0.244256        -6.6465
 119   2.0000      -0.241045        -6.5592
 120   2.0000      -0.240806        -6.5527
 121   0.0000      -0.090383        -2.4594
 122   0.0000      -0.079477        -2.1627
 123   0.0000      -0.077331        -2.1043
 124   0.0000      -0.073495        -1.9999
 125   0.0000      -0.071839        -1.9548

MULLIKEN ATOMIC CHARGES
-----------------------
   0 C :    0.096408
   1 C :    0.077768
   2 C :    0.001149
   3 C :    0.062577
   4 C :    0.001204
   5 C :    0.077733
   6 Cl:   -0.061643
   7 Cl:   -0.066008
   8 Cl:   -0.061496
   9 Cl:   -0.065970
  10 Cl:   -0.061689
  11 C :    0.096364
  12 C :    0.077661
  13 C :    0.001245
  14 C :    0.062528
  15 C :    0.001322
  16 C :    0.077693
  17 Cl:   -0.061759
  18 Cl:   -0.065979
  19 Cl:   -0.061510
  20 Cl:   -0.065962
  21 Cl:   -0.061636
Sum of atomic charges:   -0.0000000

LOEWDIN ATOMIC CHARGES
----------------------
   0 C :   -0.108505
   1 C :   -0.159726
   2 C :   -0.189486
   3 C :   -0.181852
   4 C :   -0.189465
   5 C :   -0.159753
   6 Cl:    0.209864
   7 Cl:    0.187971
   8 Cl:    0.193070
   9 Cl:    0.188014
  10 Cl:    0.209854
  11 C :   -0.108490
  12 C :   -0.159759
  13 C :   -0.189479
  14 C :   -0.181838
  15 C :   -0.189479
  16 C :   -0.159663
  17 Cl:    0.209765
  18 Cl:    0.188010
  19 Cl:    0.193050
  20 Cl:    0.188016
  21 Cl:    0.209879

  Mayer bond orders larger than 0.100000
B(  0-C ,  1-C ) :   1.1901 B(  0-C ,  5-C ) :   1.1899 B(  0-C , 11-C ) :   0.7603
B(  0-C , 12-C ) :  -0.1198 B(  0-C , 16-C ) :  -0.1198 B(  1-C ,  2-C ) :   1.0419
B(  1-C , 10-Cl) :   1.2428 B(  1-C , 11-C ) :  -0.1198 B(  2-C ,  3-C ) :   1.0882
B(  2-C ,  9-Cl) :   1.2779 B(  3-C ,  4-C ) :   1.0882 B(  3-C ,  8-Cl) :   1.2830
B(  4-C ,  5-C ) :   1.0418 B(  4-C ,  7-Cl) :   1.2778 B(  5-C ,  6-Cl) :   1.2428
B(  5-C , 11-C ) :  -0.1197 B( 11-C , 12-C ) :   1.1898 B( 11-C , 16-C ) :   1.1901
B( 12-C , 13-C ) :   1.0419 B( 12-C , 21-Cl) :   1.2429 B( 13-C , 14-C ) :   1.0882
B( 13-C , 20-Cl) :   1.2779 B( 14-C , 15-C ) :   1.0882 B( 14-C , 19-Cl) :   1.2830
B( 15-C , 16-C ) :   1.0418 B( 15-C , 18-Cl) :   1.2779 B( 16-C , 17-Cl) :   1.2427

Dispersion correction           -0.019894679
FINAL SINGLE POINT ENERGY     -5058.937575882465

DIPOLE MOMENT
-------------

Method             : SCF
Type of density    : Electron Density
Multiplicity       :   1
Irrep              :   0
Energy             : -5058.9347754433229056 Eh
Relativity type    :
Basis              : AO
                                X                 Y                 Z
Electronic contribution:     -0.000040307       0.000595420       0.000278605
Nuclear contribution   :     -0.000081640      -0.000423504      -0.000023540
                        -----------------------------------------
Total Dipole Moment    :     -0.000121946       0.000171917       0.000255065
                        -----------------------------------------
Magnitude (a.u.)       :      0.000330884
Magnitude (Debye)      :      0.000841040

Rotational constants in cm-1:             0.007704             0.003042             0.002754
Rotational constants in MHz :           230.951717            91.197699            82.575150

                             ****ORCA TERMINATED NORMALLY****
TOTAL RUN TIME: 0 days 0 hours 1 minutes 51 seconds 283 msec
