                         Program Version 6.0.0  -   RELEASE  -
|  1> ! wb97x-v def2-tzvp def2/J RIJCOSX DEFGRID2 scfconv7 GCP(DFT/TZ) printgap
|  2> %output
|  3>     printlevel normal
|  4> end
|  5> * xyz 0 1
|  6> C 1.9667742362487661 0.14713382325448243 -0.4980871970660413
|  7> C 0.7966862717421311 0.04381314502410824 0.4617393644531229
|  8> H 1.1684926987716546 -0.0585862660122866 1.4893929744110108
|  9> C -0.20414245819598215 1.2062404793436028 0.3502509372128595
| 10> C -1.3138723725007888 0.6308768540997637 -0.5349133104433434
| 11> C -1.3467685267816687 -0.8115953977318955 -0.06206680245781334
| 12> O 0.037728815685662755 -1.165213436685807 0.14241979632546287
| 13> H 1.6136584321476064 0.31118775625208095 -1.5222548027552452
| 14> H 2.61280933496622 0.9842058250437707 -0.2137054068292196
| 15> H 2.567222517308964 -0.7679232742498456 -0.4781306879385489
| 16> H -0.6068035706093698 1.4590403240924874 1.3359975964204511
| 17> H 0.26267774000677413 2.100435266899658 -0.07059251265508686
| 18> H -2.272548622752709 1.1387602399768821 -0.40331637484309557
| 19> H -1.0339434825469862 0.6754507723212376 -1.5926218691115057
| 20> H -1.9018367741560571 -0.9026217385668012 0.8843916454185025
| 21> H -1.7674002391900066 -1.5133250796374882 -0.7885176401060521
| 22> *
| 23>
| 24>                          ****END OF INPUT****

CARTESIAN COORDINATES (ANGSTROEM)
---------------------------------
  C      1.966774    0.147134   -0.498087
  C      0.796686    0.043813    0.461739
  H      1.168493   -0.058586    1.489393
  C     -0.204142    1.206240    0.350251
  C     -1.313872    0.630877   -0.534913
  C     -1.346769   -0.811595   -0.062067
  O      0.037729   -1.165213    0.142420
  H      1.613658    0.311188   -1.522255
  H      2.612809    0.984206   -0.213705
  H      2.567223   -0.767923   -0.478131
  H     -0.606804    1.459040    1.335998
  H      0.262678    2.100435   -0.070593
  H     -2.272549    1.138760   -0.403316
  H     -1.033943    0.675451   -1.592622
  H     -1.901837   -0.902622    0.884392
  H     -1.767400   -1.513325   -0.788518

 Total Charge           Charge          ....    0
 Multiplicity           Mult            ....    1
 Number of Electrons    NEL             ....   48
 Basis Dimension        Dim             ....  246

ORBITAL ENERGIES
----------------

  NO   OCC          E(Eh)            E(eV)
   0   2.0000     -21.660041      -589.3997
   1   2.0000     -12.092369      -329.0501
   2   2.0000     -12.085641      -328.8670
   3   2.0000     -12.047150      -327.8196
   4   2.0000     -12.046016      -327.7888
   5   2.0000     -12.032268      -327.4147
   6   2.0000      -1.660298       -45.1790
   7   2.0000      -1.311596       -35.6904
   8   2.0000      -1.281078       -34.8599
   9   2.0000      -1.176519       -32.0147
  10   2.0000      -1.093979       -29.7687
  11   2.0000      -1.068738       -29.0818
  12   2.0000      -0.973270       -26.4840
  13   2.0000      -0.951587       -25.8940
  14   2.0000      -0.936425       -25.4814
  15   2.0000      -0.875627       -23.8270
  16   2.0000      -0.856451       -23.3052
  17   2.0000      -0.849285       -23.1102
  18   2.0000      -0.832189       -22.6450
  19   2.0000      -0.814626       -22.1671
  20   2.0000      -0.797470       -21.7003
  21   2.0000      -0.778857       -21.1938
  22   2.0000      -0.762098       -20.7378
  23   2.0000      -0.759316       -20.6620
  24   0.0000      -0.160895        -4.3782
  25   0.0000      -0.126955        -3.4546
  26   0.0000      -0.028355        -0.7716
  27   0.0000      -0.025063        -0.6820
  28   0.0000      -0.019437        -0.5289

MULLIKEN ATOMIC CHARGES
-----------------------
   0 C :   -0.355968
   1 C :    0.129974
   2 H :    0.064799
   3 C :   -0.205804
   4 C :   -0.199284
   5 C :   -0.016839
   6 O :   -0.316809
   7 H :    0.102507
   8 H :    0.103836
   9 H :    0.121294
  10 H :    0.102012
  11 H :    0.104361
  12 H :    0.102226
  13 H :    0.093458
  14 H :    0.075181
  15 H :    0.095055
Sum of atomic charges:   -0.0000000

LOEWDIN ATOMIC CHARGES
----------------------
   0 C :   -0.285611
   1 C :   -0.311259
   2 H :    0.131370
   3 C :   -0.236079
   4 C :   -0.260485
   5 C :   -0.296800
   6 O :    0.130904
   7 H :    0.119126
   8 H :    0.119105
   9 H :    0.122360
  10 H :    0.133413
  11 H :    0.134478
  12 H :    0.131454
  13 H :    0.133038
  14 H :    0.114896
  15 H :    0.120088

  Mayer bond orders larger than 0.100000
B(  0-C ,  1-C ) :   0.9842 B(  0-C ,  7-H ) :   0.9764 B(  0-C ,  8-H ) :   0.9735
B(  0-C ,  9-H ) :   0.9816 B(  1-C ,  2-H ) :   0.9640 B(  1-C ,  3-C ) :   0.9613
B(  1-C ,  6-O ) :   1.0045 B(  3-C ,  4-C ) :   0.9912 B(  3-C , 10-H ) :   0.9754
B(  3-C , 11-H ) :   0.9716 B(  4-C ,  5-C ) :   1.0103 B(  4-C , 12-H ) :   0.9673
B(  4-C , 13-H ) :   0.9668 B(  5-C ,  6-O ) :   1.0234 B(  5-C , 14-H ) :   0.9753
B(  5-C , 15-H ) :   0.9621

FINAL SINGLE POINT ENERGY      -271.783684317238

DIPOLE MOMENT
-------------

Method             : SCF
Type of density    : Electron Density
Multiplicity       :   1
Irrep              :   0
Energy             :  -271.7947425950376328 Eh
Relativity type    :
Basis              : AO
                                X                 Y                 Z
Electronic contribution:     -0.836258114      -2.615300646       0.999315478
Nuclear contribution   :      0.599454815       3.260513570      -1.001385742
                        -----------------------------------------
Total Dipole Moment    :     -0.236803299       0.645212924      -0.002070264
                        -----------------------------------------
Magnitude (a.u.)       :      0.687298921
Magnitude (Debye)      :      1.746975022

Rotational constants in cm-1:             0.195028             0.112314             0.087097
Rotational constants in MHz :          5846.790065          3367.098069          2611.093904

                             ****ORCA TERMINATED NORMALLY****
TOTAL RUN TIME: 0 days 0 hours 1 minutes 40 seconds 474 msec
