                         Program Version 6.0.0  -   RELEASE  -
|  1> ! wb97x-v def2-tzvp def2/J RIJCOSX DEFGRID2 scfconv7 GCP(DFT/TZ) printgap
|  2> %output
|  3>     printlevel normal
|  4> end
|  5> %cpcm
|  6>     smd true
|  7>     smdsolvent "water"
|  8> end
|  9> * xyz 0 1
| 10> C 1.9667742362487661 0.14713382325448243 -0.4980871970660413
| 11> C 0.7966862717421311 0.04381314502410824 0.4617393644531229
| 12> H 1.1684926987716546 -0.0585862660122866 1.4893929744110108
| 13> C -0.20414245819598215 1.2062404793436028 0.3502509372128595
| 14> C -1.3138723725007888 0.6308768540997637 -0.5349133104433434
| 15> C -1.3467685267816687 -0.8115953977318955 -0.06206680245781334
| 16> O 0.037728815685662755 -1.165213436685807 0.14241979632546287
| 17> H 1.6136584321476064 0.31118775625208095 -1.5222548027552452
| 18> H 2.61280933496622 0.9842058250437707 -0.2137054068292196
| 19> H 2.567222517308964 -0.7679232742498456 -0.4781306879385489
| 20> H -0.6068035706093698 1.4590403240924874 1.3359975964204511
| 21> H 0.26267774000677413 2.100435266899658 -0.07059251265508686
| 22> H -2.272548622752709 1.1387602399768821 -0.40331637484309557
| 23> H -1.0339434825469862 0.6754507723212376 -1.5926218691115057
| 24> H -1.9018367741560571 -0.9026217385668012 0.8843916454185025
| 25> H -1.7674002391900066 -1.5133250796374882 -0.7885176401060521
| 26> *
| 27>
| 28>                          ****END OF INPUT****

CARTESIAN COORDINATES (ANGSTROEM)
---------------------------------
  C      1.966774    0.147134   -0.498087
  C      0.796686    0.043813    0.461739
  H      1.168493   -0.058586    1.489393
  C     -0.204142    1.206240    0.350251
  C     -1.313872    0.630877   -0.534913
  C     -1.346769   -0.811595   -0.062067
  O      0.037729   -1.165213    0.142420
  H      1.613658    0.311188   -1.522255
  H      2.612809    0.984206   -0.213705
  H      2.567223   -0.767923   -0.478131
  H     -0.606804    1.459040    1.335998
  H      0.262678    2.100435   -0.070593
  H     -2.272549    1.138760   -0.403316
  H     -1.033943    0.675451   -1.592622
  H     -1.901837   -0.902622    0.884392
  H     -1.767400   -1.513325   -0.788518

 Total Charge           Charge          ....    0
 Multiplicity           Mult            ....    1
 Number of Electrons    NEL             ....   48
 Basis Dimension        Dim             ....  246

ORBITAL ENERGIES
----------------

  NO   OCC          E(Eh)            E(eV)
   0   2.0000     -21.668157      -589.6205
   1   2.0000     -12.088719      -328.9508
   2   2.0000     -12.081100      -328.7434
   3   2.0000     -12.036084      -327.5185
   4   2.0000     -12.034924      -327.4869
   5   2.0000     -12.026132      -327.2477
   6   2.0000      -1.668481       -45.4017
   7   2.0000      -1.304229       -35.4899
   8   2.0000      -1.277841       -34.7718
   9   2.0000      -1.171418       -31.8759
  10   2.0000      -1.088957       -29.6320
  11   2.0000      -1.066309       -29.0158
  12   2.0000      -0.975780       -26.5523
  13   2.0000      -0.952880       -25.9292
  14   2.0000      -0.934940       -25.4410
  15   2.0000      -0.870002       -23.6740
  16   2.0000      -0.852624       -23.2011
  17   2.0000      -0.844855       -22.9897
  18   2.0000      -0.824019       -22.4227
  19   2.0000      -0.808338       -21.9960
  20   2.0000      -0.790364       -21.5069
  21   2.0000      -0.773138       -21.0382
  22   2.0000      -0.756413       -20.5830
  23   2.0000      -0.751823       -20.4581
  24   0.0000      -0.159322        -4.3354
  25   0.0000      -0.125401        -3.4123
  26   0.0000      -0.020362        -0.5541
  27   0.0000      -0.013210        -0.3595
  28   0.0000      -0.009960        -0.2710

MULLIKEN ATOMIC CHARGES
-----------------------
   0 C :   -0.418974
   1 C :    0.141413
   2 H :    0.088297
   3 C :   -0.220562
   4 C :   -0.219064
   5 C :   -0.038653
   6 O :   -0.412554
   7 H :    0.126211
   8 H :    0.129054
   9 H :    0.129140
  10 H :    0.118878
  11 H :    0.124340
  12 H :    0.123862
  13 H :    0.109896
  14 H :    0.099270
  15 H :    0.119445
Sum of atomic charges:   -0.0000000

LOEWDIN ATOMIC CHARGES
----------------------
   0 C :   -0.292814
   1 C :   -0.311052
   2 H :    0.136298
   3 C :   -0.232759
   4 C :   -0.257935
   5 C :   -0.298820
   6 O :    0.088227
   7 H :    0.123000
   8 H :    0.126522
   9 H :    0.121209
  10 H :    0.138237
  11 H :    0.139946
  12 H :    0.137806
  13 H :    0.136799
  14 H :    0.120992
  15 H :    0.124345

  Mayer bond orders larger than 0.100000
B(  0-C ,  1-C ) :   0.9823 B(  0-C ,  7-H ) :   0.9725 B(  0-C ,  8-H ) :   0.9706
B(  0-C ,  9-H ) :   0.9793 B(  1-C ,  2-H ) :   0.9652 B(  1-C ,  3-C ) :   0.9675
B(  1-C ,  6-O ) :   0.9474 B(  3-C ,  4-C ) :   0.9868 B(  3-C , 10-H ) :   0.9722
B(  3-C , 11-H ) :   0.9687 B(  4-C ,  5-C ) :   1.0110 B(  4-C , 12-H ) :   0.9619
B(  4-C , 13-H ) :   0.9663 B(  5-C ,  6-O ) :   0.9782 B(  5-C , 14-H ) :   0.9777
B(  5-C , 15-H ) :   0.9593

FINAL SINGLE POINT ENERGY      -271.788429497397

DIPOLE MOMENT
-------------

Method             : SCF
Type of density    : Electron Density
Multiplicity       :   1
Irrep              :   0
Energy             :  -271.7994877751971217 Eh
Relativity type    :
Basis              : AO
                                X                 Y                 Z
Electronic contribution:     -0.942861489      -2.292269296       1.020959688
Nuclear contribution   :      0.599454815       3.260513570      -1.001385742
                        -----------------------------------------
Total Dipole Moment    :     -0.343406674       0.968244274       0.019573946
                        -----------------------------------------
Magnitude (a.u.)       :      1.027525308
Magnitude (Debye)      :      2.611761772

Rotational constants in cm-1:             0.195028             0.112314             0.087097
Rotational constants in MHz :          5846.790065          3367.098069          2611.093904

                             ****ORCA TERMINATED NORMALLY****
TOTAL RUN TIME: 0 days 0 hours 1 minutes 51 seconds 880 msec
