                         Program Version 6.0.0  -   RELEASE  -
|  1> ! wb97x-v def2-tzvp def2/J RIJCOSX DEFGRID2 scfconv7 GCP(DFT/TZ) printgap
|  2> %output
|  3>     printlevel normal
|  4> end
|  5> * xyz 0 1
|  6> C -2.103458515189267 0.08568095384116196 -0.1720202616113085
|  7> C -0.7249476035213879 0.661690254436298 -0.0974329133653547
|  8> C 0.4410479767992443 0.010478398736141033 0.02842213888568511
|  9> C 1.7430966587055843 0.7601382118624503 0.08538513422533558
| 10> C 0.5882061635205856 -1.4805969638771443 0.12043247636449574
| 11> H -2.6022296436912553 0.39410367405377233 -1.099334273739563
| 12> H -2.1189869305459528 -1.0049464390216265 -0.13061867307353286
| 13> H -2.726351300832553 0.4627659137366812 0.6491971838682441
| 14> H -0.6790247436858785 1.7503484963780034 -0.15237432772387519
| 15> H 1.5954159894570825 1.8415853387229064 0.01977924476798695
| 16> H 2.279384833621641 0.5391828609086446 1.0172084339363268
| 17> H 2.4058668681298334 0.4506724984418361 -0.733161025048949
| 18> H 1.0849298805330154 -1.755856841046879 1.059334895785582
| 19> H -0.36017111905569044 -2.0169514146721936 0.06948580615981981
| 20> H 1.2338227970208282 -1.8485843181144919 -0.6863789473189542
| 21> *
| 22>
| 23>                          ****END OF INPUT****

CARTESIAN COORDINATES (ANGSTROEM)
---------------------------------
  C     -2.103459    0.085681   -0.172020
  C     -0.724948    0.661690   -0.097433
  C      0.441048    0.010478    0.028422
  C      1.743097    0.760138    0.085385
  C      0.588206   -1.480597    0.120432
  H     -2.602230    0.394104   -1.099334
  H     -2.118987   -1.004946   -0.130619
  H     -2.726351    0.462766    0.649197
  H     -0.679025    1.750348   -0.152374
  H      1.595416    1.841585    0.019779
  H      2.279385    0.539183    1.017208
  H      2.405867    0.450672   -0.733161
  H      1.084930   -1.755857    1.059335
  H     -0.360171   -2.016951    0.069486
  H      1.233823   -1.848584   -0.686379

 Total Charge           Charge          ....    0
 Multiplicity           Mult            ....    1
 Number of Electrons    NEL             ....   40
 Basis Dimension        Dim             ....  215

ORBITAL ENERGIES
----------------

  NO   OCC          E(Eh)            E(eV)
   0   2.0000     -12.048456      -327.8551
   1   2.0000     -12.036990      -327.5432
   2   2.0000     -12.036453      -327.5285
   3   2.0000     -12.035504      -327.5027
   4   2.0000     -12.034537      -327.4764
   5   2.0000      -1.327454       -36.1218
   6   2.0000      -1.234354       -33.5885
   7   2.0000      -1.184275       -32.2258
   8   2.0000      -1.136522       -30.9263
   9   2.0000      -0.976743       -26.5785
  10   2.0000      -0.905856       -24.6496
  11   2.0000      -0.885849       -24.1052
  12   2.0000      -0.846712       -23.0402
  13   2.0000      -0.820209       -22.3190
  14   2.0000      -0.816330       -22.2135
  15   2.0000      -0.805516       -21.9192
  16   2.0000      -0.805201       -21.9106
  17   2.0000      -0.798523       -21.7289
  18   2.0000      -0.774537       -21.0762
  19   2.0000      -0.627238       -17.0680
  20   0.0000      -0.189645        -5.1605
  21   0.0000      -0.033375        -0.9082
  22   0.0000      -0.013472        -0.3666
  23   0.0000      -0.001513        -0.0412
  24   0.0000       0.009295         0.2529

MULLIKEN ATOMIC CHARGES
-----------------------
   0 C :   -0.305619
   1 C :   -0.145919
   2 C :    0.008288
   3 C :   -0.319981
   4 C :   -0.317486
   5 H :    0.114604
   6 H :    0.097278
   7 H :    0.114913
   8 H :    0.099391
   9 H :    0.108052
  10 H :    0.109430
  11 H :    0.109770
  12 H :    0.113823
  13 H :    0.100061
  14 H :    0.113393
Sum of atomic charges:   -0.0000000

LOEWDIN ATOMIC CHARGES
----------------------
   0 C :   -0.292499
   1 C :   -0.189599
   2 C :   -0.235397
   3 C :   -0.261029
   4 C :   -0.259401
   5 H :    0.123004
   6 H :    0.116779
   7 H :    0.123181
   8 H :    0.137929
   9 H :    0.122037
  10 H :    0.122546
  11 H :    0.122678
  12 H :    0.125714
  13 H :    0.118504
  14 H :    0.125552

  Mayer bond orders larger than 0.100000
B(  0-C ,  1-C ) :   0.9556 B(  0-C ,  5-H ) :   0.9729 B(  0-C ,  6-H ) :   0.9934
B(  0-C ,  7-H ) :   0.9722 B(  1-C ,  2-C ) :   1.9095 B(  1-C ,  8-H ) :   0.9643
B(  2-C ,  3-C ) :   0.9668 B(  2-C ,  4-C ) :   0.9577 B(  3-C ,  9-H ) :   0.9861
B(  3-C , 10-H ) :   0.9730 B(  3-C , 11-H ) :   0.9730 B(  4-C , 12-H ) :   0.9722
B(  4-C , 13-H ) :   0.9909 B(  4-C , 14-H ) :   0.9722

FINAL SINGLE POINT ENERGY      -196.541457375266

DIPOLE MOMENT
-------------

Method             : SCF
Type of density    : Electron Density
Multiplicity       :   1
Irrep              :   0
Energy             :  -196.5512705506657767 Eh
Relativity type    :
Basis              : AO
                                X                 Y                 Z
Electronic contribution:     -0.150173280       0.939554644      -0.060495784
Nuclear contribution   :      0.180564327      -1.014184983       0.067131164
                        -----------------------------------------
Total Dipole Moment    :      0.030391046      -0.074630339       0.006635380
                        -----------------------------------------
Magnitude (a.u.)       :      0.080853766
Magnitude (Debye)      :      0.205513942

Rotational constants in cm-1:             0.270082             0.117267             0.085636
Rotational constants in MHz :          8096.864533          3515.584166          2567.289355

                             ****ORCA TERMINATED NORMALLY****
TOTAL RUN TIME: 0 days 0 hours 0 minutes 52 seconds 849 msec
