                         Program Version 6.0.0  -   RELEASE  -
|  1> ! wb97x-v def2-tzvp def2/J RIJCOSX DEFGRID2 scfconv7 GCP(DFT/TZ) printgap
|  2> %output
|  3>     printlevel normal
|  4> end
|  5> %cpcm
|  6>     smd true
|  7>     smdsolvent "water"
|  8> end
|  9> * xyz 0 1
| 10> C -2.103458515189267 0.08568095384116196 -0.1720202616113085
| 11> C -0.7249476035213879 0.661690254436298 -0.0974329133653547
| 12> C 0.4410479767992443 0.010478398736141033 0.02842213888568511
| 13> C 1.7430966587055843 0.7601382118624503 0.08538513422533558
| 14> C 0.5882061635205856 -1.4805969638771443 0.12043247636449574
| 15> H -2.6022296436912553 0.39410367405377233 -1.099334273739563
| 16> H -2.1189869305459528 -1.0049464390216265 -0.13061867307353286
| 17> H -2.726351300832553 0.4627659137366812 0.6491971838682441
| 18> H -0.6790247436858785 1.7503484963780034 -0.15237432772387519
| 19> H 1.5954159894570825 1.8415853387229064 0.01977924476798695
| 20> H 2.279384833621641 0.5391828609086446 1.0172084339363268
| 21> H 2.4058668681298334 0.4506724984418361 -0.733161025048949
| 22> H 1.0849298805330154 -1.755856841046879 1.059334895785582
| 23> H -0.36017111905569044 -2.0169514146721936 0.06948580615981981
| 24> H 1.2338227970208282 -1.8485843181144919 -0.6863789473189542
| 25> *
| 26>
| 27>                          ****END OF INPUT****

CARTESIAN COORDINATES (ANGSTROEM)
---------------------------------
  C     -2.103459    0.085681   -0.172020
  C     -0.724948    0.661690   -0.097433
  C      0.441048    0.010478    0.028422
  C      1.743097    0.760138    0.085385
  C      0.588206   -1.480597    0.120432
  H     -2.602230    0.394104   -1.099334
  H     -2.118987   -1.004946   -0.130619
  H     -2.726351    0.462766    0.649197
  H     -0.679025    1.750348   -0.152374
  H      1.595416    1.841585    0.019779
  H      2.279385    0.539183    1.017208
  H      2.405867    0.450672   -0.733161
  H      1.084930   -1.755857    1.059335
  H     -0.360171   -2.016951    0.069486
  H      1.233823   -1.848584   -0.686379

 Total Charge           Charge          ....    0
 Multiplicity           Mult            ....    1
 Number of Electrons    NEL             ....   40
 Basis Dimension        Dim             ....  215

ORBITAL ENERGIES
----------------

  NO   OCC          E(Eh)            E(eV)
   0   2.0000     -12.046383      -327.7988
   1   2.0000     -12.031933      -327.4055
   2   2.0000     -12.029163      -327.3302
   3   2.0000     -12.028686      -327.3172
   4   2.0000     -12.028249      -327.3053
   5   2.0000      -1.324351       -36.0374
   6   2.0000      -1.229243       -33.4494
   7   2.0000      -1.177957       -32.0538
   8   2.0000      -1.131957       -30.8021
   9   2.0000      -0.971602       -26.4386
  10   2.0000      -0.900711       -24.5096
  11   2.0000      -0.880993       -23.9730
  12   2.0000      -0.840824       -22.8800
  13   2.0000      -0.814368       -22.1601
  14   2.0000      -0.809636       -22.0313
  15   2.0000      -0.799210       -21.7476
  16   2.0000      -0.798381       -21.7251
  17   2.0000      -0.791478       -21.5372
  18   2.0000      -0.769030       -20.9264
  19   2.0000      -0.625764       -17.0279
  20   0.0000      -0.187750        -5.1089
  21   0.0000      -0.028342        -0.7712
  22   0.0000      -0.004414        -0.1201
  23   0.0000       0.006028         0.1640
  24   0.0000       0.017917         0.4876

MULLIKEN ATOMIC CHARGES
-----------------------
   0 C :   -0.349862
   1 C :   -0.203104
   2 C :   -0.023106
   3 C :   -0.364919
   4 C :   -0.367526
   5 H :    0.131368
   6 H :    0.125781
   7 H :    0.131539
   8 H :    0.136161
   9 H :    0.129439
  10 H :    0.129672
  11 H :    0.130020
  12 H :    0.133925
  13 H :    0.126940
  14 H :    0.133673
Sum of atomic charges:   -0.0000000

LOEWDIN ATOMIC CHARGES
----------------------
   0 C :   -0.299627
   1 C :   -0.206086
   2 C :   -0.244519
   3 C :   -0.267257
   4 C :   -0.264585
   5 H :    0.126397
   6 H :    0.122187
   7 H :    0.126567
   8 H :    0.143352
   9 H :    0.125324
  10 H :    0.127095
  11 H :    0.127250
  12 H :    0.130329
  13 H :    0.123387
  14 H :    0.130187

  Mayer bond orders larger than 0.100000
B(  0-C ,  1-C ) :   0.9551 B(  0-C ,  5-H ) :   0.9681 B(  0-C ,  6-H ) :   0.9908
B(  0-C ,  7-H ) :   0.9674 B(  1-C ,  2-C ) :   1.8888 B(  1-C ,  8-H ) :   0.9649
B(  2-C ,  3-C ) :   0.9653 B(  2-C ,  4-C ) :   0.9580 B(  3-C ,  9-H ) :   0.9834
B(  3-C , 10-H ) :   0.9688 B(  3-C , 11-H ) :   0.9687 B(  4-C , 12-H ) :   0.9682
B(  4-C , 13-H ) :   0.9868 B(  4-C , 14-H ) :   0.9683

FINAL SINGLE POINT ENERGY      -196.539763895281

DIPOLE MOMENT
-------------

Method             : SCF
Type of density    : Electron Density
Multiplicity       :   1
Irrep              :   0
Energy             :  -196.5495770706808116 Eh
Relativity type    :
Basis              : AO
                                X                 Y                 Z
Electronic contribution:     -0.115925029       0.887850527      -0.055132633
Nuclear contribution   :      0.180564327      -1.014184983       0.067131164
                        -----------------------------------------
Total Dipole Moment    :      0.064639298      -0.126334457       0.011998531
                        -----------------------------------------
Magnitude (a.u.)       :      0.142416988
Magnitude (Debye)      :      0.361995216

Rotational constants in cm-1:             0.270082             0.117267             0.085636
Rotational constants in MHz :          8096.864533          3515.584166          2567.289355

                             ****ORCA TERMINATED NORMALLY****
TOTAL RUN TIME: 0 days 0 hours 0 minutes 49 seconds 130 msec
