                         Program Version 6.0.0  -   RELEASE  -
|  1> ! wb97x-v def2-tzvp def2/J RIJCOSX DEFGRID2 scfconv7 GCP(DFT/TZ) printgap
|  2> %output
|  3>     printlevel normal
|  4> end
|  5> * xyz 0 1
|  6> C 0.0006001848020464968 1.1715611229961835 -6.611296439039897e-05
|  7> I -1.816003681936012 0.009519796708780523 -5.2852033119774353e-05
|  8> I 1.8166892669352808 0.008662766430576781 4.420189510782316e-05
|  9> H 0.0002204301219728763 1.7700615803827902 0.9053360960534329
| 10> H 0.0005534585979259884 1.7700466616483077 -0.9054732260068209
| 11> *
| 12>
| 13>                          ****END OF INPUT****

CARTESIAN COORDINATES (ANGSTROEM)
---------------------------------
  C      0.000600    1.171561   -0.000066
  I     -1.816004    0.009520   -0.000053
  I      1.816689    0.008663    0.000044
  H      0.000220    1.770062    0.905336
  H      0.000553    1.770047   -0.905473

 Total Charge           Charge          ....    0
 Multiplicity           Mult            ....    1
 Number of Electrons    NEL             ....   58
 Basis Dimension        Dim             ....  143

ORBITAL ENERGIES
----------------

  NO   OCC          E(Eh)            E(eV)
   0   2.0000     -12.149714      -330.6105
   1   2.0000      -8.135754      -221.3851
   2   2.0000      -8.135715      -221.3841
   3   2.0000      -6.108003      -166.2072
   4   2.0000      -6.107424      -166.1915
   5   2.0000      -6.096480      -165.8937
   6   2.0000      -6.096221      -165.8866
   7   2.0000      -6.096212      -165.8864
   8   2.0000      -6.096107      -165.8835
   9   2.0000      -3.028061       -82.3977
  10   2.0000      -3.027895       -82.3932
  11   2.0000      -3.024698       -82.3062
  12   2.0000      -3.024613       -82.3039
  13   2.0000      -3.024500       -82.3008
  14   2.0000      -3.024349       -82.2967
  15   2.0000      -3.013987       -82.0148
  16   2.0000      -3.013987       -82.0148
  17   2.0000      -3.013954       -82.0139
  18   2.0000      -3.013952       -82.0138
  19   2.0000      -1.265055       -34.4239
  20   2.0000      -1.181266       -32.1439
  21   2.0000      -1.112313       -30.2676
  22   2.0000      -0.903225       -24.5780
  23   2.0000      -0.805822       -21.9275
  24   2.0000      -0.775298       -21.0969
  25   2.0000      -0.645989       -17.5783
  26   2.0000      -0.641976       -17.4691
  27   2.0000      -0.637722       -17.3533
  28   2.0000      -0.631343       -17.1797
  29   0.0000      -0.311814        -8.4849
  30   0.0000      -0.256700        -6.9852
  31   0.0000      -0.016076        -0.4374
  32   0.0000       0.000024         0.0006
  33   0.0000       0.058013         1.5786

MULLIKEN ATOMIC CHARGES
-----------------------
   0 C :   -0.340987
   1 I :   -0.001504
   2 I :   -0.001370
   3 H :    0.171930
   4 H :    0.171930
Sum of atomic charges:   -0.0000000

LOEWDIN ATOMIC CHARGES
----------------------
   0 C :   -0.702705
   1 I :    0.241306
   2 I :    0.241380
   3 H :    0.110011
   4 H :    0.110009

  Mayer bond orders larger than 0.100000
B(  0-C ,  1-I ) :   1.0647 B(  0-C ,  2-I ) :   1.0647 B(  0-C ,  3-H ) :   0.9491
B(  0-C ,  4-H ) :   0.9491

FINAL SINGLE POINT ENERGY      -634.689271923422

DIPOLE MOMENT
-------------

Method             : SCF
Type of density    : Electron Density
Multiplicity       :   1
Irrep              :   0
Energy             :  -634.6956359980217712 Eh
Relativity type    :
Basis              : AO
                                X                 Y                 Z
Electronic contribution:     -0.001458695     -12.203758810       0.000575617
Nuclear contribution   :      0.001783684      12.669238465      -0.000586659
                        -----------------------------------------
Total Dipole Moment    :      0.000324990       0.465479655      -0.000011041
                        -----------------------------------------
Magnitude (a.u.)       :      0.465479769
Magnitude (Debye)      :      1.183155546

Rotational constants in cm-1:             0.733259             0.020093             0.019633
Rotational constants in MHz :         21982.552986           602.382348           588.572627

                             ****ORCA TERMINATED NORMALLY****
TOTAL RUN TIME: 0 days 0 hours 0 minutes 37 seconds 676 msec
