                         Program Version 6.0.0  -   RELEASE  -
|  1> ! wb97x-v def2-tzvp def2/J RIJCOSX DEFGRID2 scfconv7 GCP(DFT/TZ) printgap
|  2> %output
|  3>     printlevel normal
|  4> end
|  5> %cpcm
|  6>     smd true
|  7>     smdsolvent "water"
|  8> end
|  9> * xyz 0 1
| 10> C 0.0006001848020464968 1.1715611229961835 -6.611296439039897e-05
| 11> I -1.816003681936012 0.009519796708780523 -5.2852033119774353e-05
| 12> I 1.8166892669352808 0.008662766430576781 4.420189510782316e-05
| 13> H 0.0002204301219728763 1.7700615803827902 0.9053360960534329
| 14> H 0.0005534585979259884 1.7700466616483077 -0.9054732260068209
| 15> *
| 16>
| 17>                          ****END OF INPUT****

CARTESIAN COORDINATES (ANGSTROEM)
---------------------------------
  C      0.000600    1.171561   -0.000066
  I     -1.816004    0.009520   -0.000053
  I      1.816689    0.008663    0.000044
  H      0.000220    1.770062    0.905336
  H      0.000553    1.770047   -0.905473

 Total Charge           Charge          ....    0
 Multiplicity           Mult            ....    1
 Number of Electrons    NEL             ....   58
 Basis Dimension        Dim             ....  143

ORBITAL ENERGIES
----------------

  NO   OCC          E(Eh)            E(eV)
   0   2.0000     -12.125499      -329.9516
   1   2.0000      -8.121921      -221.0087
   2   2.0000      -8.121885      -221.0077
   3   2.0000      -6.093889      -165.8232
   4   2.0000      -6.093302      -165.8072
   5   2.0000      -6.082792      -165.5212
   6   2.0000      -6.082530      -165.5141
   7   2.0000      -6.082522      -165.5138
   8   2.0000      -6.082417      -165.5110
   9   2.0000      -3.013898       -82.0123
  10   2.0000      -3.013731       -82.0078
  11   2.0000      -3.010724       -81.9260
  12   2.0000      -3.010643       -81.9238
  13   2.0000      -3.010534       -81.9208
  14   2.0000      -3.010377       -81.9165
  15   2.0000      -3.000425       -81.6457
  16   2.0000      -3.000423       -81.6457
  17   2.0000      -3.000393       -81.6449
  18   2.0000      -3.000392       -81.6448
  19   2.0000      -1.244733       -33.8709
  20   2.0000      -1.166812       -31.7506
  21   2.0000      -1.092746       -29.7351
  22   2.0000      -0.876430       -23.8489
  23   2.0000      -0.784452       -21.3460
  24   2.0000      -0.755632       -20.5618
  25   2.0000      -0.633139       -17.2286
  26   2.0000      -0.629484       -17.1291
  27   2.0000      -0.624720       -16.9995
  28   2.0000      -0.619150       -16.8479
  29   0.0000      -0.292077        -7.9478
  30   0.0000      -0.235533        -6.4092
  31   0.0000       0.012161         0.3309
  32   0.0000       0.025922         0.7054
  33   0.0000       0.072628         1.9763

MULLIKEN ATOMIC CHARGES
-----------------------
   0 C :   -0.308188
   1 I :   -0.043348
   2 I :   -0.043188
   3 H :    0.197362
   4 H :    0.197363
Sum of atomic charges:   -0.0000000

LOEWDIN ATOMIC CHARGES
----------------------
   0 C :   -0.679173
   1 I :    0.220048
   2 I :    0.220147
   3 H :    0.119490
   4 H :    0.119488

  Mayer bond orders larger than 0.100000
B(  0-C ,  1-I ) :   1.0364 B(  0-C ,  2-I ) :   1.0364 B(  0-C ,  3-H ) :   0.9431
B(  0-C ,  4-H ) :   0.9431

FINAL SINGLE POINT ENERGY      -634.695380691671

DIPOLE MOMENT
-------------

Method             : SCF
Type of density    : Electron Density
Multiplicity       :   1
Irrep              :   0
Energy             :  -634.7017447662706218 Eh
Relativity type    :
Basis              : AO
                                X                 Y                 Z
Electronic contribution:     -0.001289961     -11.980371250       0.000576247
Nuclear contribution   :      0.001783684      12.669238465      -0.000586659
                        -----------------------------------------
Total Dipole Moment    :      0.000493723       0.688867215      -0.000010412
                        -----------------------------------------
Magnitude (a.u.)       :      0.688867392
Magnitude (Debye)      :      1.750961760

Rotational constants in cm-1:             0.733259             0.020093             0.019633
Rotational constants in MHz :         21982.552986           602.382348           588.572627

                             ****ORCA TERMINATED NORMALLY****
TOTAL RUN TIME: 0 days 0 hours 0 minutes 42 seconds 452 msec
