                         Program Version 6.0.0  -   RELEASE  -
|  1> ! r2scan-3c def2/J RI DEFGRID2 scfconv6 printgap
|  2> %output
|  3>     printlevel normal
|  4> end
|  5> %cpcm
|  6>     smd true
|  7>     smdsolvent "water"
|  8> end
|  9> * xyz 0 1
| 10> C -0.7289432617 -1.1721755836 -0.0886351573
| 11> N 1.2962e-05 -2.06005e-05 0.3535722329
| 12> C -0.6507271992 1.2173334828 -0.0886221937
| 13> C 1.3796598858 -0.0451497667 -0.088631343
| 14> H -0.7775166977 -1.2507279251 -1.1868903052
| 15> H -1.743750613 -1.1283697236 0.3023556886
| 16> H -0.2412264579 -2.0629625755 0.3028435776
| 17> H -0.1056466411 2.0743265565 0.3026375059
| 18> H -1.6661716523 1.2401117564 0.3025806589
| 19> H -0.6942609842 1.2988990409 -1.1868485324
| 20> H 1.9073242926 0.8224391971 0.3031720518
| 21> H 1.4720575219 -0.0474624006 -1.1868515729
| 22> H 1.8491371215 -0.9460645621 0.3019951362
| 23> *
| 24>
| 25>                          ****END OF INPUT****

CARTESIAN COORDINATES (ANGSTROEM)
---------------------------------
  C     -0.728943   -1.172176   -0.088635
  N      0.000013   -0.000021    0.353572
  C     -0.650727    1.217333   -0.088622
  C      1.379660   -0.045150   -0.088631
  H     -0.777517   -1.250728   -1.186890
  H     -1.743751   -1.128370    0.302356
  H     -0.241226   -2.062963    0.302844
  H     -0.105647    2.074327    0.302638
  H     -1.666172    1.240112    0.302581
  H     -0.694261    1.298899   -1.186849
  H      1.907324    0.822439    0.303172
  H      1.472058   -0.047462   -1.186852
  H      1.849137   -0.946065    0.301995

 Total Charge           Charge          ....    0
 Multiplicity           Mult            ....    1
 Number of Electrons    NEL             ....   34
 Basis Dimension        Dim             ....  126

ORBITAL ENERGIES
----------------

  NO   OCC          E(Eh)            E(eV)
   0   2.0000     -14.146128      -384.9357
   1   2.0000     -10.034043      -273.0402
   2   2.0000     -10.034022      -273.0396
   3   2.0000     -10.034017      -273.0395
   4   2.0000      -0.881828       -23.9958
   5   2.0000      -0.662893       -18.0382
   6   2.0000      -0.662881       -18.0379
   7   2.0000      -0.547975       -14.9111
   8   2.0000      -0.426910       -11.6168
   9   2.0000      -0.426888       -11.6162
  10   2.0000      -0.426258       -11.5991
  11   2.0000      -0.353139        -9.6094
  12   2.0000      -0.353123        -9.6090
  13   2.0000      -0.326990        -8.8979
  14   2.0000      -0.319754        -8.7009
  15   2.0000      -0.319732        -8.7003
  16   2.0000      -0.181139        -4.9290
  17   0.0000       0.080488         2.1902
  18   0.0000       0.124644         3.3917
  19   0.0000       0.143839         3.9140
  20   0.0000       0.143843         3.9142
  21   0.0000       0.159349         4.3361

MULLIKEN ATOMIC CHARGES
-----------------------
   0 C :   -0.382366
   1 N :   -0.217762
   2 C :   -0.382331
   3 C :   -0.382692
   4 H :    0.137700
   5 H :    0.158600
   6 H :    0.158708
   7 H :    0.158772
   8 H :    0.158577
   9 H :    0.137645
  10 H :    0.158777
  11 H :    0.137710
  12 H :    0.158661
Sum of atomic charges:    0.0000000

LOEWDIN ATOMIC CHARGES
----------------------
   0 C :   -0.158709
   1 N :   -1.054844
   2 C :   -0.158687
   3 C :   -0.158698
   4 H :    0.156061
   5 H :    0.177114
   6 H :    0.177130
   7 H :    0.177170
   8 H :    0.177094
   9 H :    0.156043
  10 H :    0.177154
  11 H :    0.156053
  12 H :    0.177120

  Mayer bond orders larger than 0.100000
B(  0-C ,  1-N ) :   0.9585 B(  0-C ,  4-H ) :   0.9490 B(  0-C ,  5-H ) :   0.9675
B(  0-C ,  6-H ) :   0.9675 B(  1-N ,  2-C ) :   0.9585 B(  1-N ,  3-C ) :   0.9583
B(  2-C ,  7-H ) :   0.9675 B(  2-C ,  8-H ) :   0.9675 B(  2-C ,  9-H ) :   0.9491
B(  3-C , 10-H ) :   0.9675 B(  3-C , 11-H ) :   0.9491 B(  3-C , 12-H ) :   0.9675

Dispersion correction           -0.002541108
FINAL SINGLE POINT ENERGY      -174.406500434578

DIPOLE MOMENT
-------------

Method             : SCF
Type of density    : Electron Density
Multiplicity       :   1
Irrep              :   0
Energy             :  -174.4177976200183480 Eh
Relativity type    :
Basis              : AO
                                X                 Y                 Z
Electronic contribution:      0.000643978       0.000311453       1.240256971
Nuclear contribution   :     -0.000050693       0.000177542      -1.635166464
                        -----------------------------------------
Total Dipole Moment    :      0.000593285       0.000488995      -0.394909493
                        -----------------------------------------
Magnitude (a.u.)       :      0.394910242
Magnitude (Debye)      :      1.003782062

Rotational constants in cm-1:             0.293183             0.293153             0.166400
Rotational constants in MHz :          8789.399484          8788.495596          4988.537839

                             ****ORCA TERMINATED NORMALLY****
TOTAL RUN TIME: 0 days 0 hours 0 minutes 15 seconds 938 msec
