                         Program Version 6.0.0  -   RELEASE  -
|  1> ! r2scan-3c def2/J RI DEFGRID2 scfconv6 printgap
|  2> %output
|  3>     printlevel normal
|  4> end
|  5> * xyz 0 1
|  6> C 1.7138536398 0.9430905663 -0.0013400052
|  7> C 0.7132479359 -0.1778215217 0.0001215376
|  8> C 1.1331093353 -1.4424774737 0.0013535244
|  9> C -0.7132473222 0.1778509116 0.0001155507
| 10> C -1.1331247623 1.4424597988 0.0013856911
| 11> C -1.7138355285 -0.9430905251 -0.0013372056
| 12> H 1.5851035652 1.5678268591 -0.8832382938
| 13> H 2.7251984576 0.5459316539 -0.0030477962
| 14> H 1.5879940151 1.5672886264 0.8813487458
| 15> H 0.4671158749 -2.2857432652 0.0021530672
| 16> H 2.1841899967 -1.6784150235 0.0011480412
| 17> H -2.1842125848 1.6783595367 0.0009888379
| 18> H -0.4671680387 2.2857220648 0.0020392141
| 19> H -1.5856246364 -1.5673557621 -0.8836645092
| 20> H -1.5874451206 -1.5677784364 0.880936621
| 21> H -2.7251908319 -0.5459763507 -0.0022281774
| 22> *
| 23>
| 24>                          ****END OF INPUT****

CARTESIAN COORDINATES (ANGSTROEM)
---------------------------------
  C      1.713854    0.943091   -0.001340
  C      0.713248   -0.177822    0.000122
  C      1.133109   -1.442477    0.001354
  C     -0.713247    0.177851    0.000116
  C     -1.133125    1.442460    0.001386
  C     -1.713836   -0.943091   -0.001337
  H      1.585104    1.567827   -0.883238
  H      2.725198    0.545932   -0.003048
  H      1.587994    1.567289    0.881349
  H      0.467116   -2.285743    0.002153
  H      2.184190   -1.678415    0.001148
  H     -2.184213    1.678360    0.000989
  H     -0.467168    2.285722    0.002039
  H     -1.585625   -1.567356   -0.883665
  H     -1.587445   -1.567778    0.880937
  H     -2.725191   -0.545976   -0.002228

 Total Charge           Charge          ....    0
 Multiplicity           Mult            ....    1
 Number of Electrons    NEL             ....   46
 Basis Dimension        Dim             ....  164

ORBITAL ENERGIES
----------------

  NO   OCC          E(Eh)            E(eV)
   0   2.0000     -10.044595      -273.3273
   1   2.0000     -10.044385      -273.3216
   2   2.0000     -10.023705      -272.7589
   3   2.0000     -10.023703      -272.7588
   4   2.0000     -10.020340      -272.6673
   5   2.0000     -10.020333      -272.6671
   6   2.0000      -0.800501       -21.7828
   7   2.0000      -0.726719       -19.7750
   8   2.0000      -0.669978       -18.2310
   9   2.0000      -0.638150       -17.3649
  10   2.0000      -0.563598       -15.3363
  11   2.0000      -0.469970       -12.7885
  12   2.0000      -0.452254       -12.3065
  13   2.0000      -0.420693       -11.4476
  14   2.0000      -0.399119       -10.8606
  15   2.0000      -0.378188       -10.2910
  16   2.0000      -0.373228       -10.1560
  17   2.0000      -0.358318        -9.7503
  18   2.0000      -0.346558        -9.4303
  19   2.0000      -0.327184        -8.9031
  20   2.0000      -0.300040        -8.1645
  21   2.0000      -0.267559        -7.2806
  22   2.0000      -0.214350        -5.8328
  23   0.0000      -0.053857        -1.4655
  24   0.0000       0.053898         1.4666
  25   0.0000       0.098310         2.6751
  26   0.0000       0.108854         2.9621
  27   0.0000       0.115316         3.1379

MULLIKEN ATOMIC CHARGES
-----------------------
   0 C :   -0.581437
   1 C :    0.141144
   2 C :   -0.323951
   3 C :    0.141127
   4 C :   -0.323925
   5 C :   -0.581440
   6 H :    0.167120
   7 H :    0.146922
   8 H :    0.167121
   9 H :    0.144049
  10 H :    0.139033
  11 H :    0.139032
  12 H :    0.144045
  13 H :    0.167166
  14 H :    0.167074
  15 H :    0.146921
Sum of atomic charges:   -0.0000000

LOEWDIN ATOMIC CHARGES
----------------------
   0 C :   -0.393690
   1 C :   -0.110443
   2 C :   -0.300890
   3 C :   -0.110447
   4 C :   -0.300880
   5 C :   -0.393694
   6 H :    0.163737
   7 H :    0.159066
   8 H :    0.163748
   9 H :    0.160417
  10 H :    0.158056
  11 H :    0.158058
  12 H :    0.160413
  13 H :    0.163746
  14 H :    0.163739
  15 H :    0.159062

  Mayer bond orders larger than 0.100000
B(  0-C ,  1-C ) :   0.8352 B(  0-C ,  6-H ) :   0.9819 B(  0-C ,  7-H ) :   0.9825
B(  0-C ,  8-H ) :   0.9818 B(  1-C ,  2-C ) :   1.7815 B(  1-C ,  3-C ) :   1.0632
B(  2-C ,  4-C ) :   0.1270 B(  2-C ,  9-H ) :   0.9658 B(  2-C , 10-H ) :   0.9643
B(  3-C ,  4-C ) :   1.7815 B(  3-C ,  5-C ) :   0.8352 B(  4-C , 11-H ) :   0.9643
B(  4-C , 12-H ) :   0.9658 B(  5-C , 13-H ) :   0.9819 B(  5-C , 14-H ) :   0.9818
B(  5-C , 15-H ) :   0.9825

Dispersion correction           -0.004214993
FINAL SINGLE POINT ENERGY      -234.542491402350

DIPOLE MOMENT
-------------

Method             : SCF
Type of density    : Electron Density
Multiplicity       :   1
Irrep              :   0
Energy             :  -234.5446090516886670 Eh
Relativity type    :
Basis              : AO
                                X                 Y                 Z
Electronic contribution:      0.000035410       0.000152827       0.002782200
Nuclear contribution   :     -0.000036872      -0.000131434      -0.003343854
                        -----------------------------------------
Total Dipole Moment    :     -0.000001463       0.000021392      -0.000561654
                        -----------------------------------------
Magnitude (a.u.)       :      0.000562063
Magnitude (Debye)      :      0.001428650

Rotational constants in cm-1:             0.165324             0.110949             0.068076
Rotational constants in MHz :          4956.282311          3326.169588          2040.863752

                             ****ORCA TERMINATED NORMALLY****
TOTAL RUN TIME: 0 days 0 hours 0 minutes 13 seconds 734 msec
