                         Program Version 6.0.0  -   RELEASE  -
|  1> ! r2scan-3c def2/J RI DEFGRID2 scfconv6 printgap
|  2> %output
|  3>     printlevel normal
|  4> end
|  5> %cpcm
|  6>     smd true
|  7>     smdsolvent "water"
|  8> end
|  9> * xyz 0 1
| 10> C 1.7138536398 0.9430905663 -0.0013400052
| 11> C 0.7132479359 -0.1778215217 0.0001215376
| 12> C 1.1331093353 -1.4424774737 0.0013535244
| 13> C -0.7132473222 0.1778509116 0.0001155507
| 14> C -1.1331247623 1.4424597988 0.0013856911
| 15> C -1.7138355285 -0.9430905251 -0.0013372056
| 16> H 1.5851035652 1.5678268591 -0.8832382938
| 17> H 2.7251984576 0.5459316539 -0.0030477962
| 18> H 1.5879940151 1.5672886264 0.8813487458
| 19> H 0.4671158749 -2.2857432652 0.0021530672
| 20> H 2.1841899967 -1.6784150235 0.0011480412
| 21> H -2.1842125848 1.6783595367 0.0009888379
| 22> H -0.4671680387 2.2857220648 0.0020392141
| 23> H -1.5856246364 -1.5673557621 -0.8836645092
| 24> H -1.5874451206 -1.5677784364 0.880936621
| 25> H -2.7251908319 -0.5459763507 -0.0022281774
| 26> *
| 27>
| 28>                          ****END OF INPUT****

CARTESIAN COORDINATES (ANGSTROEM)
---------------------------------
  C      1.713854    0.943091   -0.001340
  C      0.713248   -0.177822    0.000122
  C      1.133109   -1.442477    0.001354
  C     -0.713247    0.177851    0.000116
  C     -1.133125    1.442460    0.001386
  C     -1.713836   -0.943091   -0.001337
  H      1.585104    1.567827   -0.883238
  H      2.725198    0.545932   -0.003048
  H      1.587994    1.567289    0.881349
  H      0.467116   -2.285743    0.002153
  H      2.184190   -1.678415    0.001148
  H     -2.184213    1.678360    0.000989
  H     -0.467168    2.285722    0.002039
  H     -1.585625   -1.567356   -0.883665
  H     -1.587445   -1.567778    0.880937
  H     -2.725191   -0.545976   -0.002228

 Total Charge           Charge          ....    0
 Multiplicity           Mult            ....    1
 Number of Electrons    NEL             ....   46
 Basis Dimension        Dim             ....  164

ORBITAL ENERGIES
----------------

  NO   OCC          E(Eh)            E(eV)
   0   2.0000     -10.043841      -273.3068
   1   2.0000     -10.043630      -273.3011
   2   2.0000     -10.015831      -272.5446
   3   2.0000     -10.015831      -272.5446
   4   2.0000     -10.015787      -272.5434
   5   2.0000     -10.015781      -272.5432
   6   2.0000      -0.798438       -21.7266
   7   2.0000      -0.723159       -19.6781
   8   2.0000      -0.665086       -18.0979
   9   2.0000      -0.632336       -17.2067
  10   2.0000      -0.559962       -15.2374
  11   2.0000      -0.465111       -12.6563
  12   2.0000      -0.446749       -12.1567
  13   2.0000      -0.415861       -11.3162
  14   2.0000      -0.394370       -10.7314
  15   2.0000      -0.371199       -10.1008
  16   2.0000      -0.365648        -9.9498
  17   2.0000      -0.353427        -9.6172
  18   2.0000      -0.339736        -9.2447
  19   2.0000      -0.320541        -8.7224
  20   2.0000      -0.294864        -8.0237
  21   2.0000      -0.266459        -7.2507
  22   2.0000      -0.215133        -5.8541
  23   0.0000      -0.054097        -1.4721
  24   0.0000       0.054508         1.4832
  25   0.0000       0.102827         2.7981
  26   0.0000       0.116905         3.1812
  27   0.0000       0.124127         3.3777

MULLIKEN ATOMIC CHARGES
-----------------------
   0 C :   -0.589812
   1 C :    0.103387
   2 C :   -0.376686
   3 C :    0.103380
   4 C :   -0.376656
   5 C :   -0.589815
   6 H :    0.179665
   7 H :    0.166159
   8 H :    0.179685
   9 H :    0.169788
  10 H :    0.167808
  11 H :    0.167806
  12 H :    0.169785
  13 H :    0.179702
  14 H :    0.179645
  15 H :    0.166158
Sum of atomic charges:   -0.0000000

LOEWDIN ATOMIC CHARGES
----------------------
   0 C :   -0.399742
   1 C :   -0.120914
   2 C :   -0.315243
   3 C :   -0.120918
   4 C :   -0.315229
   5 C :   -0.399746
   6 H :    0.168798
   7 H :    0.164397
   8 H :    0.168821
   9 H :    0.167906
  10 H :    0.165978
  11 H :    0.165980
  12 H :    0.167902
  13 H :    0.168804
  14 H :    0.168814
  15 H :    0.164393

  Mayer bond orders larger than 0.100000
B(  0-C ,  1-C ) :   0.8520 B(  0-C ,  6-H ) :   0.9735 B(  0-C ,  7-H ) :   0.9794
B(  0-C ,  8-H ) :   0.9733 B(  1-C ,  2-C ) :   1.7667 B(  1-C ,  3-C ) :   1.0328
B(  2-C ,  4-C ) :   0.1256 B(  2-C ,  9-H ) :   0.9669 B(  2-C , 10-H ) :   0.9627
B(  3-C ,  4-C ) :   1.7667 B(  3-C ,  5-C ) :   0.8520 B(  4-C , 11-H ) :   0.9627
B(  4-C , 12-H ) :   0.9669 B(  5-C , 13-H ) :   0.9735 B(  5-C , 14-H ) :   0.9734
B(  5-C , 15-H ) :   0.9794

Dispersion correction           -0.004214993
FINAL SINGLE POINT ENERGY      -234.540776229238

DIPOLE MOMENT
-------------

Method             : SCF
Type of density    : Electron Density
Multiplicity       :   1
Irrep              :   0
Energy             :  -234.5428938785771038 Eh
Relativity type    :
Basis              : AO
                                X                 Y                 Z
Electronic contribution:      0.000029730       0.000167914       0.002611001
Nuclear contribution   :     -0.000036872      -0.000131434      -0.003343854
                        -----------------------------------------
Total Dipole Moment    :     -0.000007142       0.000036480      -0.000732853
                        -----------------------------------------
Magnitude (a.u.)       :      0.000733795
Magnitude (Debye)      :      0.001865158

Rotational constants in cm-1:             0.165324             0.110949             0.068076
Rotational constants in MHz :          4956.282311          3326.169588          2040.863752

                             ****ORCA TERMINATED NORMALLY****
TOTAL RUN TIME: 0 days 0 hours 0 minutes 14 seconds 834 msec
