                         Program Version 6.0.0  -   RELEASE  -
|  1> ! pbe def2-sv(p) def2/J RI DEFGRID1 loosescf d4 GCP(DFT/SV(P)) printgap
|  2> %output
|  3>     printlevel normal
|  4> end
|  5> * xyz 0 1
|  6> C -2.7429404033 0.754539521 -0.3681128356
|  7> C -1.956856746 -0.3620734168 0.3066233968
|  8> C -0.4686647732 -0.2208489437 0.145377873
|  9> C 0.3690224633 -1.3165309971 0.3592724552
| 10> C 1.7352233681 -1.1569803584 0.2235362162
| 11> C 2.2301800737 0.0920954507 -0.1241863767
| 12> C 1.3205043301 1.1177497842 -0.3151616552
| 13> N 0.0114716579 0.9719690262 -0.1845944089
| 14> H -2.4456535016 1.7173074799 0.0350859912
| 15> H -3.8082075314 0.6132234731 -0.2055976282
| 16> H -2.5481152014 0.7603933411 -1.4371288828
| 17> H -2.2622427097 -1.3321303749 -0.0920205535
| 18> H -2.1787411021 -0.365877877 1.3780666101
| 19> H -0.0533519049 -2.2730733875 0.6268618277
| 20> H 2.4045463077 -1.9895717511 0.3829974636
| 21> H 3.2878034608 0.263312648 -0.2440379178
| 22> H 1.6473683011 2.1128372243 -0.5882205772
| 23> *
| 24>
| 25>                          ****END OF INPUT****

CARTESIAN COORDINATES (ANGSTROEM)
---------------------------------
  C     -2.742940    0.754540   -0.368113
  C     -1.956857   -0.362073    0.306623
  C     -0.468665   -0.220849    0.145378
  C      0.369022   -1.316531    0.359272
  C      1.735223   -1.156980    0.223536
  C      2.230180    0.092095   -0.124186
  C      1.320504    1.117750   -0.315162
  N      0.011472    0.971969   -0.184594
  H     -2.445654    1.717307    0.035086
  H     -3.808208    0.613223   -0.205598
  H     -2.548115    0.760393   -1.437129
  H     -2.262243   -1.332130   -0.092021
  H     -2.178741   -0.365878    1.378067
  H     -0.053352   -2.273073    0.626862
  H      2.404546   -1.989572    0.382997
  H      3.287803    0.263313   -0.244038
  H      1.647368    2.112837   -0.588221

 Total Charge           Charge          ....    0
 Multiplicity           Mult            ....    1
 Number of Electrons    NEL             ....   58
 Basis Dimension        Dim             ....  130

ORBITAL ENERGIES
----------------

  NO   OCC          E(Eh)            E(eV)
   0   2.0000     -13.976549      -380.3212
   1   2.0000      -9.930188      -270.2142
   2   2.0000      -9.919196      -269.9150
   3   2.0000      -9.908414      -269.6216
   4   2.0000      -9.898170      -269.3429
   5   2.0000      -9.897797      -269.3328
   6   2.0000      -9.888275      -269.0736
   7   2.0000      -9.867057      -268.4963
   8   2.0000      -0.857728       -23.3400
   9   2.0000      -0.724265       -19.7083
  10   2.0000      -0.714097       -19.4316
  11   2.0000      -0.656855       -17.8739
  12   2.0000      -0.577629       -15.7181
  13   2.0000      -0.564916       -15.3721
  14   2.0000      -0.523224       -14.2376
  15   2.0000      -0.465852       -12.6765
  16   2.0000      -0.435049       -11.8383
  17   2.0000      -0.409741       -11.1496
  18   2.0000      -0.405197       -11.0260
  19   2.0000      -0.381171       -10.3722
  20   2.0000      -0.364354        -9.9146
  21   2.0000      -0.352550        -9.5934
  22   2.0000      -0.331630        -9.0241
  23   2.0000      -0.316748        -8.6191
  24   2.0000      -0.302838        -8.2406
  25   2.0000      -0.298355        -8.1186
  26   2.0000      -0.260724        -7.0947
  27   2.0000      -0.229850        -6.2545
  28   2.0000      -0.201912        -5.4943
  29   0.0000      -0.051578        -1.4035
  30   0.0000      -0.042862        -1.1663
  31   0.0000       0.043050         1.1714
  32   0.0000       0.058033         1.5791
  33   0.0000       0.077435         2.1071

MULLIKEN ATOMIC CHARGES
-----------------------
   0 C :   -0.244730
   1 C :   -0.145587
   2 C :   -0.055444
   3 C :   -0.086961
   4 C :   -0.004602
   5 C :   -0.076813
   6 C :   -0.055261
   7 N :   -0.068116
   8 H :    0.111465
   9 H :    0.092464
  10 H :    0.098489
  11 H :    0.090243
  12 H :    0.104256
  13 H :    0.047326
  14 H :    0.063910
  15 H :    0.062315
  16 H :    0.067047
Sum of atomic charges:   -0.0000000

LOEWDIN ATOMIC CHARGES
----------------------
   0 C :   -0.337809
   1 C :   -0.232115
   2 C :   -0.006927
   3 C :   -0.137330
   4 C :   -0.097915
   5 C :   -0.149643
   6 C :   -0.078498
   7 N :   -0.072585
   8 H :    0.124807
   9 H :    0.115791
  10 H :    0.120474
  11 H :    0.124459
  12 H :    0.133688
  13 H :    0.125510
  14 H :    0.127028
  15 H :    0.127585
  16 H :    0.113481

  Mayer bond orders larger than 0.100000
B(  0-C ,  1-C ) :   1.1828 B(  0-C ,  8-H ) :   0.9414 B(  0-C ,  9-H ) :   0.9462
B(  0-C , 10-H ) :   0.9577 B(  1-C ,  2-C ) :   1.0443 B(  1-C , 11-H ) :   0.9155
B(  1-C , 12-H ) :   0.8974 B(  2-C ,  3-C ) :   1.3752 B(  2-C ,  7-N ) :   1.5524
B(  3-C ,  4-C ) :   1.4260 B(  3-C , 13-H ) :   0.9484 B(  4-C ,  5-C ) :   1.4013
B(  4-C , 14-H ) :   0.9559 B(  5-C ,  6-C ) :   1.3849 B(  5-C , 15-H ) :   0.9494
B(  6-C ,  7-N ) :   1.5293 B(  6-C , 16-H ) :   0.9524

Dispersion correction           -0.016179212
FINAL SINGLE POINT ENERGY      -326.179775019175

DIPOLE MOMENT
-------------

Method             : SCF
Type of density    : Electron Density
Multiplicity       :   1
Irrep              :   0
Energy             :  -326.2292601560948242 Eh
Relativity type    :
Basis              : AO
                                X                 Y                 Z
Electronic contribution:      5.921258728      -0.113174558       0.284270247
Nuclear contribution   :     -5.588226035      -0.457731191      -0.136102458
                        -----------------------------------------
Total Dipole Moment    :      0.333032692      -0.570905749       0.148167789
                        -----------------------------------------
Magnitude (a.u.)       :      0.677346176
Magnitude (Debye)      :      1.721677155

Rotational constants in cm-1:             0.165566             0.052255             0.040571
Rotational constants in MHz :          4963.543458          1566.570262          1216.300064

                             ****ORCA TERMINATED NORMALLY****
TOTAL RUN TIME: 0 days 0 hours 0 minutes 8 seconds 10 msec
