                         Program Version 6.0.0  -   RELEASE  -
|  1> ! pbe def2-sv(p) def2/J RI DEFGRID1 loosescf d4 GCP(DFT/SV(P)) printgap
|  2> %output
|  3>     printlevel normal
|  4> end
|  5> * xyz 0 1
|  6> C -2.6071721056 0.6484978582 1.2012830624
|  7> C -1.453919694 0.4155626861 0.2733641785
|  8> C -0.7831945908 1.3978692693 -0.3104872472
|  9> C 0.3907875575 1.1792053416 -1.2095512484
| 10> C 1.1550707691 -0.0944153213 -0.8128561029
| 11> H 1.8721186018 -0.3182436104 -1.6116145276
| 12> C 0.1767641617 -1.2727329733 -0.7571373103
| 13> C -1.1255985877 -1.0416502804 0.0333693559
| 14> H -1.0782497179 -1.5541483929 1.0025844684
| 15> O -2.2199055505 -1.6921472802 -0.6095732256
| 16> C 1.9680061464 0.147534991 0.4382121091
| 17> C 1.5634963364 -0.1170312495 1.6695375398
| 18> C 3.3248924323 0.7359076795 0.1778257435
| 19> H -3.4310219911 -0.0159194068 0.9454828749
| 20> H -2.944813452 1.67993914 1.1548427097
| 21> H -2.308713663 0.4246976291 2.2256625679
| 22> H -1.0721216229 2.4243682395 -0.1302667747
| 23> H 0.0488856187 1.0836848331 -2.2450124654
| 24> H 1.0515058152 2.0462088414 -1.1648234294
| 25> H -0.1110192943 -1.5056397237 -1.7859392486
| 26> H 0.6874049658 -2.1507368213 -0.3591604485
| 27> H -2.3781738504 -1.2609545652 -1.4608456611
| 28> H 2.1929478481 0.0925755045 2.5188354777
| 29> H 0.6050361499 -0.5452094318 1.8920532365
| 30> H 3.9499304835 0.0106952055 -0.3424495268
| 31> H 3.2473255743 1.6186865035 -0.4540898856
| 32> H 3.8150715454 1.0123404877 1.1068784815
| 33> *
| 34>
| 35>                          ****END OF INPUT****

CARTESIAN COORDINATES (ANGSTROEM)
---------------------------------
  C     -2.607172    0.648498    1.201283
  C     -1.453920    0.415563    0.273364
  C     -0.783195    1.397869   -0.310487
  C      0.390788    1.179205   -1.209551
  C      1.155071   -0.094415   -0.812856
  H      1.872119   -0.318244   -1.611615
  C      0.176764   -1.272733   -0.757137
  C     -1.125599   -1.041650    0.033369
  H     -1.078250   -1.554148    1.002584
  O     -2.219906   -1.692147   -0.609573
  C      1.968006    0.147535    0.438212
  C      1.563496   -0.117031    1.669538
  C      3.324892    0.735908    0.177826
  H     -3.431022   -0.015919    0.945483
  H     -2.944813    1.679939    1.154843
  H     -2.308714    0.424698    2.225663
  H     -1.072122    2.424368   -0.130267
  H      0.048886    1.083685   -2.245012
  H      1.051506    2.046209   -1.164823
  H     -0.111019   -1.505640   -1.785939
  H      0.687405   -2.150737   -0.359160
  H     -2.378174   -1.260955   -1.460846
  H      2.192948    0.092576    2.518835
  H      0.605036   -0.545209    1.892053
  H      3.949930    0.010695   -0.342450
  H      3.247326    1.618687   -0.454090
  H      3.815072    1.012340    1.106878

 Total Charge           Charge          ....    0
 Multiplicity           Mult            ....    1
 Number of Electrons    NEL             ....   84
 Basis Dimension        Dim             ....  186

ORBITAL ENERGIES
----------------

  NO   OCC          E(Eh)            E(eV)
   0   2.0000     -18.740708      -509.9606
   1   2.0000      -9.936822      -270.3947
   2   2.0000      -9.901385      -269.4304
   3   2.0000      -9.896727      -269.3036
   4   2.0000      -9.893395      -269.2130
   5   2.0000      -9.889382      -269.1038
   6   2.0000      -9.884940      -268.9829
   7   2.0000      -9.882799      -268.9246
   8   2.0000      -9.880260      -268.8555
   9   2.0000      -9.873361      -268.6678
  10   2.0000      -9.868342      -268.5312
  11   2.0000      -0.917439       -24.9648
  12   2.0000      -0.765446       -20.8288
  13   2.0000      -0.717782       -19.5318
  14   2.0000      -0.678047       -18.4506
  15   2.0000      -0.660628       -17.9766
  16   2.0000      -0.611445       -16.6383
  17   2.0000      -0.605989       -16.4898
  18   2.0000      -0.560501       -15.2520
  19   2.0000      -0.539516       -14.6810
  20   2.0000      -0.488730       -13.2990
  21   2.0000      -0.456760       -12.4291
  22   2.0000      -0.438060       -11.9202
  23   2.0000      -0.422061       -11.4849
  24   2.0000      -0.406114       -11.0509
  25   2.0000      -0.391393       -10.6503
  26   2.0000      -0.387185       -10.5358
  27   2.0000      -0.384249       -10.4560
  28   2.0000      -0.367560       -10.0018
  29   2.0000      -0.363272        -9.8851
  30   2.0000      -0.357926        -9.7397
  31   2.0000      -0.339383        -9.2351
  32   2.0000      -0.331946        -9.0327
  33   2.0000      -0.324026        -8.8172
  34   2.0000      -0.319897        -8.7048
  35   2.0000      -0.302365        -8.2278
  36   2.0000      -0.288251        -7.8437
  37   2.0000      -0.275874        -7.5069
  38   2.0000      -0.261335        -7.1113
  39   2.0000      -0.221305        -6.0220
  40   2.0000      -0.214288        -5.8311
  41   2.0000      -0.204711        -5.5705
  42   0.0000      -0.018631        -0.5070
  43   0.0000      -0.010797        -0.2938
  44   0.0000       0.026818         0.7298
  45   0.0000       0.047538         1.2936
  46   0.0000       0.052932         1.4404

MULLIKEN ATOMIC CHARGES
-----------------------
   0 C :   -0.202799
   1 C :   -0.071191
   2 C :   -0.200924
   3 C :   -0.034079
   4 C :   -0.143714
   5 H :    0.056533
   6 C :   -0.054197
   7 C :    0.063466
   8 H :    0.070953
   9 O :   -0.433445
  10 C :   -0.046980
  11 C :   -0.237463
  12 C :   -0.221531
  13 H :    0.108079
  14 H :    0.095164
  15 H :    0.103871
  16 H :    0.043456
  17 H :    0.092022
  18 H :    0.081399
  19 H :    0.059261
  20 H :    0.090590
  21 H :    0.289783
  22 H :    0.079027
  23 H :    0.098023
  24 H :    0.110633
  25 H :    0.105800
  26 H :    0.098264
Sum of atomic charges:    0.0000000

LOEWDIN ATOMIC CHARGES
----------------------
   0 C :   -0.324296
   1 C :   -0.085282
   2 C :   -0.142627
   3 C :   -0.205777
   4 C :   -0.129498
   5 H :    0.119988
   6 C :   -0.219221
   7 C :   -0.040200
   8 H :    0.113910
   9 O :   -0.322708
  10 C :   -0.049895
  11 C :   -0.265790
  12 C :   -0.321709
  13 H :    0.127304
  14 H :    0.121518
  15 H :    0.128139
  16 H :    0.116515
  17 H :    0.124649
  18 H :    0.121322
  19 H :    0.117688
  20 H :    0.126162
  21 H :    0.278230
  22 H :    0.117445
  23 H :    0.118487
  24 H :    0.129014
  25 H :    0.123494
  26 H :    0.123137

  Mayer bond orders larger than 0.100000
B(  0-C ,  1-C ) :   1.1207 B(  0-C , 13-H ) :   0.9245 B(  0-C , 14-H ) :   0.9433
B(  0-C , 15-H ) :   0.9291 B(  1-C ,  2-C ) :   1.9035 B(  1-C ,  7-C ) :   1.0246
B(  2-C ,  3-C ) :   1.0485 B(  2-C , 16-H ) :   0.9221 B(  3-C ,  4-C ) :   1.0636
B(  3-C , 17-H ) :   0.8906 B(  3-C , 18-H ) :   0.9013 B(  4-C ,  5-H ) :   0.8716
B(  4-C ,  6-C ) :   1.0772 B(  4-C , 10-C ) :   1.0111 B(  6-C ,  7-C ) :   1.0567
B(  6-C , 19-H ) :   0.8943 B(  6-C , 20-H ) :   0.9070 B(  7-C ,  8-H ) :   0.8741
B(  7-C ,  9-O ) :   0.9879 B(  9-O , 21-H ) :   0.8507 B( 10-C , 11-C ) :   2.0688
B( 10-C , 12-C ) :   1.1169 B( 11-C , 22-H ) :   0.8992 B( 11-C , 23-H ) :   0.8894
B( 12-C , 24-H ) :   0.9282 B( 12-C , 25-H ) :   0.9292 B( 12-C , 26-H ) :   0.9413

Dispersion correction           -0.029645360
FINAL SINGLE POINT ENERGY      -464.787850913687

DIPOLE MOMENT
-------------

Method             : SCF
Type of density    : Electron Density
Multiplicity       :   1
Irrep              :   0
Energy             :  -464.8766472568244126 Eh
Relativity type    :
Basis              : AO
                                X                 Y                 Z
Electronic contribution:     -3.511331371      -2.367586608      -1.625873434
Nuclear contribution   :      3.856826040       2.829133294       1.203201278
                        -----------------------------------------
Total Dipole Moment    :      0.345494669       0.461546686      -0.422672156
                        -----------------------------------------
Magnitude (a.u.)       :      0.714873179
Magnitude (Debye)      :      1.817063215

Rotational constants in cm-1:             0.060969             0.025815             0.024336
Rotational constants in MHz :          1827.808629           773.900039           729.580875

                             ****ORCA TERMINATED NORMALLY****
TOTAL RUN TIME: 0 days 0 hours 0 minutes 12 seconds 559 msec
