                         Program Version 6.0.0  -   RELEASE  -
|  1> ! pbe def2-sv(p) def2/J RI DEFGRID1 loosescf d4 GCP(DFT/SV(P)) printgap
|  2> %output
|  3>     printlevel normal
|  4> end
|  5> * xyz 0 1
|  6> C -2.381259798 -0.169044264 -0.7056330294
|  7> C -1.2634022687 -0.2203774455 0.3418061865
|  8> H -1.6708718374 -0.5654435102 1.3052022528
|  9> C -0.6257688906 1.1590208247 0.5875586497
| 10> H -1.3746721825 1.9269722087 0.3501613115
| 11> C 0.5822884291 1.3936108992 -0.3388135227
| 12> H 1.1030328803 2.3004406114 0.0033896336
| 13> C 1.6077724613 0.2418645886 -0.2431164975
| 14> H 1.9001631198 -0.0429354689 -1.2672335734
| 15> C 0.9662478391 -0.9955503867 0.4181895201
| 16> H 0.9162075944 -0.8421476401 1.5070709293
| 17> O -0.3206085347 -1.1800576511 -0.1192785894
| 18> O 1.7109496242 -2.1434415264 0.2093226642
| 19> O 2.7244310731 0.7026492924 0.4743257853
| 20> O 0.0794466309 1.565407916 -1.6383206008
| 21> O -0.2669187997 1.219759704 1.9463491835
| 22> O -3.0337262959 -1.40526407 -0.8385474253
| 23> H -1.9476529101 0.1534969822 -1.6598404707
| 24> H -3.1445934214 0.5447004537 -0.3930781636
| 25> H 1.5457989832 -2.4733589821 -0.6880039228
| 26> H 3.3128594668 -0.042601528 0.6652108084
| 27> H 0.7728894381 1.9155096162 -2.2166964115
| 28> H 0.0464822648 2.1080858688 2.170692113
| 29> H -2.3673931174 -2.081040437 -1.029133218
| 30> *
| 31>
| 32>                          ****END OF INPUT****

CARTESIAN COORDINATES (ANGSTROEM)
---------------------------------
  C     -2.381260   -0.169044   -0.705633
  C     -1.263402   -0.220377    0.341806
  H     -1.670872   -0.565444    1.305202
  C     -0.625769    1.159021    0.587559
  H     -1.374672    1.926972    0.350161
  C      0.582288    1.393611   -0.338814
  H      1.103033    2.300441    0.003390
  C      1.607772    0.241865   -0.243116
  H      1.900163   -0.042935   -1.267234
  C      0.966248   -0.995550    0.418190
  H      0.916208   -0.842148    1.507071
  O     -0.320609   -1.180058   -0.119279
  O      1.710950   -2.143442    0.209323
  O      2.724431    0.702649    0.474326
  O      0.079447    1.565408   -1.638321
  O     -0.266919    1.219760    1.946349
  O     -3.033726   -1.405264   -0.838547
  H     -1.947653    0.153497   -1.659840
  H     -3.144593    0.544700   -0.393078
  H      1.545799   -2.473359   -0.688004
  H      3.312859   -0.042602    0.665211
  H      0.772889    1.915510   -2.216696
  H      0.046482    2.108086    2.170692
  H     -2.367393   -2.081040   -1.029133

 Total Charge           Charge          ....    0
 Multiplicity           Mult            ....    1
 Number of Electrons    NEL             ....   96
 Basis Dimension        Dim             ....  192

ORBITAL ENERGIES
----------------

  NO   OCC          E(Eh)            E(eV)
   0   2.0000     -18.769790      -510.7519
   1   2.0000     -18.765324      -510.6304
   2   2.0000     -18.763300      -510.5753
   3   2.0000     -18.761436      -510.5246
   4   2.0000     -18.755016      -510.3499
   5   2.0000     -18.734241      -509.7846
   6   2.0000      -9.981661      -271.6148
   7   2.0000      -9.949676      -270.7444
   8   2.0000      -9.949548      -270.7410
   9   2.0000      -9.940374      -270.4913
  10   2.0000      -9.939162      -270.4583
  11   2.0000      -9.921727      -269.9839
  12   2.0000      -0.984935       -26.8015
  13   2.0000      -0.947655       -25.7870
  14   2.0000      -0.936517       -25.4839
  15   2.0000      -0.929858       -25.3027
  16   2.0000      -0.920036       -25.0354
  17   2.0000      -0.905225       -24.6324
  18   2.0000      -0.702777       -19.1235
  19   2.0000      -0.687006       -18.6944
  20   2.0000      -0.610269       -16.6063
  21   2.0000      -0.594794       -16.1852
  22   2.0000      -0.565170       -15.3790
  23   2.0000      -0.528949       -14.3934
  24   2.0000      -0.507496       -13.8097
  25   2.0000      -0.482380       -13.1262
  26   2.0000      -0.470671       -12.8076
  27   2.0000      -0.460906       -12.5419
  28   2.0000      -0.450044       -12.2463
  29   2.0000      -0.439142       -11.9497
  30   2.0000      -0.413095       -11.2409
  31   2.0000      -0.397360       -10.8127
  32   2.0000      -0.377342       -10.2680
  33   2.0000      -0.369525       -10.0553
  34   2.0000      -0.367171        -9.9912
  35   2.0000      -0.345870        -9.4116
  36   2.0000      -0.327565        -8.9135
  37   2.0000      -0.317413        -8.6373
  38   2.0000      -0.316752        -8.6193
  39   2.0000      -0.293309        -7.9813
  40   2.0000      -0.284596        -7.7443
  41   2.0000      -0.263448        -7.1688
  42   2.0000      -0.256983        -6.9929
  43   2.0000      -0.241165        -6.5624
  44   2.0000      -0.236176        -6.4267
  45   2.0000      -0.225306        -6.1309
  46   2.0000      -0.205372        -5.5884
  47   2.0000      -0.199754        -5.4356
  48   0.0000       0.016110         0.4384
  49   0.0000       0.019257         0.5240
  50   0.0000       0.025936         0.7057
  51   0.0000       0.046091         1.2542
  52   0.0000       0.061337         1.6691

MULLIKEN ATOMIC CHARGES
-----------------------
   0 C :    0.064608
   1 C :    0.030350
   2 H :    0.083349
   3 C :   -0.015693
   4 H :    0.075672
   5 C :    0.079330
   6 H :    0.057072
   7 C :    0.080315
   8 H :    0.018014
   9 C :    0.156868
  10 H :    0.077626
  11 O :   -0.332006
  12 O :   -0.386844
  13 O :   -0.418111
  14 O :   -0.410461
  15 O :   -0.402083
  16 O :   -0.438037
  17 H :    0.084435
  18 H :    0.081436
  19 H :    0.301168
  20 H :    0.303717
  21 H :    0.307476
  22 H :    0.304380
  23 H :    0.297420
Sum of atomic charges:   -0.0000000

LOEWDIN ATOMIC CHARGES
----------------------
   0 C :   -0.131628
   1 C :   -0.060836
   2 H :    0.115017
   3 C :   -0.069559
   4 H :    0.109826
   5 C :   -0.068746
   6 H :    0.102272
   7 C :   -0.092422
   8 H :    0.091285
   9 C :   -0.011478
  10 H :    0.106171
  11 O :   -0.163233
  12 O :   -0.298504
  13 O :   -0.322401
  14 O :   -0.310342
  15 O :   -0.308433
  16 O :   -0.338033
  17 H :    0.104803
  18 H :    0.114717
  19 H :    0.285792
  20 H :    0.286778
  21 H :    0.290419
  22 H :    0.288218
  23 H :    0.280314

  Mayer bond orders larger than 0.100000
B(  0-C ,  1-C ) :   1.0679 B(  0-C , 16-O ) :   1.0716 B(  0-C , 17-H ) :   0.8971
B(  0-C , 18-H ) :   0.9162 B(  1-C ,  2-H ) :   0.8905 B(  1-C ,  3-C ) :   0.9660
B(  1-C , 11-O ) :   0.9724 B(  3-C ,  4-H ) :   0.8973 B(  3-C ,  5-C ) :   1.0263
B(  3-C , 15-O ) :   1.0646 B(  5-C ,  6-H ) :   0.8818 B(  5-C ,  7-C ) :   0.9326
B(  5-C , 14-O ) :   1.0541 B(  7-C ,  8-H ) :   0.8652 B(  7-C ,  9-C ) :   1.0205
B(  7-C , 13-O ) :   1.0759 B(  9-C , 10-H ) :   0.8613 B(  9-C , 11-O ) :   1.0373
B(  9-C , 12-O ) :   1.1158 B( 12-O , 19-H ) :   0.8428 B( 13-O , 20-H ) :   0.8392
B( 14-O , 21-H ) :   0.8437 B( 15-O , 22-H ) :   0.8435 B( 16-O , 23-H ) :   0.8457

Dispersion correction           -0.024515130
FINAL SINGLE POINT ENERGY      -685.688624225580

DIPOLE MOMENT
-------------

Method             : SCF
Type of density    : Electron Density
Multiplicity       :   1
Irrep              :   0
Energy             :  -685.8182735240748116 Eh
Relativity type    :
Basis              : AO
                                X                 Y                 Z
Electronic contribution:      1.861893313      -1.990477683       0.632270231
Nuclear contribution   :     -0.838385823       2.703883767      -1.174330217
                        -----------------------------------------
Total Dipole Moment    :      1.023507489       0.713406084      -0.542059987
                        -----------------------------------------
Magnitude (a.u.)       :      1.360273815
Magnitude (Debye)      :      3.457541262

Rotational constants in cm-1:             0.040810             0.025440             0.021286
Rotational constants in MHz :          1223.447563           762.676238           638.135167

                             ****ORCA TERMINATED NORMALLY****
TOTAL RUN TIME: 0 days 0 hours 0 minutes 11 seconds 933 msec
