                         Program Version 6.0.0  -   RELEASE  -
|  1> ! pbe def2-sv(p) def2/J RI DEFGRID1 loosescf d4 GCP(DFT/SV(P)) printgap
|  2> %output
|  3>     printlevel normal
|  4> end
|  5> * xyz 0 1
|  6> C -2.5485594348 -0.6805123993 -0.3876089719
|  7> C -1.1755437682 -0.3133446799 0.1691952126
|  8> H -1.2495355891 -0.2682403673 1.2670134153
|  9> C -0.6962741561 1.0477877488 -0.353392199
| 10> H -0.6494861963 1.0096060064 -1.4528791819
| 11> C 0.7164688599 1.3184770959 0.1787596328
| 12> H 0.6585118874 1.4243331173 1.2763248902
| 13> C 1.6536516843 0.1489839949 -0.1617797427
| 14> H 1.7730079699 0.0820605494 -1.2485842176
| 15> C 1.0243033309 -1.1656330356 0.3291252767
| 16> H 0.9509265745 -1.1344063109 1.4413218432
| 17> O -0.2659396208 -1.3285054012 -0.2066599174
| 18> O 1.8013771408 -2.2273446744 -0.0840221044
| 19> O 2.9387372992 0.3771128853 0.3519763517
| 20> O 1.1753964955 2.5222482907 -0.3870641591
| 21> O -1.5993520552 2.0352118399 0.0661925817
| 22> O -3.0967931756 -1.7058188542 0.40709623
| 23> H -2.4183170773 -1.011708145 -1.4240608845
| 24> H -3.1726146062 0.2197810284 -0.3544628341
| 25> H 1.2732802073 -3.0410948739 -0.0533647491
| 26> H 2.9666320518 0.1723857393 1.2980290134
| 27> H 2.1379648592 2.5675474854 -0.278270025
| 28> H -1.2268986411 2.901619977 -0.1615952594
| 29> H -3.9520119614 -1.9690909491 0.0384563518
| 30> *
| 31>
| 32>                          ****END OF INPUT****

CARTESIAN COORDINATES (ANGSTROEM)
---------------------------------
  C     -2.548559   -0.680512   -0.387609
  C     -1.175544   -0.313345    0.169195
  H     -1.249536   -0.268240    1.267013
  C     -0.696274    1.047788   -0.353392
  H     -0.649486    1.009606   -1.452879
  C      0.716469    1.318477    0.178760
  H      0.658512    1.424333    1.276325
  C      1.653652    0.148984   -0.161780
  H      1.773008    0.082061   -1.248584
  C      1.024303   -1.165633    0.329125
  H      0.950927   -1.134406    1.441322
  O     -0.265940   -1.328505   -0.206660
  O      1.801377   -2.227345   -0.084022
  O      2.938737    0.377113    0.351976
  O      1.175396    2.522248   -0.387064
  O     -1.599352    2.035212    0.066193
  O     -3.096793   -1.705819    0.407096
  H     -2.418317   -1.011708   -1.424061
  H     -3.172615    0.219781   -0.354463
  H      1.273280   -3.041095   -0.053365
  H      2.966632    0.172386    1.298029
  H      2.137965    2.567547   -0.278270
  H     -1.226899    2.901620   -0.161595
  H     -3.952012   -1.969091    0.038456

 Total Charge           Charge          ....    0
 Multiplicity           Mult            ....    1
 Number of Electrons    NEL             ....   96
 Basis Dimension        Dim             ....  192

ORBITAL ENERGIES
----------------

  NO   OCC          E(Eh)            E(eV)
   0   2.0000     -18.773419      -510.8507
   1   2.0000     -18.763229      -510.5734
   2   2.0000     -18.759605      -510.4748
   3   2.0000     -18.755068      -510.3513
   4   2.0000     -18.752631      -510.2850
   5   2.0000     -18.745311      -510.0858
   6   2.0000      -9.991256      -271.8759
   7   2.0000      -9.944987      -270.6168
   8   2.0000      -9.942980      -270.5622
   9   2.0000      -9.942933      -270.5610
  10   2.0000      -9.942160      -270.5399
  11   2.0000      -9.929019      -270.1824
  12   2.0000      -0.986922       -26.8555
  13   2.0000      -0.949079       -25.8258
  14   2.0000      -0.938012       -25.5246
  15   2.0000      -0.922895       -25.1132
  16   2.0000      -0.917323       -24.9616
  17   2.0000      -0.912178       -24.8216
  18   2.0000      -0.705653       -19.2018
  19   2.0000      -0.694128       -18.8882
  20   2.0000      -0.618735       -16.8366
  21   2.0000      -0.580317       -15.7912
  22   2.0000      -0.559398       -15.2220
  23   2.0000      -0.535172       -14.5628
  24   2.0000      -0.508254       -13.8303
  25   2.0000      -0.489681       -13.3249
  26   2.0000      -0.468621       -12.7518
  27   2.0000      -0.460274       -12.5247
  28   2.0000      -0.453243       -12.3334
  29   2.0000      -0.435907       -11.8616
  30   2.0000      -0.424792       -11.5592
  31   2.0000      -0.399199       -10.8627
  32   2.0000      -0.384890       -10.4734
  33   2.0000      -0.374805       -10.1990
  34   2.0000      -0.357254        -9.7214
  35   2.0000      -0.354166        -9.6373
  36   2.0000      -0.324543        -8.8313
  37   2.0000      -0.311385        -8.4732
  38   2.0000      -0.306568        -8.3421
  39   2.0000      -0.293319        -7.9816
  40   2.0000      -0.291836        -7.9413
  41   2.0000      -0.267917        -7.2904
  42   2.0000      -0.253475        -6.8974
  43   2.0000      -0.245397        -6.6776
  44   2.0000      -0.234016        -6.3679
  45   2.0000      -0.220368        -5.9965
  46   2.0000      -0.213382        -5.8064
  47   2.0000      -0.203362        -5.5338
  48   0.0000       0.013550         0.3687
  49   0.0000       0.026692         0.7263
  50   0.0000       0.031948         0.8694
  51   0.0000       0.044514         1.2113
  52   0.0000       0.053094         1.4448

MULLIKEN ATOMIC CHARGES
-----------------------
   0 C :    0.073824
   1 C :    0.013344
   2 H :    0.062751
   3 C :    0.060009
   4 H :    0.055695
   5 C :    0.065093
   6 H :    0.036061
   7 C :    0.035504
   8 H :    0.074147
   9 C :    0.182112
  10 H :    0.020011
  11 O :   -0.307660
  12 O :   -0.372544
  13 O :   -0.412064
  14 O :   -0.425875
  15 O :   -0.416338
  16 O :   -0.434331
  17 H :    0.067140
  18 H :    0.089793
  19 H :    0.309555
  20 H :    0.302808
  21 H :    0.307912
  22 H :    0.313047
  23 H :    0.300006
Sum of atomic charges:   -0.0000000

LOEWDIN ATOMIC CHARGES
----------------------
   0 C :   -0.125592
   1 C :   -0.054333
   2 H :    0.110641
   3 C :   -0.067414
   4 H :    0.105258
   5 C :   -0.084950
   6 H :    0.095020
   7 C :   -0.092784
   8 H :    0.124540
   9 C :   -0.000536
  10 H :    0.071166
  11 O :   -0.144699
  12 O :   -0.295706
  13 O :   -0.306107
  14 O :   -0.328740
  15 O :   -0.316872
  16 O :   -0.344305
  17 H :    0.101674
  18 H :    0.108402
  19 H :    0.292331
  20 H :    0.287752
  21 H :    0.286994
  22 H :    0.291734
  23 H :    0.286526

  Mayer bond orders larger than 0.100000
B(  0-C ,  1-C ) :   1.0752 B(  0-C , 16-O ) :   1.1078 B(  0-C , 17-H ) :   0.8994
B(  0-C , 18-H ) :   0.9114 B(  1-C ,  2-H ) :   0.8694 B(  1-C ,  3-C ) :   1.0041
B(  1-C , 11-O ) :   0.9912 B(  3-C ,  4-H ) :   0.8701 B(  3-C ,  5-C ) :   1.0156
B(  3-C , 15-O ) :   1.0601 B(  5-C ,  6-H ) :   0.8675 B(  5-C ,  7-C ) :   0.9930
B(  5-C , 14-O ) :   1.0903 B(  7-C ,  8-H ) :   0.8578 B(  7-C ,  9-C ) :   0.9851
B(  7-C , 13-O ) :   1.0301 B(  9-C , 10-H ) :   0.8761 B(  9-C , 11-O ) :   1.0183
B(  9-C , 12-O ) :   1.1921 B( 12-O , 19-H ) :   0.8374 B( 13-O , 20-H ) :   0.8445
B( 14-O , 21-H ) :   0.8287 B( 15-O , 22-H ) :   0.8355 B( 16-O , 23-H ) :   0.8519

Dispersion correction           -0.023523915
FINAL SINGLE POINT ENERGY      -685.696341439018

DIPOLE MOMENT
-------------

Method             : SCF
Type of density    : Electron Density
Multiplicity       :   1
Irrep              :   0
Energy             :  -685.8256177624245993 Eh
Relativity type    :
Basis              : AO
                                X                 Y                 Z
Electronic contribution:      2.433316929      -0.903850905      -0.126920264
Nuclear contribution   :     -2.714581282       0.889036403       0.328601411
                        -----------------------------------------
Total Dipole Moment    :     -0.281264353      -0.014814502       0.201681148
                        -----------------------------------------
Magnitude (a.u.)       :      0.346416500
Magnitude (Debye)      :      0.880520766

Rotational constants in cm-1:             0.039768             0.025602             0.016339
Rotational constants in MHz :          1192.214483           767.538806           489.836640

                             ****ORCA TERMINATED NORMALLY****
TOTAL RUN TIME: 0 days 0 hours 0 minutes 11 seconds 993 msec
