                         Program Version 6.0.0  -   RELEASE  -
|  1> ! r2scan-3c def2/J RI DEFGRID2 scfconv6 printgap
|  2> %output
|  3>     printlevel normal
|  4> end
|  5> * xyz 0 1
|  6> C -6.35695e-05 0.990164109 -1.12798e-05
|  7> Br -1.6128786788 -0.0945627167 -5.5562e-06
|  8> Br 1.612902608 -0.0945412268 -5.767e-07
|  9> H -0.0009220213 1.5955622191 0.9034371119
| 10> H -0.0002174418 1.5965625105 -0.9028165185
| 11> *
| 12>
| 13>                          ****END OF INPUT****

CARTESIAN COORDINATES (ANGSTROEM)
---------------------------------
  C     -0.000064    0.990164   -0.000011
  Br    -1.612879   -0.094563   -0.000006
  Br     1.612903   -0.094541   -0.000001
  H     -0.000922    1.595562    0.903437
  H     -0.000217    1.596563   -0.902817

 Total Charge           Charge          ....    0
 Multiplicity           Mult            ....    1
 Number of Electrons    NEL             ....   78
 Basis Dimension        Dim             ....  101

ORBITAL ENERGIES
----------------

  NO   OCC          E(Eh)            E(eV)
   0   2.0000    -482.239618    -13122.4071
   1   2.0000    -482.239588    -13122.4063
   2   2.0000     -62.311382     -1695.5789
   3   2.0000     -62.311354     -1695.5781
   4   2.0000     -56.091988     -1526.3406
   5   2.0000     -56.091958     -1526.3398
   6   2.0000     -56.089073     -1526.2613
   7   2.0000     -56.089045     -1526.2605
   8   2.0000     -56.088989     -1526.2590
   9   2.0000     -56.088960     -1526.2582
  10   2.0000     -10.156482      -276.3719
  11   2.0000      -8.643281      -235.1956
  12   2.0000      -8.643254      -235.1949
  13   2.0000      -6.451639      -175.5580
  14   2.0000      -6.451611      -175.5573
  15   2.0000      -6.436874      -175.1563
  16   2.0000      -6.436850      -175.1556
  17   2.0000      -6.436324      -175.1413
  18   2.0000      -6.436298      -175.1406
  19   2.0000      -2.548991       -69.3616
  20   2.0000      -2.548955       -69.3606
  21   2.0000      -2.545399       -69.2638
  22   2.0000      -2.545362       -69.2628
  23   2.0000      -2.544972       -69.2522
  24   2.0000      -2.544944       -69.2514
  25   2.0000      -2.534036       -68.9546
  26   2.0000      -2.534024       -68.9543
  27   2.0000      -2.534011       -68.9539
  28   2.0000      -2.533999       -68.9536
  29   2.0000      -0.819298       -22.2942
  30   2.0000      -0.742663       -20.2089
  31   2.0000      -0.631231       -17.1767
  32   2.0000      -0.459010       -12.4903
  33   2.0000      -0.415591       -11.3088
  34   2.0000      -0.397880       -10.8269
  35   2.0000      -0.286420        -7.7939
  36   2.0000      -0.278830        -7.5873
  37   2.0000      -0.267521        -7.2796
  38   2.0000      -0.264299        -7.1920
  39   0.0000      -0.071363        -1.9419
  40   0.0000      -0.027226        -0.7409
  41   0.0000       0.089423         2.4333
  42   0.0000       0.134518         3.6604
  43   0.0000       0.176563         4.8045

MULLIKEN ATOMIC CHARGES
-----------------------
   0 C :   -0.181196
   1 Br:   -0.097846
   2 Br:   -0.097710
   3 H :    0.188356
   4 H :    0.188396
Sum of atomic charges:   -0.0000000

LOEWDIN ATOMIC CHARGES
----------------------
   0 C :   -0.527397
   1 Br:    0.103774
   2 Br:    0.103835
   3 H :    0.159888
   4 H :    0.159900

  Mayer bond orders larger than 0.100000
B(  0-C ,  1-Br) :   1.0110 B(  0-C ,  2-Br) :   1.0111 B(  0-C ,  3-H ) :   0.9401
B(  0-C ,  4-H ) :   0.9400

Dispersion correction           -0.001078647
FINAL SINGLE POINT ENERGY     -5187.563868327694

DIPOLE MOMENT
-------------

Method             : SCF
Type of density    : Electron Density
Multiplicity       :   1
Irrep              :   0
Energy             : -5187.5659746998780975 Eh
Relativity type    :
Basis              : AO
                                X                 Y                 Z
Electronic contribution:      0.001375778      -4.099452284      -0.000478330
Nuclear contribution   :     -0.001291216       4.750714431       0.000639176
                        -----------------------------------------
Total Dipole Moment    :      0.000084562       0.651262147       0.000160846
                        -----------------------------------------
Magnitude (a.u.)       :      0.651262172
Magnitude (Debye)      :      1.655376887

Rotational constants in cm-1:             0.843539             0.040392             0.038838
Rotational constants in MHz :         25288.668715          1210.922976          1164.344333

                             ****ORCA TERMINATED NORMALLY****
TOTAL RUN TIME: 0 days 0 hours 0 minutes 8 seconds 158 msec
