                         Program Version 6.0.0  -   RELEASE  -
|  1> ! r2scan-3c def2/J RI DEFGRID2 scfconv6 printgap
|  2> %output
|  3>     printlevel normal
|  4> end
|  5> %cpcm
|  6>     smd true
|  7>     smdsolvent "water"
|  8> end
|  9> * xyz 0 1
| 10> C -6.35695e-05 0.990164109 -1.12798e-05
| 11> Br -1.6128786788 -0.0945627167 -5.5562e-06
| 12> Br 1.612902608 -0.0945412268 -5.767e-07
| 13> H -0.0009220213 1.5955622191 0.9034371119
| 14> H -0.0002174418 1.5965625105 -0.9028165185
| 15> *
| 16>
| 17>                          ****END OF INPUT****

CARTESIAN COORDINATES (ANGSTROEM)
---------------------------------
  C     -0.000064    0.990164   -0.000011
  Br    -1.612879   -0.094563   -0.000006
  Br     1.612903   -0.094541   -0.000001
  H     -0.000922    1.595562    0.903437
  H     -0.000217    1.596563   -0.902817

 Total Charge           Charge          ....    0
 Multiplicity           Mult            ....    1
 Number of Electrons    NEL             ....   78
 Basis Dimension        Dim             ....  101

ORBITAL ENERGIES
----------------

  NO   OCC          E(Eh)            E(eV)
   0   2.0000    -482.235019    -13122.2820
   1   2.0000    -482.234989    -13122.2812
   2   2.0000     -62.306834     -1695.4552
   3   2.0000     -62.306806     -1695.4544
   4   2.0000     -56.087381     -1526.2152
   5   2.0000     -56.087352     -1526.2144
   6   2.0000     -56.084557     -1526.1384
   7   2.0000     -56.084530     -1526.1376
   8   2.0000     -56.084466     -1526.1359
   9   2.0000     -56.084438     -1526.1351
  10   2.0000     -10.144300      -276.0404
  11   2.0000      -8.638772      -235.0729
  12   2.0000      -8.638745      -235.0722
  13   2.0000      -6.446832      -175.4272
  14   2.0000      -6.446804      -175.4264
  15   2.0000      -6.432527      -175.0380
  16   2.0000      -6.432503      -175.0373
  17   2.0000      -6.431966      -175.0227
  18   2.0000      -6.431940      -175.0220
  19   2.0000      -2.544277       -69.2333
  20   2.0000      -2.544241       -69.2323
  21   2.0000      -2.540794       -69.1385
  22   2.0000      -2.540758       -69.1375
  23   2.0000      -2.540356       -69.1266
  24   2.0000      -2.540328       -69.1259
  25   2.0000      -2.529757       -68.8382
  26   2.0000      -2.529746       -68.8379
  27   2.0000      -2.529732       -68.8375
  28   2.0000      -2.529721       -68.8372
  29   2.0000      -0.811966       -22.0947
  30   2.0000      -0.738056       -20.0835
  31   2.0000      -0.620609       -16.8876
  32   2.0000      -0.444797       -12.1035
  33   2.0000      -0.406543       -11.0626
  34   2.0000      -0.391494       -10.6531
  35   2.0000      -0.282349        -7.6831
  36   2.0000      -0.275364        -7.4930
  37   2.0000      -0.262392        -7.1400
  38   2.0000      -0.260991        -7.1019
  39   0.0000      -0.064608        -1.7581
  40   0.0000      -0.019649        -0.5347
  41   0.0000       0.104227         2.8362
  42   0.0000       0.153874         4.1871
  43   0.0000       0.187945         5.1142

MULLIKEN ATOMIC CHARGES
-----------------------
   0 C :   -0.188903
   1 Br:   -0.126662
   2 Br:   -0.126525
   3 H :    0.221003
   4 H :    0.221086
Sum of atomic charges:   -0.0000000

LOEWDIN ATOMIC CHARGES
----------------------
   0 C :   -0.517537
   1 Br:    0.085383
   2 Br:    0.085447
   3 H :    0.173339
   4 H :    0.173369

  Mayer bond orders larger than 0.100000
B(  0-C ,  1-Br) :   0.9922 B(  0-C ,  2-Br) :   0.9923 B(  0-C ,  3-H ) :   0.9299
B(  0-C ,  4-H ) :   0.9298

Dispersion correction           -0.001078647
FINAL SINGLE POINT ENERGY     -5187.568139431350

DIPOLE MOMENT
-------------

Method             : SCF
Type of density    : Electron Density
Multiplicity       :   1
Irrep              :   0
Energy             : -5187.5702458035339077 Eh
Relativity type    :
Basis              : AO
                                X                 Y                 Z
Electronic contribution:      0.001347621      -3.887840695      -0.000470662
Nuclear contribution   :     -0.001291216       4.750714431       0.000639176
                        -----------------------------------------
Total Dipole Moment    :      0.000056405       0.862873736       0.000168514
                        -----------------------------------------
Magnitude (a.u.)       :      0.862873754
Magnitude (Debye)      :      2.193250783

Rotational constants in cm-1:             0.843539             0.040392             0.038838
Rotational constants in MHz :         25288.668715          1210.922976          1164.344333

                             ****ORCA TERMINATED NORMALLY****
TOTAL RUN TIME: 0 days 0 hours 0 minutes 9 seconds 273 msec
