                         Program Version 6.0.0  -   RELEASE  -
|  1> ! wb97x-v def2-tzvp def2/J RIJCOSX DEFGRID2 scfconv7 GCP(DFT/TZ) printgap
|  2> %output
|  3>     printlevel normal
|  4> end
|  5> * xyz 0 1
|  6> C -3.706637260065353 -0.2112170804703771 -0.05151534401440041
|  7> C -3.0521774910549473 -1.0554028513716012 0.8418759959086217
|  8> C -1.6625851797226445 -1.1370418718303692 0.836199366012699
|  9> C -0.9093572455170829 -0.36695753193349456 -0.05705404246334852
| 10> C -1.575056633954465 0.4745347644865706 -0.9559812134816916
| 11> C -2.9638214318417697 0.5488098442391484 -0.9534233898831959
| 12> C 0.5653437168336919 -0.495343729180845 -0.07201027139900057
| 13> C 1.140746378454716 -1.7643237697524412 -0.2340863266822798
| 14> C 2.517642176290484 -1.944204469536668 -0.26497247251687234
| 15> C 3.362953388662304 -0.8467651703454261 -0.12940092893039545
| 16> C 2.8268354656870054 0.42394874705756336 0.04816332278732161
| 17> C 1.4461145059137488 0.5829088612504882 0.07731037728942078
| 18> Cl 0.8257162703630897 2.2083537368067416 0.3786000487536024
| 19> H -4.790193667012993 -0.147958346991139 -0.048537912338883486
| 20> H -3.622894759678441 -1.6513712127345521 1.5471697750889073
| 21> H -1.1533973051530693 -1.7926490940237727 1.5362816299988058
| 22> H -1.0041128223258482 1.0581209811854044 -1.6707072792154805
| 23> H -3.4676682847053586 1.199291283524871 -1.6615887080828222
| 24> H 0.47882553077389467 -2.616558380532463 -0.35334205218023856
| 25> H 2.928914659469388 -2.939087702034819 -0.3998616871997692
| 26> H 4.440341003758154 -0.9723221063861323 -0.15383316043473275
| 27> H 3.474763373290749 1.283914601271683 0.17470070337617685
| 28> *
| 29>
| 30>                          ****END OF INPUT****

CARTESIAN COORDINATES (ANGSTROEM)
---------------------------------
  C     -3.706637   -0.211217   -0.051515
  C     -3.052177   -1.055403    0.841876
  C     -1.662585   -1.137042    0.836199
  C     -0.909357   -0.366958   -0.057054
  C     -1.575057    0.474535   -0.955981
  C     -2.963821    0.548810   -0.953423
  C      0.565344   -0.495344   -0.072010
  C      1.140746   -1.764324   -0.234086
  C      2.517642   -1.944204   -0.264972
  C      3.362953   -0.846765   -0.129401
  C      2.826835    0.423949    0.048163
  C      1.446115    0.582909    0.077310
  Cl     0.825716    2.208354    0.378600
  H     -4.790194   -0.147958   -0.048538
  H     -3.622895   -1.651371    1.547170
  H     -1.153397   -1.792649    1.536282
  H     -1.004113    1.058121   -1.670707
  H     -3.467668    1.199291   -1.661589
  H      0.478826   -2.616558   -0.353342
  H      2.928915   -2.939088   -0.399862
  H      4.440341   -0.972322   -0.153833
  H      3.474763    1.283915    0.174701

 Total Charge           Charge          ....    0
 Multiplicity           Mult            ....    1
 Number of Electrons    NEL             ....   98
 Basis Dimension        Dim             ....  463

ORBITAL ENERGIES
----------------

  NO   OCC          E(Eh)            E(eV)
   0   2.0000    -107.140586     -2915.4436
   1   2.0000     -12.119717      -329.7943
   2   2.0000     -12.078280      -328.6667
   3   2.0000     -12.067685      -328.3784
   4   2.0000     -12.066941      -328.3582
   5   2.0000     -12.065001      -328.3054
   6   2.0000     -12.064443      -328.2902
   7   2.0000     -12.061478      -328.2095
   8   2.0000     -12.056656      -328.0783
   9   2.0000     -12.055937      -328.0587
  10   2.0000     -12.055036      -328.0342
  11   2.0000     -12.053928      -328.0041
  12   2.0000     -12.052705      -327.9708
  13   2.0000     -11.293756      -307.3187
  14   2.0000      -9.085305      -247.2237
  15   2.0000      -9.082659      -247.1517
  16   2.0000      -9.082609      -247.1504
  17   2.0000      -1.433655       -39.0117
  18   2.0000      -1.391861       -37.8745
  19   2.0000      -1.376613       -37.4595
  20   2.0000      -1.315407       -35.7941
  21   2.0000      -1.278926       -34.8013
  22   2.0000      -1.276257       -34.7287
  23   2.0000      -1.259424       -34.2707
  24   2.0000      -1.144733       -31.1498
  25   2.0000      -1.121840       -30.5268
  26   2.0000      -1.105671       -30.0868
  27   2.0000      -1.090448       -29.6726
  28   2.0000      -0.996933       -27.1279
  29   2.0000      -0.977761       -26.6062
  30   2.0000      -0.962517       -26.1914
  31   2.0000      -0.952631       -25.9224
  32   2.0000      -0.942064       -25.6349
  33   2.0000      -0.915620       -24.9153
  34   2.0000      -0.897187       -24.4137
  35   2.0000      -0.891938       -24.2709
  36   2.0000      -0.877982       -23.8911
  37   2.0000      -0.848018       -23.0757
  38   2.0000      -0.833195       -22.6724
  39   2.0000      -0.825564       -22.4647
  40   2.0000      -0.823036       -22.3960
  41   2.0000      -0.810751       -22.0616
  42   2.0000      -0.787841       -21.4383
  43   2.0000      -0.778910       -21.1952
  44   2.0000      -0.766975       -20.8705
  45   2.0000      -0.670961       -18.2578
  46   2.0000      -0.654030       -17.7971
  47   2.0000      -0.641900       -17.4670
  48   2.0000      -0.631031       -17.1712
  49   0.0000      -0.278476        -7.5777
  50   0.0000      -0.266435        -7.2501
  51   0.0000      -0.255863        -6.9624
  52   0.0000      -0.239039        -6.5046
  53   0.0000      -0.231212        -6.2916

MULLIKEN ATOMIC CHARGES
-----------------------
   0 C :   -0.122263
   1 C :   -0.115313
   2 C :   -0.240694
   3 C :    0.207131
   4 C :   -0.215726
   5 C :   -0.109222
   6 C :    0.124629
   7 C :   -0.204612
   8 C :   -0.132740
   9 C :   -0.099113
  10 C :   -0.206947
  11 C :    0.057051
  12 Cl:   -0.090232
  13 H :    0.118906
  14 H :    0.118159
  15 H :    0.134762
  16 H :    0.135605
  17 H :    0.118917
  18 H :    0.141959
  19 H :    0.122519
  20 H :    0.124031
  21 H :    0.133193
Sum of atomic charges:   -0.0000000

LOEWDIN ATOMIC CHARGES
----------------------
   0 C :   -0.137777
   1 C :   -0.137583
   2 C :   -0.099965
   3 C :   -0.112647
   4 C :   -0.101472
   5 C :   -0.135587
   6 C :   -0.105655
   7 C :   -0.092172
   8 C :   -0.137360
   9 C :   -0.133620
  10 C :   -0.141871
  11 C :   -0.359760
  12 Cl:    0.383995
  13 H :    0.141629
  14 H :    0.142300
  15 H :    0.148616
  16 H :    0.147709
  17 H :    0.142742
  18 H :    0.152293
  19 H :    0.144148
  20 H :    0.144470
  21 H :    0.147568

  Mayer bond orders larger than 0.100000
B(  0-C ,  1-C ) :   1.4235 B(  0-C ,  5-C ) :   1.4138 B(  0-C , 13-H ) :   0.9721
B(  1-C ,  2-C ) :   1.4481 B(  1-C , 14-H ) :   0.9742 B(  2-C ,  3-C ) :   1.3911
B(  2-C , 15-H ) :   0.9666 B(  3-C ,  4-C ) :   1.3636 B(  3-C ,  6-C ) :   0.8270
B(  4-C ,  5-C ) :   1.4553 B(  4-C , 16-H ) :   0.9633 B(  5-C , 17-H ) :   0.9732
B(  6-C ,  7-C ) :   1.3747 B(  6-C , 11-C ) :   1.3071 B(  7-C ,  8-C ) :   1.4542
B(  7-C , 18-H ) :   0.9607 B(  8-C ,  9-C ) :   1.4128 B(  8-C , 19-H ) :   0.9734
B(  9-C , 10-C ) :   1.4210 B(  9-C , 20-H ) :   0.9711 B( 10-C , 11-C ) :   1.4227
B( 10-C , 21-H ) :   0.9648 B( 11-C , 12-Cl) :   1.0662

FINAL SINGLE POINT ENERGY      -922.867375340046

DIPOLE MOMENT
-------------

Method             : SCF
Type of density    : Electron Density
Multiplicity       :   1
Irrep              :   0
Energy             :  -922.8780867296457018 Eh
Relativity type    :
Basis              : AO
                                X                 Y                 Z
Electronic contribution:      3.883518102       8.619720676       1.411221992
Nuclear contribution   :     -3.745974693      -9.215216988      -1.526756003
                        -----------------------------------------
Total Dipole Moment    :      0.137543409      -0.595496312      -0.115534011
                        -----------------------------------------
Magnitude (a.u.)       :      0.621998517
Magnitude (Debye)      :      1.580994585

Rotational constants in cm-1:             0.042779             0.017194             0.013363
Rotational constants in MHz :          1282.489487           515.468129           400.619093

                             ****ORCA TERMINATED NORMALLY****
TOTAL RUN TIME: 0 days 0 hours 6 minutes 37 seconds 38 msec
