                         Program Version 6.0.0  -   RELEASE  -
|  1> ! wb97x-v def2-tzvp def2/J RIJCOSX DEFGRID2 scfconv7 GCP(DFT/TZ) printgap
|  2> %output
|  3>     printlevel normal
|  4> end
|  5> %cpcm
|  6>     smd true
|  7>     smdsolvent "water"
|  8> end
|  9> * xyz 0 1
| 10> C -3.706637260065353 -0.2112170804703771 -0.05151534401440041
| 11> C -3.0521774910549473 -1.0554028513716012 0.8418759959086217
| 12> C -1.6625851797226445 -1.1370418718303692 0.836199366012699
| 13> C -0.9093572455170829 -0.36695753193349456 -0.05705404246334852
| 14> C -1.575056633954465 0.4745347644865706 -0.9559812134816916
| 15> C -2.9638214318417697 0.5488098442391484 -0.9534233898831959
| 16> C 0.5653437168336919 -0.495343729180845 -0.07201027139900057
| 17> C 1.140746378454716 -1.7643237697524412 -0.2340863266822798
| 18> C 2.517642176290484 -1.944204469536668 -0.26497247251687234
| 19> C 3.362953388662304 -0.8467651703454261 -0.12940092893039545
| 20> C 2.8268354656870054 0.42394874705756336 0.04816332278732161
| 21> C 1.4461145059137488 0.5829088612504882 0.07731037728942078
| 22> Cl 0.8257162703630897 2.2083537368067416 0.3786000487536024
| 23> H -4.790193667012993 -0.147958346991139 -0.048537912338883486
| 24> H -3.622894759678441 -1.6513712127345521 1.5471697750889073
| 25> H -1.1533973051530693 -1.7926490940237727 1.5362816299988058
| 26> H -1.0041128223258482 1.0581209811854044 -1.6707072792154805
| 27> H -3.4676682847053586 1.199291283524871 -1.6615887080828222
| 28> H 0.47882553077389467 -2.616558380532463 -0.35334205218023856
| 29> H 2.928914659469388 -2.939087702034819 -0.3998616871997692
| 30> H 4.440341003758154 -0.9723221063861323 -0.15383316043473275
| 31> H 3.474763373290749 1.283914601271683 0.17470070337617685
| 32> *
| 33>
| 34>                          ****END OF INPUT****

CARTESIAN COORDINATES (ANGSTROEM)
---------------------------------
  C     -3.706637   -0.211217   -0.051515
  C     -3.052177   -1.055403    0.841876
  C     -1.662585   -1.137042    0.836199
  C     -0.909357   -0.366958   -0.057054
  C     -1.575057    0.474535   -0.955981
  C     -2.963821    0.548810   -0.953423
  C      0.565344   -0.495344   -0.072010
  C      1.140746   -1.764324   -0.234086
  C      2.517642   -1.944204   -0.264972
  C      3.362953   -0.846765   -0.129401
  C      2.826835    0.423949    0.048163
  C      1.446115    0.582909    0.077310
  Cl     0.825716    2.208354    0.378600
  H     -4.790194   -0.147958   -0.048538
  H     -3.622895   -1.651371    1.547170
  H     -1.153397   -1.792649    1.536282
  H     -1.004113    1.058121   -1.670707
  H     -3.467668    1.199291   -1.661589
  H      0.478826   -2.616558   -0.353342
  H      2.928915   -2.939088   -0.399862
  H      4.440341   -0.972322   -0.153833
  H      3.474763    1.283915    0.174701

 Total Charge           Charge          ....    0
 Multiplicity           Mult            ....    1
 Number of Electrons    NEL             ....   98
 Basis Dimension        Dim             ....  463

ORBITAL ENERGIES
----------------

  NO   OCC          E(Eh)            E(eV)
   0   2.0000    -107.145788     -2915.5851
   1   2.0000     -12.118889      -329.7717
   2   2.0000     -12.076344      -328.6140
   3   2.0000     -12.066681      -328.3511
   4   2.0000     -12.061907      -328.2212
   5   2.0000     -12.058927      -328.1401
   6   2.0000     -12.057797      -328.1093
   7   2.0000     -12.054624      -328.0230
   8   2.0000     -12.053349      -327.9883
   9   2.0000     -12.052889      -327.9758
  10   2.0000     -12.051872      -327.9481
  11   2.0000     -12.050598      -327.9134
  12   2.0000     -12.049228      -327.8762
  13   2.0000     -11.299040      -307.4625
  14   2.0000      -9.090572      -247.3670
  15   2.0000      -9.087987      -247.2967
  16   2.0000      -9.087940      -247.2954
  17   2.0000      -1.435328       -39.0573
  18   2.0000      -1.391781       -37.8723
  19   2.0000      -1.375117       -37.4188
  20   2.0000      -1.312564       -35.7167
  21   2.0000      -1.276124       -34.7251
  22   2.0000      -1.273746       -34.6604
  23   2.0000      -1.257022       -34.2053
  24   2.0000      -1.141147       -31.0522
  25   2.0000      -1.118292       -30.4303
  26   2.0000      -1.102399       -29.9978
  27   2.0000      -1.087008       -29.5790
  28   2.0000      -0.993576       -27.0366
  29   2.0000      -0.973764       -26.4975
  30   2.0000      -0.958846       -26.0915
  31   2.0000      -0.950171       -25.8555
  32   2.0000      -0.937881       -25.5210
  33   2.0000      -0.910974       -24.7889
  34   2.0000      -0.892014       -24.2729
  35   2.0000      -0.886707       -24.1285
  36   2.0000      -0.873704       -23.7747
  37   2.0000      -0.841283       -22.8925
  38   2.0000      -0.828413       -22.5423
  39   2.0000      -0.826751       -22.4970
  40   2.0000      -0.818974       -22.2854
  41   2.0000      -0.806914       -21.9573
  42   2.0000      -0.791816       -21.5464
  43   2.0000      -0.779577       -21.2134
  44   2.0000      -0.766564       -20.8593
  45   2.0000      -0.668966       -18.2035
  46   2.0000      -0.651800       -17.7364
  47   2.0000      -0.641393       -17.4532
  48   2.0000      -0.629764       -17.1368
  49   0.0000      -0.276686        -7.5290
  50   0.0000      -0.268428        -7.3043
  51   0.0000      -0.252764        -6.8781
  52   0.0000      -0.238025        -6.4770
  53   0.0000      -0.229560        -6.2466

MULLIKEN ATOMIC CHARGES
-----------------------
   0 C :   -0.165534
   1 C :   -0.157847
   2 C :   -0.263883
   3 C :    0.180381
   4 C :   -0.257042
   5 C :   -0.152530
   6 C :    0.146131
   7 C :   -0.227602
   8 C :   -0.172677
   9 C :   -0.142047
  10 C :   -0.240523
  11 C :    0.066924
  12 Cl:   -0.112283
  13 H :    0.162228
  14 H :    0.161200
  15 H :    0.169831
  16 H :    0.168028
  17 H :    0.161286
  18 H :    0.174913
  19 H :    0.165050
  20 H :    0.167599
  21 H :    0.168396
Sum of atomic charges:   -0.0000000

LOEWDIN ATOMIC CHARGES
----------------------
   0 C :   -0.145866
   1 C :   -0.144657
   2 C :   -0.103286
   3 C :   -0.121889
   4 C :   -0.112221
   5 C :   -0.144988
   6 C :   -0.110767
   7 C :   -0.092468
   8 C :   -0.138337
   9 C :   -0.134809
  10 C :   -0.145879
  11 C :   -0.368458
  12 Cl:    0.366977
  13 H :    0.151346
  14 H :    0.152214
  15 H :    0.158060
  16 H :    0.154376
  17 H :    0.152254
  18 H :    0.161527
  19 H :    0.154855
  20 H :    0.155476
  21 H :    0.156537

  Mayer bond orders larger than 0.100000
B(  0-C ,  1-C ) :   1.4007 B(  0-C ,  5-C ) :   1.3937 B(  0-C , 13-H ) :   0.9742
B(  1-C ,  2-C ) :   1.4314 B(  1-C , 14-H ) :   0.9774 B(  2-C ,  3-C ) :   1.3736
B(  2-C , 15-H ) :   0.9733 B(  3-C ,  4-C ) :   1.3344 B(  3-C ,  6-C ) :   0.8310
B(  4-C ,  5-C ) :   1.4425 B(  4-C , 16-H ) :   0.9708 B(  5-C , 17-H ) :   0.9760
B(  6-C ,  7-C ) :   1.3536 B(  6-C , 11-C ) :   1.2957 B(  7-C ,  8-C ) :   1.4389
B(  7-C , 18-H ) :   0.9653 B(  8-C ,  9-C ) :   1.3915 B(  8-C , 19-H ) :   0.9761
B(  9-C , 10-C ) :   1.4113 B(  9-C , 20-H ) :   0.9720 B( 10-C , 11-C ) :   1.3922
B( 10-C , 21-H ) :   0.9708 B( 11-C , 12-Cl) :   1.0422

FINAL SINGLE POINT ENERGY      -922.871315425551

DIPOLE MOMENT
-------------

Method             : SCF
Type of density    : Electron Density
Multiplicity       :   1
Irrep              :   0
Energy             :  -922.8820268151512209 Eh
Relativity type    :
Basis              : AO
                                X                 Y                 Z
Electronic contribution:      4.002370846       8.316391085       1.368229231
Nuclear contribution   :     -3.745974693      -9.215216988      -1.526756003
                        -----------------------------------------
Total Dipole Moment    :      0.256396154      -0.898825903      -0.158526772
                        -----------------------------------------
Magnitude (a.u.)       :      0.948028338
Magnitude (Debye)      :      2.409696532

Rotational constants in cm-1:             0.042779             0.017194             0.013363
Rotational constants in MHz :          1282.489487           515.468129           400.619093

                             ****ORCA TERMINATED NORMALLY****
TOTAL RUN TIME: 0 days 0 hours 6 minutes 42 seconds 574 msec
