                         Program Version 6.0.0  -   RELEASE  -
|  1> ! wb97x-v def2-tzvp def2/J RIJCOSX DEFGRID2 scfconv7 GCP(DFT/TZ) printgap
|  2> %output
|  3>     printlevel normal
|  4> end
|  5> * xyz 0 1
|  6> C -2.5391180962788673 -1.0404705582895157 -0.0013720378543646595
|  7> C -1.2336605856305105 -0.29626057872967365 0.002232964667691032
|  8> C -1.216348551995555 1.1052264767489288 0.0015476351243074702
|  9> C -0.0070749406944728 1.791778308536256 -0.0004903988874871916
| 10> C 1.2057717344096905 1.105356698092485 -0.0012663018014371003
| 11> C 1.1860425663815894 -0.28754960120446643 4.413226387490145e-05
| 12> C -0.021730479285722512 -0.9859820278592167 0.0018627582473609379
| 13> O 2.3445748828736583 -1.0362233882620413 0.00015888388784764167
| 14> H -2.3824158989843687 -2.120593802891206 0.048842897259865285
| 15> H -3.161657377082589 -0.7425742270260451 0.848947319769021
| 16> H -3.1110488550442854 -0.819823824991445 -0.9093530650514939
| 17> H -2.1538853147478556 1.6534958514249851 0.0024889908525821277
| 18> H -0.0011400991630192076 2.8776631854612713 -0.000867593355615376
| 19> H 2.1528218611654415 1.6375841169203171 -0.0022328926089793667
| 20> H -0.005253565294444331 -2.071894922927325 0.0032785540980913228
| 21> H 3.1024887741298297 -0.4351869326358809 -0.0006325445106657471
| 22> *
| 23>
| 24>                          ****END OF INPUT****

CARTESIAN COORDINATES (ANGSTROEM)
---------------------------------
  C     -2.539118   -1.040471   -0.001372
  C     -1.233661   -0.296261    0.002233
  C     -1.216349    1.105226    0.001548
  C     -0.007075    1.791778   -0.000490
  C      1.205772    1.105357   -0.001266
  C      1.186043   -0.287550    0.000044
  C     -0.021730   -0.985982    0.001863
  O      2.344575   -1.036223    0.000159
  H     -2.382416   -2.120594    0.048843
  H     -3.161657   -0.742574    0.848947
  H     -3.111049   -0.819824   -0.909353
  H     -2.153885    1.653496    0.002489
  H     -0.001140    2.877663   -0.000868
  H      2.152822    1.637584   -0.002233
  H     -0.005254   -2.071895    0.003279
  H      3.102489   -0.435187   -0.000633

 Total Charge           Charge          ....    0
 Multiplicity           Mult            ....    1
 Number of Electrons    NEL             ....   58
 Basis Dimension        Dim             ....  296

ORBITAL ENERGIES
----------------

  NO   OCC          E(Eh)            E(eV)
   0   2.0000     -21.701837      -590.5370
   1   2.0000     -12.112724      -329.6040
   2   2.0000     -12.062746      -328.2440
   3   2.0000     -12.055212      -328.0390
   4   2.0000     -12.048253      -327.8496
   5   2.0000     -12.043469      -327.7195
   6   2.0000     -12.042332      -327.6885
   7   2.0000     -12.040428      -327.6367
   8   2.0000      -1.714059       -46.6419
   9   2.0000      -1.385264       -37.6950
  10   2.0000      -1.296777       -35.2871
  11   2.0000      -1.277502       -34.7626
  12   2.0000      -1.197035       -32.5730
  13   2.0000      -1.148230       -31.2449
  14   2.0000      -1.108090       -30.1527
  15   2.0000      -1.043229       -28.3877
  16   2.0000      -1.003606       -27.3095
  17   2.0000      -0.948911       -25.8212
  18   2.0000      -0.945426       -25.7264
  19   2.0000      -0.940921       -25.6038
  20   2.0000      -0.892796       -24.2942
  21   2.0000      -0.873215       -23.7614
  22   2.0000      -0.838275       -22.8106
  23   2.0000      -0.833954       -22.6931
  24   2.0000      -0.819506       -22.2999
  25   2.0000      -0.804601       -21.8943
  26   2.0000      -0.759505       -20.6672
  27   2.0000      -0.637454       -17.3460
  28   2.0000      -0.632876       -17.2214
  29   0.0000      -0.244273        -6.6470
  30   0.0000      -0.238069        -6.4782
  31   0.0000      -0.145487        -3.9589
  32   0.0000      -0.071560        -1.9473
  33   0.0000      -0.066554        -1.8110

MULLIKEN ATOMIC CHARGES
-----------------------
   0 C :   -0.361576
   1 C :    0.210342
   2 C :   -0.237805
   3 C :   -0.100264
   4 C :   -0.233676
   5 C :    0.276167
   6 C :   -0.294713
   7 O :   -0.392348
   8 H :    0.118069
   9 H :    0.124017
  10 H :    0.124652
  11 H :    0.113554
  12 H :    0.117365
  13 H :    0.107920
  14 H :    0.116743
  15 H :    0.311552
Sum of atomic charges:    0.0000000

LOEWDIN ATOMIC CHARGES
----------------------
   0 C :   -0.249203
   1 C :   -0.163423
   2 C :   -0.135910
   3 C :   -0.135920
   4 C :   -0.155315
   5 C :   -0.256843
   6 C :   -0.101392
   7 O :    0.061327
   8 H :    0.124359
   9 H :    0.127860
  10 H :    0.128326
  11 H :    0.142390
  12 H :    0.142600
  13 H :    0.138293
  14 H :    0.148608
  15 H :    0.184242

  Mayer bond orders larger than 0.100000
B(  0-C ,  1-C ) :   0.9131 B(  0-C ,  8-H ) :   0.9970 B(  0-C ,  9-H ) :   0.9768
B(  0-C , 10-H ) :   0.9727 B(  1-C ,  2-C ) :   1.3594 B(  1-C ,  6-C ) :   1.4236
B(  2-C ,  3-C ) :   1.4656 B(  2-C , 11-H ) :   0.9783 B(  3-C ,  4-C ) :   1.4071
B(  3-C , 12-H ) :   0.9658 B(  4-C ,  5-C ) :   1.3750 B(  4-C , 13-H ) :   0.9602
B(  5-C ,  6-C ) :   1.4160 B(  5-C ,  7-O ) :   1.1403 B(  6-C , 14-H ) :   0.9656
B(  7-O , 15-H ) :   0.8915

FINAL SINGLE POINT ENERGY      -346.804203509316

DIPOLE MOMENT
-------------

Method             : SCF
Type of density    : Electron Density
Multiplicity       :   1
Irrep              :   0
Energy             :  -346.8130373069155326 Eh
Relativity type    :
Basis              : AO
                                X                 Y                 Z
Electronic contribution:      5.286876440       0.453513810       0.007503762
Nuclear contribution   :     -5.206982437      -0.043713687      -0.010582993
                        -----------------------------------------
Total Dipole Moment    :      0.079894004       0.409800122      -0.003079231
                        -----------------------------------------
Magnitude (a.u.)       :      0.417526854
Magnitude (Debye)      :      1.061268922

Rotational constants in cm-1:             0.122650             0.059782             0.040493
Rotational constants in MHz :          3676.951969          1792.221205          1213.964499

                             ****ORCA TERMINATED NORMALLY****
TOTAL RUN TIME: 0 days 0 hours 2 minutes 31 seconds 130 msec
