                         Program Version 6.0.0  -   RELEASE  -
|  1> ! wb97x-v def2-tzvp def2/J RIJCOSX DEFGRID2 scfconv7 GCP(DFT/TZ) printgap
|  2> %output
|  3>     printlevel normal
|  4> end
|  5> %cpcm
|  6>     smd true
|  7>     smdsolvent "water"
|  8> end
|  9> * xyz 0 1
| 10> C -2.5391180962788673 -1.0404705582895157 -0.0013720378543646595
| 11> C -1.2336605856305105 -0.29626057872967365 0.002232964667691032
| 12> C -1.216348551995555 1.1052264767489288 0.0015476351243074702
| 13> C -0.0070749406944728 1.791778308536256 -0.0004903988874871916
| 14> C 1.2057717344096905 1.105356698092485 -0.0012663018014371003
| 15> C 1.1860425663815894 -0.28754960120446643 4.413226387490145e-05
| 16> C -0.021730479285722512 -0.9859820278592167 0.0018627582473609379
| 17> O 2.3445748828736583 -1.0362233882620413 0.00015888388784764167
| 18> H -2.3824158989843687 -2.120593802891206 0.048842897259865285
| 19> H -3.161657377082589 -0.7425742270260451 0.848947319769021
| 20> H -3.1110488550442854 -0.819823824991445 -0.9093530650514939
| 21> H -2.1538853147478556 1.6534958514249851 0.0024889908525821277
| 22> H -0.0011400991630192076 2.8776631854612713 -0.000867593355615376
| 23> H 2.1528218611654415 1.6375841169203171 -0.0022328926089793667
| 24> H -0.005253565294444331 -2.071894922927325 0.0032785540980913228
| 25> H 3.1024887741298297 -0.4351869326358809 -0.0006325445106657471
| 26> *
| 27>
| 28>                          ****END OF INPUT****

CARTESIAN COORDINATES (ANGSTROEM)
---------------------------------
  C     -2.539118   -1.040471   -0.001372
  C     -1.233661   -0.296261    0.002233
  C     -1.216349    1.105226    0.001548
  C     -0.007075    1.791778   -0.000490
  C      1.205772    1.105357   -0.001266
  C      1.186043   -0.287550    0.000044
  C     -0.021730   -0.985982    0.001863
  O      2.344575   -1.036223    0.000159
  H     -2.382416   -2.120594    0.048843
  H     -3.161657   -0.742574    0.848947
  H     -3.111049   -0.819824   -0.909353
  H     -2.153885    1.653496    0.002489
  H     -0.001140    2.877663   -0.000868
  H      2.152822    1.637584   -0.002233
  H     -0.005254   -2.071895    0.003279
  H      3.102489   -0.435187   -0.000633

 Total Charge           Charge          ....    0
 Multiplicity           Mult            ....    1
 Number of Electrons    NEL             ....   58
 Basis Dimension        Dim             ....  296

ORBITAL ENERGIES
----------------

  NO   OCC          E(Eh)            E(eV)
   0   2.0000     -21.700468      -590.4997
   1   2.0000     -12.112408      -329.5954
   2   2.0000     -12.061758      -328.2171
   3   2.0000     -12.052122      -327.9549
   4   2.0000     -12.043999      -327.7339
   5   2.0000     -12.041628      -327.6694
   6   2.0000     -12.038303      -327.5789
   7   2.0000     -12.033973      -327.4611
   8   2.0000      -1.713108       -46.6160
   9   2.0000      -1.384982       -37.6873
  10   2.0000      -1.294085       -35.2138
  11   2.0000      -1.277130       -34.7525
  12   2.0000      -1.191677       -32.4272
  13   2.0000      -1.146614       -31.2010
  14   2.0000      -1.105884       -30.0926
  15   2.0000      -1.041011       -28.3274
  16   2.0000      -1.004897       -27.3446
  17   2.0000      -0.947032       -25.7700
  18   2.0000      -0.945693       -25.7336
  19   2.0000      -0.939222       -25.5575
  20   2.0000      -0.888310       -24.1721
  21   2.0000      -0.868524       -23.6337
  22   2.0000      -0.830911       -22.6102
  23   2.0000      -0.828960       -22.5572
  24   2.0000      -0.813368       -22.1329
  25   2.0000      -0.798636       -21.7320
  26   2.0000      -0.759485       -20.6666
  27   2.0000      -0.638293       -17.3688
  28   2.0000      -0.632986       -17.2244
  29   0.0000      -0.244571        -6.6551
  30   0.0000      -0.238102        -6.4791
  31   0.0000      -0.143392        -3.9019
  32   0.0000      -0.070687        -1.9235
  33   0.0000      -0.035975        -0.9789

MULLIKEN ATOMIC CHARGES
-----------------------
   0 C :   -0.389327
   1 C :    0.172957
   2 C :   -0.289345
   3 C :   -0.124319
   4 C :   -0.293153
   5 C :    0.297678
   6 C :   -0.345479
   7 O :   -0.471674
   8 H :    0.141519
   9 H :    0.141959
  10 H :    0.141916
  11 H :    0.156031
  12 H :    0.162766
  13 H :    0.168950
  14 H :    0.151840
  15 H :    0.377681
Sum of atomic charges:    0.0000000

LOEWDIN ATOMIC CHARGES
----------------------
   0 C :   -0.251094
   1 C :   -0.172507
   2 C :   -0.146125
   3 C :   -0.145635
   4 C :   -0.153377
   5 C :   -0.269188
   6 C :   -0.116100
   7 O :    0.035470
   8 H :    0.129490
   9 H :    0.132658
  10 H :    0.133029
  11 H :    0.151319
  12 H :    0.152393
  13 H :    0.154541
  14 H :    0.155471
  15 H :    0.209653

  Mayer bond orders larger than 0.100000
B(  0-C ,  1-C ) :   0.9252 B(  0-C ,  8-H ) :   0.9924 B(  0-C ,  9-H ) :   0.9703
B(  0-C , 10-H ) :   0.9665 B(  1-C ,  2-C ) :   1.3399 B(  1-C ,  6-C ) :   1.4235
B(  2-C ,  3-C ) :   1.4339 B(  2-C , 11-H ) :   0.9833 B(  3-C ,  4-C ) :   1.3628
B(  3-C , 12-H ) :   0.9681 B(  4-C ,  5-C ) :   1.3712 B(  4-C , 13-H ) :   0.9694
B(  5-C ,  6-C ) :   1.3829 B(  5-C ,  7-O ) :   1.1021 B(  6-C , 14-H ) :   0.9738
B(  7-O , 15-H ) :   0.8499

FINAL SINGLE POINT ENERGY      -346.813199608539

DIPOLE MOMENT
-------------

Method             : SCF
Type of density    : Electron Density
Multiplicity       :   1
Irrep              :   0
Energy             :  -346.8220334061392123 Eh
Relativity type    :
Basis              : AO
                                X                 Y                 Z
Electronic contribution:      5.339827344       0.647312199       0.006396289
Nuclear contribution   :     -5.206982437      -0.043713687      -0.010582993
                        -----------------------------------------
Total Dipole Moment    :      0.132844907       0.603598512      -0.004186703
                        -----------------------------------------
Magnitude (a.u.)       :      0.618058623
Magnitude (Debye)      :      1.570980172

Rotational constants in cm-1:             0.122650             0.059782             0.040493
Rotational constants in MHz :          3676.951969          1792.221205          1213.964499

                             ****ORCA TERMINATED NORMALLY****
TOTAL RUN TIME: 0 days 0 hours 2 minutes 32 seconds 821 msec
