                         Program Version 6.0.0  -   RELEASE  -
|  1> ! wb97x-v def2-tzvp def2/J RIJCOSX DEFGRID2 scfconv7 GCP(DFT/TZ) printgap
|  2> %output
|  3>     printlevel normal
|  4> end
|  5> * xyz 0 1
|  6> C 4.468538253055043 -0.27624471130639494 -0.0021427254137522177
|  7> C 4.259004232154359 1.0997010817835287 -0.0008937192391467998
|  8> C 2.9619768701518496 1.6091666247938325 0.0005492832142110131
|  9> C 1.8842547135368493 0.738189124100444 0.0008323246101013385
| 10> C 2.0934672589818972 -0.6386339844763089 -6.94276393825132e-05
| 11> C 3.3821956122315475 -1.1487729432384968 -0.0017281688438893735
| 12> O 1.0397089058725544 -1.5428074331785404 0.000821533100201956
| 13> C -0.23060866397175456 -0.9918500319433131 0.000977248419451569
| 14> C -1.3129368058572566 -1.8562985851223412 0.0008608284782938524
| 15> C -2.612581435849492 -1.3560715580077627 0.0006980572320660538
| 16> C -2.7958235977281487 0.019363886483992312 0.0005568924720745123
| 17> C -1.7247952974146399 0.9055727026945629 0.0008596440670451284
| 18> C -0.4390492075543121 0.38676521108573236 0.0012712631215002015
| 19> O 0.6081585888061255 1.2891931374937788 0.002067407556877313
| 20> Cl -4.429276279764965 0.6706363211965299 -2.5090243046998667e-05
| 21> H 5.475744851583703 -0.678292342278889 -0.0034449476386440954
| 22> H 5.100759652103693 1.7834978667932129 -0.0010421368811911198
| 23> H 2.772366012001598 2.677524761455724 0.001494117797490867
| 24> H 3.519049462510484 -2.2251746435068798 -0.0026291915321783902
| 25> H -1.1331124201712401 -2.926053570495201 0.0009231442608263451
| 26> H -3.4584094395292504 -2.032652958162863 0.0006612909664289276
| 27> H -1.865797745490514 1.9801906516160817 0.000810988769427478
| 28> *
| 29>
| 30>                          ****END OF INPUT****

CARTESIAN COORDINATES (ANGSTROEM)
---------------------------------
  C      4.468538   -0.276245   -0.002143
  C      4.259004    1.099701   -0.000894
  C      2.961977    1.609167    0.000549
  C      1.884255    0.738189    0.000832
  C      2.093467   -0.638634   -0.000069
  C      3.382196   -1.148773   -0.001728
  O      1.039709   -1.542807    0.000822
  C     -0.230609   -0.991850    0.000977
  C     -1.312937   -1.856299    0.000861
  C     -2.612581   -1.356072    0.000698
  C     -2.795824    0.019364    0.000557
  C     -1.724795    0.905573    0.000860
  C     -0.439049    0.386765    0.001271
  O      0.608159    1.289193    0.002067
  Cl    -4.429276    0.670636   -0.000025
  H      5.475745   -0.678292   -0.003445
  H      5.100760    1.783498   -0.001042
  H      2.772366    2.677525    0.001494
  H      3.519049   -2.225175   -0.002629
  H     -1.133112   -2.926054    0.000923
  H     -3.458409   -2.032653    0.000661
  H     -1.865798    1.980191    0.000811

 Total Charge           Charge          ....    0
 Multiplicity           Mult            ....    1
 Number of Electrons    NEL             ....  112
 Basis Dimension        Dim             ....  513

ORBITAL ENERGIES
----------------

  NO   OCC          E(Eh)            E(eV)
   0   2.0000    -107.146052     -2915.5923
   1   2.0000     -21.737364      -591.5037
   2   2.0000     -21.736023      -591.4672
   3   2.0000     -12.137461      -330.2771
   4   2.0000     -12.132911      -330.1533
   5   2.0000     -12.131410      -330.1125
   6   2.0000     -12.129259      -330.0539
   7   2.0000     -12.123515      -329.8976
   8   2.0000     -12.074247      -328.5570
   9   2.0000     -12.073908      -328.5477
  10   2.0000     -12.070962      -328.4676
  11   2.0000     -12.066839      -328.3554
  12   2.0000     -12.066651      -328.3503
  13   2.0000     -12.064066      -328.2799
  14   2.0000     -12.062059      -328.2253
  15   2.0000     -11.299105      -307.4643
  16   2.0000      -9.090630      -247.3686
  17   2.0000      -9.088026      -247.2978
  18   2.0000      -9.087974      -247.2963
  19   2.0000      -1.766200       -48.0607
  20   2.0000      -1.749713       -47.6121
  21   2.0000      -1.442858       -39.2622
  22   2.0000      -1.417683       -38.5771
  23   2.0000      -1.388040       -37.7705
  24   2.0000      -1.334660       -36.3180
  25   2.0000      -1.317499       -35.8510
  26   2.0000      -1.290922       -35.1278
  27   2.0000      -1.279999       -34.8306
  28   2.0000      -1.218717       -33.1630
  29   2.0000      -1.170103       -31.8401
  30   2.0000      -1.157190       -31.4888
  31   2.0000      -1.123266       -30.5656
  32   2.0000      -1.097300       -29.8591
  33   2.0000      -1.045768       -28.4568
  34   2.0000      -1.038477       -28.2584
  35   2.0000      -1.031404       -28.0659
  36   2.0000      -1.012643       -27.5554
  37   2.0000      -0.985256       -26.8102
  38   2.0000      -0.981883       -26.7184
  39   2.0000      -0.966605       -26.3027
  40   2.0000      -0.947394       -25.7799
  41   2.0000      -0.934582       -25.4313
  42   2.0000      -0.916525       -24.9399
  43   2.0000      -0.907287       -24.6885
  44   2.0000      -0.886940       -24.1349
  45   2.0000      -0.856565       -23.3083
  46   2.0000      -0.854293       -23.2465
  47   2.0000      -0.836938       -22.7742
  48   2.0000      -0.831752       -22.6331
  49   2.0000      -0.797568       -21.7029
  50   2.0000      -0.792953       -21.5774
  51   2.0000      -0.773305       -21.0427
  52   2.0000      -0.675179       -18.3725
  53   2.0000      -0.672100       -18.2888
  54   2.0000      -0.654775       -17.8173
  55   2.0000      -0.649651       -17.6779
  56   0.0000      -0.281577        -7.6621
  57   0.0000      -0.277562        -7.5528
  58   0.0000      -0.270809        -7.3691
  59   0.0000      -0.259131        -7.0513
  60   0.0000      -0.257718        -7.0129

MULLIKEN ATOMIC CHARGES
-----------------------
   0 C :   -0.095464
   1 C :   -0.096826
   2 C :   -0.250720
   3 C :    0.220939
   4 C :    0.224318
   5 C :   -0.253567
   6 O :   -0.236198
   7 C :    0.214689
   8 C :   -0.249559
   9 C :   -0.155065
  10 C :    0.200339
  11 C :   -0.348038
  12 C :    0.252770
  13 O :   -0.234785
  14 Cl:   -0.099050
  15 H :    0.122815
  16 H :    0.122573
  17 H :    0.128162
  18 H :    0.127324
  19 H :    0.131081
  20 H :    0.135044
  21 H :    0.139217
Sum of atomic charges:   -0.0000000

LOEWDIN ATOMIC CHARGES
----------------------
   0 C :   -0.141148
   1 C :   -0.141383
   2 C :   -0.106418
   3 C :   -0.192730
   4 C :   -0.193930
   5 C :   -0.106803
   6 O :    0.309007
   7 C :   -0.196984
   8 C :   -0.099968
   9 C :   -0.145945
  10 C :   -0.412095
  11 C :   -0.109432
  12 C :   -0.192821
  13 O :    0.311293
  14 Cl:    0.368340
  15 H :    0.144213
  16 H :    0.144201
  17 H :    0.151671
  18 H :    0.151482
  19 H :    0.153996
  20 H :    0.149121
  21 H :    0.156334

  Mayer bond orders larger than 0.100000
B(  0-C ,  1-C ) :   1.4293 B(  0-C ,  5-C ) :   1.4103 B(  0-C , 15-H ) :   0.9763
B(  1-C ,  2-C ) :   1.4106 B(  1-C , 16-H ) :   0.9768 B(  2-C ,  3-C ) :   1.4074
B(  2-C , 17-H ) :   0.9723 B(  3-C ,  4-C ) :   1.3555 B(  3-C , 13-O ) :   1.0171
B(  4-C ,  5-C ) :   1.4050 B(  4-C ,  6-O ) :   1.0168 B(  5-C , 18-H ) :   0.9733
B(  6-O ,  7-C ) :   1.0297 B(  7-C ,  8-C ) :   1.4116 B(  7-C , 12-C ) :   1.3521
B(  8-C ,  9-C ) :   1.3822 B(  8-C , 19-H ) :   0.9727 B(  9-C , 10-C ) :   1.4015
B(  9-C , 20-H ) :   0.9733 B( 10-C , 11-C ) :   1.3806 B( 10-C , 14-Cl) :   0.9580
B( 11-C , 12-C ) :   1.3747 B( 11-C , 21-H ) :   0.9724 B( 12-C , 13-O ) :   1.0261

FINAL SINGLE POINT ENERGY     -1072.111912567481

DIPOLE MOMENT
-------------

Method             : SCF
Type of density    : Electron Density
Multiplicity       :   1
Irrep              :   0
Energy             : -1072.1231887990807081 Eh
Relativity type    :
Basis              : AO
                                X                 Y                 Z
Electronic contribution:    -14.969623369       1.996901617       0.003966358
Nuclear contribution   :     15.757027755      -2.240845542      -0.004473485
                        -----------------------------------------
Total Dipole Moment    :      0.787404386      -0.243943926      -0.000507127
                        -----------------------------------------
Magnitude (a.u.)       :      0.824326733
Magnitude (Debye)      :      2.095272041

Rotational constants in cm-1:             0.061517             0.009145             0.007962
Rotational constants in MHz :          1844.232255           274.170995           238.686894

                             ****ORCA TERMINATED NORMALLY****
TOTAL RUN TIME: 0 days 0 hours 8 minutes 20 seconds 142 msec
