                         Program Version 6.0.0  -   RELEASE  -
|  1> ! wb97x-v def2-tzvp def2/J RIJCOSX DEFGRID2 scfconv7 GCP(DFT/TZ) printgap
|  2> %output
|  3>     printlevel normal
|  4> end
|  5> %cpcm
|  6>     smd true
|  7>     smdsolvent "water"
|  8> end
|  9> * xyz 0 1
| 10> C 4.468538253055043 -0.27624471130639494 -0.0021427254137522177
| 11> C 4.259004232154359 1.0997010817835287 -0.0008937192391467998
| 12> C 2.9619768701518496 1.6091666247938325 0.0005492832142110131
| 13> C 1.8842547135368493 0.738189124100444 0.0008323246101013385
| 14> C 2.0934672589818972 -0.6386339844763089 -6.94276393825132e-05
| 15> C 3.3821956122315475 -1.1487729432384968 -0.0017281688438893735
| 16> O 1.0397089058725544 -1.5428074331785404 0.000821533100201956
| 17> C -0.23060866397175456 -0.9918500319433131 0.000977248419451569
| 18> C -1.3129368058572566 -1.8562985851223412 0.0008608284782938524
| 19> C -2.612581435849492 -1.3560715580077627 0.0006980572320660538
| 20> C -2.7958235977281487 0.019363886483992312 0.0005568924720745123
| 21> C -1.7247952974146399 0.9055727026945629 0.0008596440670451284
| 22> C -0.4390492075543121 0.38676521108573236 0.0012712631215002015
| 23> O 0.6081585888061255 1.2891931374937788 0.002067407556877313
| 24> Cl -4.429276279764965 0.6706363211965299 -2.5090243046998667e-05
| 25> H 5.475744851583703 -0.678292342278889 -0.0034449476386440954
| 26> H 5.100759652103693 1.7834978667932129 -0.0010421368811911198
| 27> H 2.772366012001598 2.677524761455724 0.001494117797490867
| 28> H 3.519049462510484 -2.2251746435068798 -0.0026291915321783902
| 29> H -1.1331124201712401 -2.926053570495201 0.0009231442608263451
| 30> H -3.4584094395292504 -2.032652958162863 0.0006612909664289276
| 31> H -1.865797745490514 1.9801906516160817 0.000810988769427478
| 32> *
| 33>
| 34>                          ****END OF INPUT****

CARTESIAN COORDINATES (ANGSTROEM)
---------------------------------
  C      4.468538   -0.276245   -0.002143
  C      4.259004    1.099701   -0.000894
  C      2.961977    1.609167    0.000549
  C      1.884255    0.738189    0.000832
  C      2.093467   -0.638634   -0.000069
  C      3.382196   -1.148773   -0.001728
  O      1.039709   -1.542807    0.000822
  C     -0.230609   -0.991850    0.000977
  C     -1.312937   -1.856299    0.000861
  C     -2.612581   -1.356072    0.000698
  C     -2.795824    0.019364    0.000557
  C     -1.724795    0.905573    0.000860
  C     -0.439049    0.386765    0.001271
  O      0.608159    1.289193    0.002067
  Cl    -4.429276    0.670636   -0.000025
  H      5.475745   -0.678292   -0.003445
  H      5.100760    1.783498   -0.001042
  H      2.772366    2.677525    0.001494
  H      3.519049   -2.225175   -0.002629
  H     -1.133112   -2.926054    0.000923
  H     -3.458409   -2.032653    0.000661
  H     -1.865798    1.980191    0.000811

 Total Charge           Charge          ....    0
 Multiplicity           Mult            ....    1
 Number of Electrons    NEL             ....  112
 Basis Dimension        Dim             ....  513

ORBITAL ENERGIES
----------------

  NO   OCC          E(Eh)            E(eV)
   0   2.0000    -107.149010     -2915.6728
   1   2.0000     -21.735760      -591.4601
   2   2.0000     -21.734676      -591.4306
   3   2.0000     -12.134137      -330.1867
   4   2.0000     -12.129592      -330.0630
   5   2.0000     -12.127134      -329.9961
   6   2.0000     -12.124980      -329.9375
   7   2.0000     -12.120913      -329.8268
   8   2.0000     -12.069602      -328.4306
   9   2.0000     -12.067238      -328.3662
  10   2.0000     -12.064960      -328.3043
  11   2.0000     -12.059447      -328.1542
  12   2.0000     -12.059217      -328.1480
  13   2.0000     -12.055794      -328.0548
  14   2.0000     -12.053766      -327.9997
  15   2.0000     -11.302186      -307.5481
  16   2.0000      -9.093691      -247.4519
  17   2.0000      -9.091144      -247.3826
  18   2.0000      -9.091096      -247.3813
  19   2.0000      -1.764559       -48.0161
  20   2.0000      -1.748299       -47.5736
  21   2.0000      -1.441795       -39.2332
  22   2.0000      -1.415229       -38.5103
  23   2.0000      -1.385193       -37.6930
  24   2.0000      -1.330651       -36.2088
  25   2.0000      -1.313388       -35.7391
  26   2.0000      -1.285526       -34.9809
  27   2.0000      -1.276171       -34.7264
  28   2.0000      -1.214628       -33.0517
  29   2.0000      -1.165960       -31.7274
  30   2.0000      -1.153460       -31.3872
  31   2.0000      -1.118085       -30.4247
  32   2.0000      -1.092177       -29.7196
  33   2.0000      -1.041006       -28.3272
  34   2.0000      -1.033931       -28.1347
  35   2.0000      -1.031176       -28.0597
  36   2.0000      -1.011549       -27.5256
  37   2.0000      -0.984666       -26.7941
  38   2.0000      -0.976822       -26.5807
  39   2.0000      -0.962363       -26.1872
  40   2.0000      -0.943044       -25.6615
  41   2.0000      -0.927764       -25.2457
  42   2.0000      -0.908991       -24.7349
  43   2.0000      -0.898021       -24.4364
  44   2.0000      -0.882300       -24.0086
  45   2.0000      -0.849003       -23.1025
  46   2.0000      -0.845071       -22.9955
  47   2.0000      -0.832663       -22.6579
  48   2.0000      -0.828043       -22.5322
  49   2.0000      -0.795940       -21.6586
  50   2.0000      -0.794945       -21.6315
  51   2.0000      -0.771140       -20.9838
  52   2.0000      -0.672020       -18.2866
  53   2.0000      -0.667678       -18.1684
  54   2.0000      -0.649880       -17.6841
  55   2.0000      -0.645920       -17.5764
  56   0.0000      -0.278417        -7.5761
  57   0.0000      -0.276664        -7.5284
  58   0.0000      -0.265959        -7.2371
  59   0.0000      -0.253665        -6.9026
  60   0.0000      -0.252854        -6.8805

MULLIKEN ATOMIC CHARGES
-----------------------
   0 C :   -0.139911
   1 C :   -0.140787
   2 C :   -0.289737
   3 C :    0.239335
   4 C :    0.242967
   5 C :   -0.292429
   6 O :   -0.264138
   7 C :    0.237714
   8 C :   -0.293127
   9 C :   -0.189007
  10 C :    0.205291
  11 C :   -0.368034
  12 C :    0.258291
  13 O :   -0.261791
  14 Cl:   -0.116527
  15 H :    0.165624
  16 H :    0.165294
  17 H :    0.164293
  18 H :    0.164091
  19 H :    0.168631
  20 H :    0.172841
  21 H :    0.171115
Sum of atomic charges:   -0.0000000

LOEWDIN ATOMIC CHARGES
----------------------
   0 C :   -0.146286
   1 C :   -0.146554
   2 C :   -0.110720
   3 C :   -0.196525
   4 C :   -0.197907
   5 C :   -0.110988
   6 O :    0.298267
   7 C :   -0.196516
   8 C :   -0.097803
   9 C :   -0.145788
  10 C :   -0.420871
  11 C :   -0.110117
  12 C :   -0.193117
  13 O :    0.300576
  14 Cl:    0.353502
  15 H :    0.154289
  16 H :    0.154236
  17 H :    0.161171
  18 H :    0.161114
  19 H :    0.165157
  20 H :    0.159252
  21 H :    0.165626

  Mayer bond orders larger than 0.100000
B(  0-C ,  1-C ) :   1.4076 B(  0-C ,  5-C ) :   1.3953 B(  0-C , 15-H ) :   0.9785
B(  1-C ,  2-C ) :   1.3952 B(  1-C , 16-H ) :   0.9791 B(  2-C ,  3-C ) :   1.3609
B(  2-C , 17-H ) :   0.9836 B(  3-C ,  4-C ) :   1.3529 B(  3-C , 13-O ) :   1.0006
B(  4-C ,  5-C ) :   1.3588 B(  4-C ,  6-O ) :   1.0001 B(  5-C , 18-H ) :   0.9842
B(  6-O ,  7-C ) :   1.0129 B(  7-C ,  8-C ) :   1.3657 B(  7-C , 12-C ) :   1.3495
B(  8-C ,  9-C ) :   1.3862 B(  8-C , 19-H ) :   0.9833 B(  9-C , 10-C ) :   1.3698
B(  9-C , 20-H ) :   0.9760 B( 10-C , 11-C ) :   1.3594 B( 10-C , 14-Cl) :   0.9549
B( 11-C , 12-C ) :   1.3692 B( 11-C , 21-H ) :   0.9712 B( 12-C , 13-O ) :   1.0129

FINAL SINGLE POINT ENERGY     -1072.115607009166

DIPOLE MOMENT
-------------

Method             : SCF
Type of density    : Electron Density
Multiplicity       :   1
Irrep              :   0
Energy             : -1072.1268832407663467 Eh
Relativity type    :
Basis              : AO
                                X                 Y                 Z
Electronic contribution:    -14.753839752       1.891164951       0.003763345
Nuclear contribution   :     15.757027755      -2.240845542      -0.004473485
                        -----------------------------------------
Total Dipole Moment    :      1.003188002      -0.349680591      -0.000710140
                        -----------------------------------------
Magnitude (a.u.)       :      1.062385612
Magnitude (Debye)      :      2.700369623

Rotational constants in cm-1:             0.061517             0.009145             0.007962
Rotational constants in MHz :          1844.232255           274.170995           238.686894

                             ****ORCA TERMINATED NORMALLY****
TOTAL RUN TIME: 0 days 0 hours 10 minutes 6 seconds 162 msec
