                         Program Version 6.0.0  -   RELEASE  -
|  1> ! pbe def2-sv(p) def2/J RI DEFGRID1 loosescf d4 GCP(DFT/SV(P)) printgap
|  2> %output
|  3>     printlevel normal
|  4> end
|  5> * xyz 0 1
|  6> C -0.9954695613 -1.8116285645 2.01839e-05
|  7> C 0.3711614678 -1.6128776413 -1.97218e-05
|  8> C 0.8768102845 -0.3102453084 4.5999e-06
|  9> C 0.0046656134 0.7771441146 -5.25208e-05
| 10> C -1.3696592211 0.5719273002 -5.73712e-05
| 11> C -1.8640183837 -0.7322439549 2.85233e-05
| 12> O -2.1773822799 1.6559174038 3.04647e-05
| 13> C 2.3168699796 -0.0839340522 -1.59722e-05
| 14> O 2.8655695592 0.9995771675 2.05552e-05
| 15> H -1.3953613481 -2.8133133161 0.0001806449
| 16> H 1.0504218088 -2.4506003291 -4.41287e-05
| 17> H 0.4012964264 1.7805314144 -6.31773e-05
| 18> H -2.930469103 -0.9023585405 -2.93024e-05
| 19> H -3.1124232387 1.3966612864 0.0001767424
| 20> H 2.9230346827 -1.0088348792 6.89691e-05
| 21> *
| 22>
| 23>                          ****END OF INPUT****

CARTESIAN COORDINATES (ANGSTROEM)
---------------------------------
  C     -0.995470   -1.811629    0.000020
  C      0.371161   -1.612878   -0.000020
  C      0.876810   -0.310245    0.000005
  C      0.004666    0.777144   -0.000053
  C     -1.369659    0.571927   -0.000057
  C     -1.864018   -0.732244    0.000029
  O     -2.177382    1.655917    0.000030
  C      2.316870   -0.083934   -0.000016
  O      2.865570    0.999577    0.000021
  H     -1.395361   -2.813313    0.000181
  H      1.050422   -2.450600   -0.000044
  H      0.401296    1.780531   -0.000063
  H     -2.930469   -0.902359   -0.000029
  H     -3.112423    1.396661    0.000177
  H      2.923035   -1.008835    0.000069

 Total Charge           Charge          ....    0
 Multiplicity           Mult            ....    1
 Number of Electrons    NEL             ....   64
 Basis Dimension        Dim             ....  138

ORBITAL ENERGIES
----------------

  NO   OCC          E(Eh)            E(eV)
   0   2.0000     -18.799357      -511.5565
   1   2.0000     -18.746666      -510.1227
   2   2.0000      -9.971286      -271.3325
   3   2.0000      -9.968013      -271.2434
   4   2.0000      -9.913520      -269.7606
   5   2.0000      -9.911169      -269.6966
   6   2.0000      -9.910153      -269.6690
   7   2.0000      -9.906256      -269.5629
   8   2.0000      -9.901480      -269.4330
   9   2.0000      -0.981473       -26.7072
  10   2.0000      -0.937959       -25.5232
  11   2.0000      -0.789892       -21.4941
  12   2.0000      -0.699193       -19.0260
  13   2.0000      -0.684533       -18.6271
  14   2.0000      -0.599160       -16.3040
  15   2.0000      -0.568007       -15.4563
  16   2.0000      -0.540038       -14.6952
  17   2.0000      -0.482512       -13.1298
  18   2.0000      -0.463108       -12.6018
  19   2.0000      -0.442772       -12.0484
  20   2.0000      -0.403099       -10.9689
  21   2.0000      -0.396230       -10.7820
  22   2.0000      -0.385477       -10.4894
  23   2.0000      -0.374391       -10.1877
  24   2.0000      -0.355956        -9.6861
  25   2.0000      -0.345915        -9.4128
  26   2.0000      -0.342332        -9.3153
  27   2.0000      -0.311027        -8.4635
  28   2.0000      -0.307803        -8.3758
  29   2.0000      -0.244805        -6.6615
  30   2.0000      -0.214019        -5.8238
  31   2.0000      -0.205370        -5.5884
  32   0.0000      -0.096222        -2.6183
  33   0.0000      -0.038589        -1.0501
  34   0.0000       0.005085         0.1384
  35   0.0000       0.009903         0.2695
  36   0.0000       0.042842         1.1658

MULLIKEN ATOMIC CHARGES
-----------------------
   0 C :   -0.046404
   1 C :   -0.095657
   2 C :    0.097691
   3 C :   -0.183467
   4 C :    0.263687
   5 C :   -0.152458
   6 O :   -0.322715
   7 C :    0.035792
   8 O :   -0.159552
   9 H :    0.059908
  10 H :    0.050180
  11 H :    0.058483
  12 H :    0.038479
  13 H :    0.320612
  14 H :    0.035421
Sum of atomic charges:    0.0000000

LOEWDIN ATOMIC CHARGES
----------------------
   0 C :   -0.112754
   1 C :   -0.121036
   2 C :   -0.087927
   3 C :   -0.106724
   4 C :    0.022577
   5 C :   -0.154899
   6 O :   -0.223191
   7 C :    0.006541
   8 O :   -0.123870
   9 H :    0.128405
  10 H :    0.126863
  11 H :    0.141324
  12 H :    0.124104
  13 H :    0.300894
  14 H :    0.079693

  Mayer bond orders larger than 0.100000
B(  0-C ,  1-C ) :   1.3712 B(  0-C ,  5-C ) :   1.3715 B(  0-C ,  9-H ) :   0.9609
B(  1-C ,  2-C ) :   1.3089 B(  1-C , 10-H ) :   0.9621 B(  2-C ,  3-C ) :   1.3182
B(  2-C ,  7-C ) :   0.9908 B(  3-C ,  4-C ) :   1.3222 B(  3-C , 11-H ) :   0.9698
B(  4-C ,  5-C ) :   1.2927 B(  4-C ,  6-O ) :   1.2015 B(  5-C , 12-H ) :   0.9583
B(  6-O , 13-H ) :   0.8387 B(  7-C ,  8-O ) :   2.1463 B(  7-C , 14-H ) :   0.9176

Dispersion correction           -0.015440646
FINAL SINGLE POINT ENERGY      -419.924739293125

DIPOLE MOMENT
-------------

Method             : SCF
Type of density    : Electron Density
Multiplicity       :   1
Irrep              :   0
Energy             :  -419.9709683698107483 Eh
Relativity type    :
Basis              : AO
                                X                 Y                 Z
Electronic contribution:      1.334297721       2.767226436      -0.000193252
Nuclear contribution   :     -2.863896974      -3.711376090       0.000272591
                        -----------------------------------------
Total Dipole Moment    :     -1.529599253      -0.944149654       0.000079339
                        -----------------------------------------
Magnitude (a.u.)       :      1.797523978
Magnitude (Debye)      :      4.568942851

Rotational constants in cm-1:             0.098921             0.043332             0.030132
Rotational constants in MHz :          2965.575494          1299.052313           903.346759

                             ****ORCA TERMINATED NORMALLY****
TOTAL RUN TIME: 0 days 0 hours 0 minutes 7 seconds 851 msec
