                         Program Version 6.0.0  -   RELEASE  -
|  1> ! pbe def2-sv(p) def2/J RI DEFGRID1 loosescf d4 GCP(DFT/SV(P)) printgap
|  2> %output
|  3>     printlevel normal
|  4> end
|  5> * xyz 0 1
|  6> C -2.3650929157 0.8516491721 -0.2446124766
|  7> O -1.099811594 0.632341336 0.3922874105
|  8> C -0.434575236 -0.4755948488 0.1410657105
|  9> O -0.8037266777 -1.3687047147 -0.5844646926
| 10> C 0.8966038738 -0.4803573058 0.8864520015
| 11> C 1.8704982188 0.1690393599 0.0531486611
| 12> N 2.6335396544 0.6915682381 -0.6205985585
| 13> H -2.6670964091 -0.0416042069 -0.7913211885
| 14> H -2.2552420408 1.6943978207 -0.9248126569
| 15> H -3.0812160849 1.0876691986 0.5391907611
| 16> H 1.2104733147 -1.5096019857 1.0687287183
| 17> H 0.8000837081 0.0760148715 1.8202588725
| 18> *
| 19>
| 20>                          ****END OF INPUT****

CARTESIAN COORDINATES (ANGSTROEM)
---------------------------------
  C     -2.365093    0.851649   -0.244612
  O     -1.099812    0.632341    0.392287
  C     -0.434575   -0.475595    0.141066
  O     -0.803727   -1.368705   -0.584465
  C      0.896604   -0.480357    0.886452
  C      1.870498    0.169039    0.053149
  N      2.633540    0.691568   -0.620599
  H     -2.667096   -0.041604   -0.791321
  H     -2.255242    1.694398   -0.924813
  H     -3.081216    1.087669    0.539191
  H      1.210473   -1.509602    1.068729
  H      0.800084    0.076015    1.820259

 Total Charge           Charge          ....    0
 Multiplicity           Mult            ....    1
 Number of Electrons    NEL             ....   52
 Basis Dimension        Dim             ....  108

ORBITAL ENERGIES
----------------

  NO   OCC          E(Eh)            E(eV)
   0   2.0000     -18.828557      -512.3511
   1   2.0000     -18.761342      -510.5221
   2   2.0000     -13.990048      -380.6886
   3   2.0000     -10.037350      -273.1302
   4   2.0000      -9.957468      -270.9565
   5   2.0000      -9.952810      -270.8297
   6   2.0000      -9.937267      -270.4068
   7   2.0000      -1.034149       -28.1406
   8   2.0000      -0.939390       -25.5621
   9   2.0000      -0.825485       -22.4626
  10   2.0000      -0.743885       -20.2421
  11   2.0000      -0.675378       -18.3780
  12   2.0000      -0.538271       -14.6471
  13   2.0000      -0.498966       -13.5775
  14   2.0000      -0.479533       -13.0488
  15   2.0000      -0.451833       -12.2950
  16   2.0000      -0.440878       -11.9969
  17   2.0000      -0.412216       -11.2170
  18   2.0000      -0.392505       -10.6806
  19   2.0000      -0.368685       -10.0324
  20   2.0000      -0.326523        -8.8852
  21   2.0000      -0.305237        -8.3059
  22   2.0000      -0.304921        -8.2973
  23   2.0000      -0.300617        -8.1802
  24   2.0000      -0.280405        -7.6302
  25   2.0000      -0.246545        -6.7088
  26   0.0000      -0.051338        -1.3970
  27   0.0000      -0.002113        -0.0575
  28   0.0000       0.008818         0.2400
  29   0.0000       0.034914         0.9501
  30   0.0000       0.050398         1.3714

MULLIKEN ATOMIC CHARGES
-----------------------
   0 C :   -0.132321
   1 O :   -0.233402
   2 C :    0.097786
   3 O :   -0.178686
   4 C :   -0.051331
   5 C :   -0.272262
   6 N :    0.065993
   7 H :    0.141024
   8 H :    0.136665
   9 H :    0.131547
  10 H :    0.148743
  11 H :    0.146245
Sum of atomic charges:   -0.0000000

LOEWDIN ATOMIC CHARGES
----------------------
   0 C :   -0.203159
   1 O :   -0.059469
   2 C :    0.041516
   3 O :   -0.146389
   4 C :   -0.249986
   5 C :   -0.050221
   6 N :   -0.053271
   7 H :    0.128415
   8 H :    0.128300
   9 H :    0.125832
  10 H :    0.170985
  11 H :    0.167449

  Mayer bond orders larger than 0.100000
B(  0-C ,  1-O ) :   0.9203 B(  0-C ,  7-H ) :   0.9300 B(  0-C ,  8-H ) :   0.9583
B(  0-C ,  9-H ) :   0.9600 B(  1-O ,  2-C ) :   1.2362 B(  1-O ,  3-O ) :   0.1059
B(  2-C ,  3-O ) :   2.0973 B(  2-C ,  4-C ) :   0.9501 B(  4-C ,  5-C ) :   1.1795
B(  4-C , 10-H ) :   0.8664 B(  4-C , 11-H ) :   0.8695 B(  5-C ,  6-N ) :   3.0593

Dispersion correction           -0.008706491
FINAL SINGLE POINT ENERGY      -359.877363544256

DIPOLE MOMENT
-------------

Method             : SCF
Type of density    : Electron Density
Multiplicity       :   1
Irrep              :   0
Energy             :  -359.9202481861503884 Eh
Relativity type    :
Basis              : AO
                                X                 Y                 Z
Electronic contribution:      4.414483038      -1.099667434      -0.600922553
Nuclear contribution   :     -5.636195627       1.218969370       1.599929896
                        -----------------------------------------
Total Dipole Moment    :     -1.221712590       0.119301936       0.999007343
                        -----------------------------------------
Magnitude (a.u.)       :      1.582665560
Magnitude (Debye)      :      4.022816156

Rotational constants in cm-1:             0.179276             0.055823             0.050178
Rotational constants in MHz :          5374.562130          1673.526152          1504.294548

                             ****ORCA TERMINATED NORMALLY****
TOTAL RUN TIME: 0 days 0 hours 0 minutes 5 seconds 859 msec
