                         Program Version 6.0.0  -   RELEASE  -
|  1> ! wb97x-v def2-tzvp def2/J RIJCOSX DEFGRID2 scfconv7 GCP(DFT/TZ) printgap
|  2> %output
|  3>     printlevel normal
|  4> end
|  5> * xyz 0 1
|  6> C 2.5102402661169227 -5.4552543456541517e-05 -0.08095343055872566
|  7> C 1.0227786971791286 -0.0008891961519042348 0.32533356315270984
|  8> C 0.2971185801358494 1.254536749487986 -0.17528945697458542
|  9> C -1.1810110570094754 1.2602823125739966 0.21784632607968196
| 10> C -1.8900387523831408 0.0006789329566574973 -0.28327016473762884
| 11> C -1.1814279548548015 -1.260181236234099 0.21519896581012546
| 12> C 0.29660111329808053 -1.2546945988505744 -0.1783451350460367
| 13> H 3.1735978720827007 0.02443233104796823 0.7889902448089604
| 14> H 2.7673796688139216 -0.8929692549968814 -0.661193945384428
| 15> H 2.7550808834078993 0.8692603074724166 -0.7010999374576127
| 16> H 0.9514727626150107 -0.0023933714841372833 1.4227583458289763
| 17> H 0.79872409739894 2.149962982776521 0.2137543989329021
| 18> H 0.3836427682679719 1.2928283025113794 -1.271668911835425
| 19> H -1.2630173645449256 1.307715065125996 1.3129473246508914
| 20> H -1.6733736004352335 2.157126663362987 -0.17695397424249795
| 21> H -2.9381884175622086 0.0005069024260581283 0.03861285210528692
| 22> H -1.8920233545293548 0.001769742426130539 -1.3823855469078647
| 23> H -1.2627820818062738 -1.3093128357128523 1.310308620235572
| 24> H -1.674526276615393 -2.156145278566425 -0.18067433833938884
| 25> H 0.7975203768767566 -2.150995009766092 0.20946068377487928
| 26> H 0.3832662776760203 -1.291298763764954 -1.2747795110170899
| 27> *
| 28>
| 29>                          ****END OF INPUT****

CARTESIAN COORDINATES (ANGSTROEM)
---------------------------------
  C      2.510240   -0.000055   -0.080953
  C      1.022779   -0.000889    0.325334
  C      0.297119    1.254537   -0.175289
  C     -1.181011    1.260282    0.217846
  C     -1.890039    0.000679   -0.283270
  C     -1.181428   -1.260181    0.215199
  C      0.296601   -1.254695   -0.178345
  H      3.173598    0.024432    0.788990
  H      2.767380   -0.892969   -0.661194
  H      2.755081    0.869260   -0.701100
  H      0.951473   -0.002393    1.422758
  H      0.798724    2.149963    0.213754
  H      0.383643    1.292828   -1.271669
  H     -1.263017    1.307715    1.312947
  H     -1.673374    2.157127   -0.176954
  H     -2.938188    0.000507    0.038613
  H     -1.892023    0.001770   -1.382386
  H     -1.262782   -1.309313    1.310309
  H     -1.674526   -2.156145   -0.180674
  H      0.797520   -2.150995    0.209461
  H      0.383266   -1.291299   -1.274780

 Total Charge           Charge          ....    0
 Multiplicity           Mult            ....    1
 Number of Electrons    NEL             ....   56
 Basis Dimension        Dim             ....  301

ORBITAL ENERGIES
----------------

  NO   OCC          E(Eh)            E(eV)
   0   2.0000     -12.041934      -327.6777
   1   2.0000     -12.035390      -327.4996
   2   2.0000     -12.035021      -327.4896
   3   2.0000     -12.034056      -327.4633
   4   2.0000     -12.033408      -327.4457
   5   2.0000     -12.033111      -327.4376
   6   2.0000     -12.028468      -327.3112
   7   2.0000      -1.338295       -36.4169
   8   2.0000      -1.264883       -34.4192
   9   2.0000      -1.242928       -33.8218
  10   2.0000      -1.167423       -31.7672
  11   2.0000      -1.092493       -29.7282
  12   2.0000      -1.066586       -29.0233
  13   2.0000      -1.002060       -27.2674
  14   2.0000      -0.903578       -24.5876
  15   2.0000      -0.877107       -23.8673
  16   2.0000      -0.868020       -23.6200
  17   2.0000      -0.866775       -23.5861
  18   2.0000      -0.852809       -23.2061
  19   2.0000      -0.819768       -22.3070
  20   2.0000      -0.813340       -22.1321
  21   2.0000      -0.803757       -21.8713
  22   2.0000      -0.791571       -21.5398
  23   2.0000      -0.769141       -20.9294
  24   2.0000      -0.759663       -20.6715
  25   2.0000      -0.749530       -20.3957
  26   2.0000      -0.737232       -20.0611
  27   2.0000      -0.724016       -19.7015
  28   0.0000      -0.039588        -1.0772
  29   0.0000      -0.026890        -0.7317
  30   0.0000      -0.022452        -0.6110
  31   0.0000      -0.022166        -0.6032
  32   0.0000      -0.012046        -0.3278

MULLIKEN ATOMIC CHARGES
-----------------------
   0 C :   -0.376683
   1 C :    0.040830
   2 C :   -0.241608
   3 C :   -0.171655
   4 C :   -0.184514
   5 C :   -0.171510
   6 C :   -0.242126
   7 H :    0.110361
   8 H :    0.114545
   9 H :    0.114310
  10 H :    0.063999
  11 H :    0.102470
  12 H :    0.093027
  13 H :    0.086187
  14 H :    0.098251
  15 H :    0.099712
  16 H :    0.084472
  17 H :    0.086212
  18 H :    0.098223
  19 H :    0.102302
  20 H :    0.093196
Sum of atomic charges:    0.0000000

LOEWDIN ATOMIC CHARGES
----------------------
   0 C :   -0.279299
   1 C :   -0.275750
   2 C :   -0.244169
   3 C :   -0.259927
   4 C :   -0.261624
   5 C :   -0.259902
   6 C :   -0.244231
   7 H :    0.115597
   8 H :    0.119300
   9 H :    0.119371
  10 H :    0.145978
  11 H :    0.132651
  12 H :    0.135077
  13 H :    0.132980
  14 H :    0.130315
  15 H :    0.129948
  16 H :    0.132679
  17 H :    0.133009
  18 H :    0.130302
  19 H :    0.132560
  20 H :    0.135136

  Mayer bond orders larger than 0.100000
B(  0-C ,  1-C ) :   0.9095 B(  0-C ,  7-H ) :   0.9828 B(  0-C ,  8-H ) :   0.9860
B(  0-C ,  9-H ) :   0.9853 B(  1-C ,  2-C ) :   0.9808 B(  1-C ,  6-C ) :   0.9805
B(  1-C , 10-H ) :   0.9763 B(  2-C ,  3-C ) :   0.9900 B(  2-C , 11-H ) :   0.9756
B(  2-C , 12-H ) :   0.9712 B(  3-C ,  4-C ) :   0.9905 B(  3-C , 13-H ) :   0.9753
B(  3-C , 14-H ) :   0.9760 B(  4-C ,  5-C ) :   0.9904 B(  4-C , 15-H ) :   0.9768
B(  4-C , 16-H ) :   0.9749 B(  5-C ,  6-C ) :   0.9901 B(  5-C , 17-H ) :   0.9753
B(  5-C , 18-H ) :   0.9760 B(  6-C , 19-H ) :   0.9752 B(  6-C , 20-H ) :   0.9719

FINAL SINGLE POINT ENERGY      -275.199895504062

DIPOLE MOMENT
-------------

Method             : SCF
Type of density    : Electron Density
Multiplicity       :   1
Irrep              :   0
Energy             :  -275.2147783132616041 Eh
Relativity type    :
Basis              : AO
                                X                 Y                 Z
Electronic contribution:     -1.282520270      -0.000779534       0.380501487
Nuclear contribution   :      1.251804551       0.000908545      -0.347817719
                        -----------------------------------------
Total Dipole Moment    :     -0.030715719       0.000129011       0.032683769
                        -----------------------------------------
Magnitude (a.u.)       :      0.044851987
Magnitude (Debye)      :      0.114004692

Rotational constants in cm-1:             0.140879             0.072477             0.052841
Rotational constants in MHz :          4223.450360          2172.791218          1584.124631

                             ****ORCA TERMINATED NORMALLY****
TOTAL RUN TIME: 0 days 0 hours 2 minutes 59 seconds 13 msec
