                         Program Version 6.0.0  -   RELEASE  -
|  1> ! wb97x-v def2-tzvp def2/J RIJCOSX DEFGRID2 scfconv7 GCP(DFT/TZ) printgap
|  2> %output
|  3>     printlevel normal
|  4> end
|  5> %cpcm
|  6>     smd true
|  7>     smdsolvent "water"
|  8> end
|  9> * xyz 0 1
| 10> C 2.5102402661169227 -5.4552543456541517e-05 -0.08095343055872566
| 11> C 1.0227786971791286 -0.0008891961519042348 0.32533356315270984
| 12> C 0.2971185801358494 1.254536749487986 -0.17528945697458542
| 13> C -1.1810110570094754 1.2602823125739966 0.21784632607968196
| 14> C -1.8900387523831408 0.0006789329566574973 -0.28327016473762884
| 15> C -1.1814279548548015 -1.260181236234099 0.21519896581012546
| 16> C 0.29660111329808053 -1.2546945988505744 -0.1783451350460367
| 17> H 3.1735978720827007 0.02443233104796823 0.7889902448089604
| 18> H 2.7673796688139216 -0.8929692549968814 -0.661193945384428
| 19> H 2.7550808834078993 0.8692603074724166 -0.7010999374576127
| 20> H 0.9514727626150107 -0.0023933714841372833 1.4227583458289763
| 21> H 0.79872409739894 2.149962982776521 0.2137543989329021
| 22> H 0.3836427682679719 1.2928283025113794 -1.271668911835425
| 23> H -1.2630173645449256 1.307715065125996 1.3129473246508914
| 24> H -1.6733736004352335 2.157126663362987 -0.17695397424249795
| 25> H -2.9381884175622086 0.0005069024260581283 0.03861285210528692
| 26> H -1.8920233545293548 0.001769742426130539 -1.3823855469078647
| 27> H -1.2627820818062738 -1.3093128357128523 1.310308620235572
| 28> H -1.674526276615393 -2.156145278566425 -0.18067433833938884
| 29> H 0.7975203768767566 -2.150995009766092 0.20946068377487928
| 30> H 0.3832662776760203 -1.291298763764954 -1.2747795110170899
| 31> *
| 32>
| 33>                          ****END OF INPUT****

CARTESIAN COORDINATES (ANGSTROEM)
---------------------------------
  C      2.510240   -0.000055   -0.080953
  C      1.022779   -0.000889    0.325334
  C      0.297119    1.254537   -0.175289
  C     -1.181011    1.260282    0.217846
  C     -1.890039    0.000679   -0.283270
  C     -1.181428   -1.260181    0.215199
  C      0.296601   -1.254695   -0.178345
  H      3.173598    0.024432    0.788990
  H      2.767380   -0.892969   -0.661194
  H      2.755081    0.869260   -0.701100
  H      0.951473   -0.002393    1.422758
  H      0.798724    2.149963    0.213754
  H      0.383643    1.292828   -1.271669
  H     -1.263017    1.307715    1.312947
  H     -1.673374    2.157127   -0.176954
  H     -2.938188    0.000507    0.038613
  H     -1.892023    0.001770   -1.382386
  H     -1.262782   -1.309313    1.310309
  H     -1.674526   -2.156145   -0.180674
  H      0.797520   -2.150995    0.209461
  H      0.383266   -1.291299   -1.274780

 Total Charge           Charge          ....    0
 Multiplicity           Mult            ....    1
 Number of Electrons    NEL             ....   56
 Basis Dimension        Dim             ....  301

ORBITAL ENERGIES
----------------

  NO   OCC          E(Eh)            E(eV)
   0   2.0000     -12.034069      -327.4637
   1   2.0000     -12.027653      -327.2891
   2   2.0000     -12.027182      -327.2763
   3   2.0000     -12.026238      -327.2506
   4   2.0000     -12.025392      -327.2275
   5   2.0000     -12.025137      -327.2206
   6   2.0000     -12.021299      -327.1162
   7   2.0000      -1.330562       -36.2064
   8   2.0000      -1.257465       -34.2174
   9   2.0000      -1.235301       -33.6143
  10   2.0000      -1.160439       -31.5772
  11   2.0000      -1.084899       -29.5216
  12   2.0000      -1.059303       -28.8251
  13   2.0000      -0.994296       -27.0562
  14   2.0000      -0.896081       -24.3836
  15   2.0000      -0.869438       -23.6586
  16   2.0000      -0.860248       -23.4085
  17   2.0000      -0.859187       -23.3797
  18   2.0000      -0.845393       -23.0043
  19   2.0000      -0.812502       -22.1093
  20   2.0000      -0.805727       -21.9250
  21   2.0000      -0.796427       -21.6719
  22   2.0000      -0.784565       -21.3491
  23   2.0000      -0.761144       -20.7118
  24   2.0000      -0.752038       -20.4640
  25   2.0000      -0.741986       -20.1905
  26   2.0000      -0.729644       -19.8546
  27   2.0000      -0.715956       -19.4822
  28   0.0000      -0.031997        -0.8707
  29   0.0000      -0.018519        -0.5039
  30   0.0000      -0.014995        -0.4080
  31   0.0000      -0.014734        -0.4009
  32   0.0000      -0.004702        -0.1279

MULLIKEN ATOMIC CHARGES
-----------------------
   0 C :   -0.431324
   1 C :    0.041949
   2 C :   -0.261097
   3 C :   -0.193585
   4 C :   -0.207102
   5 C :   -0.193400
   6 C :   -0.261530
   7 H :    0.126206
   8 H :    0.128337
   9 H :    0.128091
  10 H :    0.075280
  11 H :    0.112673
  12 H :    0.102380
  13 H :    0.096453
  14 H :    0.109575
  15 H :    0.111437
  16 H :    0.094606
  17 H :    0.096484
  18 H :    0.109549
  19 H :    0.112630
  20 H :    0.102389
Sum of atomic charges:    0.0000000

LOEWDIN ATOMIC CHARGES
----------------------
   0 C :   -0.286568
   1 C :   -0.276024
   2 C :   -0.246481
   3 C :   -0.263327
   4 C :   -0.265032
   5 C :   -0.263303
   6 C :   -0.246540
   7 H :    0.117604
   8 H :    0.120872
   9 H :    0.120934
  10 H :    0.148269
  11 H :    0.133860
  12 H :    0.136818
  13 H :    0.134784
  14 H :    0.131531
  15 H :    0.131195
  16 H :    0.134438
  17 H :    0.134817
  18 H :    0.131517
  19 H :    0.133807
  20 H :    0.136829

  Mayer bond orders larger than 0.100000
B(  0-C ,  1-C ) :   0.8962 B(  0-C ,  7-H ) :   0.9815 B(  0-C ,  8-H ) :   0.9841
B(  0-C ,  9-H ) :   0.9834 B(  1-C ,  2-C ) :   0.9809 B(  1-C ,  6-C ) :   0.9805
B(  1-C , 10-H ) :   0.9766 B(  2-C ,  3-C ) :   0.9891 B(  2-C , 11-H ) :   0.9738
B(  2-C , 12-H ) :   0.9701 B(  3-C ,  4-C ) :   0.9896 B(  3-C , 13-H ) :   0.9742
B(  3-C , 14-H ) :   0.9744 B(  4-C ,  5-C ) :   0.9895 B(  4-C , 15-H ) :   0.9749
B(  4-C , 16-H ) :   0.9736 B(  5-C ,  6-C ) :   0.9890 B(  5-C , 17-H ) :   0.9742
B(  5-C , 18-H ) :   0.9743 B(  6-C , 19-H ) :   0.9734 B(  6-C , 20-H ) :   0.9707

FINAL SINGLE POINT ENERGY      -275.197276818714

DIPOLE MOMENT
-------------

Method             : SCF
Type of density    : Electron Density
Multiplicity       :   1
Irrep              :   0
Energy             :  -275.2121596279142182 Eh
Relativity type    :
Basis              : AO
                                X                 Y                 Z
Electronic contribution:     -1.282001552      -0.000899798       0.389302063
Nuclear contribution   :      1.251804551       0.000908545      -0.347817719
                        -----------------------------------------
Total Dipole Moment    :     -0.030197001       0.000008747       0.041484344
                        -----------------------------------------
Magnitude (a.u.)       :      0.051310912
Magnitude (Debye)      :      0.130421974

Rotational constants in cm-1:             0.140879             0.072477             0.052841
Rotational constants in MHz :          4223.450360          2172.791218          1584.124631

                             ****ORCA TERMINATED NORMALLY****
TOTAL RUN TIME: 0 days 0 hours 2 minutes 47 seconds 482 msec
