                         Program Version 6.0.0  -   RELEASE  -
|  1> ! pbe def2-sv(p) def2/J RI DEFGRID1 loosescf d4 GCP(DFT/SV(P)) printgap
|  2> %output
|  3>     printlevel normal
|  4> end
|  5> * xyz 0 1
|  6> C -2.5512067959 -0.6566511751 -0.361225668
|  7> C -1.1708516217 -0.3115749144 0.2120635899
|  8> H -1.2254244347 -0.2622035739 1.3112398702
|  9> C -0.697443668 1.0573715712 -0.3007527184
| 10> H -0.7023954949 1.0496928508 -1.4018412196
| 11> C 0.7400993393 1.3243873908 0.1663241324
| 12> H 0.7486829899 1.4201955928 1.2640594015
| 13> C 1.6429420952 0.1506497583 -0.220221724
| 14> H 1.6954998297 0.0866402716 -1.3184337411
| 15> C 1.0310750057 -1.1575047805 0.3237387033
| 16> H 1.0304462953 -1.1093407816 1.4281553925
| 17> O -0.2694309661 -1.3324968564 -0.1707342457
| 18> O 1.7918127817 -2.2567716729 -0.0382470379
| 19> O 2.9190856031 0.3793459327 0.3224865663
| 20> O 1.1601566362 2.5294091396 -0.424875567
| 21> O -1.5789834274 2.0333293954 0.1863913218
| 22> O -3.1628620981 -1.7505532764 0.2672016814
| 23> H -2.4298652722 -0.9442579673 -1.4070196629
| 24> H -3.1745789785 0.2421710615 -0.2964622109
| 25> H 1.4303751652 -2.6303428702 -0.8574016511
| 26> H 3.447162376 -0.4289729088 0.2372058008
| 27> H 2.0951394006 2.667669719 -0.2134178206
| 28> H -1.2239984159 2.9053545044 -0.0467198614
| 29> H -3.3581271167 -1.5292469297 1.1889052351
| 30> *
| 31>
| 32>                          ****END OF INPUT****

CARTESIAN COORDINATES (ANGSTROEM)
---------------------------------
  C     -2.551207   -0.656651   -0.361226
  C     -1.170852   -0.311575    0.212064
  H     -1.225424   -0.262204    1.311240
  C     -0.697444    1.057372   -0.300753
  H     -0.702395    1.049693   -1.401841
  C      0.740099    1.324387    0.166324
  H      0.748683    1.420196    1.264059
  C      1.642942    0.150650   -0.220222
  H      1.695500    0.086640   -1.318434
  C      1.031075   -1.157505    0.323739
  H      1.030446   -1.109341    1.428155
  O     -0.269431   -1.332497   -0.170734
  O      1.791813   -2.256772   -0.038247
  O      2.919086    0.379346    0.322487
  O      1.160157    2.529409   -0.424876
  O     -1.578983    2.033329    0.186391
  O     -3.162862   -1.750553    0.267202
  H     -2.429865   -0.944258   -1.407020
  H     -3.174579    0.242171   -0.296462
  H      1.430375   -2.630343   -0.857402
  H      3.447162   -0.428973    0.237206
  H      2.095139    2.667670   -0.213418
  H     -1.223998    2.905355   -0.046720
  H     -3.358127   -1.529247    1.188905

 Total Charge           Charge          ....    0
 Multiplicity           Mult            ....    1
 Number of Electrons    NEL             ....   96
 Basis Dimension        Dim             ....  192

ORBITAL ENERGIES
----------------

  NO   OCC          E(Eh)            E(eV)
   0   2.0000     -18.778422      -510.9869
   1   2.0000     -18.768374      -510.7134
   2   2.0000     -18.760933      -510.5109
   3   2.0000     -18.758285      -510.4389
   4   2.0000     -18.756359      -510.3865
   5   2.0000     -18.744105      -510.0530
   6   2.0000      -9.990733      -271.8617
   7   2.0000      -9.949123      -270.7294
   8   2.0000      -9.946483      -270.6576
   9   2.0000      -9.944793      -270.6116
  10   2.0000      -9.940969      -270.5075
  11   2.0000      -9.929552      -270.1969
  12   2.0000      -0.992508       -27.0075
  13   2.0000      -0.949648       -25.8412
  14   2.0000      -0.939591       -25.5676
  15   2.0000      -0.925128       -25.1740
  16   2.0000      -0.920186       -25.0395
  17   2.0000      -0.915413       -24.9097
  18   2.0000      -0.708773       -19.2867
  19   2.0000      -0.694114       -18.8878
  20   2.0000      -0.615867       -16.7586
  21   2.0000      -0.587529       -15.9875
  22   2.0000      -0.563018       -15.3205
  23   2.0000      -0.539743       -14.6872
  24   2.0000      -0.510623       -13.8948
  25   2.0000      -0.491091       -13.3633
  26   2.0000      -0.477972       -13.0063
  27   2.0000      -0.457735       -12.4556
  28   2.0000      -0.450259       -12.2522
  29   2.0000      -0.438322       -11.9274
  30   2.0000      -0.417200       -11.3526
  31   2.0000      -0.397972       -10.8294
  32   2.0000      -0.396257       -10.7827
  33   2.0000      -0.378865       -10.3094
  34   2.0000      -0.362809        -9.8725
  35   2.0000      -0.346289        -9.4230
  36   2.0000      -0.331498        -9.0205
  37   2.0000      -0.323372        -8.7994
  38   2.0000      -0.311981        -8.4894
  39   2.0000      -0.298287        -8.1168
  40   2.0000      -0.291729        -7.9384
  41   2.0000      -0.273024        -7.4293
  42   2.0000      -0.258022        -7.0211
  43   2.0000      -0.244927        -6.6648
  44   2.0000      -0.232308        -6.3214
  45   2.0000      -0.225220        -6.1286
  46   2.0000      -0.212806        -5.7907
  47   2.0000      -0.207023        -5.6334
  48   0.0000       0.015184         0.4132
  49   0.0000       0.028486         0.7751
  50   0.0000       0.031204         0.8491
  51   0.0000       0.042832         1.1655
  52   0.0000       0.059668         1.6237

MULLIKEN ATOMIC CHARGES
-----------------------
   0 C :    0.090353
   1 C :    0.006565
   2 H :    0.044597
   3 C :    0.041849
   4 H :    0.057390
   5 C :    0.068534
   6 H :    0.054023
   7 C :    0.044606
   8 H :    0.041173
   9 C :    0.180810
  10 H :    0.050783
  11 O :   -0.301454
  12 O :   -0.394270
  13 O :   -0.426162
  14 O :   -0.426611
  15 O :   -0.418816
  16 O :   -0.429097
  17 H :    0.080858
  18 H :    0.093948
  19 H :    0.310035
  20 H :    0.308412
  21 H :    0.314470
  22 H :    0.312822
  23 H :    0.295183
Sum of atomic charges:   -0.0000000

LOEWDIN ATOMIC CHARGES
----------------------
   0 C :   -0.127332
   1 C :   -0.063786
   2 H :    0.101606
   3 C :   -0.066896
   4 H :    0.105695
   5 C :   -0.077243
   6 H :    0.104492
   7 C :   -0.100990
   8 H :    0.099862
   9 C :   -0.001013
  10 H :    0.094434
  11 O :   -0.142224
  12 O :   -0.302103
  13 O :   -0.326260
  14 O :   -0.325783
  15 O :   -0.317232
  16 O :   -0.331234
  17 H :    0.118157
  18 H :    0.108188
  19 H :    0.293158
  20 H :    0.288742
  21 H :    0.292908
  22 H :    0.291704
  23 H :    0.283150

  Mayer bond orders larger than 0.100000
B(  0-C ,  1-C ) :   1.0381 B(  0-C , 16-O ) :   1.0903 B(  0-C , 17-H ) :   0.9041
B(  0-C , 18-H ) :   0.9165 B(  1-C ,  2-H ) :   0.8687 B(  1-C ,  3-C ) :   1.0001
B(  1-C , 11-O ) :   0.9890 B(  3-C ,  4-H ) :   0.8727 B(  3-C ,  5-C ) :   1.0195
B(  3-C , 15-O ) :   1.0591 B(  5-C ,  6-H ) :   0.8740 B(  5-C ,  7-C ) :   1.0031
B(  5-C , 14-O ) :   1.0810 B(  7-C ,  8-H ) :   0.8598 B(  7-C ,  9-C ) :   0.9752
B(  7-C , 13-O ) :   1.0696 B(  9-C , 10-H ) :   0.8789 B(  9-C , 11-O ) :   1.0273
B(  9-C , 12-O ) :   1.1187 B( 12-O , 19-H ) :   0.8377 B( 13-O , 20-H ) :   0.8323
B( 14-O , 21-H ) :   0.8365 B( 15-O , 22-H ) :   0.8345 B( 16-O , 23-H ) :   0.8538

Dispersion correction           -0.023545848
FINAL SINGLE POINT ENERGY      -685.700240678512

DIPOLE MOMENT
-------------

Method             : SCF
Type of density    : Electron Density
Multiplicity       :   1
Irrep              :   0
Energy             :  -685.8300913374615675 Eh
Relativity type    :
Basis              : AO
                                X                 Y                 Z
Electronic contribution:      2.053284818      -1.018231704       0.087339263
Nuclear contribution   :     -1.551270889       1.370740060      -0.102715229
                        -----------------------------------------
Total Dipole Moment    :      0.502013929       0.352508356      -0.015375966
                        -----------------------------------------
Magnitude (a.u.)       :      0.613609441
Magnitude (Debye)      :      1.559671250

Rotational constants in cm-1:             0.039636             0.025569             0.016290
Rotational constants in MHz :          1188.264959           766.528682           488.370323

                             ****ORCA TERMINATED NORMALLY****
TOTAL RUN TIME: 0 days 0 hours 0 minutes 12 seconds 226 msec
