                         Program Version 6.0.0  -   RELEASE  -
|  1> ! wb97x-v def2-tzvp def2/J RIJCOSX DEFGRID2 scfconv7 GCP(DFT/TZ) printgap
|  2> %output
|  3>     printlevel normal
|  4> end
|  5> * xyz 0 1
|  6> C -2.7665912350017847 0.10026379954703564 -0.6480199437265166
|  7> O -1.3243661979111698 -0.10521882623868464 -0.7724240271763838
|  8> C -0.6164694060580831 0.15614739135626932 0.30993847065887997
|  9> O -1.0136010035936212 0.5358599718137507 1.3849697200114233
| 10> C 0.8845028371929132 -0.09152464347757136 0.016538205524834104
| 11> F 1.3136880532486193 0.7043115231614244 -0.9833459186864851
| 12> F 1.6203159314646634 0.16566513561222732 1.1037398032532502
| 13> F 1.1005330129692286 -1.370563640407658 -0.3488781396280235
| 14> H -3.15694599520892 -0.54002221863372 0.14479936648728226
| 15> H -3.174960286690085 -0.18192607951333112 -1.6159710177277742
| 16> H -2.962739629948866 1.1516372361625673 -0.4305247418748278
| 17> *
| 18>
| 19>                          ****END OF INPUT****

CARTESIAN COORDINATES (ANGSTROEM)
---------------------------------
  C     -2.766591    0.100264   -0.648020
  O     -1.324366   -0.105219   -0.772424
  C     -0.616469    0.156147    0.309938
  O     -1.013601    0.535860    1.384970
  C      0.884503   -0.091525    0.016538
  F      1.313688    0.704312   -0.983346
  F      1.620316    0.165665    1.103740
  F      1.100533   -1.370564   -0.348878
  H     -3.156946   -0.540022    0.144799
  H     -3.174960   -0.181926   -1.615971
  H     -2.962740    1.151637   -0.430525

 Total Charge           Charge          ....    0
 Multiplicity           Mult            ....    1
 Number of Electrons    NEL             ....   64
 Basis Dimension        Dim             ....  266

ORBITAL ENERGIES
----------------

  NO   OCC          E(Eh)            E(eV)
   0   2.0000     -27.613287      -751.3957
   1   2.0000     -27.613084      -751.3902
   2   2.0000     -27.610936      -751.3318
   3   2.0000     -21.759156      -592.0967
   4   2.0000     -21.698564      -590.4479
   5   2.0000     -12.320496      -335.2577
   6   2.0000     -12.218951      -332.4946
   7   2.0000     -12.131599      -330.1176
   8   2.0000      -2.076366       -56.5008
   9   2.0000      -2.026980       -55.1569
  10   2.0000      -2.026820       -55.1526
  11   2.0000      -1.804786       -49.1107
  12   2.0000      -1.740680       -47.3663
  13   2.0000      -1.406013       -38.2596
  14   2.0000      -1.321878       -35.9701
  15   2.0000      -1.271971       -34.6121
  16   2.0000      -1.271607       -34.6022
  17   2.0000      -1.227844       -33.4113
  18   2.0000      -1.176946       -32.0263
  19   2.0000      -1.176804       -32.0225
  20   2.0000      -1.163192       -31.6521
  21   2.0000      -1.162266       -31.6269
  22   2.0000      -1.161198       -31.5978
  23   2.0000      -1.159555       -31.5531
  24   2.0000      -1.105351       -30.0781
  25   2.0000      -1.082293       -29.4507
  26   2.0000      -1.035435       -28.1756
  27   2.0000      -0.995592       -27.0914
  28   2.0000      -0.936981       -25.4965
  29   2.0000      -0.915649       -24.9161
  30   2.0000      -0.872275       -23.7358
  31   2.0000      -0.857549       -23.3351
  32   0.0000      -0.383177       -10.4268
  33   0.0000      -0.290468        -7.9040
  34   0.0000      -0.260388        -7.0855
  35   0.0000      -0.202298        -5.5048
  36   0.0000      -0.187446        -5.1007

MULLIKEN ATOMIC CHARGES
-----------------------
   0 C :   -0.192816
   1 O :   -0.210661
   2 C :    0.255198
   3 O :   -0.294274
   4 C :    0.445425
   5 F :   -0.149083
   6 F :   -0.134766
   7 F :   -0.148782
   8 H :    0.143421
   9 H :    0.143860
  10 H :    0.142478
Sum of atomic charges:   -0.0000000

LOEWDIN ATOMIC CHARGES
----------------------
   0 C :   -0.258074
   1 O :    0.260998
   2 C :   -0.471436
   3 O :    0.137374
   4 C :   -0.630782
   5 F :    0.196837
   6 F :    0.218835
   7 F :    0.197361
   8 H :    0.116564
   9 H :    0.115896
  10 H :    0.116426

  Mayer bond orders larger than 0.100000
B(  0-C ,  1-O ) :   0.8778 B(  0-C ,  8-H ) :   0.9737 B(  0-C ,  9-H ) :   0.9693
B(  0-C , 10-H ) :   0.9740 B(  1-O ,  2-C ) :   1.2495 B(  2-C ,  3-O ) :   2.0615
B(  2-C ,  4-C ) :   0.9517 B(  4-C ,  5-F ) :   1.1579 B(  4-C ,  6-F ) :   1.2012
B(  4-C ,  7-F ) :   1.1588

FINAL SINGLE POINT ENERGY      -566.156943040964

DIPOLE MOMENT
-------------

Method             : SCF
Type of density    : Electron Density
Multiplicity       :   1
Irrep              :   0
Energy             :  -566.1707112098641801 Eh
Relativity type    :
Basis              : AO
                                X                 Y                 Z
Electronic contribution:     11.393932154      -0.949467382       0.937054647
Nuclear contribution   :    -12.492660687       0.873407806      -1.563208208
                        -----------------------------------------
Total Dipole Moment    :     -1.098728533      -0.076059576      -0.626153561
                        -----------------------------------------
Magnitude (a.u.)       :      1.266908730
Magnitude (Debye)      :      3.220226075

Rotational constants in cm-1:             0.118718             0.050234             0.043897
Rotational constants in MHz :          3559.073922          1505.967209          1316.003998

                             ****ORCA TERMINATED NORMALLY****
TOTAL RUN TIME: 0 days 0 hours 1 minutes 25 seconds 791 msec
