                         Program Version 6.0.0  -   RELEASE  -
|  1> ! wb97x-v def2-tzvp def2/J RIJCOSX DEFGRID2 scfconv7 GCP(DFT/TZ) printgap
|  2> %output
|  3>     printlevel normal
|  4> end
|  5> %cpcm
|  6>     smd true
|  7>     smdsolvent "water"
|  8> end
|  9> * xyz 0 1
| 10> C -2.7665912350017847 0.10026379954703564 -0.6480199437265166
| 11> O -1.3243661979111698 -0.10521882623868464 -0.7724240271763838
| 12> C -0.6164694060580831 0.15614739135626932 0.30993847065887997
| 13> O -1.0136010035936212 0.5358599718137507 1.3849697200114233
| 14> C 0.8845028371929132 -0.09152464347757136 0.016538205524834104
| 15> F 1.3136880532486193 0.7043115231614244 -0.9833459186864851
| 16> F 1.6203159314646634 0.16566513561222732 1.1037398032532502
| 17> F 1.1005330129692286 -1.370563640407658 -0.3488781396280235
| 18> H -3.15694599520892 -0.54002221863372 0.14479936648728226
| 19> H -3.174960286690085 -0.18192607951333112 -1.6159710177277742
| 20> H -2.962739629948866 1.1516372361625673 -0.4305247418748278
| 21> *
| 22>
| 23>                          ****END OF INPUT****

CARTESIAN COORDINATES (ANGSTROEM)
---------------------------------
  C     -2.766591    0.100264   -0.648020
  O     -1.324366   -0.105219   -0.772424
  C     -0.616469    0.156147    0.309938
  O     -1.013601    0.535860    1.384970
  C      0.884503   -0.091525    0.016538
  F      1.313688    0.704312   -0.983346
  F      1.620316    0.165665    1.103740
  F      1.100533   -1.370564   -0.348878
  H     -3.156946   -0.540022    0.144799
  H     -3.174960   -0.181926   -1.615971
  H     -2.962740    1.151637   -0.430525

 Total Charge           Charge          ....    0
 Multiplicity           Mult            ....    1
 Number of Electrons    NEL             ....   64
 Basis Dimension        Dim             ....  266

ORBITAL ENERGIES
----------------

  NO   OCC          E(Eh)            E(eV)
   0   2.0000     -27.617274      -751.5042
   1   2.0000     -27.616651      -751.4873
   2   2.0000     -27.616490      -751.4829
   3   2.0000     -21.750841      -591.8705
   4   2.0000     -21.699562      -590.4751
   5   2.0000     -12.323294      -335.3339
   6   2.0000     -12.219941      -332.5215
   7   2.0000     -12.104041      -329.3677
   8   2.0000      -2.080663       -56.6177
   9   2.0000      -2.032376       -55.3038
  10   2.0000      -2.030151       -55.2432
  11   2.0000      -1.798866       -48.9496
  12   2.0000      -1.739453       -47.3329
  13   2.0000      -1.409139       -38.3446
  14   2.0000      -1.311003       -35.6742
  15   2.0000      -1.277183       -34.7539
  16   2.0000      -1.275396       -34.7053
  17   2.0000      -1.227436       -33.4002
  18   2.0000      -1.181426       -32.1482
  19   2.0000      -1.181397       -32.1474
  20   2.0000      -1.168144       -31.7868
  21   2.0000      -1.166679       -31.7470
  22   2.0000      -1.164107       -31.6770
  23   2.0000      -1.155423       -31.4407
  24   2.0000      -1.102484       -30.0001
  25   2.0000      -1.078633       -29.3511
  26   2.0000      -1.024934       -27.8899
  27   2.0000      -0.985707       -26.8225
  28   2.0000      -0.938930       -25.5496
  29   2.0000      -0.918613       -24.9967
  30   2.0000      -0.845274       -23.0011
  31   2.0000      -0.831853       -22.6359
  32   0.0000      -0.380719       -10.3599
  33   0.0000      -0.293384        -7.9834
  34   0.0000      -0.258288        -7.0284
  35   0.0000      -0.188410        -5.1269
  36   0.0000      -0.187568        -5.1040

MULLIKEN ATOMIC CHARGES
-----------------------
   0 C :   -0.223192
   1 O :   -0.224796
   2 C :    0.347150
   3 O :   -0.388670
   4 C :    0.449134
   5 F :   -0.154095
   6 F :   -0.149556
   7 F :   -0.153743
   8 H :    0.164422
   9 H :    0.168620
  10 H :    0.164725
Sum of atomic charges:   -0.0000000

LOEWDIN ATOMIC CHARGES
----------------------
   0 C :   -0.248621
   1 O :    0.262597
   2 C :   -0.451180
   3 O :    0.090720
   4 C :   -0.624276
   5 F :    0.194438
   6 F :    0.210898
   7 F :    0.195026
   8 H :    0.122758
   9 H :    0.124688
  10 H :    0.122951

  Mayer bond orders larger than 0.100000
B(  0-C ,  1-O ) :   0.8485 B(  0-C ,  8-H ) :   0.9679 B(  0-C ,  9-H ) :   0.9638
B(  0-C , 10-H ) :   0.9680 B(  1-O ,  2-C ) :   1.2760 B(  2-C ,  3-O ) :   1.9702
B(  2-C ,  4-C ) :   0.9556 B(  4-C ,  5-F ) :   1.1575 B(  4-C ,  6-F ) :   1.1818
B(  4-C ,  7-F ) :   1.1585

FINAL SINGLE POINT ENERGY      -566.158579453234

DIPOLE MOMENT
-------------

Method             : SCF
Type of density    : Electron Density
Multiplicity       :   1
Irrep              :   0
Energy             :  -566.1723476221336568 Eh
Relativity type    :
Basis              : AO
                                X                 Y                 Z
Electronic contribution:     11.186724028      -0.995399943       0.716358108
Nuclear contribution   :    -12.492660687       0.873407806      -1.563208208
                        -----------------------------------------
Total Dipole Moment    :     -1.305936659      -0.121992137      -0.846850099
                        -----------------------------------------
Magnitude (a.u.)       :      1.561251975
Magnitude (Debye)      :      3.968387147

Rotational constants in cm-1:             0.118718             0.050234             0.043897
Rotational constants in MHz :          3559.073922          1505.967209          1316.003998

                             ****ORCA TERMINATED NORMALLY****
TOTAL RUN TIME: 0 days 0 hours 1 minutes 21 seconds 702 msec
