                         Program Version 6.0.0  -   RELEASE  -
|  1> ! pbe def2-sv(p) def2/J RI DEFGRID1 loosescf d4 GCP(DFT/SV(P)) printgap
|  2> %output
|  3>     printlevel normal
|  4> end
|  5> * xyz 0 1
|  6> C -3.4179665091 0.5931569695 0.0634911045
|  7> C -1.9229347436 0.4980820503 0.0731584919
|  8> C -1.1285744895 1.5063757704 -0.26021642
|  9> C 0.3668852456 1.4493599407 -0.2655063041
| 10> C 0.8712003137 0.0014220163 -0.2885257534
| 11> H 0.6224185263 -0.4202621769 -1.2690037612
| 12> C 0.1241421325 -0.7904833239 0.7868381408
| 13> C -1.37412239 -0.855653041 0.4706841592
| 14> H -1.9144153566 -1.2125363361 1.3569418432
| 15> O -1.6733286863 -1.8386526335 -0.5145970665
| 16> C 2.3711184605 -0.0583789525 -0.1316566126
| 17> C 3.1543359428 -0.2920467669 -1.1739404805
| 18> C 2.9328511832 0.1668715244 1.238930231
| 19> H -3.836370384 -0.2604507148 -0.4677726646
| 20> H -3.750484813 1.5120933491 -0.411015878
| 21> H -3.7994303728 0.565866367 1.0839134413
| 22> H -1.5618961927 2.4599000869 -0.5323937497
| 23> H 0.754065568 1.9902652525 -1.1321239311
| 24> H 0.7398563699 1.9617907544 0.6265382193
| 25> H 0.5115466874 -1.8094206892 0.8500547975
| 26> H 0.2486443688 -0.3074113801 1.75581534
| 27> H -1.2159678814 -1.6044983918 -1.3335370674
| 28> H 4.2273359085 -0.3192968559 -1.0854962657
| 29> H 2.7579124696 -0.4667268705 -2.1603275291
| 30> H 2.700828467 -0.6798635483 1.8829947316
| 31> H 4.0126290784 0.2786390931 1.1943077298
| 32> H 2.5068863842 1.0586715885 1.6934113226
| 33> *
| 34>
| 35>                          ****END OF INPUT****

CARTESIAN COORDINATES (ANGSTROEM)
---------------------------------
  C     -3.417967    0.593157    0.063491
  C     -1.922935    0.498082    0.073158
  C     -1.128574    1.506376   -0.260216
  C      0.366885    1.449360   -0.265506
  C      0.871200    0.001422   -0.288526
  H      0.622419   -0.420262   -1.269004
  C      0.124142   -0.790483    0.786838
  C     -1.374122   -0.855653    0.470684
  H     -1.914415   -1.212536    1.356942
  O     -1.673329   -1.838653   -0.514597
  C      2.371118   -0.058379   -0.131657
  C      3.154336   -0.292047   -1.173940
  C      2.932851    0.166872    1.238930
  H     -3.836370   -0.260451   -0.467773
  H     -3.750485    1.512093   -0.411016
  H     -3.799430    0.565866    1.083913
  H     -1.561896    2.459900   -0.532394
  H      0.754066    1.990265   -1.132124
  H      0.739856    1.961791    0.626538
  H      0.511547   -1.809421    0.850055
  H      0.248644   -0.307411    1.755815
  H     -1.215968   -1.604498   -1.333537
  H      4.227336   -0.319297   -1.085496
  H      2.757912   -0.466727   -2.160328
  H      2.700828   -0.679864    1.882995
  H      4.012629    0.278639    1.194308
  H      2.506886    1.058672    1.693411

 Total Charge           Charge          ....    0
 Multiplicity           Mult            ....    1
 Number of Electrons    NEL             ....   84
 Basis Dimension        Dim             ....  186

ORBITAL ENERGIES
----------------

  NO   OCC          E(Eh)            E(eV)
   0   2.0000     -18.742366      -510.0057
   1   2.0000      -9.937305      -270.4078
   2   2.0000      -9.903399      -269.4852
   3   2.0000      -9.901075      -269.4219
   4   2.0000      -9.893067      -269.2040
   5   2.0000      -9.891824      -269.1702
   6   2.0000      -9.885966      -269.0108
   7   2.0000      -9.885029      -268.9853
   8   2.0000      -9.883220      -268.9361
   9   2.0000      -9.875532      -268.7269
  10   2.0000      -9.869676      -268.5675
  11   2.0000      -0.918858       -25.0034
  12   2.0000      -0.767231       -20.8774
  13   2.0000      -0.724352       -19.7106
  14   2.0000      -0.678506       -18.4631
  15   2.0000      -0.662430       -18.0256
  16   2.0000      -0.618202       -16.8221
  17   2.0000      -0.604693       -16.4545
  18   2.0000      -0.562247       -15.2995
  19   2.0000      -0.536379       -14.5956
  20   2.0000      -0.488775       -13.3003
  21   2.0000      -0.467930       -12.7330
  22   2.0000      -0.434356       -11.8194
  23   2.0000      -0.422937       -11.5087
  24   2.0000      -0.404550       -11.0084
  25   2.0000      -0.402066       -10.9408
  26   2.0000      -0.389175       -10.5900
  27   2.0000      -0.378794       -10.3075
  28   2.0000      -0.372912       -10.1475
  29   2.0000      -0.368882       -10.0378
  30   2.0000      -0.358559        -9.7569
  31   2.0000      -0.346975        -9.4417
  32   2.0000      -0.328387        -8.9359
  33   2.0000      -0.325455        -8.8561
  34   2.0000      -0.316745        -8.6191
  35   2.0000      -0.304388        -8.2828
  36   2.0000      -0.294908        -8.0249
  37   2.0000      -0.278090        -7.5672
  38   2.0000      -0.267436        -7.2773
  39   2.0000      -0.221532        -6.0282
  40   2.0000      -0.216423        -5.8892
  41   2.0000      -0.208820        -5.6823
  42   0.0000      -0.018780        -0.5110
  43   0.0000      -0.009343        -0.2542
  44   0.0000       0.025751         0.7007
  45   0.0000       0.040448         1.1006
  46   0.0000       0.057643         1.5685

MULLIKEN ATOMIC CHARGES
-----------------------
   0 C :   -0.205763
   1 C :   -0.094845
   2 C :   -0.172673
   3 C :   -0.049498
   4 C :   -0.192297
   5 H :    0.040174
   6 C :   -0.096128
   7 C :    0.111921
   8 H :    0.061111
   9 O :   -0.432938
  10 C :   -0.009338
  11 C :   -0.230785
  12 C :   -0.226172
  13 H :    0.112314
  14 H :    0.096109
  15 H :    0.104408
  16 H :    0.042673
  17 H :    0.089083
  18 H :    0.094220
  19 H :    0.090257
  20 H :    0.082669
  21 H :    0.295938
  22 H :    0.079134
  23 H :    0.081912
  24 H :    0.119688
  25 H :    0.099069
  26 H :    0.109758
Sum of atomic charges:   -0.0000000

LOEWDIN ATOMIC CHARGES
----------------------
   0 C :   -0.324119
   1 C :   -0.084185
   2 C :   -0.146436
   3 C :   -0.207618
   4 C :   -0.129546
   5 H :    0.109855
   6 C :   -0.223303
   7 C :   -0.036092
   8 H :    0.116103
   9 O :   -0.322648
  10 C :   -0.047673
  11 C :   -0.266746
  12 C :   -0.323663
  13 H :    0.129596
  14 H :    0.121276
  15 H :    0.127800
  16 H :    0.117086
  17 H :    0.126551
  18 H :    0.126912
  19 H :    0.122786
  20 H :    0.122325
  21 H :    0.277425
  22 H :    0.116238
  23 H :    0.115502
  24 H :    0.132475
  25 H :    0.126153
  26 H :    0.123945

  Mayer bond orders larger than 0.100000
B(  0-C ,  1-C ) :   1.1187 B(  0-C , 13-H ) :   0.9269 B(  0-C , 14-H ) :   0.9453
B(  0-C , 15-H ) :   0.9293 B(  1-C ,  2-C ) :   1.9122 B(  1-C ,  7-C ) :   0.9905
B(  2-C ,  3-C ) :   1.0418 B(  2-C , 16-H ) :   0.9234 B(  3-C ,  4-C ) :   1.0778
B(  3-C , 17-H ) :   0.9045 B(  3-C , 18-H ) :   0.8806 B(  4-C ,  5-H ) :   0.8790
B(  4-C ,  6-C ) :   1.0493 B(  4-C , 10-C ) :   1.0094 B(  6-C ,  7-C ) :   1.0662
B(  6-C , 19-H ) :   0.9101 B(  6-C , 20-H ) :   0.8854 B(  7-C ,  8-H ) :   0.8879
B(  7-C ,  9-O ) :   1.0131 B(  9-O , 21-H ) :   0.8469 B( 10-C , 11-C ) :   2.0415
B( 10-C , 12-C ) :   1.1151 B( 11-C , 22-H ) :   0.9023 B( 11-C , 23-H ) :   0.9091
B( 12-C , 24-H ) :   0.9207 B( 12-C , 25-H ) :   0.9347 B( 12-C , 26-H ) :   0.9288

Dispersion correction           -0.028363166
FINAL SINGLE POINT ENERGY      -464.795308766472

DIPOLE MOMENT
-------------

Method             : SCF
Type of density    : Electron Density
Multiplicity       :   1
Irrep              :   0
Energy             :  -464.8854228350056701 Eh
Relativity type    :
Basis              : AO
                                X                 Y                 Z
Electronic contribution:     -2.539239825      -2.074249604      -1.837981658
Nuclear contribution   :      2.793024994       2.549652930       1.917774530
                        -----------------------------------------
Total Dipole Moment    :      0.253785169       0.475403326       0.079792872
                        -----------------------------------------
Magnitude (a.u.)       :      0.544777144
Magnitude (Debye)      :      1.384713454

Rotational constants in cm-1:             0.071266             0.022293             0.020184
Rotational constants in MHz :          2136.495530           668.334868           605.089586

                             ****ORCA TERMINATED NORMALLY****
TOTAL RUN TIME: 0 days 0 hours 0 minutes 12 seconds 456 msec
