                         Program Version 6.0.0  -   RELEASE  -
|  1> ! r2scan-3c def2/J RI DEFGRID2 scfconv6 printgap
|  2> %output
|  3>     printlevel normal
|  4> end
|  5> * xyz 0 1
|  6> C -0.732283552 -1.2043162522 0.0001080238
|  7> C 0.6510970526 -1.209107027 -2.58057e-05
|  8> C 1.3185145304 -0.0013727335 4.04048e-05
|  9> C 0.6521388306 1.2092269097 9.75488e-05
| 10> C -0.7283801708 1.2053516105 0.0001314481
| 11> C -1.4301773484 0.0002539906 0.0001920462
| 12> O -2.7824972344 0.0568140752 -0.0001837095
| 13> F 2.6886140891 -0.0029075241 -0.0001058016
| 14> H -1.2653774695 -2.1425075498 9.05309e-05
| 15> H 1.2070349783 -2.1322751795 -1.23846e-05
| 16> H 1.2092908335 2.1314412258 -0.0006686107
| 17> H -1.2844051417 2.1283220842 -0.000397322
| 18> H -3.1694135769 -0.8324425454 -0.0005802847
| 19> *
| 20>
| 21>                          ****END OF INPUT****

CARTESIAN COORDINATES (ANGSTROEM)
---------------------------------
  C     -0.732284   -1.204316    0.000108
  C      0.651097   -1.209107   -0.000026
  C      1.318515   -0.001373    0.000040
  C      0.652139    1.209227    0.000098
  C     -0.728380    1.205352    0.000131
  C     -1.430177    0.000254    0.000192
  O     -2.782497    0.056814   -0.000184
  F      2.688614   -0.002908   -0.000106
  H     -1.265377   -2.142508    0.000091
  H      1.207035   -2.132275   -0.000012
  H      1.209291    2.131441   -0.000669
  H     -1.284405    2.128322   -0.000397
  H     -3.169414   -0.832443   -0.000580

 Total Charge           Charge          ....    0
 Multiplicity           Mult            ....    1
 Number of Electrons    NEL             ....   58
 Basis Dimension        Dim             ....  187

ORBITAL ENERGIES
----------------

  NO   OCC          E(Eh)            E(eV)
   0   2.0000     -24.488689      -666.3711
   1   2.0000     -18.993240      -516.8323
   2   2.0000     -10.115000      -275.2432
   3   2.0000     -10.105386      -274.9815
   4   2.0000     -10.049400      -273.4581
   5   2.0000     -10.048841      -273.4429
   6   2.0000     -10.047883      -273.4168
   7   2.0000     -10.044294      -273.3191
   8   2.0000      -1.170732       -31.8572
   9   2.0000      -1.039327       -28.2815
  10   2.0000      -0.835893       -22.7458
  11   2.0000      -0.736915       -20.0525
  12   2.0000      -0.714931       -19.4543
  13   2.0000      -0.612825       -16.6758
  14   2.0000      -0.588066       -16.0021
  15   2.0000      -0.531584       -14.4651
  16   2.0000      -0.507024       -13.7968
  17   2.0000      -0.469135       -12.7658
  18   2.0000      -0.427334       -11.6284
  19   2.0000      -0.420960       -11.4549
  20   2.0000      -0.410811       -11.1787
  21   2.0000      -0.398959       -10.8562
  22   2.0000      -0.386890       -10.5278
  23   2.0000      -0.376140       -10.2353
  24   2.0000      -0.341110        -9.2821
  25   2.0000      -0.316899        -8.6233
  26   2.0000      -0.310350        -8.4450
  27   2.0000      -0.252755        -6.8778
  28   2.0000      -0.206116        -5.6087
  29   0.0000      -0.046748        -1.2721
  30   0.0000      -0.017160        -0.4669
  31   0.0000       0.048563         1.3215
  32   0.0000       0.064783         1.7628
  33   0.0000       0.104447         2.8421

MULLIKEN ATOMIC CHARGES
-----------------------
   0 C :   -0.293810
   1 C :   -0.234502
   2 C :    0.334655
   3 C :   -0.223703
   4 C :   -0.260891
   5 C :    0.395912
   6 O :   -0.413802
   7 F :   -0.251148
   8 H :    0.141828
   9 H :    0.164673
  10 H :    0.165618
  11 H :    0.161959
  12 H :    0.313210
Sum of atomic charges:   -0.0000000

LOEWDIN ATOMIC CHARGES
----------------------
   0 C :   -0.160743
   1 C :   -0.146337
   2 C :    0.198138
   3 C :   -0.143939
   4 C :   -0.129796
   5 C :    0.175299
   6 O :   -0.496550
   7 F :   -0.301742
   8 H :    0.170984
   9 H :    0.182746
  10 H :    0.183144
  11 H :    0.182640
  12 H :    0.286156

  Mayer bond orders larger than 0.100000
B(  0-C ,  1-C ) :   1.3627 B(  0-C ,  5-C ) :   1.3548 B(  0-C ,  8-H ) :   0.9334
B(  1-C ,  2-C ) :   1.4606 B(  1-C ,  9-H ) :   0.9225 B(  2-C ,  3-C ) :   1.4354
B(  2-C ,  7-F ) :   0.8601 B(  3-C ,  4-C ) :   1.3551 B(  3-C , 10-H ) :   0.9300
B(  4-C ,  5-C ) :   1.4320 B(  4-C ,  6-O ) :   0.1008 B(  4-C , 11-H ) :   0.9416
B(  5-C ,  6-O ) :   0.9162 B(  6-O , 12-H ) :   0.8829

Dispersion correction           -0.003872137
FINAL SINGLE POINT ENERGY      -406.641639899085

DIPOLE MOMENT
-------------

Method             : SCF
Type of density    : Electron Density
Multiplicity       :   1
Irrep              :   0
Energy             :  -406.6419583778079527 Eh
Relativity type    :
Basis              : AO
                                X                 Y                 Z
Electronic contribution:      4.920577503       0.288760945       0.000799841
Nuclear contribution   :     -5.630910490      -0.791532241      -0.001375821
                        -----------------------------------------
Total Dipole Moment    :     -0.710332988      -0.502771296      -0.000575980
                        -----------------------------------------
Magnitude (a.u.)       :      0.870259881
Magnitude (Debye)      :      2.212024825

Rotational constants in cm-1:             0.189202             0.048721             0.038744
Rotational constants in MHz :          5672.119256          1460.613019          1161.514411

                             ****ORCA TERMINATED NORMALLY****
TOTAL RUN TIME: 0 days 0 hours 0 minutes 20 seconds 179 msec
