                         Program Version 6.0.0  -   RELEASE  -
|  1> ! pbe def2-sv(p) def2/J RI DEFGRID1 loosescf d4 GCP(DFT/SV(P)) printgap
|  2> %output
|  3>     printlevel normal
|  4> end
|  5> * xyz 0 1
|  6> C -3.2627967479 0.2760790073 -0.2458884315
|  7> C -1.8587236965 0.5771960071 0.2925580881
|  8> H -1.9638692669 0.9492162276 1.3177282193
|  9> C -1.1223243675 1.6076167942 -0.5640648851
| 10> C 0.371284559 1.5304084321 -0.2656555977
| 11> C 0.9570245617 0.2181616569 -0.8078379486
| 12> H 1.1976729437 0.3604657571 -1.8654685274
| 13> C -0.0834477919 -0.92766329 -0.7218561365
| 14> C -1.0888787616 -0.7223927384 0.3707675547
| 15> O -1.3051665839 -1.5492181328 1.2385028212
| 16> C 2.2305035259 -0.1766516225 -0.0993785133
| 17> C 3.364566027 -0.3184488634 -0.768705145
| 18> C 2.1549604874 -0.4117748199 1.3798650145
| 19> H -3.7565982688 -0.4599476588 0.38434728
| 20> H -3.8555705717 1.186475903 -0.2562624143
| 21> H -3.2067769964 -0.116224532 -1.2587715046
| 22> H -1.2975232095 1.4156665308 -1.6236047013
| 23> H -1.5043198127 2.6037372024 -0.3387902313
| 24> H 0.9000228435 2.3714292733 -0.7146313858
| 25> H 0.5093156462 1.5861199062 0.8149739571
| 26> H -0.6500573837 -0.9565357929 -1.6544241684
| 27> H 0.4149809435 -1.8896237491 -0.5942577107
| 28> H 4.2788311593 -0.6102236578 -0.2804012692
| 29> H 3.4285821763 -0.1441560547 -1.8292586565
| 30> H 2.9993510351 -1.0082983927 1.7143950474
| 31> H 2.1821419079 0.5356425111 1.9174928602
| 32> H 1.2342096013 -0.9244320356 1.6503860516
| 33> *
| 34>
| 35>                          ****END OF INPUT****

CARTESIAN COORDINATES (ANGSTROEM)
---------------------------------
  C     -3.262797    0.276079   -0.245888
  C     -1.858724    0.577196    0.292558
  H     -1.963869    0.949216    1.317728
  C     -1.122324    1.607617   -0.564065
  C      0.371285    1.530408   -0.265656
  C      0.957025    0.218162   -0.807838
  H      1.197673    0.360466   -1.865469
  C     -0.083448   -0.927663   -0.721856
  C     -1.088879   -0.722393    0.370768
  O     -1.305167   -1.549218    1.238503
  C      2.230504   -0.176652   -0.099379
  C      3.364566   -0.318449   -0.768705
  C      2.154960   -0.411775    1.379865
  H     -3.756598   -0.459948    0.384347
  H     -3.855571    1.186476   -0.256262
  H     -3.206777   -0.116225   -1.258772
  H     -1.297523    1.415667   -1.623605
  H     -1.504320    2.603737   -0.338790
  H      0.900023    2.371429   -0.714631
  H      0.509316    1.586120    0.814974
  H     -0.650057   -0.956536   -1.654424
  H      0.414981   -1.889624   -0.594258
  H      4.278831   -0.610224   -0.280401
  H      3.428582   -0.144156   -1.829259
  H      2.999351   -1.008298    1.714395
  H      2.182142    0.535643    1.917493
  H      1.234210   -0.924432    1.650386

 Total Charge           Charge          ....    0
 Multiplicity           Mult            ....    1
 Number of Electrons    NEL             ....   84
 Basis Dimension        Dim             ....  186

ORBITAL ENERGIES
----------------

  NO   OCC          E(Eh)            E(eV)
   0   2.0000     -18.738893      -509.9112
   1   2.0000      -9.970635      -271.3148
   2   2.0000      -9.908933      -269.6358
   3   2.0000      -9.903115      -269.4775
   4   2.0000      -9.901295      -269.4279
   5   2.0000      -9.895241      -269.2632
   6   2.0000      -9.895097      -269.2593
   7   2.0000      -9.894042      -269.2306
   8   2.0000      -9.889079      -269.0955
   9   2.0000      -9.880076      -268.8505
  10   2.0000      -9.874032      -268.6861
  11   2.0000      -0.933896       -25.4126
  12   2.0000      -0.774704       -21.0808
  13   2.0000      -0.730803       -19.8862
  14   2.0000      -0.683498       -18.5989
  15   2.0000      -0.663621       -18.0580
  16   2.0000      -0.618239       -16.8231
  17   2.0000      -0.604612       -16.4523
  18   2.0000      -0.556051       -15.1309
  19   2.0000      -0.536309       -14.5937
  20   2.0000      -0.476886       -12.9767
  21   2.0000      -0.467746       -12.7280
  22   2.0000      -0.441475       -12.0132
  23   2.0000      -0.423428       -11.5221
  24   2.0000      -0.409866       -11.1530
  25   2.0000      -0.399894       -10.8817
  26   2.0000      -0.392078       -10.6690
  27   2.0000      -0.378809       -10.3079
  28   2.0000      -0.368985       -10.0406
  29   2.0000      -0.357549        -9.7294
  30   2.0000      -0.354444        -9.6449
  31   2.0000      -0.349393        -9.5075
  32   2.0000      -0.338756        -9.2180
  33   2.0000      -0.326666        -8.8890
  34   2.0000      -0.324636        -8.8338
  35   2.0000      -0.318080        -8.6554
  36   2.0000      -0.305052        -8.3009
  37   2.0000      -0.289357        -7.8738
  38   2.0000      -0.283367        -7.7108
  39   2.0000      -0.276886        -7.5345
  40   2.0000      -0.219643        -5.9768
  41   2.0000      -0.191716        -5.2169
  42   0.0000      -0.056144        -1.5278
  43   0.0000      -0.013026        -0.3544
  44   0.0000       0.024971         0.6795
  45   0.0000       0.042928         1.1681
  46   0.0000       0.054760         1.4901

MULLIKEN ATOMIC CHARGES
-----------------------
   0 C :   -0.221477
   1 C :   -0.195042
   2 H :    0.085837
   3 C :   -0.087014
   4 C :   -0.103829
   5 C :   -0.142171
   6 H :    0.054012
   7 C :   -0.064648
   8 C :   -0.011203
   9 O :   -0.170204
  10 C :   -0.044592
  11 C :   -0.232891
  12 C :   -0.245710
  13 H :    0.118790
  14 H :    0.108958
  15 H :    0.095905
  16 H :    0.069072
  17 H :    0.088481
  18 H :    0.090031
  19 H :    0.083203
  20 H :    0.100082
  21 H :    0.102273
  22 H :    0.081537
  23 H :    0.083309
  24 H :    0.102418
  25 H :    0.121469
  26 H :    0.133401
Sum of atomic charges:   -0.0000000

LOEWDIN ATOMIC CHARGES
----------------------
   0 C :   -0.315750
   1 C :   -0.173237
   2 H :    0.134406
   3 C :   -0.218290
   4 C :   -0.215965
   5 C :   -0.120970
   6 H :    0.121261
   7 C :   -0.234012
   8 C :    0.049588
   9 O :   -0.134901
  10 C :   -0.049040
  11 C :   -0.265846
  12 C :   -0.331940
  13 H :    0.127877
  14 H :    0.123317
  15 H :    0.117492
  16 H :    0.115534
  17 H :    0.122633
  18 H :    0.123718
  19 H :    0.119880
  20 H :    0.142870
  21 H :    0.134667
  22 H :    0.116861
  23 H :    0.115897
  24 H :    0.129123
  25 H :    0.132206
  26 H :    0.132621

  Mayer bond orders larger than 0.100000
B(  0-C ,  1-C ) :   1.1001 B(  0-C , 13-H ) :   0.9440 B(  0-C , 14-H ) :   0.9471
B(  0-C , 15-H ) :   0.9441 B(  1-C ,  2-H ) :   0.8717 B(  1-C ,  3-C ) :   1.0727
B(  1-C ,  8-C ) :   0.9428 B(  3-C ,  4-C ) :   1.1735 B(  3-C , 16-H ) :   0.8894
B(  3-C , 17-H ) :   0.9082 B(  4-C ,  5-C ) :   1.1002 B(  4-C , 18-H ) :   0.9140
B(  4-C , 19-H ) :   0.8918 B(  5-C ,  6-H ) :   0.8660 B(  5-C ,  7-C ) :   1.0410
B(  5-C , 10-C ) :   1.0249 B(  7-C ,  8-C ) :   1.0881 B(  7-C , 20-H ) :   0.8628
B(  7-C , 21-H ) :   0.8960 B(  8-C ,  9-O ) :   2.1416 B( 10-C , 11-C ) :   2.0350
B( 10-C , 12-C ) :   1.1081 B( 11-C , 22-H ) :   0.9080 B( 11-C , 23-H ) :   0.9095
B( 12-C , 24-H ) :   0.9335 B( 12-C , 25-H ) :   0.9201 B( 12-C , 26-H ) :   0.9176

Dispersion correction           -0.029057436
FINAL SINGLE POINT ENERGY      -464.824603699732

DIPOLE MOMENT
-------------

Method             : SCF
Type of density    : Electron Density
Multiplicity       :   1
Irrep              :   0
Energy             :  -464.9104165652350957 Eh
Relativity type    :
Basis              : AO
                                X                 Y                 Z
Electronic contribution:     -0.844200841      -3.780501017       1.826833260
Nuclear contribution   :      0.834745995       4.573397081      -2.436391524
                        -----------------------------------------
Total Dipole Moment    :     -0.009454846       0.792896063      -0.609558264
                        -----------------------------------------
Magnitude (a.u.)       :      1.000167405
Magnitude (Debye)      :      2.542223511

Rotational constants in cm-1:             0.067288             0.025530             0.021892
Rotational constants in MHz :          2017.234413           765.363550           656.308422

                             ****ORCA TERMINATED NORMALLY****
TOTAL RUN TIME: 0 days 0 hours 0 minutes 17 seconds 574 msec
