                         Program Version 6.0.0  -   RELEASE  -
|  1> ! r2scan-3c def2/J RI DEFGRID2 scfconv6 printgap
|  2> %output
|  3>     printlevel normal
|  4> end
|  5> * xyz 0 1
|  6> C -1.2045914805 -0.2547264984 0.0160241256
|  7> N -5.76772e-05 0.5474469218 -0.0862038837
|  8> C 1.2045767776 -0.2546832028 0.0159971332
|  9> H -1.2348743311 -0.945019972 -0.8272029703
| 10> H -2.0719502223 0.39954312 -0.0366421469
| 11> H -1.2581870115 -0.8444037855 0.9445168295
| 12> H -8.84785e-05 1.2415974827 0.6552523183
| 13> H 2.0716012151 0.3998844878 -0.0356335476
| 14> H 1.2357210825 -0.9441010316 -0.828036431
| 15> H 1.2587544496 -0.8448338905 0.9440968407
| 16> *
| 17>
| 18>                          ****END OF INPUT****

CARTESIAN COORDINATES (ANGSTROEM)
---------------------------------
  C     -1.204591   -0.254726    0.016024
  N     -0.000058    0.547447   -0.086204
  C      1.204577   -0.254683    0.015997
  H     -1.234874   -0.945020   -0.827203
  H     -2.071950    0.399543   -0.036642
  H     -1.258187   -0.844404    0.944517
  H     -0.000088    1.241597    0.655252
  H      2.071601    0.399884   -0.035634
  H      1.235721   -0.944101   -0.828036
  H      1.258754   -0.844834    0.944097

 Total Charge           Charge          ....    0
 Multiplicity           Mult            ....    1
 Number of Electrons    NEL             ....   26
 Basis Dimension        Dim             ....   97

ORBITAL ENERGIES
----------------

  NO   OCC          E(Eh)            E(eV)
   0   2.0000     -14.140800      -384.7907
   1   2.0000     -10.041665      -273.2476
   2   2.0000     -10.041662      -273.2475
   3   2.0000      -0.864218       -23.5166
   4   2.0000      -0.664933       -18.0937
   5   2.0000      -0.590933       -16.0801
   6   2.0000      -0.455623       -12.3981
   7   2.0000      -0.408208       -11.1079
   8   2.0000      -0.402495       -10.9524
   9   2.0000      -0.353431        -9.6173
  10   2.0000      -0.331764        -9.0278
  11   2.0000      -0.328711        -8.9447
  12   2.0000      -0.189448        -5.1551
  13   0.0000       0.068989         1.8773
  14   0.0000       0.123708         3.3663
  15   0.0000       0.134683         3.6649
  16   0.0000       0.139340         3.7916
  17   0.0000       0.169881         4.6227

MULLIKEN ATOMIC CHARGES
-----------------------
   0 C :   -0.342927
   1 N :   -0.353062
   2 C :   -0.342898
   3 H :    0.141719
   4 H :    0.142917
   5 H :    0.119297
   6 H :    0.231052
   7 H :    0.142898
   8 H :    0.141743
   9 H :    0.119261
Sum of atomic charges:    0.0000000

LOEWDIN ATOMIC CHARGES
----------------------
   0 C :   -0.161630
   1 N :   -0.882342
   2 C :   -0.161665
   3 H :    0.168995
   4 H :    0.169690
   5 H :    0.144059
   6 H :    0.240204
   7 H :    0.169675
   8 H :    0.168998
   9 H :    0.144015

  Mayer bond orders larger than 0.100000
B(  0-C ,  1-N ) :   0.9440 B(  0-C ,  3-H ) :   0.9737 B(  0-C ,  4-H ) :   0.9766
B(  0-C ,  5-H ) :   0.9544 B(  1-N ,  2-C ) :   0.9441 B(  1-N ,  6-H ) :   0.9130
B(  2-C ,  7-H ) :   0.9767 B(  2-C ,  8-H ) :   0.9737 B(  2-C ,  9-H ) :   0.9544

Dispersion correction           -0.001492787
FINAL SINGLE POINT ENERGY      -135.110138574789

DIPOLE MOMENT
-------------

Method             : SCF
Type of density    : Electron Density
Multiplicity       :   1
Irrep              :   0
Energy             :  -135.1189514688584836 Eh
Relativity type    :
Basis              : AO
                                X                 Y                 Z
Electronic contribution:     -0.000792464       1.328704024      -0.382943587
Nuclear contribution   :      0.000915998      -1.439266311       0.765401906
                        -----------------------------------------
Total Dipole Moment    :      0.000123533      -0.110562287       0.382458319
                        -----------------------------------------
Magnitude (a.u.)       :      0.398118575
Magnitude (Debye)      :      1.011936998

Rotational constants in cm-1:             1.155159             0.315078             0.277959
Rotational constants in MHz :         34630.781587          9445.803773          8333.000932

                             ****ORCA TERMINATED NORMALLY****
TOTAL RUN TIME: 0 days 0 hours 0 minutes 8 seconds 320 msec
