                         Program Version 6.0.0  -   RELEASE  -
|  1> ! r2scan-3c def2/J RI DEFGRID2 scfconv6 printgap
|  2> %output
|  3>     printlevel normal
|  4> end
|  5> %cpcm
|  6>     smd true
|  7>     smdsolvent "water"
|  8> end
|  9> * xyz 0 1
| 10> C -1.2045914805 -0.2547264984 0.0160241256
| 11> N -5.76772e-05 0.5474469218 -0.0862038837
| 12> C 1.2045767776 -0.2546832028 0.0159971332
| 13> H -1.2348743311 -0.945019972 -0.8272029703
| 14> H -2.0719502223 0.39954312 -0.0366421469
| 15> H -1.2581870115 -0.8444037855 0.9445168295
| 16> H -8.84785e-05 1.2415974827 0.6552523183
| 17> H 2.0716012151 0.3998844878 -0.0356335476
| 18> H 1.2357210825 -0.9441010316 -0.828036431
| 19> H 1.2587544496 -0.8448338905 0.9440968407
| 20> *
| 21>
| 22>                          ****END OF INPUT****

CARTESIAN COORDINATES (ANGSTROEM)
---------------------------------
  C     -1.204591   -0.254726    0.016024
  N     -0.000058    0.547447   -0.086204
  C      1.204577   -0.254683    0.015997
  H     -1.234874   -0.945020   -0.827203
  H     -2.071950    0.399543   -0.036642
  H     -1.258187   -0.844404    0.944517
  H     -0.000088    1.241597    0.655252
  H      2.071601    0.399884   -0.035634
  H      1.235721   -0.944101   -0.828036
  H      1.258754   -0.844834    0.944097

 Total Charge           Charge          ....    0
 Multiplicity           Mult            ....    1
 Number of Electrons    NEL             ....   26
 Basis Dimension        Dim             ....   97

ORBITAL ENERGIES
----------------

  NO   OCC          E(Eh)            E(eV)
   0   2.0000     -14.136504      -384.6738
   1   2.0000     -10.034250      -273.0458
   2   2.0000     -10.034245      -273.0457
   3   2.0000      -0.859193       -23.3798
   4   2.0000      -0.658661       -17.9231
   5   2.0000      -0.584171       -15.8961
   6   2.0000      -0.448925       -12.2159
   7   2.0000      -0.402866       -10.9625
   8   2.0000      -0.396770       -10.7967
   9   2.0000      -0.346367        -9.4251
  10   2.0000      -0.324248        -8.8232
  11   2.0000      -0.321525        -8.7491
  12   2.0000      -0.189702        -5.1621
  13   0.0000       0.078252         2.1294
  14   0.0000       0.131480         3.5778
  15   0.0000       0.141447         3.8490
  16   0.0000       0.149572         4.0701
  17   0.0000       0.177785         4.8378

MULLIKEN ATOMIC CHARGES
-----------------------
   0 C :   -0.376047
   1 N :   -0.409388
   2 C :   -0.376009
   3 H :    0.154288
   4 H :    0.156521
   5 H :    0.131633
   6 H :    0.276590
   7 H :    0.156499
   8 H :    0.154302
   9 H :    0.131612
Sum of atomic charges:   -0.0000000

LOEWDIN ATOMIC CHARGES
----------------------
   0 C :   -0.167862
   1 N :   -0.904051
   2 C :   -0.167890
   3 H :    0.171497
   4 H :    0.173496
   5 H :    0.149603
   6 H :    0.250668
   7 H :    0.173481
   8 H :    0.171495
   9 H :    0.149564

  Mayer bond orders larger than 0.100000
B(  0-C ,  1-N ) :   0.9465 B(  0-C ,  3-H ) :   0.9687 B(  0-C ,  4-H ) :   0.9720
B(  0-C ,  5-H ) :   0.9560 B(  1-N ,  2-C ) :   0.9466 B(  1-N ,  6-H ) :   0.8968
B(  2-C ,  7-H ) :   0.9720 B(  2-C ,  8-H ) :   0.9687 B(  2-C ,  9-H ) :   0.9559

Dispersion correction           -0.001492787
FINAL SINGLE POINT ENERGY      -135.115985207247

DIPOLE MOMENT
-------------

Method             : SCF
Type of density    : Electron Density
Multiplicity       :   1
Irrep              :   0
Energy             :  -135.1247981013165145 Eh
Relativity type    :
Basis              : AO
                                X                 Y                 Z
Electronic contribution:     -0.000742478       1.275261619      -0.225572500
Nuclear contribution   :      0.000915998      -1.439266311       0.765401906
                        -----------------------------------------
Total Dipole Moment    :      0.000173520      -0.164004692       0.539829405
                        -----------------------------------------
Magnitude (a.u.)       :      0.564192658
Magnitude (Debye)      :      1.434063771

Rotational constants in cm-1:             1.155159             0.315078             0.277959
Rotational constants in MHz :         34630.781587          9445.803773          8333.000932

                             ****ORCA TERMINATED NORMALLY****
TOTAL RUN TIME: 0 days 0 hours 0 minutes 10 seconds 153 msec
