                         Program Version 6.0.0  -   RELEASE  -
|  1> ! pbe def2-sv(p) def2/J RI DEFGRID1 loosescf d4 GCP(DFT/SV(P)) printgap
|  2> %output
|  3>     printlevel normal
|  4> end
|  5> * xyz 0 1
|  6> C -1.9464718733 -0.1007945054 -0.0376157525
|  7> C -0.5623961327 0.5334757377 0.0108198183
|  8> C 0.5440580795 -0.5192289071 0.0154304484
|  9> N 1.8529581817 0.1206068312 -0.0395915419
| 10> H -2.0998784332 -0.7486878033 0.8228627353
| 11> H -2.7154906557 0.6670101382 -0.0322389568
| 12> H -2.0599952546 -0.6971442686 -0.9397529397
| 13> H -0.4720454359 1.1494229441 0.9087022233
| 14> H -0.4176100205 1.1823899548 -0.8535745681
| 15> H 0.4183401981 -1.1690281853 0.8997498172
| 16> H 0.4497018618 -1.1489344769 -0.8742320005
| 17> H 2.5814043106 -0.58419569 -0.0267768725
| 18> H 1.9791045551 0.7044838347 0.7808711244
| 19> *
| 20>
| 21>                          ****END OF INPUT****

CARTESIAN COORDINATES (ANGSTROEM)
---------------------------------
  C     -1.946472   -0.100795   -0.037616
  C     -0.562396    0.533476    0.010820
  C      0.544058   -0.519229    0.015430
  N      1.852958    0.120607   -0.039592
  H     -2.099878   -0.748688    0.822863
  H     -2.715491    0.667010   -0.032239
  H     -2.059995   -0.697144   -0.939753
  H     -0.472045    1.149423    0.908702
  H     -0.417610    1.182390   -0.853575
  H      0.418340   -1.169028    0.899750
  H      0.449702   -1.148934   -0.874232
  H      2.581404   -0.584196   -0.026777
  H      1.979105    0.704484    0.780871

 Total Charge           Charge          ....    0
 Multiplicity           Mult            ....    1
 Number of Electrons    NEL             ....   34
 Basis Dimension        Dim             ....   74

ORBITAL ENERGIES
----------------

  NO   OCC          E(Eh)            E(eV)
   0   2.0000     -13.953024      -379.6811
   1   2.0000      -9.902465      -269.4598
   2   2.0000      -9.878564      -268.8094
   3   2.0000      -9.871467      -268.6163
   4   2.0000      -0.789356       -21.4795
   5   2.0000      -0.686752       -18.6875
   6   2.0000      -0.583783       -15.8855
   7   2.0000      -0.517067       -14.0701
   8   2.0000      -0.432931       -11.7807
   9   2.0000      -0.412338       -11.2203
  10   2.0000      -0.393180       -10.6990
  11   2.0000      -0.357916        -9.7394
  12   2.0000      -0.332673        -9.0525
  13   2.0000      -0.307395        -8.3646
  14   2.0000      -0.289449        -7.8763
  15   2.0000      -0.286411        -7.7936
  16   2.0000      -0.178123        -4.8470
  17   0.0000       0.036532         0.9941
  18   0.0000       0.052569         1.4305
  19   0.0000       0.074252         2.0205
  20   0.0000       0.090465         2.4617
  21   0.0000       0.114263         3.1093

MULLIKEN ATOMIC CHARGES
-----------------------
   0 C :   -0.274063
   1 C :   -0.196421
   2 C :   -0.087798
   3 N :   -0.452504
   4 H :    0.096423
   5 H :    0.104148
   6 H :    0.099686
   7 H :    0.079361
   8 H :    0.094059
   9 H :    0.061198
  10 H :    0.077907
  11 H :    0.199880
  12 H :    0.198125
Sum of atomic charges:   -0.0000000

LOEWDIN ATOMIC CHARGES
----------------------
   0 C :   -0.340413
   1 C :   -0.242503
   2 C :   -0.177000
   3 N :   -0.419423
   4 H :    0.115547
   5 H :    0.119845
   6 H :    0.117491
   7 H :    0.110380
   8 H :    0.119277
   9 H :    0.085891
  10 H :    0.108852
  11 H :    0.202466
  12 H :    0.199590

  Mayer bond orders larger than 0.100000
B(  0-C ,  1-C ) :   1.1491 B(  0-C ,  4-H ) :   0.9539 B(  0-C ,  5-H ) :   0.9539
B(  0-C ,  6-H ) :   0.9557 B(  1-C ,  2-C ) :   1.1342 B(  1-C ,  7-H ) :   0.9283
B(  1-C ,  8-H ) :   0.9231 B(  2-C ,  3-N ) :   1.1110 B(  2-C ,  9-H ) :   0.9211
B(  2-C , 10-H ) :   0.9283 B(  3-N , 11-H ) :   0.9053 B(  3-N , 12-H ) :   0.9043

Dispersion correction           -0.007080037
FINAL SINGLE POINT ENERGY      -174.032391348262

DIPOLE MOMENT
-------------

Method             : SCF
Type of density    : Electron Density
Multiplicity       :   1
Irrep              :   0
Energy             :  -174.0823502860066299 Eh
Relativity type    :
Basis              : AO
                                X                 Y                 Z
Electronic contribution:      2.246672247       0.354953960      -0.204095169
Nuclear contribution   :     -2.181801046      -0.604159155       0.643001946
                        -----------------------------------------
Total Dipole Moment    :      0.064871202      -0.249205195       0.438906778
                        -----------------------------------------
Magnitude (a.u.)       :      0.508871950
Magnitude (Debye)      :      1.293449704

Rotational constants in cm-1:             0.839072             0.125841             0.117568
Rotational constants in MHz :         25154.738565          3772.611633          3524.590770

                             ****ORCA TERMINATED NORMALLY****
TOTAL RUN TIME: 0 days 0 hours 0 minutes 4 seconds 931 msec
