                         Program Version 6.0.0  -   RELEASE  -
|  1> ! wb97x-v def2-tzvp def2/J RIJCOSX DEFGRID2 scfconv7 GCP(DFT/TZ) printgap
|  2> %output
|  3>     printlevel normal
|  4> end
|  5> * xyz 0 1
|  6> C 3.5508873267941427e-06 -2.5145818379510967 7.848212984517462e-05
|  7> C 1.2139628874769053 -1.8349291500251432 6.92620098366317e-05
|  8> C 1.2055281901226325 -0.45054269281785414 4.335811316581625e-06
|  9> C -0.00010633743732114395 0.27330603388072583 -9.759464073415317e-05
| 10> C -1.2056609593417058 -0.45064557864488525 1.454125956656423e-05
| 11> C -1.214002529823085 -1.835019455973445 7.654699196951338e-05
| 12> Cl -2.711853394592106 0.4253306245876352 -0.00010945474037931742
| 13> C -0.0004306289011180633 1.6880265642238204 -0.0011068307276131148
| 14> N 0.0007858274922246873 2.84784343024885 0.0011036350303961241
| 15> Cl 2.711711806335012 0.4254578597579442 -0.00012966644884090548
| 16> H 3.6359128169090516e-05 -3.5989977084519786 6.205410057057337e-05
| 17> H 2.1522526867860696 -2.37613047363983 2.748428464331937e-05
| 18> H -2.152263192362371 -2.3762674607165564 4.0453514268624105e-05
| 19> *
| 20>
| 21>                          ****END OF INPUT****

CARTESIAN COORDINATES (ANGSTROEM)
---------------------------------
  C      0.000004   -2.514582    0.000078
  C      1.213963   -1.834929    0.000069
  C      1.205528   -0.450543    0.000004
  C     -0.000106    0.273306   -0.000098
  C     -1.205661   -0.450646    0.000015
  C     -1.214003   -1.835019    0.000077
  Cl    -2.711853    0.425331   -0.000109
  C     -0.000431    1.688027   -0.001107
  N      0.000786    2.847843    0.001104
  Cl     2.711712    0.425458   -0.000130
  H      0.000036   -3.598998    0.000062
  H      2.152253   -2.376130    0.000027
  H     -2.152263   -2.376267    0.000040

 Total Charge           Charge          ....    0
 Multiplicity           Mult            ....    1
 Number of Electrons    NEL             ....   86
 Basis Dimension        Dim             ....  340

ORBITAL ENERGIES
----------------

  NO   OCC          E(Eh)            E(eV)
   0   2.0000    -107.170313     -2916.2525
   1   2.0000    -107.170297     -2916.2521
   2   2.0000     -16.541091      -450.1060
   3   2.0000     -12.160176      -330.8952
   4   2.0000     -12.159869      -330.8869
   5   2.0000     -12.129844      -330.0698
   6   2.0000     -12.102954      -329.3381
   7   2.0000     -12.100122      -329.2611
   8   2.0000     -12.096852      -329.1721
   9   2.0000     -12.096253      -329.1558
  10   2.0000     -11.323352      -308.1241
  11   2.0000     -11.323319      -308.1232
  12   2.0000      -9.115167      -248.0363
  13   2.0000      -9.114702      -248.0236
  14   2.0000      -9.112183      -247.9551
  15   2.0000      -9.112171      -247.9548
  16   2.0000      -9.112146      -247.9541
  17   2.0000      -9.112059      -247.9517
  18   2.0000      -1.530963       -41.6596
  19   2.0000      -1.479695       -40.2646
  20   2.0000      -1.452336       -39.5201
  21   2.0000      -1.401493       -38.1366
  22   2.0000      -1.343716       -36.5644
  23   2.0000      -1.309078       -35.6218
  24   2.0000      -1.198288       -32.6071
  25   2.0000      -1.151347       -31.3298
  26   2.0000      -1.085617       -29.5411
  27   2.0000      -1.025908       -27.9164
  28   2.0000      -1.001064       -27.2403
  29   2.0000      -0.954501       -25.9733
  30   2.0000      -0.950512       -25.8647
  31   2.0000      -0.909172       -24.7398
  32   2.0000      -0.888759       -24.1844
  33   2.0000      -0.883337       -24.0368
  34   2.0000      -0.878340       -23.9008
  35   2.0000      -0.840937       -22.8831
  36   2.0000      -0.822938       -22.3933
  37   2.0000      -0.818778       -22.2801
  38   2.0000      -0.816810       -22.2265
  39   2.0000      -0.811357       -22.0782
  40   2.0000      -0.789299       -21.4779
  41   2.0000      -0.693073       -18.8595
  42   2.0000      -0.689467       -18.7613
  43   0.0000      -0.340059        -9.2535
  44   0.0000      -0.313262        -8.5243
  45   0.0000      -0.298364        -8.1189
  46   0.0000      -0.267261        -7.2725
  47   0.0000      -0.250439        -6.8148

MULLIKEN ATOMIC CHARGES
-----------------------
   0 C :   -0.072939
   1 C :   -0.202125
   2 C :    0.045401
   3 C :    0.215595
   4 C :    0.045511
   5 C :   -0.202063
   6 Cl:   -0.032810
   7 C :   -0.225624
   8 N :    0.024458
   9 Cl:   -0.032763
  10 H :    0.140875
  11 H :    0.148242
  12 H :    0.148241
Sum of atomic charges:   -0.0000000

LOEWDIN ATOMIC CHARGES
----------------------
   0 C :   -0.104501
   1 C :   -0.132068
   2 C :   -0.361975
   3 C :   -0.160857
   4 C :   -0.362005
   5 C :   -0.132074
   6 Cl:    0.441181
   7 C :   -0.176541
   8 N :    0.088516
   9 Cl:    0.441161
  10 H :    0.152234
  11 H :    0.153466
  12 H :    0.153463

  Mayer bond orders larger than 0.100000
B(  0-C ,  1-C ) :   1.4058 B(  0-C ,  5-C ) :   1.4059 B(  0-C , 10-H ) :   0.9632
B(  1-C ,  2-C ) :   1.4397 B(  1-C , 11-H ) :   0.9608 B(  2-C ,  3-C ) :   1.2928
B(  2-C ,  9-Cl) :   1.1424 B(  3-C ,  4-C ) :   1.2928 B(  3-C ,  7-C ) :   0.9346
B(  4-C ,  5-C ) :   1.4395 B(  4-C ,  6-Cl) :   1.1423 B(  5-C , 12-H ) :   0.9608
B(  7-C ,  8-N ) :   3.1130

FINAL SINGLE POINT ENERGY     -1243.590725454626

DIPOLE MOMENT
-------------

Method             : SCF
Type of density    : Electron Density
Multiplicity       :   1
Irrep              :   0
Energy             : -1243.5965264410260716 Eh
Relativity type    :
Basis              : AO
                                X                 Y                 Z
Electronic contribution:     -0.000720943       6.741522131      -0.001347490
Nuclear contribution   :      0.000220566      -8.961402430       0.000452478
                        -----------------------------------------
Total Dipole Moment    :     -0.000500377      -2.219880298      -0.000895011
                        -----------------------------------------
Magnitude (a.u.)       :      2.219880535
Magnitude (Debye)      :      5.642487904

Rotational constants in cm-1:             0.048483             0.028045             0.017768
Rotational constants in MHz :          1453.486419           840.782726           532.660416

                             ****ORCA TERMINATED NORMALLY****
TOTAL RUN TIME: 0 days 0 hours 3 minutes 27 seconds 252 msec
