                         Program Version 6.0.0  -   RELEASE  -
|  1> ! wb97x-v def2-tzvp def2/J RIJCOSX DEFGRID2 scfconv7 GCP(DFT/TZ) printgap
|  2> %output
|  3>     printlevel normal
|  4> end
|  5> %cpcm
|  6>     smd true
|  7>     smdsolvent "water"
|  8> end
|  9> * xyz 0 1
| 10> C 3.5508873267941427e-06 -2.5145818379510967 7.848212984517462e-05
| 11> C 1.2139628874769053 -1.8349291500251432 6.92620098366317e-05
| 12> C 1.2055281901226325 -0.45054269281785414 4.335811316581625e-06
| 13> C -0.00010633743732114395 0.27330603388072583 -9.759464073415317e-05
| 14> C -1.2056609593417058 -0.45064557864488525 1.454125956656423e-05
| 15> C -1.214002529823085 -1.835019455973445 7.654699196951338e-05
| 16> Cl -2.711853394592106 0.4253306245876352 -0.00010945474037931742
| 17> C -0.0004306289011180633 1.6880265642238204 -0.0011068307276131148
| 18> N 0.0007858274922246873 2.84784343024885 0.0011036350303961241
| 19> Cl 2.711711806335012 0.4254578597579442 -0.00012966644884090548
| 20> H 3.6359128169090516e-05 -3.5989977084519786 6.205410057057337e-05
| 21> H 2.1522526867860696 -2.37613047363983 2.748428464331937e-05
| 22> H -2.152263192362371 -2.3762674607165564 4.0453514268624105e-05
| 23> *
| 24>
| 25>                          ****END OF INPUT****

CARTESIAN COORDINATES (ANGSTROEM)
---------------------------------
  C      0.000004   -2.514582    0.000078
  C      1.213963   -1.834929    0.000069
  C      1.205528   -0.450543    0.000004
  C     -0.000106    0.273306   -0.000098
  C     -1.205661   -0.450646    0.000015
  C     -1.214003   -1.835019    0.000077
  Cl    -2.711853    0.425331   -0.000109
  C     -0.000431    1.688027   -0.001107
  N      0.000786    2.847843    0.001104
  Cl     2.711712    0.425458   -0.000130
  H      0.000036   -3.598998    0.000062
  H      2.152253   -2.376130    0.000027
  H     -2.152263   -2.376267    0.000040

 Total Charge           Charge          ....    0
 Multiplicity           Mult            ....    1
 Number of Electrons    NEL             ....   86
 Basis Dimension        Dim             ....  340

ORBITAL ENERGIES
----------------

  NO   OCC          E(Eh)            E(eV)
   0   2.0000    -107.165193     -2916.1132
   1   2.0000    -107.165184     -2916.1129
   2   2.0000     -16.548979      -450.3206
   3   2.0000     -12.149037      -330.5921
   4   2.0000     -12.148738      -330.5840
   5   2.0000     -12.120417      -329.8133
   6   2.0000     -12.114007      -329.6389
   7   2.0000     -12.082946      -328.7937
   8   2.0000     -12.078426      -328.6707
   9   2.0000     -12.077735      -328.6519
  10   2.0000     -11.318337      -307.9876
  11   2.0000     -11.318305      -307.9867
  12   2.0000      -9.110137      -247.8994
  13   2.0000      -9.109669      -247.8867
  14   2.0000      -9.107226      -247.8202
  15   2.0000      -9.107193      -247.8193
  16   2.0000      -9.107179      -247.8189
  17   2.0000      -9.107104      -247.8169
  18   2.0000      -1.542410       -41.9711
  19   2.0000      -1.470907       -40.0254
  20   2.0000      -1.445967       -39.3467
  21   2.0000      -1.390880       -37.8478
  22   2.0000      -1.332408       -36.2567
  23   2.0000      -1.294990       -35.2385
  24   2.0000      -1.186853       -32.2959
  25   2.0000      -1.138188       -30.9717
  26   2.0000      -1.075795       -29.2739
  27   2.0000      -1.011249       -27.5175
  28   2.0000      -0.989730       -26.9319
  29   2.0000      -0.940461       -25.5912
  30   2.0000      -0.938045       -25.5255
  31   2.0000      -0.921427       -25.0733
  32   2.0000      -0.872662       -23.7463
  33   2.0000      -0.869111       -23.6497
  34   2.0000      -0.865425       -23.5494
  35   2.0000      -0.835570       -22.7370
  36   2.0000      -0.829892       -22.5825
  37   2.0000      -0.824291       -22.4301
  38   2.0000      -0.813276       -22.1304
  39   2.0000      -0.810432       -22.0530
  40   2.0000      -0.780350       -21.2344
  41   2.0000      -0.680960       -18.5299
  42   2.0000      -0.676044       -18.3961
  43   0.0000      -0.332735        -9.0542
  44   0.0000      -0.305474        -8.3124
  45   0.0000      -0.282234        -7.6800
  46   0.0000      -0.264102        -7.1866
  47   0.0000      -0.252465        -6.8699

MULLIKEN ATOMIC CHARGES
-----------------------
   0 C :   -0.097144
   1 C :   -0.216629
   2 C :    0.050519
   3 C :    0.272474
   4 C :    0.050605
   5 C :   -0.216566
   6 Cl:   -0.056769
   7 C :   -0.210955
   8 N :   -0.072958
   9 Cl:   -0.056747
  10 H :    0.183710
  11 H :    0.185230
  12 H :    0.185230
Sum of atomic charges:   -0.0000000

LOEWDIN ATOMIC CHARGES
----------------------
   0 C :   -0.083777
   1 C :   -0.118832
   2 C :   -0.360878
   3 C :   -0.162200
   4 C :   -0.360900
   5 C :   -0.118836
   6 Cl:    0.424260
   7 C :   -0.164474
   8 N :    0.023838
   9 Cl:    0.424222
  10 H :    0.166559
  11 H :    0.165511
  12 H :    0.165508

  Mayer bond orders larger than 0.100000
B(  0-C ,  1-C ) :   1.3915 B(  0-C ,  5-C ) :   1.3916 B(  0-C , 10-H ) :   0.9616
B(  1-C ,  2-C ) :   1.4136 B(  1-C , 11-H ) :   0.9635 B(  2-C ,  3-C ) :   1.2806
B(  2-C ,  9-Cl) :   1.1272 B(  3-C ,  4-C ) :   1.2806 B(  3-C ,  7-C ) :   0.9139
B(  4-C ,  5-C ) :   1.4135 B(  4-C ,  6-Cl) :   1.1272 B(  5-C , 12-H ) :   0.9635
B(  7-C ,  8-N ) :   3.1167

FINAL SINGLE POINT ENERGY     -1243.596519747831

DIPOLE MOMENT
-------------

Method             : SCF
Type of density    : Electron Density
Multiplicity       :   1
Irrep              :   0
Energy             : -1243.6023207342304886 Eh
Relativity type    :
Basis              : AO
                                X                 Y                 Z
Electronic contribution:     -0.001007125       5.737646789      -0.001839523
Nuclear contribution   :      0.000220566      -8.961402430       0.000452478
                        -----------------------------------------
Total Dipole Moment    :     -0.000786558      -3.223755641      -0.001387044
                        -----------------------------------------
Magnitude (a.u.)       :      3.223756035
Magnitude (Debye)      :      8.194136642

Rotational constants in cm-1:             0.048483             0.028045             0.017768
Rotational constants in MHz :          1453.486419           840.782726           532.660416

                             ****ORCA TERMINATED NORMALLY****
TOTAL RUN TIME: 0 days 0 hours 3 minutes 4 seconds 786 msec
