                         Program Version 6.0.0  -   RELEASE  -
|  1> ! r2scan-3c def2/J RI DEFGRID2 scfconv6 printgap
|  2> %output
|  3>     printlevel normal
|  4> end
|  5> * xyz 0 1
|  6> C -3.4355027504 -1.1898628379 -0.0015079255
|  7> C -2.053588167 -0.6084523851 0.0018440238
|  8> C -1.8676152723 0.7854008814 0.0009888837
|  9> C -0.6236730419 1.3622250246 -8.32715e-05
| 10> C 0.5272392303 0.5290913449 1.9337e-06
| 11> C 1.8431422481 1.0397990651 0.0008355299
| 12> C 2.9255963922 0.2043730477 0.0006024689
| 13> C 2.7497190807 -1.1873108899 -0.0005415941
| 14> C 1.4902149476 -1.7156488022 -0.0006917241
| 15> C 0.352032649 -0.8810274389 -0.0001158898
| 16> C -0.9490096407 -1.4199406668 0.0008681952
| 17> C -0.4861157267 2.8552466096 -0.001039093
| 18> H -4.1873749294 -0.4082965328 0.065835741
| 19> H -3.6032930733 -1.7555825367 -0.9168477042
| 20> H -3.5620744747 -1.8711375089 0.8379549938
| 21> H -2.7433116255 1.4200537911 0.0007163776
| 22> H 1.9966214722 2.1074757779 0.0020288325
| 23> H 3.9259402691 0.611916545 0.0013041647
| 24> H 3.6151619767 -1.8335668975 -0.001167025
| 25> H 1.3434094122 -2.7865197595 -0.0011555194
| 26> H -1.0641343747 -2.4949725424 0.0011567626
| 27> H 0.0529273225 3.190965726 0.8835435428
| 28> H 0.0621691218 3.1890887325 -0.8806365399
| 29> H -1.4660403301 3.3250605178 -0.0065754964
| 30> *
| 31>
| 32>                          ****END OF INPUT****

CARTESIAN COORDINATES (ANGSTROEM)
---------------------------------
  C     -3.435503   -1.189863   -0.001508
  C     -2.053588   -0.608452    0.001844
  C     -1.867615    0.785401    0.000989
  C     -0.623673    1.362225   -0.000083
  C      0.527239    0.529091    0.000002
  C      1.843142    1.039799    0.000836
  C      2.925596    0.204373    0.000602
  C      2.749719   -1.187311   -0.000542
  C      1.490215   -1.715649   -0.000692
  C      0.352033   -0.881027   -0.000116
  C     -0.949010   -1.419941    0.000868
  C     -0.486116    2.855247   -0.001039
  H     -4.187375   -0.408297    0.065836
  H     -3.603293   -1.755583   -0.916848
  H     -3.562074   -1.871138    0.837955
  H     -2.743312    1.420054    0.000716
  H      1.996621    2.107476    0.002029
  H      3.925940    0.611917    0.001304
  H      3.615162   -1.833567   -0.001167
  H      1.343409   -2.786520   -0.001156
  H     -1.064134   -2.494973    0.001157
  H      0.052927    3.190966    0.883544
  H      0.062169    3.189089   -0.880637
  H     -1.466040    3.325061   -0.006575

 Total Charge           Charge          ....    0
 Multiplicity           Mult            ....    1
 Number of Electrons    NEL             ....   84
 Basis Dimension        Dim             ....  288

ORBITAL ENERGIES
----------------

  NO   OCC          E(Eh)            E(eV)
   0   2.0000     -10.044227      -273.3173
   1   2.0000     -10.041458      -273.2420
   2   2.0000     -10.041317      -273.2381
   3   2.0000     -10.039947      -273.2008
   4   2.0000     -10.032790      -273.0061
   5   2.0000     -10.032430      -272.9963
   6   2.0000     -10.031882      -272.9814
   7   2.0000     -10.031451      -272.9697
   8   2.0000     -10.028355      -272.8854
   9   2.0000     -10.027646      -272.8661
  10   2.0000     -10.027139      -272.8523
  11   2.0000     -10.025667      -272.8123
  12   2.0000      -0.845574       -23.0092
  13   2.0000      -0.796890       -21.6845
  14   2.0000      -0.760481       -20.6937
  15   2.0000      -0.725849       -19.7514
  16   2.0000      -0.703446       -19.1417
  17   2.0000      -0.663715       -18.0606
  18   2.0000      -0.646981       -17.6052
  19   2.0000      -0.587786       -15.9945
  20   2.0000      -0.566218       -15.4076
  21   2.0000      -0.542814       -14.7707
  22   2.0000      -0.483597       -13.1593
  23   2.0000      -0.473396       -12.8818
  24   2.0000      -0.452289       -12.3074
  25   2.0000      -0.417874       -11.3709
  26   2.0000      -0.402737       -10.9590
  27   2.0000      -0.401560       -10.9270
  28   2.0000      -0.387975       -10.5573
  29   2.0000      -0.387335       -10.5399
  30   2.0000      -0.381671       -10.3858
  31   2.0000      -0.363599        -9.8940
  32   2.0000      -0.357231        -9.7207
  33   2.0000      -0.352090        -9.5808
  34   2.0000      -0.346896        -9.4395
  35   2.0000      -0.328378        -8.9356
  36   2.0000      -0.300937        -8.1889
  37   2.0000      -0.294510        -8.0140
  38   2.0000      -0.292748        -7.9661
  39   2.0000      -0.257373        -7.0035
  40   2.0000      -0.224853        -6.1186
  41   2.0000      -0.194388        -5.2896
  42   0.0000      -0.063665        -1.7324
  43   0.0000      -0.030991        -0.8433
  44   0.0000       0.003356         0.0913
  45   0.0000       0.066775         1.8170
  46   0.0000       0.074298         2.0218

MULLIKEN ATOMIC CHARGES
-----------------------
   0 C :   -0.571565
   1 C :    0.250662
   2 C :   -0.292431
   3 C :    0.121820
   4 C :    0.207960
   5 C :   -0.250502
   6 C :   -0.163880
   7 C :   -0.149245
   8 C :   -0.259023
   9 C :    0.191066
  10 C :   -0.312395
  11 C :   -0.598478
  12 H :    0.150196
  13 H :    0.165695
  14 H :    0.161792
  15 H :    0.144602
  16 H :    0.142296
  17 H :    0.144092
  18 H :    0.144494
  19 H :    0.142393
  20 H :    0.140486
  21 H :    0.169926
  22 H :    0.169441
  23 H :    0.150600
Sum of atomic charges:   -0.0000000

LOEWDIN ATOMIC CHARGES
----------------------
   0 C :   -0.389676
   1 C :   -0.093885
   2 C :   -0.163623
   3 C :   -0.072781
   4 C :   -0.056475
   5 C :   -0.147047
   6 C :   -0.167362
   7 C :   -0.166011
   8 C :   -0.146402
   9 C :   -0.049077
  10 C :   -0.152217
  11 C :   -0.389056
  12 H :    0.158001
  13 H :    0.166077
  14 H :    0.165332
  15 H :    0.168086
  16 H :    0.171574
  17 H :    0.166711
  18 H :    0.167025
  19 H :    0.169704
  20 H :    0.171386
  21 H :    0.164850
  22 H :    0.164781
  23 H :    0.160085

  Mayer bond orders larger than 0.100000
B(  0-C ,  1-C ) :   0.7444 B(  0-C , 12-H ) :   0.9951 B(  0-C , 13-H ) :   0.9764
B(  0-C , 14-H ) :   0.9805 B(  1-C ,  2-C ) :   1.3168 B(  1-C , 10-C ) :   1.4854
B(  2-C ,  3-C ) :   1.5083 B(  2-C , 15-H ) :   0.8981 B(  3-C ,  4-C ) :   1.2898
B(  3-C , 11-C ) :   0.7376 B(  4-C ,  5-C ) :   1.2421 B(  4-C ,  9-C ) :   1.4793
B(  5-C ,  6-C ) :   1.5131 B(  5-C , 16-H ) :   0.9435 B(  6-C ,  7-C ) :   1.2684
B(  6-C , 17-H ) :   0.9491 B(  7-C ,  8-C ) :   1.5011 B(  7-C , 18-H ) :   0.9474
B(  8-C ,  9-C ) :   1.1750 B(  8-C , 19-H ) :   0.9471 B(  9-C , 10-C ) :   1.1893
B( 10-C , 20-H ) :   0.9528 B( 11-C , 21-H ) :   0.9809 B( 11-C , 22-H ) :   0.9811
B( 11-C , 23-H ) :   0.9869

Dispersion correction           -0.009545718
FINAL SINGLE POINT ENERGY      -464.388665535975

DIPOLE MOMENT
-------------

Method             : SCF
Type of density    : Electron Density
Multiplicity       :   1
Irrep              :   0
Energy             :  -464.3862439320510020 Eh
Relativity type    :
Basis              : AO
                                X                 Y                 Z
Electronic contribution:      5.090687213      -2.434533692       0.008965527
Nuclear contribution   :     -5.281891934       2.527883157      -0.012986016
                        -----------------------------------------
Total Dipole Moment    :     -0.191204721       0.093349465      -0.004020489
                        -----------------------------------------
Magnitude (a.u.)       :      0.212813374
Magnitude (Debye)      :      0.540928609

Rotational constants in cm-1:             0.053060             0.027604             0.018281
Rotational constants in MHz :          1590.693601           827.554057           548.048233

                             ****ORCA TERMINATED NORMALLY****
TOTAL RUN TIME: 0 days 0 hours 0 minutes 32 seconds 772 msec
