                         Program Version 6.0.0  -   RELEASE  -
|  1> ! r2scan-3c def2/J RI DEFGRID2 scfconv6 printgap
|  2> %output
|  3>     printlevel normal
|  4> end
|  5> %cpcm
|  6>     smd true
|  7>     smdsolvent "water"
|  8> end
|  9> * xyz 0 1
| 10> C -3.4355027504 -1.1898628379 -0.0015079255
| 11> C -2.053588167 -0.6084523851 0.0018440238
| 12> C -1.8676152723 0.7854008814 0.0009888837
| 13> C -0.6236730419 1.3622250246 -8.32715e-05
| 14> C 0.5272392303 0.5290913449 1.9337e-06
| 15> C 1.8431422481 1.0397990651 0.0008355299
| 16> C 2.9255963922 0.2043730477 0.0006024689
| 17> C 2.7497190807 -1.1873108899 -0.0005415941
| 18> C 1.4902149476 -1.7156488022 -0.0006917241
| 19> C 0.352032649 -0.8810274389 -0.0001158898
| 20> C -0.9490096407 -1.4199406668 0.0008681952
| 21> C -0.4861157267 2.8552466096 -0.001039093
| 22> H -4.1873749294 -0.4082965328 0.065835741
| 23> H -3.6032930733 -1.7555825367 -0.9168477042
| 24> H -3.5620744747 -1.8711375089 0.8379549938
| 25> H -2.7433116255 1.4200537911 0.0007163776
| 26> H 1.9966214722 2.1074757779 0.0020288325
| 27> H 3.9259402691 0.611916545 0.0013041647
| 28> H 3.6151619767 -1.8335668975 -0.001167025
| 29> H 1.3434094122 -2.7865197595 -0.0011555194
| 30> H -1.0641343747 -2.4949725424 0.0011567626
| 31> H 0.0529273225 3.190965726 0.8835435428
| 32> H 0.0621691218 3.1890887325 -0.8806365399
| 33> H -1.4660403301 3.3250605178 -0.0065754964
| 34> *
| 35>
| 36>                          ****END OF INPUT****

CARTESIAN COORDINATES (ANGSTROEM)
---------------------------------
  C     -3.435503   -1.189863   -0.001508
  C     -2.053588   -0.608452    0.001844
  C     -1.867615    0.785401    0.000989
  C     -0.623673    1.362225   -0.000083
  C      0.527239    0.529091    0.000002
  C      1.843142    1.039799    0.000836
  C      2.925596    0.204373    0.000602
  C      2.749719   -1.187311   -0.000542
  C      1.490215   -1.715649   -0.000692
  C      0.352033   -0.881027   -0.000116
  C     -0.949010   -1.419941    0.000868
  C     -0.486116    2.855247   -0.001039
  H     -4.187375   -0.408297    0.065836
  H     -3.603293   -1.755583   -0.916848
  H     -3.562074   -1.871138    0.837955
  H     -2.743312    1.420054    0.000716
  H      1.996621    2.107476    0.002029
  H      3.925940    0.611917    0.001304
  H      3.615162   -1.833567   -0.001167
  H      1.343409   -2.786520   -0.001156
  H     -1.064134   -2.494973    0.001157
  H      0.052927    3.190966    0.883544
  H      0.062169    3.189089   -0.880637
  H     -1.466040    3.325061   -0.006575

 Total Charge           Charge          ....    0
 Multiplicity           Mult            ....    1
 Number of Electrons    NEL             ....   84
 Basis Dimension        Dim             ....  288

ORBITAL ENERGIES
----------------

  NO   OCC          E(Eh)            E(eV)
   0   2.0000     -10.044215      -273.3170
   1   2.0000     -10.042576      -273.2724
   2   2.0000     -10.041586      -273.2454
   3   2.0000     -10.040544      -273.2171
   4   2.0000     -10.032633      -273.0018
   5   2.0000     -10.032497      -272.9981
   6   2.0000     -10.031964      -272.9836
   7   2.0000     -10.031322      -272.9661
   8   2.0000     -10.025868      -272.8177
   9   2.0000     -10.024286      -272.7747
  10   2.0000     -10.018870      -272.6273
  11   2.0000     -10.018105      -272.6065
  12   2.0000      -0.847355       -23.0577
  13   2.0000      -0.797635       -21.7048
  14   2.0000      -0.758888       -20.6504
  15   2.0000      -0.725255       -19.7352
  16   2.0000      -0.702857       -19.1257
  17   2.0000      -0.658383       -17.9155
  18   2.0000      -0.644100       -17.5268
  19   2.0000      -0.587033       -15.9740
  20   2.0000      -0.564893       -15.3715
  21   2.0000      -0.540308       -14.7025
  22   2.0000      -0.481116       -13.0918
  23   2.0000      -0.470991       -12.8163
  24   2.0000      -0.450273       -12.2526
  25   2.0000      -0.414866       -11.2891
  26   2.0000      -0.399348       -10.8668
  27   2.0000      -0.398180       -10.8350
  28   2.0000      -0.385387       -10.4869
  29   2.0000      -0.380274       -10.3478
  30   2.0000      -0.376464       -10.2441
  31   2.0000      -0.358115        -9.7448
  32   2.0000      -0.353641        -9.6231
  33   2.0000      -0.350952        -9.5499
  34   2.0000      -0.340997        -9.2790
  35   2.0000      -0.323916        -8.8142
  36   2.0000      -0.298703        -8.1281
  37   2.0000      -0.296597        -8.0708
  38   2.0000      -0.289709        -7.8834
  39   2.0000      -0.260603        -7.0914
  40   2.0000      -0.228354        -6.2138
  41   2.0000      -0.196922        -5.3585
  42   0.0000      -0.065938        -1.7943
  43   0.0000      -0.034024        -0.9258
  44   0.0000       0.000848         0.0231
  45   0.0000       0.066009         1.7962
  46   0.0000       0.084168         2.2903

MULLIKEN ATOMIC CHARGES
-----------------------
   0 C :   -0.592841
   1 C :    0.214917
   2 C :   -0.298722
   3 C :    0.077401
   4 C :    0.194132
   5 C :   -0.260489
   6 C :   -0.207545
   7 C :   -0.180464
   8 C :   -0.280114
   9 C :    0.123794
  10 C :   -0.306546
  11 C :   -0.607736
  12 H :    0.170953
  13 H :    0.180784
  14 H :    0.177280
  15 H :    0.177496
  16 H :    0.174327
  17 H :    0.176180
  18 H :    0.176869
  19 H :    0.176537
  20 H :    0.172961
  21 H :    0.184935
  22 H :    0.184527
  23 H :    0.171363
Sum of atomic charges:   -0.0000000

LOEWDIN ATOMIC CHARGES
----------------------
   0 C :   -0.394105
   1 C :   -0.099327
   2 C :   -0.171518
   3 C :   -0.078395
   4 C :   -0.072091
   5 C :   -0.153495
   6 C :   -0.178755
   7 C :   -0.175875
   8 C :   -0.156646
   9 C :   -0.065901
  10 C :   -0.163092
  11 C :   -0.392458
  12 H :    0.164663
  13 H :    0.172093
  14 H :    0.171296
  15 H :    0.180624
  16 H :    0.183383
  17 H :    0.177595
  18 H :    0.178018
  19 H :    0.181597
  20 H :    0.182992
  21 H :    0.171428
  22 H :    0.171366
  23 H :    0.166603

  Mayer bond orders larger than 0.100000
B(  0-C ,  1-C ) :   0.7751 B(  0-C , 12-H ) :   0.9889 B(  0-C , 13-H ) :   0.9685
B(  0-C , 14-H ) :   0.9724 B(  1-C ,  2-C ) :   1.2834 B(  1-C , 10-C ) :   1.4500
B(  2-C ,  3-C ) :   1.4908 B(  2-C , 15-H ) :   0.9234 B(  3-C ,  4-C ) :   1.2377
B(  3-C , 11-C ) :   0.7825 B(  4-C ,  5-C ) :   1.2269 B(  4-C ,  9-C ) :   1.3835
B(  5-C ,  6-C ) :   1.4771 B(  5-C , 16-H ) :   0.9574 B(  6-C ,  7-C ) :   1.2309
B(  6-C , 17-H ) :   0.9641 B(  7-C ,  8-C ) :   1.4644 B(  7-C , 18-H ) :   0.9605
B(  8-C ,  9-C ) :   1.1809 B(  8-C , 19-H ) :   0.9573 B(  9-C , 10-C ) :   1.1979
B( 10-C , 20-H ) :   0.9663 B( 11-C , 21-H ) :   0.9712 B( 11-C , 22-H ) :   0.9714
B( 11-C , 23-H ) :   0.9803

Dispersion correction           -0.009545718
FINAL SINGLE POINT ENERGY      -464.391733690742

DIPOLE MOMENT
-------------

Method             : SCF
Type of density    : Electron Density
Multiplicity       :   1
Irrep              :   0
Energy             :  -464.3893120868181654 Eh
Relativity type    :
Basis              : AO
                                X                 Y                 Z
Electronic contribution:      4.994061929      -2.363655571       0.007221786
Nuclear contribution   :     -5.281891934       2.527883157      -0.012986016
                        -----------------------------------------
Total Dipole Moment    :     -0.287830004       0.164227586      -0.005764230
                        -----------------------------------------
Magnitude (a.u.)       :      0.331436325
Magnitude (Debye)      :      0.842444189

Rotational constants in cm-1:             0.053060             0.027604             0.018281
Rotational constants in MHz :          1590.693601           827.554057           548.048233

                             ****ORCA TERMINATED NORMALLY****
TOTAL RUN TIME: 0 days 0 hours 0 minutes 43 seconds 546 msec
