                         Program Version 6.0.0  -   RELEASE  -
|  1> ! wb97x-v def2-tzvp def2/J RIJCOSX DEFGRID2 scfconv7 GCP(DFT/TZ) printgap
|  2> %output
|  3>     printlevel normal
|  4> end
|  5> * xyz 0 1
|  6> C -2.4774920413686847 0.8888599330726271 0.8027222077215772
|  7> C -1.703286152261597 -0.14655926343977016 0.04087251235969308
|  8> O -2.28717525355606 -1.032933023924006 -0.5845534009449994
|  9> C -0.21557643637134616 -0.08628863691806908 0.05127222883652843
| 10> C 0.51213686086356 -1.0677542927610115 -0.6365692575080374
| 11> C 1.8991509104035196 -1.0388300582448393 -0.6412501340392844
| 12> C 2.5782980628663226 -0.02792524269195095 0.03925323445338872
| 13> C 1.8649125923482275 0.9533306130579469 0.7233101899294418
| 14> C 0.4747507049866899 0.9256993059613062 0.731504553856436
| 15> H -2.256233962446152 1.8896821772919663 0.4155697527718788
| 16> H -2.1899744923958853 0.8836220685803045 1.859470474068258
| 17> H -3.545182526694801 0.6885995121765434 0.7104983251112188
| 18> H -0.021069631809823092 -1.8511499487319103 -1.1640211318569502
| 19> H 2.455383812649278 -1.8032562326727257 -1.1741413763177586
| 20> H 3.6635051800094707 -0.006185109977213382 0.03558819880371645
| 21> H 2.392257633567524 1.740793218247388 1.2517531830956046
| 22> H -0.06793807305917203 1.6953048980137382 1.2684665105878241
| 23> *
| 24>
| 25>                          ****END OF INPUT****

CARTESIAN COORDINATES (ANGSTROEM)
---------------------------------
  C     -2.477492    0.888860    0.802722
  C     -1.703286   -0.146559    0.040873
  O     -2.287175   -1.032933   -0.584553
  C     -0.215576   -0.086289    0.051272
  C      0.512137   -1.067754   -0.636569
  C      1.899151   -1.038830   -0.641250
  C      2.578298   -0.027925    0.039253
  C      1.864913    0.953331    0.723310
  C      0.474751    0.925699    0.731505
  H     -2.256234    1.889682    0.415570
  H     -2.189974    0.883622    1.859470
  H     -3.545183    0.688600    0.710498
  H     -0.021070   -1.851150   -1.164021
  H      2.455384   -1.803256   -1.174141
  H      3.663505   -0.006185    0.035588
  H      2.392258    1.740793    1.251753
  H     -0.067938    1.695305    1.268467

 Total Charge           Charge          ....    0
 Multiplicity           Mult            ....    1
 Number of Electrons    NEL             ....   64
 Basis Dimension        Dim             ....  327

ORBITAL ENERGIES
----------------

  NO   OCC          E(Eh)            E(eV)
   0   2.0000     -21.659170      -589.3760
   1   2.0000     -12.142318      -330.4093
   2   2.0000     -12.070745      -328.4617
   3   2.0000     -12.068581      -328.4028
   4   2.0000     -12.067951      -328.3856
   5   2.0000     -12.064329      -328.2871
   6   2.0000     -12.063423      -328.2624
   7   2.0000     -12.061380      -328.2068
   8   2.0000     -12.053994      -328.0059
   9   2.0000      -1.700862       -46.2828
  10   2.0000      -1.398766       -38.0624
  11   2.0000      -1.309560       -35.6349
  12   2.0000      -1.287811       -35.0431
  13   2.0000      -1.253776       -34.1170
  14   2.0000      -1.150218       -31.2990
  15   2.0000      -1.118344       -30.4317
  16   2.0000      -1.081524       -29.4298
  17   2.0000      -1.016373       -27.6569
  18   2.0000      -0.976188       -26.5634
  19   2.0000      -0.959122       -26.0990
  20   2.0000      -0.945420       -25.7262
  21   2.0000      -0.912351       -24.8263
  22   2.0000      -0.907429       -24.6924
  23   2.0000      -0.888848       -24.1868
  24   2.0000      -0.848606       -23.0917
  25   2.0000      -0.837923       -22.8011
  26   2.0000      -0.832782       -22.6611
  27   2.0000      -0.819794       -22.3077
  28   2.0000      -0.804952       -21.9039
  29   2.0000      -0.784372       -21.3439
  30   2.0000      -0.660023       -17.9602
  31   2.0000      -0.651529       -17.7290
  32   0.0000      -0.342459        -9.3188
  33   0.0000      -0.246593        -6.7101
  34   0.0000      -0.214869        -5.8469
  35   0.0000      -0.069949        -1.9034
  36   0.0000      -0.069879        -1.9015

MULLIKEN ATOMIC CHARGES
-----------------------
   0 C :   -0.364789
   1 C :    0.214813
   2 O :   -0.324120
   3 C :    0.090215
   4 C :   -0.167145
   5 C :   -0.096346
   6 C :   -0.106410
   7 C :   -0.135656
   8 C :   -0.183580
   9 H :    0.134156
  10 H :    0.134270
  11 H :    0.144695
  12 H :    0.151570
  13 H :    0.125089
  14 H :    0.125153
  15 H :    0.122753
  16 H :    0.135330
Sum of atomic charges:   -0.0000000

LOEWDIN ATOMIC CHARGES
----------------------
   0 C :   -0.257503
   1 C :   -0.294910
   2 O :    0.105986
   3 C :   -0.128350
   4 C :   -0.071677
   5 C :   -0.132985
   6 C :   -0.122274
   7 C :   -0.137625
   8 C :   -0.097152
   9 H :    0.134924
  10 H :    0.134168
  11 H :    0.132690
  12 H :    0.155729
  13 H :    0.144130
  14 H :    0.143696
  15 H :    0.143322
  16 H :    0.147831

  Mayer bond orders larger than 0.100000
B(  0-C ,  1-C ) :   1.0022 B(  0-C ,  9-H ) :   0.9555 B(  0-C , 10-H ) :   0.9584
B(  0-C , 11-H ) :   0.9788 B(  1-C ,  2-O ) :   2.1060 B(  1-C ,  3-C ) :   0.9417
B(  2-O ,  3-C ) :  -0.1219 B(  3-C ,  4-C ) :   1.3937 B(  3-C ,  8-C ) :   1.3319
B(  4-C ,  5-C ) :   1.4379 B(  4-C , 12-H ) :   0.9496 B(  5-C ,  6-C ) :   1.4012
B(  5-C , 13-H ) :   0.9761 B(  6-C ,  7-C ) :   1.4330 B(  6-C , 14-H ) :   0.9706
B(  7-C ,  8-C ) :   1.4653 B(  7-C , 15-H ) :   0.9717 B(  8-C , 16-H ) :   0.9560

FINAL SINGLE POINT ENERGY      -384.912439024224

DIPOLE MOMENT
-------------

Method             : SCF
Type of density    : Electron Density
Multiplicity       :   1
Irrep              :   0
Energy             :  -384.9215523952235571 Eh
Relativity type    :
Basis              : AO
                                X                 Y                 Z
Electronic contribution:      0.383162077      -2.752216027      -1.986093715
Nuclear contribution   :      0.428583215       3.550979981       2.544475266
                        -----------------------------------------
Total Dipole Moment    :      0.811745291       0.798763954       0.558381551
                        -----------------------------------------
Magnitude (a.u.)       :      1.268362814
Magnitude (Debye)      :      3.223922065

Rotational constants in cm-1:             0.123000             0.040781             0.030803
Rotational constants in MHz :          3687.437157          1222.588439           923.465002

                             ****ORCA TERMINATED NORMALLY****
TOTAL RUN TIME: 0 days 0 hours 3 minutes 27 seconds 240 msec
