                         Program Version 6.0.0  -   RELEASE  -
|  1> ! wb97x-v def2-tzvp def2/J RIJCOSX DEFGRID2 scfconv7 GCP(DFT/TZ) printgap
|  2> %output
|  3>     printlevel normal
|  4> end
|  5> %cpcm
|  6>     smd true
|  7>     smdsolvent "water"
|  8> end
|  9> * xyz 0 1
| 10> C -2.4774920413686847 0.8888599330726271 0.8027222077215772
| 11> C -1.703286152261597 -0.14655926343977016 0.04087251235969308
| 12> O -2.28717525355606 -1.032933023924006 -0.5845534009449994
| 13> C -0.21557643637134616 -0.08628863691806908 0.05127222883652843
| 14> C 0.51213686086356 -1.0677542927610115 -0.6365692575080374
| 15> C 1.8991509104035196 -1.0388300582448393 -0.6412501340392844
| 16> C 2.5782980628663226 -0.02792524269195095 0.03925323445338872
| 17> C 1.8649125923482275 0.9533306130579469 0.7233101899294418
| 18> C 0.4747507049866899 0.9256993059613062 0.731504553856436
| 19> H -2.256233962446152 1.8896821772919663 0.4155697527718788
| 20> H -2.1899744923958853 0.8836220685803045 1.859470474068258
| 21> H -3.545182526694801 0.6885995121765434 0.7104983251112188
| 22> H -0.021069631809823092 -1.8511499487319103 -1.1640211318569502
| 23> H 2.455383812649278 -1.8032562326727257 -1.1741413763177586
| 24> H 3.6635051800094707 -0.006185109977213382 0.03558819880371645
| 25> H 2.392257633567524 1.740793218247388 1.2517531830956046
| 26> H -0.06793807305917203 1.6953048980137382 1.2684665105878241
| 27> *
| 28>
| 29>                          ****END OF INPUT****

CARTESIAN COORDINATES (ANGSTROEM)
---------------------------------
  C     -2.477492    0.888860    0.802722
  C     -1.703286   -0.146559    0.040873
  O     -2.287175   -1.032933   -0.584553
  C     -0.215576   -0.086289    0.051272
  C      0.512137   -1.067754   -0.636569
  C      1.899151   -1.038830   -0.641250
  C      2.578298   -0.027925    0.039253
  C      1.864913    0.953331    0.723310
  C      0.474751    0.925699    0.731505
  H     -2.256234    1.889682    0.415570
  H     -2.189974    0.883622    1.859470
  H     -3.545183    0.688600    0.710498
  H     -0.021070   -1.851150   -1.164021
  H      2.455384   -1.803256   -1.174141
  H      3.663505   -0.006185    0.035588
  H      2.392258    1.740793    1.251753
  H     -0.067938    1.695305    1.268467

 Total Charge           Charge          ....    0
 Multiplicity           Mult            ....    1
 Number of Electrons    NEL             ....   64
 Basis Dimension        Dim             ....  327

ORBITAL ENERGIES
----------------

  NO   OCC          E(Eh)            E(eV)
   0   2.0000     -21.669290      -589.6514
   1   2.0000     -12.150549      -330.6332
   2   2.0000     -12.065031      -328.3062
   3   2.0000     -12.061751      -328.2169
   4   2.0000     -12.060039      -328.1703
   5   2.0000     -12.059508      -328.1559
   6   2.0000     -12.054712      -328.0254
   7   2.0000     -12.054088      -328.0084
   8   2.0000     -12.041206      -327.6579
   9   2.0000      -1.714711       -46.6597
  10   2.0000      -1.393646       -37.9230
  11   2.0000      -1.304948       -35.5094
  12   2.0000      -1.281439       -34.8697
  13   2.0000      -1.246838       -33.9282
  14   2.0000      -1.146842       -31.2072
  15   2.0000      -1.111579       -30.2476
  16   2.0000      -1.087579       -29.5945
  17   2.0000      -1.017981       -27.7007
  18   2.0000      -0.973471       -26.4895
  19   2.0000      -0.951437       -25.8899
  20   2.0000      -0.944741       -25.7077
  21   2.0000      -0.920822       -25.0568
  22   2.0000      -0.902760       -24.5653
  23   2.0000      -0.880310       -23.9544
  24   2.0000      -0.842672       -22.9303
  25   2.0000      -0.826832       -22.4992
  26   2.0000      -0.823447       -22.4071
  27   2.0000      -0.812199       -22.1011
  28   2.0000      -0.804289       -21.8858
  29   2.0000      -0.780150       -21.2290
  30   2.0000      -0.656055       -17.8522
  31   2.0000      -0.646020       -17.5791
  32   0.0000      -0.340468        -9.2646
  33   0.0000      -0.240535        -6.5453
  34   0.0000      -0.210864        -5.7379
  35   0.0000      -0.064222        -1.7476
  36   0.0000      -0.063987        -1.7412

MULLIKEN ATOMIC CHARGES
-----------------------
   0 C :   -0.386937
   1 C :    0.289539
   2 O :   -0.453390
   3 C :    0.090819
   4 C :   -0.192156
   5 C :   -0.154682
   6 C :   -0.135767
   7 C :   -0.173325
   8 C :   -0.203931
   9 H :    0.166997
  10 H :    0.166605
  11 H :    0.147553
  12 H :    0.159619
  13 H :    0.165387
  14 H :    0.167977
  15 H :    0.166251
  16 H :    0.179441
Sum of atomic charges:   -0.0000000

LOEWDIN ATOMIC CHARGES
----------------------
   0 C :   -0.249877
   1 C :   -0.278389
   2 O :    0.029914
   3 C :   -0.136499
   4 C :   -0.085859
   5 C :   -0.138736
   6 C :   -0.121101
   7 C :   -0.138674
   8 C :   -0.087724
   9 H :    0.147909
  10 H :    0.146960
  11 H :    0.132545
  12 H :    0.155715
  13 H :    0.153800
  14 H :    0.154576
  15 H :    0.154085
  16 H :    0.161357

  Mayer bond orders larger than 0.100000
B(  0-C ,  1-C ) :   1.0343 B(  0-C ,  9-H ) :   0.9426 B(  0-C , 10-H ) :   0.9458
B(  0-C , 11-H ) :   0.9695 B(  1-C ,  2-O ) :   1.9680 B(  1-C ,  3-C ) :   0.9621
B(  2-O ,  3-C ) :  -0.1144 B(  3-C ,  4-C ) :   1.3290 B(  3-C ,  8-C ) :   1.3224
B(  4-C ,  5-C ) :   1.4460 B(  4-C , 12-H ) :   0.9605 B(  5-C ,  6-C ) :   1.3858
B(  5-C , 13-H ) :   0.9776 B(  6-C ,  7-C ) :   1.4064 B(  6-C , 14-H ) :   0.9708
B(  7-C ,  8-C ) :   1.4365 B(  7-C , 15-H ) :   0.9761 B(  8-C , 16-H ) :   0.9617

FINAL SINGLE POINT ENERGY      -384.921023458496

DIPOLE MOMENT
-------------

Method             : SCF
Type of density    : Electron Density
Multiplicity       :   1
Irrep              :   0
Energy             :  -384.9301368294957228 Eh
Relativity type    :
Basis              : AO
                                X                 Y                 Z
Electronic contribution:      0.776987594      -2.282722857      -1.660176909
Nuclear contribution   :      0.428583215       3.550979981       2.544475266
                        -----------------------------------------
Total Dipole Moment    :      1.205570809       1.268257124       0.884298357
                        -----------------------------------------
Magnitude (a.u.)       :      1.960576622
Magnitude (Debye)      :      4.983389738

Rotational constants in cm-1:             0.123000             0.040781             0.030803
Rotational constants in MHz :          3687.437157          1222.588439           923.465002

                             ****ORCA TERMINATED NORMALLY****
TOTAL RUN TIME: 0 days 0 hours 3 minutes 15 seconds 543 msec
