                         Program Version 6.0.0  -   RELEASE  -
|  1> ! pbe def2-sv(p) def2/J RI DEFGRID1 loosescf d4 GCP(DFT/SV(P)) printgap
|  2> %output
|  3>     printlevel normal
|  4> end
|  5> * xyz 0 1
|  6> C -1.8708931212 -0.5955803841 -0.8594329176
|  7> C -1.199780101 -0.1399405024 0.4462541477
|  8> H -1.9589762122 -0.1734520383 1.2388655108
|  9> C -0.6351254475 1.2852798601 0.3588019268
| 10> H -1.3940710786 1.9281832893 -0.1104126755
| 11> C 0.6485270035 1.3295819023 -0.4944440624
| 12> H 1.1148939257 2.3126151086 -0.3365539472
| 13> C 1.6555494862 0.2915323519 0.028401755
| 14> H 2.4357864876 0.1566617014 -0.7281760348
| 15> C 1.0244672221 -1.097805036 0.2555457605
| 16> H 1.6739464902 -1.6273876871 0.9700745965
| 17> O -0.2214136256 -1.0707652871 0.9093110364
| 18> O 0.976214802 -1.7690880181 -0.9657795402
| 19> O 2.2919755743 0.7444112708 1.1935456813
| 20> O 0.3977682729 1.0969175577 -1.8546050439
| 21> O -0.2839914247 1.785999128 1.629616128
| 22> O -2.7235128676 -1.6961991847 -0.6418583005
| 23> H -1.1070282778 -0.8248215975 -1.6096008627
| 24> H -2.5133929983 0.2022365041 -1.2352804235
| 25> H 0.8632188456 -2.7206027723 -0.8235879287
| 26> H 1.6118762488 1.0675928421 1.8108704442
| 27> H 0.1079544996 1.9145079117 -2.2831343954
| 28> H -1.0624900982 1.8101397456 2.2049928179
| 29> H -2.2136070831 -2.4081839228 -0.2312280047
| 30> *
| 31>
| 32>                          ****END OF INPUT****

CARTESIAN COORDINATES (ANGSTROEM)
---------------------------------
  C     -1.870893   -0.595580   -0.859433
  C     -1.199780   -0.139941    0.446254
  H     -1.958976   -0.173452    1.238866
  C     -0.635125    1.285280    0.358802
  H     -1.394071    1.928183   -0.110413
  C      0.648527    1.329582   -0.494444
  H      1.114894    2.312615   -0.336554
  C      1.655549    0.291532    0.028402
  H      2.435786    0.156662   -0.728176
  C      1.024467   -1.097805    0.255546
  H      1.673946   -1.627388    0.970075
  O     -0.221414   -1.070765    0.909311
  O      0.976215   -1.769088   -0.965780
  O      2.291976    0.744411    1.193546
  O      0.397768    1.096918   -1.854605
  O     -0.283991    1.785999    1.629616
  O     -2.723513   -1.696199   -0.641858
  H     -1.107028   -0.824822   -1.609601
  H     -2.513393    0.202237   -1.235280
  H      0.863219   -2.720603   -0.823588
  H      1.611876    1.067593    1.810870
  H      0.107954    1.914508   -2.283134
  H     -1.062490    1.810140    2.204993
  H     -2.213607   -2.408184   -0.231228

 Total Charge           Charge          ....    0
 Multiplicity           Mult            ....    1
 Number of Electrons    NEL             ....   96
 Basis Dimension        Dim             ....  192

ORBITAL ENERGIES
----------------

  NO   OCC          E(Eh)            E(eV)
   0   2.0000     -18.777186      -510.9532
   1   2.0000     -18.765838      -510.6444
   2   2.0000     -18.763277      -510.5747
   3   2.0000     -18.758757      -510.4517
   4   2.0000     -18.736771      -509.8535
   5   2.0000     -18.736104      -509.8353
   6   2.0000      -9.978724      -271.5349
   7   2.0000      -9.953644      -270.8524
   8   2.0000      -9.948439      -270.7108
   9   2.0000      -9.943679      -270.5813
  10   2.0000      -9.934549      -270.3328
  11   2.0000      -9.919339      -269.9189
  12   2.0000      -0.977662       -26.6035
  13   2.0000      -0.952592       -25.9214
  14   2.0000      -0.938936       -25.5498
  15   2.0000      -0.917214       -24.9587
  16   2.0000      -0.914523       -24.8854
  17   2.0000      -0.904317       -24.6077
  18   2.0000      -0.707473       -19.2513
  19   2.0000      -0.683738       -18.6055
  20   2.0000      -0.618961       -16.8428
  21   2.0000      -0.588479       -16.0133
  22   2.0000      -0.568966       -15.4824
  23   2.0000      -0.521314       -14.1857
  24   2.0000      -0.506062       -13.7707
  25   2.0000      -0.478672       -13.0253
  26   2.0000      -0.470562       -12.8047
  27   2.0000      -0.462623       -12.5886
  28   2.0000      -0.447670       -12.1817
  29   2.0000      -0.435319       -11.8456
  30   2.0000      -0.408267       -11.1095
  31   2.0000      -0.396547       -10.7906
  32   2.0000      -0.379253       -10.3200
  33   2.0000      -0.374917       -10.2020
  34   2.0000      -0.368666       -10.0319
  35   2.0000      -0.347309        -9.4507
  36   2.0000      -0.324653        -8.8343
  37   2.0000      -0.320151        -8.7117
  38   2.0000      -0.311140        -8.4665
  39   2.0000      -0.283300        -7.7090
  40   2.0000      -0.276250        -7.5171
  41   2.0000      -0.266240        -7.2448
  42   2.0000      -0.247574        -6.7368
  43   2.0000      -0.240884        -6.5548
  44   2.0000      -0.237314        -6.4576
  45   2.0000      -0.226151        -6.1539
  46   2.0000      -0.207518        -5.6468
  47   2.0000      -0.199265        -5.4223
  48   0.0000       0.005355         0.1457
  49   0.0000       0.007738         0.2106
  50   0.0000       0.021177         0.5763
  51   0.0000       0.054935         1.4948
  52   0.0000       0.068001         1.8504

MULLIKEN ATOMIC CHARGES
-----------------------
   0 C :    0.033065
   1 C :    0.006315
   2 H :    0.056531
   3 C :    0.046027
   4 H :    0.057383
   5 C :    0.012185
   6 H :    0.079678
   7 C :    0.077535
   8 H :    0.084839
   9 C :    0.176176
  10 H :    0.067151
  11 O :   -0.325240
  12 O :   -0.385865
  13 O :   -0.432563
  14 O :   -0.390646
  15 O :   -0.423590
  16 O :   -0.439741
  17 H :    0.126678
  18 H :    0.064473
  19 H :    0.300061
  20 H :    0.302323
  21 H :    0.306844
  22 H :    0.311502
  23 H :    0.288878
Sum of atomic charges:    0.0000000

LOEWDIN ATOMIC CHARGES
----------------------
   0 C :   -0.149815
   1 C :   -0.074298
   2 H :    0.108651
   3 C :   -0.078202
   4 H :    0.100662
   5 C :   -0.072373
   6 H :    0.109287
   7 C :   -0.068946
   8 H :    0.126028
   9 C :   -0.010940
  10 H :    0.100867
  11 O :   -0.155401
  12 O :   -0.304539
  13 O :   -0.318226
  14 O :   -0.299418
  15 O :   -0.310383
  16 O :   -0.343001
  17 H :    0.114354
  18 H :    0.107712
  19 H :    0.284771
  20 H :    0.272944
  21 H :    0.291768
  22 H :    0.292300
  23 H :    0.276198

  Mayer bond orders larger than 0.100000
B(  0-C ,  1-C ) :   1.0527 B(  0-C , 16-O ) :   1.0491 B(  0-C , 17-H ) :   0.8877
B(  0-C , 18-H ) :   0.9122 B(  1-C ,  2-H ) :   0.8924 B(  1-C ,  3-C ) :   0.9872
B(  1-C , 11-O ) :   1.0001 B(  3-C ,  4-H ) :   0.8954 B(  3-C ,  5-C ) :   0.9653
B(  3-C , 15-O ) :   1.0106 B(  5-C ,  6-H ) :   0.9027 B(  5-C ,  7-C ) :   1.0017
B(  5-C , 14-O ) :   1.0963 B(  7-C ,  8-H ) :   0.8827 B(  7-C ,  9-C ) :   0.9854
B(  7-C , 13-O ) :   1.0611 B(  9-C , 10-H ) :   0.9035 B(  9-C , 11-O ) :   1.0431
B(  9-C , 12-O ) :   1.1252 B( 12-O , 19-H ) :   0.8410 B( 13-O , 20-H ) :   0.8150
B( 14-O , 21-H ) :   0.8441 B( 15-O , 22-H ) :   0.8399 B( 16-O , 23-H ) :   0.8491

Dispersion correction           -0.025737321
FINAL SINGLE POINT ENERGY      -685.691369219740

DIPOLE MOMENT
-------------

Method             : SCF
Type of density    : Electron Density
Multiplicity       :   1
Irrep              :   0
Energy             :  -685.8219273847379327 Eh
Relativity type    :
Basis              : AO
                                X                 Y                 Z
Electronic contribution:      1.726761739      -1.062719275       1.295454775
Nuclear contribution   :     -2.284432990       1.522781036      -1.059103760
                        -----------------------------------------
Total Dipole Moment    :     -0.557671252       0.460061762       0.236351015
                        -----------------------------------------
Magnitude (a.u.)       :      0.760602295
Magnitude (Debye)      :      1.933297393

Rotational constants in cm-1:             0.041395             0.027677             0.024508
Rotational constants in MHz :          1240.998854           829.744242           734.742365

                             ****ORCA TERMINATED NORMALLY****
TOTAL RUN TIME: 0 days 0 hours 0 minutes 12 seconds 343 msec
