                         Program Version 6.0.0  -   RELEASE  -
|  1> ! r2scan-3c def2/J RI DEFGRID2 scfconv6 printgap
|  2> %output
|  3>     printlevel normal
|  4> end
|  5> * xyz 0 1
|  6> C -2.4847834665 -1.0723735821 -0.5076961547
|  7> C -1.7149424242 0.0878149618 0.0445743971
|  8> O -2.2637174853 1.0889656427 0.470575133
|  9> C -0.2271078659 0.0021313672 0.0174247336
| 10> C 0.5079316858 1.1589990535 -0.2377076961
| 11> C 1.8905682803 1.0775463123 -0.259121091
| 12> N 2.5560006036 -0.0430223853 -0.0271304988
| 13> C 1.8583312777 -1.1357850671 0.2392024394
| 14> C 0.4727843762 -1.1757913858 0.2683554969
| 15> H -2.9387572142 -0.7487168117 -1.4437183733
| 16> H -3.2977564716 -1.3244557844 0.1694264868
| 17> H -1.8588482013 -1.9353727703 -0.6988783988
| 18> H -0.0045407067 2.0906612672 -0.4190318034
| 19> H 2.4977509399 1.9480949525 -0.4644508072
| 20> H 2.4437524749 -2.0233026187 0.4347801134
| 21> H -0.0358780481 -2.0938028552 0.512406391
| 22> *
| 23>
| 24>                          ****END OF INPUT****

CARTESIAN COORDINATES (ANGSTROEM)
---------------------------------
  C     -2.484783   -1.072374   -0.507696
  C     -1.714942    0.087815    0.044574
  O     -2.263717    1.088966    0.470575
  C     -0.227108    0.002131    0.017425
  C      0.507932    1.158999   -0.237708
  C      1.890568    1.077546   -0.259121
  N      2.556001   -0.043022   -0.027130
  C      1.858331   -1.135785    0.239202
  C      0.472784   -1.175791    0.268355
  H     -2.938757   -0.748717   -1.443718
  H     -3.297756   -1.324456    0.169426
  H     -1.858848   -1.935373   -0.698878
  H     -0.004541    2.090661   -0.419032
  H      2.497751    1.948095   -0.464451
  H      2.443752   -2.023303    0.434780
  H     -0.035878   -2.093803    0.512406

 Total Charge           Charge          ....    0
 Multiplicity           Mult            ....    1
 Number of Electrons    NEL             ....   64
 Basis Dimension        Dim             ....  216

ORBITAL ENERGIES
----------------

  NO   OCC          E(Eh)            E(eV)
   0   2.0000     -18.951294      -515.6909
   1   2.0000     -14.168119      -385.5341
   2   2.0000     -10.137056      -275.8433
   3   2.0000     -10.080794      -274.3123
   4   2.0000     -10.078901      -274.2608
   5   2.0000     -10.073141      -274.1041
   6   2.0000     -10.063634      -273.8454
   7   2.0000     -10.058085      -273.6944
   8   2.0000     -10.046775      -273.3866
   9   2.0000      -1.017987       -27.7008
  10   2.0000      -0.928725       -25.2719
  11   2.0000      -0.801733       -21.8163
  12   2.0000      -0.747725       -20.3466
  13   2.0000      -0.727840       -19.8055
  14   2.0000      -0.632158       -17.2019
  15   2.0000      -0.617094       -16.7920
  16   2.0000      -0.545400       -14.8411
  17   2.0000      -0.483921       -13.1682
  18   2.0000      -0.474793       -12.9198
  19   2.0000      -0.449543       -12.2327
  20   2.0000      -0.429946       -11.6994
  21   2.0000      -0.423752       -11.5309
  22   2.0000      -0.412365       -11.2210
  23   2.0000      -0.406886       -11.0719
  24   2.0000      -0.389218       -10.5912
  25   2.0000      -0.370494       -10.0817
  26   2.0000      -0.349790        -9.5183
  27   2.0000      -0.337498        -9.1838
  28   2.0000      -0.282965        -7.6999
  29   2.0000      -0.262892        -7.1537
  30   2.0000      -0.241331        -6.5669
  31   2.0000      -0.227933        -6.2024
  32   0.0000      -0.102483        -2.7887
  33   0.0000      -0.055008        -1.4968
  34   0.0000      -0.022440        -0.6106
  35   0.0000       0.063730         1.7342
  36   0.0000       0.091975         2.5028

MULLIKEN ATOMIC CHARGES
-----------------------
   0 C :   -0.516858
   1 C :    0.237588
   2 O :   -0.333083
   3 C :    0.125299
   4 C :   -0.095563
   5 C :   -0.116737
   6 N :   -0.164707
   7 C :   -0.115057
   8 C :   -0.136661
   9 H :    0.183673
  10 H :    0.182984
  11 H :    0.154433
  12 H :    0.174826
  13 H :    0.136151
  14 H :    0.135338
  15 H :    0.148374
Sum of atomic charges:    0.0000000

LOEWDIN ATOMIC CHARGES
----------------------
   0 C :   -0.377275
   1 C :    0.242452
   2 O :   -0.446750
   3 C :   -0.041135
   4 C :   -0.092085
   5 C :    0.087658
   6 N :   -0.602020
   7 C :    0.085920
   8 C :   -0.126113
   9 H :    0.187949
  10 H :    0.182855
  11 H :    0.162741
  12 H :    0.187347
  13 H :    0.187500
  14 H :    0.186889
  15 H :    0.174068

  Mayer bond orders larger than 0.100000
B(  0-C ,  1-C ) :   0.9180 B(  0-C ,  9-H ) :   0.9422 B(  0-C , 10-H ) :   0.9631
B(  0-C , 11-H ) :   0.9685 B(  1-C ,  2-O ) :   1.9441 B(  1-C ,  3-C ) :   0.8737
B(  2-O ,  3-C ) :  -0.1275 B(  3-C ,  4-C ) :   1.3629 B(  3-C ,  8-C ) :   1.3491
B(  4-C ,  5-C ) :   1.3345 B(  4-C , 12-H ) :   0.9368 B(  5-C ,  6-N ) :   1.4494
B(  5-C , 13-H ) :   0.9921 B(  6-N ,  7-C ) :   1.4763 B(  7-C ,  8-C ) :   1.3632
B(  7-C , 14-H ) :   0.9917 B(  8-C , 15-H ) :   0.9284

Dispersion correction           -0.005270603
FINAL SINGLE POINT ENERGY      -400.827842192078

DIPOLE MOMENT
-------------

Method             : SCF
Type of density    : Electron Density
Multiplicity       :   1
Irrep              :   0
Energy             :  -400.8299312342880398 Eh
Relativity type    :
Basis              : AO
                                X                 Y                 Z
Electronic contribution:      2.749029687       2.971061033       1.377145095
Nuclear contribution   :     -3.016284499      -3.818306993      -1.784583060
                        -----------------------------------------
Total Dipole Moment    :     -0.267254812      -0.847245960      -0.407437965
                        -----------------------------------------
Magnitude (a.u.)       :      0.977372266
Magnitude (Debye)      :      2.484282871

Rotational constants in cm-1:             0.128537             0.039906             0.031975
Rotational constants in MHz :          3853.451979          1196.341281           958.571573

                             ****ORCA TERMINATED NORMALLY****
TOTAL RUN TIME: 0 days 0 hours 0 minutes 31 seconds 569 msec
