                         Program Version 6.0.0  -   RELEASE  -
|  1> ! r2scan-3c def2/J RI DEFGRID2 scfconv6 printgap
|  2> %output
|  3>     printlevel normal
|  4> end
|  5> %cpcm
|  6>     smd true
|  7>     smdsolvent "water"
|  8> end
|  9> * xyz 0 1
| 10> C -2.4847834665 -1.0723735821 -0.5076961547
| 11> C -1.7149424242 0.0878149618 0.0445743971
| 12> O -2.2637174853 1.0889656427 0.470575133
| 13> C -0.2271078659 0.0021313672 0.0174247336
| 14> C 0.5079316858 1.1589990535 -0.2377076961
| 15> C 1.8905682803 1.0775463123 -0.259121091
| 16> N 2.5560006036 -0.0430223853 -0.0271304988
| 17> C 1.8583312777 -1.1357850671 0.2392024394
| 18> C 0.4727843762 -1.1757913858 0.2683554969
| 19> H -2.9387572142 -0.7487168117 -1.4437183733
| 20> H -3.2977564716 -1.3244557844 0.1694264868
| 21> H -1.8588482013 -1.9353727703 -0.6988783988
| 22> H -0.0045407067 2.0906612672 -0.4190318034
| 23> H 2.4977509399 1.9480949525 -0.4644508072
| 24> H 2.4437524749 -2.0233026187 0.4347801134
| 25> H -0.0358780481 -2.0938028552 0.512406391
| 26> *
| 27>
| 28>                          ****END OF INPUT****

CARTESIAN COORDINATES (ANGSTROEM)
---------------------------------
  C     -2.484783   -1.072374   -0.507696
  C     -1.714942    0.087815    0.044574
  O     -2.263717    1.088966    0.470575
  C     -0.227108    0.002131    0.017425
  C      0.507932    1.158999   -0.237708
  C      1.890568    1.077546   -0.259121
  N      2.556001   -0.043022   -0.027130
  C      1.858331   -1.135785    0.239202
  C      0.472784   -1.175791    0.268355
  H     -2.938757   -0.748717   -1.443718
  H     -3.297756   -1.324456    0.169426
  H     -1.858848   -1.935373   -0.698878
  H     -0.004541    2.090661   -0.419032
  H      2.497751    1.948095   -0.464451
  H      2.443752   -2.023303    0.434780
  H     -0.035878   -2.093803    0.512406

 Total Charge           Charge          ....    0
 Multiplicity           Mult            ....    1
 Number of Electrons    NEL             ....   64
 Basis Dimension        Dim             ....  216

ORBITAL ENERGIES
----------------

  NO   OCC          E(Eh)            E(eV)
   0   2.0000     -18.955847      -515.8148
   1   2.0000     -14.167369      -385.5137
   2   2.0000     -10.138219      -275.8750
   3   2.0000     -10.072475      -274.0860
   4   2.0000     -10.072297      -274.0811
   5   2.0000     -10.066670      -273.9280
   6   2.0000     -10.052631      -273.5460
   7   2.0000     -10.051177      -273.5064
   8   2.0000     -10.028324      -272.8846
   9   2.0000      -1.024067       -27.8663
  10   2.0000      -0.925630       -25.1877
  11   2.0000      -0.795436       -21.6449
  12   2.0000      -0.739970       -20.1356
  13   2.0000      -0.714435       -19.4408
  14   2.0000      -0.624643       -16.9974
  15   2.0000      -0.609723       -16.5914
  16   2.0000      -0.537158       -14.6168
  17   2.0000      -0.477983       -13.0066
  18   2.0000      -0.468758       -12.7556
  19   2.0000      -0.438448       -11.9308
  20   2.0000      -0.423103       -11.5132
  21   2.0000      -0.416137       -11.3237
  22   2.0000      -0.405923       -11.0457
  23   2.0000      -0.399947       -10.8831
  24   2.0000      -0.385355       -10.4860
  25   2.0000      -0.358297        -9.7498
  26   2.0000      -0.341889        -9.3033
  27   2.0000      -0.331394        -9.0177
  28   2.0000      -0.280207        -7.6248
  29   2.0000      -0.256349        -6.9756
  30   2.0000      -0.245962        -6.6930
  31   2.0000      -0.231362        -6.2957
  32   0.0000      -0.099634        -2.7112
  33   0.0000      -0.048020        -1.3067
  34   0.0000      -0.018700        -0.5088
  35   0.0000       0.078139         2.1263
  36   0.0000       0.100943         2.7468

MULLIKEN ATOMIC CHARGES
-----------------------
   0 C :   -0.552611
   1 C :    0.299814
   2 O :   -0.428806
   3 C :    0.110234
   4 C :   -0.129949
   5 C :   -0.135314
   6 N :   -0.218742
   7 C :   -0.130718
   8 C :   -0.126972
   9 H :    0.209433
  10 H :    0.198501
  11 H :    0.183030
  12 H :    0.198191
  13 H :    0.165370
  14 H :    0.165624
  15 H :    0.192913
Sum of atomic charges:    0.0000000

LOEWDIN ATOMIC CHARGES
----------------------
   0 C :   -0.372656
   1 C :    0.261917
   2 O :   -0.514751
   3 C :   -0.041613
   4 C :   -0.094944
   5 C :    0.083486
   6 N :   -0.644933
   7 C :    0.084514
   8 C :   -0.106976
   9 H :    0.198351
  10 H :    0.189898
  11 H :    0.175668
  12 H :    0.194475
  13 H :    0.197591
  14 H :    0.197807
  15 H :    0.192168

  Mayer bond orders larger than 0.100000
B(  0-C ,  1-C ) :   0.9284 B(  0-C ,  9-H ) :   0.9323 B(  0-C , 10-H ) :   0.9519
B(  0-C , 11-H ) :   0.9563 B(  1-C ,  2-O ) :   1.8809 B(  1-C ,  3-C ) :   0.8836
B(  2-O ,  3-C ) :  -0.1193 B(  3-C ,  4-C ) :   1.3203 B(  3-C ,  8-C ) :   1.3563
B(  4-C ,  5-C ) :   1.3561 B(  4-C , 12-H ) :   0.9400 B(  5-C ,  6-N ) :   1.4505
B(  5-C , 13-H ) :   0.9778 B(  6-N ,  7-C ) :   1.4677 B(  7-C ,  8-C ) :   1.3728
B(  7-C , 14-H ) :   0.9767 B(  8-C , 15-H ) :   0.9222

Dispersion correction           -0.005270603
FINAL SINGLE POINT ENERGY      -400.840528674814

DIPOLE MOMENT
-------------

Method             : SCF
Type of density    : Electron Density
Multiplicity       :   1
Irrep              :   0
Energy             :  -400.8426177170244387 Eh
Relativity type    :
Basis              : AO
                                X                 Y                 Z
Electronic contribution:      2.647314101       2.503118020       1.204547369
Nuclear contribution   :     -3.016284499      -3.818306993      -1.784583060
                        -----------------------------------------
Total Dipole Moment    :     -0.368970398      -1.315188974      -0.580035690
                        -----------------------------------------
Magnitude (a.u.)       :      1.484015699
Magnitude (Debye)      :      3.772068134

Rotational constants in cm-1:             0.128537             0.039906             0.031975
Rotational constants in MHz :          3853.451979          1196.341281           958.571573

                             ****ORCA TERMINATED NORMALLY****
TOTAL RUN TIME: 0 days 0 hours 0 minutes 32 seconds 452 msec
