                         Program Version 6.0.0  -   RELEASE  -
|  1> ! wb97x-v def2-tzvp def2/J RIJCOSX DEFGRID2 scfconv7 GCP(DFT/TZ) printgap
|  2> %output
|  3>     printlevel normal
|  4> end
|  5> * xyz 0 1
|  6> C -2.559729208389006 -0.2073444880020706 1.0125289376891087
|  7> S -1.8552871307158 0.24208219449744758 -0.6251662615359256
|  8> C -0.10736281573721498 0.07495545210594116 -0.24572787764507878
|  9> C 0.6139057556253591 1.1746134625095521 0.22516415574952348
| 10> C 1.9700454984844682 1.043643907443985 0.5143169426811153
| 11> C 2.6104261737628955 -0.17980340187444938 0.3315416036318548
| 12> C 1.8923156046359493 -1.274703258126637 -0.14386061267645148
| 13> C 0.5360074251020902 -1.1504362292141344 -0.4351173501353277
| 14> H -2.2230516483433993 0.4956197065107206 1.7782589203590826
| 15> H -2.2763941497421714 -1.2274410745731332 1.2828978646730107
| 16> H -3.647365530625547 -0.1467270689374759 0.918449710721821
| 17> H 0.11503512421004587 2.1280563783393087 0.36583205297114774
| 18> H 2.5257295630502434 1.9011501604681842 0.8808074009519774
| 19> H 3.6673140534219266 -0.2794427596495726 0.5574300747270047
| 20> H 2.3873321234198905 -2.229418537128537 -0.2916961734591267
| 21> H -0.023071658139756705 -2.0027639890811892 -0.8076345854920549
| 22> *
| 23>
| 24>                          ****END OF INPUT****

CARTESIAN COORDINATES (ANGSTROEM)
---------------------------------
  C     -2.559729   -0.207344    1.012529
  S     -1.855287    0.242082   -0.625166
  C     -0.107363    0.074955   -0.245728
  C      0.613906    1.174613    0.225164
  C      1.970045    1.043644    0.514317
  C      2.610426   -0.179803    0.331542
  C      1.892316   -1.274703   -0.143861
  C      0.536007   -1.150436   -0.435117
  H     -2.223052    0.495620    1.778259
  H     -2.276394   -1.227441    1.282898
  H     -3.647366   -0.146727    0.918450
  H      0.115035    2.128056    0.365832
  H      2.525730    1.901150    0.880807
  H      3.667314   -0.279443    0.557430
  H      2.387332   -2.229419   -0.291696
  H     -0.023072   -2.002764   -0.807635

 Total Charge           Charge          ....    0
 Multiplicity           Mult            ....    1
 Number of Electrons    NEL             ....   66
 Basis Dimension        Dim             ....  302

ORBITAL ENERGIES
----------------

  NO   OCC          E(Eh)            E(eV)
   0   2.0000     -94.120881     -2561.1594
   1   2.0000     -12.083531      -328.8096
   2   2.0000     -12.072207      -328.5015
   3   2.0000     -12.060968      -328.1956
   4   2.0000     -12.060728      -328.1891
   5   2.0000     -12.059794      -328.1637
   6   2.0000     -12.058338      -328.1241
   7   2.0000     -12.057457      -328.1001
   8   2.0000      -9.630984      -262.0724
   9   2.0000      -7.608931      -207.0495
  10   2.0000      -7.607844      -207.0199
  11   2.0000      -7.606882      -206.9938
  12   2.0000      -1.393263       -37.9126
  13   2.0000      -1.306806       -35.5600
  14   2.0000      -1.281263       -34.8649
  15   2.0000      -1.248149       -33.9639
  16   2.0000      -1.144363       -31.1397
  17   2.0000      -1.114612       -30.3301
  18   2.0000      -1.081298       -29.4236
  19   2.0000      -0.965840       -26.2819
  20   2.0000      -0.960172       -26.1276
  21   2.0000      -0.915694       -24.9173
  22   2.0000      -0.882325       -24.0093
  23   2.0000      -0.876789       -23.8586
  24   2.0000      -0.848174       -23.0800
  25   2.0000      -0.843672       -22.9575
  26   2.0000      -0.819342       -22.2954
  27   2.0000      -0.816233       -22.2108
  28   2.0000      -0.783370       -21.3166
  29   2.0000      -0.750905       -20.4332
  30   2.0000      -0.647371       -17.6159
  31   2.0000      -0.645521       -17.5655
  32   2.0000      -0.644351       -17.5337
  33   0.0000      -0.261221        -7.1082
  34   0.0000      -0.243068        -6.6142
  35   0.0000      -0.195178        -5.3111
  36   0.0000      -0.173534        -4.7221
  37   0.0000      -0.074666        -2.0318

MULLIKEN ATOMIC CHARGES
-----------------------
   0 C :   -0.344128
   1 S :   -0.104220
   2 C :    0.109235
   3 C :   -0.169832
   4 C :   -0.114245
   5 C :   -0.107961
   6 C :   -0.114187
   7 C :   -0.169246
   8 H :    0.129784
   9 H :    0.129794
  10 H :    0.133738
  11 H :    0.128616
  12 H :    0.120969
  13 H :    0.122171
  14 H :    0.120903
  15 H :    0.128609
Sum of atomic charges:    0.0000000

LOEWDIN ATOMIC CHARGES
----------------------
   0 C :   -0.490652
   1 S :    0.503047
   2 C :   -0.360248
   3 C :   -0.138265
   4 C :   -0.137348
   5 C :   -0.135366
   6 C :   -0.137367
   7 C :   -0.138165
   8 H :    0.103359
   9 H :    0.103379
  10 H :    0.109054
  11 H :    0.145263
  12 H :    0.142774
  13 H :    0.142498
  14 H :    0.142770
  15 H :    0.145266

  Mayer bond orders larger than 0.100000
B(  0-C ,  1-S ) :   1.0558 B(  0-C ,  8-H ) :   0.9670 B(  0-C ,  9-H ) :   0.9670
B(  0-C , 10-H ) :   0.9626 B(  1-S ,  2-C ) :   0.9129 B(  2-C ,  3-C ) :   1.3949
B(  2-C ,  7-C ) :   1.3949 B(  3-C ,  4-C ) :   1.4130 B(  3-C , 11-H ) :   0.9681
B(  4-C ,  5-C ) :   1.4204 B(  4-C , 12-H ) :   0.9716 B(  5-C ,  6-C ) :   1.4194
B(  5-C , 13-H ) :   0.9702 B(  6-C ,  7-C ) :   1.4131 B(  6-C , 14-H ) :   0.9718
B(  7-C , 15-H ) :   0.9679

FINAL SINGLE POINT ENERGY      -669.710814468575

DIPOLE MOMENT
-------------

Method             : SCF
Type of density    : Electron Density
Multiplicity       :   1
Irrep              :   0
Energy             :  -669.7193597113753185 Eh
Relativity type    :
Basis              : AO
                                X                 Y                 Z
Electronic contribution:     -0.193421440       1.110270211      -3.826972716
Nuclear contribution   :      0.512372489      -1.293147555       4.424940656
                        -----------------------------------------
Total Dipole Moment    :      0.318951049      -0.182877345       0.597967940
                        -----------------------------------------
Magnitude (a.u.)       :      0.701954095
Magnitude (Debye)      :      1.784225515

Rotational constants in cm-1:             0.133393             0.036997             0.033067
Rotational constants in MHz :          3999.021020          1109.142182           991.330359

                             ****ORCA TERMINATED NORMALLY****
TOTAL RUN TIME: 0 days 0 hours 2 minutes 15 seconds 818 msec
