                         Program Version 6.0.0  -   RELEASE  -
|  1> ! wb97x-v def2-tzvp def2/J RIJCOSX DEFGRID2 scfconv7 GCP(DFT/TZ) printgap
|  2> %output
|  3>     printlevel normal
|  4> end
|  5> %cpcm
|  6>     smd true
|  7>     smdsolvent "water"
|  8> end
|  9> * xyz 0 1
| 10> C -2.559729208389006 -0.2073444880020706 1.0125289376891087
| 11> S -1.8552871307158 0.24208219449744758 -0.6251662615359256
| 12> C -0.10736281573721498 0.07495545210594116 -0.24572787764507878
| 13> C 0.6139057556253591 1.1746134625095521 0.22516415574952348
| 14> C 1.9700454984844682 1.043643907443985 0.5143169426811153
| 15> C 2.6104261737628955 -0.17980340187444938 0.3315416036318548
| 16> C 1.8923156046359493 -1.274703258126637 -0.14386061267645148
| 17> C 0.5360074251020902 -1.1504362292141344 -0.4351173501353277
| 18> H -2.2230516483433993 0.4956197065107206 1.7782589203590826
| 19> H -2.2763941497421714 -1.2274410745731332 1.2828978646730107
| 20> H -3.647365530625547 -0.1467270689374759 0.918449710721821
| 21> H 0.11503512421004587 2.1280563783393087 0.36583205297114774
| 22> H 2.5257295630502434 1.9011501604681842 0.8808074009519774
| 23> H 3.6673140534219266 -0.2794427596495726 0.5574300747270047
| 24> H 2.3873321234198905 -2.229418537128537 -0.2916961734591267
| 25> H -0.023071658139756705 -2.0027639890811892 -0.8076345854920549
| 26> *
| 27>
| 28>                          ****END OF INPUT****

CARTESIAN COORDINATES (ANGSTROEM)
---------------------------------
  C     -2.559729   -0.207344    1.012529
  S     -1.855287    0.242082   -0.625166
  C     -0.107363    0.074955   -0.245728
  C      0.613906    1.174613    0.225164
  C      1.970045    1.043644    0.514317
  C      2.610426   -0.179803    0.331542
  C      1.892316   -1.274703   -0.143861
  C      0.536007   -1.150436   -0.435117
  H     -2.223052    0.495620    1.778259
  H     -2.276394   -1.227441    1.282898
  H     -3.647366   -0.146727    0.918450
  H      0.115035    2.128056    0.365832
  H      2.525730    1.901150    0.880807
  H      3.667314   -0.279443    0.557430
  H      2.387332   -2.229419   -0.291696
  H     -0.023072   -2.002764   -0.807635

 Total Charge           Charge          ....    0
 Multiplicity           Mult            ....    1
 Number of Electrons    NEL             ....   66
 Basis Dimension        Dim             ....  302

ORBITAL ENERGIES
----------------

  NO   OCC          E(Eh)            E(eV)
   0   2.0000     -94.121667     -2561.1808
   1   2.0000     -12.082031      -328.7688
   2   2.0000     -12.063195      -328.2562
   3   2.0000     -12.056363      -328.0703
   4   2.0000     -12.055878      -328.0571
   5   2.0000     -12.054723      -328.0257
   6   2.0000     -12.052950      -327.9774
   7   2.0000     -12.051770      -327.9453
   8   2.0000      -9.631819      -262.0951
   9   2.0000      -7.609803      -207.0733
  10   2.0000      -7.608696      -207.0431
  11   2.0000      -7.607911      -207.0218
  12   2.0000      -1.390598       -37.8401
  13   2.0000      -1.304194       -35.4889
  14   2.0000      -1.277388       -34.7595
  15   2.0000      -1.243929       -33.8490
  16   2.0000      -1.138903       -30.9911
  17   2.0000      -1.110233       -30.2110
  18   2.0000      -1.076947       -29.3052
  19   2.0000      -0.960040       -26.1240
  20   2.0000      -0.956265       -26.0213
  21   2.0000      -0.908924       -24.7331
  22   2.0000      -0.876271       -23.8445
  23   2.0000      -0.871663       -23.7192
  24   2.0000      -0.839183       -22.8353
  25   2.0000      -0.835142       -22.7254
  26   2.0000      -0.814735       -22.1701
  27   2.0000      -0.809869       -22.0377
  28   2.0000      -0.780942       -21.2505
  29   2.0000      -0.749573       -20.3969
  30   2.0000      -0.645425       -17.5629
  31   2.0000      -0.645019       -17.5519
  32   2.0000      -0.642894       -17.4940
  33   0.0000      -0.258711        -7.0399
  34   0.0000      -0.240159        -6.5351
  35   0.0000      -0.195257        -5.3132
  36   0.0000      -0.170730        -4.6458
  37   0.0000      -0.071468        -1.9447

MULLIKEN ATOMIC CHARGES
-----------------------
   0 C :   -0.379228
   1 S :   -0.155734
   2 C :    0.140321
   3 C :   -0.204297
   4 C :   -0.162287
   5 C :   -0.146847
   6 C :   -0.162066
   7 C :   -0.203649
   8 H :    0.152661
   9 H :    0.152638
  10 H :    0.160517
  11 H :    0.157833
  12 H :    0.163603
  13 H :    0.165046
  14 H :    0.163542
  15 H :    0.157950
Sum of atomic charges:    0.0000000

LOEWDIN ATOMIC CHARGES
----------------------
   0 C :   -0.487442
   1 S :    0.475078
   2 C :   -0.370025
   3 C :   -0.145304
   4 C :   -0.142701
   5 C :   -0.140263
   6 C :   -0.142695
   7 C :   -0.145127
   8 H :    0.109738
   9 H :    0.109747
  10 H :    0.116299
  11 H :    0.152112
  12 H :    0.152900
  13 H :    0.152617
  14 H :    0.152881
  15 H :    0.152186

  Mayer bond orders larger than 0.100000
B(  0-C ,  1-S ) :   1.0447 B(  0-C ,  8-H ) :   0.9626 B(  0-C ,  9-H ) :   0.9626
B(  0-C , 10-H ) :   0.9546 B(  1-S ,  2-C ) :   0.8885 B(  2-C ,  3-C ) :   1.3575
B(  2-C ,  7-C ) :   1.3577 B(  3-C ,  4-C ) :   1.4068 B(  3-C , 11-H ) :   0.9739
B(  4-C ,  5-C ) :   1.3988 B(  4-C , 12-H ) :   0.9736 B(  5-C ,  6-C ) :   1.3977
B(  5-C , 13-H ) :   0.9708 B(  6-C ,  7-C ) :   1.4067 B(  6-C , 14-H ) :   0.9738
B(  7-C , 15-H ) :   0.9738

FINAL SINGLE POINT ENERGY      -669.713421591774

DIPOLE MOMENT
-------------

Method             : SCF
Type of density    : Electron Density
Multiplicity       :   1
Irrep              :   0
Energy             :  -669.7219668345736636 Eh
Relativity type    :
Basis              : AO
                                X                 Y                 Z
Electronic contribution:     -0.089958807       1.036524059      -3.584639438
Nuclear contribution   :      0.512372489      -1.293147555       4.424940656
                        -----------------------------------------
Total Dipole Moment    :      0.422413682      -0.256623496       0.840301218
                        -----------------------------------------
Magnitude (a.u.)       :      0.974882083
Magnitude (Debye)      :      2.477953328

Rotational constants in cm-1:             0.133393             0.036997             0.033067
Rotational constants in MHz :          3999.021020          1109.142182           991.330359

                             ****ORCA TERMINATED NORMALLY****
TOTAL RUN TIME: 0 days 0 hours 2 minutes 20 seconds 955 msec
