                         Program Version 6.0.0  -   RELEASE  -
|  1> ! pbe def2-sv(p) def2/J RI DEFGRID1 loosescf d4 GCP(DFT/SV(P)) printgap
|  2> %output
|  3>     printlevel normal
|  4> end
|  5> * xyz 0 1
|  6> C -1.0119620237 -1.8042719179 -6.4171e-06
|  7> C 0.3582999876 -1.6170664772 3.77067e-05
|  8> C 0.8747968825 -0.3205542038 -1.64728e-05
|  9> C 0.0115541095 0.7776167856 1.33149e-05
| 10> C -1.3614778084 0.5836574126 6.26398e-05
| 11> C -1.8682946383 -0.7185564272 -1.82731e-05
| 12> O -2.2446964874 1.6067384052 -1.72204e-05
| 13> C 2.3154354389 -0.1025997785 1.05739e-05
| 14> O 2.8670651091 0.9802685981 -2.16647e-05
| 15> H -1.4207706817 -2.8021054877 -0.0001459111
| 16> H 1.0299199986 -2.460918261 -7.32326e-05
| 17> H 0.4434321092 1.7682302675 4.19352e-05
| 18> H -2.9384712562 -0.8500887932 -0.0001218614
| 19> H -1.788482869 2.4623103227 -6.9637e-05
| 20> H 2.9178876462 -1.0292096878 -3.9518e-06
| 21> *
| 22>
| 23>                          ****END OF INPUT****

CARTESIAN COORDINATES (ANGSTROEM)
---------------------------------
  C     -1.011962   -1.804272   -0.000006
  C      0.358300   -1.617066    0.000038
  C      0.874797   -0.320554   -0.000016
  C      0.011554    0.777617    0.000013
  C     -1.361478    0.583657    0.000063
  C     -1.868295   -0.718556   -0.000018
  O     -2.244696    1.606738   -0.000017
  C      2.315435   -0.102600    0.000011
  O      2.867065    0.980269   -0.000022
  H     -1.420771   -2.802105   -0.000146
  H      1.029920   -2.460918   -0.000073
  H      0.443432    1.768230    0.000042
  H     -2.938471   -0.850089   -0.000122
  H     -1.788483    2.462310   -0.000070
  H      2.917888   -1.029210   -0.000004

 Total Charge           Charge          ....    0
 Multiplicity           Mult            ....    1
 Number of Electrons    NEL             ....   64
 Basis Dimension        Dim             ....  138

ORBITAL ENERGIES
----------------

  NO   OCC          E(Eh)            E(eV)
   0   2.0000     -18.797555      -511.5075
   1   2.0000     -18.747574      -510.1474
   2   2.0000      -9.969055      -271.2718
   3   2.0000      -9.967751      -271.2363
   4   2.0000      -9.912868      -269.7428
   5   2.0000      -9.911714      -269.7114
   6   2.0000      -9.909310      -269.6460
   7   2.0000      -9.907747      -269.6035
   8   2.0000      -9.905230      -269.5350
   9   2.0000      -0.979965       -26.6662
  10   2.0000      -0.939438       -25.5634
  11   2.0000      -0.790286       -21.5048
  12   2.0000      -0.700762       -19.0687
  13   2.0000      -0.682319       -18.5668
  14   2.0000      -0.601792       -16.3756
  15   2.0000      -0.571808       -15.5597
  16   2.0000      -0.521709       -14.1964
  17   2.0000      -0.504480       -13.7276
  18   2.0000      -0.459012       -12.4903
  19   2.0000      -0.430007       -11.7011
  20   2.0000      -0.412780       -11.2323
  21   2.0000      -0.397471       -10.8157
  22   2.0000      -0.385370       -10.4864
  23   2.0000      -0.374990       -10.2040
  24   2.0000      -0.356817        -9.7095
  25   2.0000      -0.353800        -9.6274
  26   2.0000      -0.330001        -8.9798
  27   2.0000      -0.315342        -8.5809
  28   2.0000      -0.308056        -8.3826
  29   2.0000      -0.245074        -6.6688
  30   2.0000      -0.214254        -5.8301
  31   2.0000      -0.207608        -5.6493
  32   0.0000      -0.097434        -2.6513
  33   0.0000      -0.038321        -1.0428
  34   0.0000       0.004573         0.1244
  35   0.0000       0.015858         0.4315
  36   0.0000       0.044597         1.2135

MULLIKEN ATOMIC CHARGES
-----------------------
   0 C :   -0.042214
   1 C :   -0.097245
   2 C :    0.086851
   3 C :   -0.220812
   4 C :    0.262286
   5 C :   -0.107855
   6 O :   -0.325142
   7 C :    0.034909
   8 O :   -0.165090
   9 H :    0.062686
  10 H :    0.050882
  11 H :    0.040139
  12 H :    0.058480
  13 H :    0.323979
  14 H :    0.038145
Sum of atomic charges:   -0.0000000

LOEWDIN ATOMIC CHARGES
----------------------
   0 C :   -0.111568
   1 C :   -0.119840
   2 C :   -0.088438
   3 C :   -0.138440
   4 C :    0.022743
   5 C :   -0.123794
   6 O :   -0.224494
   7 C :    0.004928
   8 O :   -0.128851
   9 H :    0.129629
  10 H :    0.127179
  11 H :    0.130701
  12 H :    0.135391
  13 H :    0.303516
  14 H :    0.081339

  Mayer bond orders larger than 0.100000
B(  0-C ,  1-C ) :   1.3468 B(  0-C ,  5-C ) :   1.3800 B(  0-C ,  9-H ) :   0.9650
B(  1-C ,  2-C ) :   1.3257 B(  1-C , 10-H ) :   0.9618 B(  2-C ,  3-C ) :   1.3237
B(  2-C ,  7-C ) :   0.9910 B(  3-C ,  4-C ) :   1.2843 B(  3-C , 11-H ) :   0.9536
B(  4-C ,  5-C ) :   1.3348 B(  4-C ,  6-O ) :   1.2056 B(  5-C , 12-H ) :   0.9635
B(  6-O , 13-H ) :   0.8383 B(  7-C ,  8-O ) :   2.1343 B(  7-C , 14-H ) :   0.9185

Dispersion correction           -0.015452022
FINAL SINGLE POINT ENERGY      -419.926230237161

DIPOLE MOMENT
-------------

Method             : SCF
Type of density    : Electron Density
Multiplicity       :   1
Irrep              :   0
Energy             :  -419.9725267607765886 Eh
Relativity type    :
Basis              : AO
                                X                 Y                 Z
Electronic contribution:      0.918735303       2.407931905       0.000274288
Nuclear contribution   :     -1.638663617      -2.693409134      -0.000350196
                        -----------------------------------------
Total Dipole Moment    :     -0.719928314      -0.285477228      -0.000075908
                        -----------------------------------------
Magnitude (a.u.)       :      0.774463705
Magnitude (Debye)      :      1.968530297

Rotational constants in cm-1:             0.098479             0.043497             0.030171
Rotational constants in MHz :          2952.321004          1304.015541           904.503775

                             ****ORCA TERMINATED NORMALLY****
TOTAL RUN TIME: 0 days 0 hours 0 minutes 6 seconds 915 msec
