                         Program Version 6.0.0  -   RELEASE  -
|  1> ! wb97x-v def2-tzvp def2/J RIJCOSX DEFGRID2 scfconv7 GCP(DFT/TZ) printgap
|  2> %output
|  3>     printlevel normal
|  4> end
|  5> * xyz 0 1
|  6> C -3.6592456834762683 -0.024868389137597677 5.1082585624206765e-05
|  7> C -2.223160174211972 0.5066618200716816 -6.24765443147993e-05
|  8> C -1.2567766755889784 -0.6555997167892559 1.2124552601213067e-05
|  9> I 0.837393735614735 0.0204840980917284 -4.986484495321801e-05
| 10> H -4.372272515323024 0.8052665708499935 -9.921015949048108e-06
| 11> H -3.852631775852322 -0.6377890080766822 -0.8863762176412056
| 12> H -3.852567272009713 -0.6376059927950702 0.8866189090087226
| 13> H -2.055900977683351 1.1320013774904645 0.8828517954453138
| 14> H -2.055970663544824 1.1318139058544918 -0.8831218670828991
| 15> H -1.3336180076474848 -1.2730739433629839 -0.8947403557859014
| 16> H -1.3334881923770947 -1.272854332666773 0.8949305158370214
| 17> *
| 18>
| 19>                          ****END OF INPUT****

CARTESIAN COORDINATES (ANGSTROEM)
---------------------------------
  C     -3.659246   -0.024868    0.000051
  C     -2.223160    0.506662   -0.000062
  C     -1.256777   -0.655600    0.000012
  I      0.837394    0.020484   -0.000050
  H     -4.372273    0.805267   -0.000010
  H     -3.852632   -0.637789   -0.886376
  H     -3.852567   -0.637606    0.886619
  H     -2.055901    1.132001    0.882852
  H     -2.055971    1.131814   -0.883122
  H     -1.333618   -1.273074   -0.894740
  H     -1.333488   -1.272854    0.894931

 Total Charge           Charge          ....    0
 Multiplicity           Mult            ....    1
 Number of Electrons    NEL             ....   50
 Basis Dimension        Dim             ....  185

ORBITAL ENERGIES
----------------

  NO   OCC          E(Eh)            E(eV)
   0   2.0000     -12.101493      -329.2984
   1   2.0000     -12.061502      -328.2102
   2   2.0000     -12.049602      -327.8863
   3   2.0000      -8.112522      -220.7530
   4   2.0000      -6.083387      -165.5374
   5   2.0000      -6.073758      -165.2754
   6   2.0000      -6.073546      -165.2696
   7   2.0000      -3.003642       -81.7332
   8   2.0000      -3.000918       -81.6591
   9   2.0000      -3.000754       -81.6547
  10   2.0000      -2.991738       -81.4093
  11   2.0000      -2.991720       -81.4088
  12   2.0000      -1.313383       -35.7390
  13   2.0000      -1.208331       -32.8804
  14   2.0000      -1.137662       -30.9574
  15   2.0000      -1.070412       -29.1274
  16   2.0000      -0.912704       -24.8359
  17   2.0000      -0.877546       -23.8792
  18   2.0000      -0.854643       -23.2560
  19   2.0000      -0.840308       -22.8659
  20   2.0000      -0.798217       -21.7206
  21   2.0000      -0.774657       -21.0795
  22   2.0000      -0.729546       -19.8520
  23   2.0000      -0.620445       -16.8832
  24   2.0000      -0.618938       -16.8422
  25   0.0000      -0.269714        -7.3393
  26   0.0000      -0.029762        -0.8099
  27   0.0000      -0.020312        -0.5527
  28   0.0000      -0.004922        -0.1339
  29   0.0000       0.005627         0.1531

MULLIKEN ATOMIC CHARGES
-----------------------
   0 C :   -0.343401
   1 C :   -0.165334
   2 C :   -0.244281
   3 I :   -0.096540
   4 H :    0.122171
   5 H :    0.110773
   6 H :    0.110777
   7 H :    0.112034
   8 H :    0.112033
   9 H :    0.140882
  10 H :    0.140885
Sum of atomic charges:   -0.0000000

LOEWDIN ATOMIC CHARGES
----------------------
   0 C :   -0.301940
   1 C :   -0.331246
   2 C :   -0.428141
   3 I :    0.186624
   4 H :    0.120381
   5 H :    0.117672
   6 H :    0.117672
   7 H :    0.135455
   8 H :    0.135455
   9 H :    0.124034
  10 H :    0.124035

  Mayer bond orders larger than 0.100000
B(  0-C ,  1-C ) :   0.9656 B(  0-C ,  4-H ) :   0.9785 B(  0-C ,  5-H ) :   0.9784
B(  0-C ,  6-H ) :   0.9784 B(  1-C ,  2-C ) :   0.9903 B(  1-C ,  7-H ) :   0.9709
B(  1-C ,  8-H ) :   0.9709 B(  2-C ,  3-I ) :   1.0497 B(  2-C ,  9-H ) :   0.9612
B(  2-C , 10-H ) :   0.9612

FINAL SINGLE POINT ENERGY      -416.234278396021

DIPOLE MOMENT
-------------

Method             : SCF
Type of density    : Electron Density
Multiplicity       :   1
Irrep              :   0
Energy             :  -416.2425692455212243 Eh
Relativity type    :
Basis              : AO
                                X                 Y                 Z
Electronic contribution:     76.983973788       2.140299002      -0.001332783
Nuclear contribution   :    -77.857897481      -2.287508027       0.001368108
                        -----------------------------------------
Total Dipole Moment    :     -0.873923693      -0.147209025       0.000035325
                        -----------------------------------------
Magnitude (a.u.)       :      0.886235364
Magnitude (Debye)      :      2.252631275

Rotational constants in cm-1:             0.826374             0.042764             0.041617
Rotational constants in MHz :         24774.057435          1282.022248          1247.654491

                             ****ORCA TERMINATED NORMALLY****
TOTAL RUN TIME: 0 days 0 hours 0 minutes 57 seconds 254 msec
