                         Program Version 6.0.0  -   RELEASE  -
|  1> ! wb97x-v def2-tzvp def2/J RIJCOSX DEFGRID2 scfconv7 GCP(DFT/TZ) printgap
|  2> %output
|  3>     printlevel normal
|  4> end
|  5> %cpcm
|  6>     smd true
|  7>     smdsolvent "water"
|  8> end
|  9> * xyz 0 1
| 10> C -3.6592456834762683 -0.024868389137597677 5.1082585624206765e-05
| 11> C -2.223160174211972 0.5066618200716816 -6.24765443147993e-05
| 12> C -1.2567766755889784 -0.6555997167892559 1.2124552601213067e-05
| 13> I 0.837393735614735 0.0204840980917284 -4.986484495321801e-05
| 14> H -4.372272515323024 0.8052665708499935 -9.921015949048108e-06
| 15> H -3.852631775852322 -0.6377890080766822 -0.8863762176412056
| 16> H -3.852567272009713 -0.6376059927950702 0.8866189090087226
| 17> H -2.055900977683351 1.1320013774904645 0.8828517954453138
| 18> H -2.055970663544824 1.1318139058544918 -0.8831218670828991
| 19> H -1.3336180076474848 -1.2730739433629839 -0.8947403557859014
| 20> H -1.3334881923770947 -1.272854332666773 0.8949305158370214
| 21> *
| 22>
| 23>                          ****END OF INPUT****

CARTESIAN COORDINATES (ANGSTROEM)
---------------------------------
  C     -3.659246   -0.024868    0.000051
  C     -2.223160    0.506662   -0.000062
  C     -1.256777   -0.655600    0.000012
  I      0.837394    0.020484   -0.000050
  H     -4.372273    0.805267   -0.000010
  H     -3.852632   -0.637789   -0.886376
  H     -3.852567   -0.637606    0.886619
  H     -2.055901    1.132001    0.882852
  H     -2.055971    1.131814   -0.883122
  H     -1.333618   -1.273074   -0.894740
  H     -1.333488   -1.272854    0.894931

 Total Charge           Charge          ....    0
 Multiplicity           Mult            ....    1
 Number of Electrons    NEL             ....   50
 Basis Dimension        Dim             ....  185

ORBITAL ENERGIES
----------------

  NO   OCC          E(Eh)            E(eV)
   0   2.0000     -12.086155      -328.8810
   1   2.0000     -12.044154      -327.7381
   2   2.0000     -12.030300      -327.3611
   3   2.0000      -8.109835      -220.6798
   4   2.0000      -6.080171      -165.4499
   5   2.0000      -6.071376      -165.2105
   6   2.0000      -6.071144      -165.2042
   7   2.0000      -3.000413       -81.6454
   8   2.0000      -2.998013       -81.5801
   9   2.0000      -2.997834       -81.5752
  10   2.0000      -2.989559       -81.3500
  11   2.0000      -2.989542       -81.3496
  12   2.0000      -1.296235       -35.2723
  13   2.0000      -1.195372       -32.5277
  14   2.0000      -1.128736       -30.7145
  15   2.0000      -1.053791       -28.6751
  16   2.0000      -0.894525       -24.3412
  17   2.0000      -0.859933       -23.4000
  18   2.0000      -0.837485       -22.7891
  19   2.0000      -0.821558       -22.3557
  20   2.0000      -0.779784       -21.2190
  21   2.0000      -0.755934       -20.5700
  22   2.0000      -0.718623       -19.5547
  23   2.0000      -0.620248       -16.8778
  24   2.0000      -0.618596       -16.8329
  25   0.0000      -0.259384        -7.0582
  26   0.0000      -0.012750        -0.3470
  27   0.0000      -0.003442        -0.0937
  28   0.0000       0.013940         0.3793
  29   0.0000       0.026080         0.7097

MULLIKEN ATOMIC CHARGES
-----------------------
   0 C :   -0.392782
   1 C :   -0.174923
   2 C :   -0.224311
   3 I :   -0.164782
   4 H :    0.134784
   5 H :    0.127102
   6 H :    0.127104
   7 H :    0.119678
   8 H :    0.119678
   9 H :    0.164225
  10 H :    0.164225
Sum of atomic charges:   -0.0000000

LOEWDIN ATOMIC CHARGES
----------------------
   0 C :   -0.305217
   1 C :   -0.330231
   2 C :   -0.411368
   3 I :    0.146534
   4 H :    0.122128
   5 H :    0.120915
   6 H :    0.120915
   7 H :    0.136594
   8 H :    0.136595
   9 H :    0.131568
  10 H :    0.131568

  Mayer bond orders larger than 0.100000
B(  0-C ,  1-C ) :   0.9664 B(  0-C ,  4-H ) :   0.9749 B(  0-C ,  5-H ) :   0.9765
B(  0-C ,  6-H ) :   0.9765 B(  1-C ,  2-C ) :   0.9947 B(  1-C ,  7-H ) :   0.9689
B(  1-C ,  8-H ) :   0.9689 B(  2-C ,  3-I ) :   0.9957 B(  2-C ,  9-H ) :   0.9555
B(  2-C , 10-H ) :   0.9555

FINAL SINGLE POINT ENERGY      -416.236521922565

DIPOLE MOMENT
-------------

Method             : SCF
Type of density    : Electron Density
Multiplicity       :   1
Irrep              :   0
Energy             :  -416.2448127720653588 Eh
Relativity type    :
Basis              : AO
                                X                 Y                 Z
Electronic contribution:     76.723858526       2.030770929      -0.001310682
Nuclear contribution   :    -77.857897481      -2.287508027       0.001368108
                        -----------------------------------------
Total Dipole Moment    :     -1.134038955      -0.256737098       0.000057426
                        -----------------------------------------
Magnitude (a.u.)       :      1.162737414
Magnitude (Debye)      :      2.955443633

Rotational constants in cm-1:             0.826374             0.042764             0.041617
Rotational constants in MHz :         24774.057435          1282.022248          1247.654491

                             ****ORCA TERMINATED NORMALLY****
TOTAL RUN TIME: 0 days 0 hours 1 minutes 1 seconds 283 msec
