                         Program Version 6.0.0  -   RELEASE  -
|  1> ! pbe def2-sv(p) def2/J RI DEFGRID1 loosescf d4 GCP(DFT/SV(P)) printgap
|  2> %output
|  3>     printlevel normal
|  4> end
|  5> * xyz 0 1
|  6> C -2.0356131522 -0.9809753832 -0.6503450013
|  7> C -1.2525015263 -0.1601823362 0.3882415342
|  8> H -1.9256967214 0.1349376251 1.2014861853
|  9> C -0.6937276956 1.1308621273 -0.2357196394
| 10> H -0.6952757408 1.0527170132 -1.3351015739
| 11> C 0.7598858716 1.3299940681 0.2042774536
| 12> H 0.8055848491 1.4070629887 1.3011923813
| 13> C 1.5694021514 0.1076293153 -0.2374131251
| 14> H 1.5096082035 0.0248222891 -1.3321015622
| 15> C 0.9464434467 -1.1684751796 0.3725749413
| 16> H 1.6119181818 -1.540685084 1.1686729549
| 17> O -0.2558322125 -0.9284333461 1.0534337475
| 18> O 0.8178202082 -2.1066880942 -0.6513962964
| 19> O 2.8969857417 0.3066407215 0.1772040998
| 20> O 1.2324891358 2.5103394983 -0.3922213318
| 21> O -1.5145266186 2.1968987199 0.163479471
| 22> O -2.5789386831 -2.1621286143 -0.1200725274
| 23> H -1.3658797554 -1.2965720981 -1.4533198249
| 24> H -2.8180889382 -0.3344457898 -1.0679778217
| 25> H 0.4166257979 -2.9195532481 -0.3063256593
| 26> H 3.4733428506 -0.361838866 -0.2190837698
| 27> H 2.1840356796 2.5780531066 -0.2224768943
| 28> H -1.0895951324 3.025633918 -0.1076921728
| 29> H -3.1845674409 -1.9440091271 0.6023655319
| 30> *
| 31>
| 32>                          ****END OF INPUT****

CARTESIAN COORDINATES (ANGSTROEM)
---------------------------------
  C     -2.035613   -0.980975   -0.650345
  C     -1.252502   -0.160182    0.388242
  H     -1.925697    0.134938    1.201486
  C     -0.693728    1.130862   -0.235720
  H     -0.695276    1.052717   -1.335102
  C      0.759886    1.329994    0.204277
  H      0.805585    1.407063    1.301192
  C      1.569402    0.107629   -0.237413
  H      1.509608    0.024822   -1.332102
  C      0.946443   -1.168475    0.372575
  H      1.611918   -1.540685    1.168673
  O     -0.255832   -0.928433    1.053434
  O      0.817820   -2.106688   -0.651396
  O      2.896986    0.306641    0.177204
  O      1.232489    2.510339   -0.392221
  O     -1.514527    2.196899    0.163479
  O     -2.578939   -2.162129   -0.120073
  H     -1.365880   -1.296572   -1.453320
  H     -2.818089   -0.334446   -1.067978
  H      0.416626   -2.919553   -0.306326
  H      3.473343   -0.361839   -0.219084
  H      2.184036    2.578053   -0.222477
  H     -1.089595    3.025634   -0.107692
  H     -3.184567   -1.944009    0.602366

 Total Charge           Charge          ....    0
 Multiplicity           Mult            ....    1
 Number of Electrons    NEL             ....   96
 Basis Dimension        Dim             ....  192

ORBITAL ENERGIES
----------------

  NO   OCC          E(Eh)            E(eV)
   0   2.0000     -18.766546      -510.6637
   1   2.0000     -18.764811      -510.6165
   2   2.0000     -18.763958      -510.5933
   3   2.0000     -18.755121      -510.3528
   4   2.0000     -18.746876      -510.1284
   5   2.0000     -18.745171      -510.0820
   6   2.0000      -9.984733      -271.6984
   7   2.0000      -9.944038      -270.5910
   8   2.0000      -9.942131      -270.5391
   9   2.0000      -9.940998      -270.5083
  10   2.0000      -9.940652      -270.4989
  11   2.0000      -9.926078      -270.1023
  12   2.0000      -0.979968       -26.6663
  13   2.0000      -0.948916       -25.8213
  14   2.0000      -0.935184       -25.4476
  15   2.0000      -0.922599       -25.1052
  16   2.0000      -0.915500       -24.9120
  17   2.0000      -0.908780       -24.7292
  18   2.0000      -0.706122       -19.2146
  19   2.0000      -0.692209       -18.8360
  20   2.0000      -0.617245       -16.7961
  21   2.0000      -0.581854       -15.8331
  22   2.0000      -0.570047       -15.5118
  23   2.0000      -0.525925       -14.3112
  24   2.0000      -0.506568       -13.7844
  25   2.0000      -0.479819       -13.0566
  26   2.0000      -0.474891       -12.9224
  27   2.0000      -0.456407       -12.4195
  28   2.0000      -0.447394       -12.1742
  29   2.0000      -0.419712       -11.4209
  30   2.0000      -0.412296       -11.2191
  31   2.0000      -0.395977       -10.7751
  32   2.0000      -0.386492       -10.5170
  33   2.0000      -0.385526       -10.4907
  34   2.0000      -0.363978        -9.9043
  35   2.0000      -0.348016        -9.4700
  36   2.0000      -0.331038        -9.0080
  37   2.0000      -0.313667        -8.5353
  38   2.0000      -0.307459        -8.3664
  39   2.0000      -0.287976        -7.8362
  40   2.0000      -0.282925        -7.6988
  41   2.0000      -0.266427        -7.2498
  42   2.0000      -0.252310        -6.8657
  43   2.0000      -0.239338        -6.5127
  44   2.0000      -0.230970        -6.2850
  45   2.0000      -0.220590        -6.0025
  46   2.0000      -0.216056        -5.8792
  47   2.0000      -0.207227        -5.6389
  48   0.0000       0.014170         0.3856
  49   0.0000       0.024988         0.6799
  50   0.0000       0.042299         1.1510
  51   0.0000       0.046225         1.2578
  52   0.0000       0.053989         1.4691

MULLIKEN ATOMIC CHARGES
-----------------------
   0 C :    0.015323
   1 C :    0.055115
   2 H :    0.070106
   3 C :    0.036404
   4 H :    0.056336
   5 C :    0.063586
   6 H :    0.064861
   7 C :    0.004843
   8 H :    0.064581
   9 C :    0.204521
  10 H :    0.054539
  11 O :   -0.307377
  12 O :   -0.401405
  13 O :   -0.418346
  14 O :   -0.429710
  15 O :   -0.417582
  16 O :   -0.433223
  17 H :    0.096335
  18 H :    0.085988
  19 H :    0.309787
  20 H :    0.311869
  21 H :    0.309876
  22 H :    0.308090
  23 H :    0.295482
Sum of atomic charges:   -0.0000000

LOEWDIN ATOMIC CHARGES
----------------------
   0 C :   -0.146234
   1 C :   -0.064005
   2 H :    0.118522
   3 C :   -0.063096
   4 H :    0.102569
   5 C :   -0.075876
   6 H :    0.109877
   7 C :   -0.089367
   8 H :    0.108744
   9 C :   -0.007043
  10 H :    0.096449
  11 O :   -0.140892
  12 O :   -0.312100
  13 O :   -0.318876
  14 O :   -0.323881
  15 O :   -0.319244
  16 O :   -0.335899
  17 H :    0.114130
  18 H :    0.102601
  19 H :    0.289589
  20 H :    0.293719
  21 H :    0.289351
  22 H :    0.287440
  23 H :    0.283523

  Mayer bond orders larger than 0.100000
B(  0-C ,  1-C ) :   1.0444 B(  0-C , 16-O ) :   1.0705 B(  0-C , 17-H ) :   0.8985
B(  0-C , 18-H ) :   0.9147 B(  1-C ,  2-H ) :   0.8818 B(  1-C ,  3-C ) :   0.9794
B(  1-C , 11-O ) :   1.0159 B(  3-C ,  4-H ) :   0.8817 B(  3-C ,  5-C ) :   1.0245
B(  3-C , 15-O ) :   1.0802 B(  5-C ,  6-H ) :   0.8691 B(  5-C ,  7-C ) :   1.0195
B(  5-C , 14-O ) :   1.0795 B(  7-C ,  8-H ) :   0.8764 B(  7-C ,  9-C ) :   0.9871
B(  7-C , 13-O ) :   1.0757 B(  9-C , 10-H ) :   0.8896 B(  9-C , 11-O ) :   1.0844
B(  9-C , 12-O ) :   1.1104 B( 12-O , 19-H ) :   0.8310 B( 13-O , 20-H ) :   0.8453
B( 14-O , 21-H ) :   0.8334 B( 15-O , 22-H ) :   0.8354 B( 16-O , 23-H ) :   0.8532

Dispersion correction           -0.024432344
FINAL SINGLE POINT ENERGY      -685.695795463216

DIPOLE MOMENT
-------------

Method             : SCF
Type of density    : Electron Density
Multiplicity       :   1
Irrep              :   0
Energy             :  -685.8254315727944004 Eh
Relativity type    :
Basis              : AO
                                X                 Y                 Z
Electronic contribution:      1.598470476       0.016071225       1.639537486
Nuclear contribution   :     -1.002477256      -0.165843011      -1.657487277
                        -----------------------------------------
Total Dipole Moment    :      0.595993220      -0.149771786      -0.017949790
                        -----------------------------------------
Magnitude (a.u.)       :      0.614785899
Magnitude (Debye)      :      1.562661568

Rotational constants in cm-1:             0.041164             0.027420             0.018258
Rotational constants in MHz :          1234.060800           822.025793           547.350143

                             ****ORCA TERMINATED NORMALLY****
TOTAL RUN TIME: 0 days 0 hours 0 minutes 12 seconds 288 msec
