                         Program Version 6.0.0  -   RELEASE  -
|  1> ! r2scan-3c def2/J RI DEFGRID2 scfconv6 printgap
|  2> %output
|  3>     printlevel normal
|  4> end
|  5> * xyz 0 1
|  6> C -1.089580228 -1.8648514744 -0.0001769241
|  7> C 0.2423035026 -1.4903753134 -9.75945e-05
|  8> C 0.5512625006 -0.1332583881 1.09356e-05
|  9> C -0.440493295 0.8444984637 8.05249e-05
| 10> C -1.7737180925 0.4555391913 2.99297e-05
| 11> C -2.0880136436 -0.908649112 -0.0001135886
| 12> O -2.7891853663 1.3355951178 0.0001833199
| 13> N 1.9132519788 0.2745337624 1.52066e-05
| 14> O 2.782182181 -0.5844736209 0.0004424331
| 15> O 2.1658784711 1.4707540215 -0.000444445
| 16> H -1.3514100665 -2.9099615613 -0.000277251
| 17> H 1.0393261402 -2.2158063875 -0.0001207727
| 18> H -0.1494980785 1.8839723681 0.0001886314
| 19> H -3.1288016137 -1.189205566 -0.0001697298
| 20> H -2.4723092497 2.2527091019 0.0004680703
| 21> *
| 22>
| 23>                          ****END OF INPUT****

CARTESIAN COORDINATES (ANGSTROEM)
---------------------------------
  C     -1.089580   -1.864851   -0.000177
  C      0.242304   -1.490375   -0.000098
  C      0.551263   -0.133258    0.000011
  C     -0.440493    0.844498    0.000081
  C     -1.773718    0.455539    0.000030
  C     -2.088014   -0.908649   -0.000114
  O     -2.789185    1.335595    0.000183
  N      1.913252    0.274534    0.000015
  O      2.782182   -0.584474    0.000442
  O      2.165878    1.470754   -0.000444
  H     -1.351410   -2.909962   -0.000277
  H      1.039326   -2.215806   -0.000121
  H     -0.149498    1.883972    0.000189
  H     -3.128802   -1.189206   -0.000170
  H     -2.472309    2.252709    0.000468

 Total Charge           Charge          ....    0
 Multiplicity           Mult            ....    1
 Number of Electrons    NEL             ....   72
 Basis Dimension        Dim             ....  235

ORBITAL ENERGIES
----------------

  NO   OCC          E(Eh)            E(eV)
   0   2.0000     -19.013144      -517.3740
   1   2.0000     -18.981175      -516.5040
   2   2.0000     -18.980325      -516.4809
   3   2.0000     -14.394755      -391.7012
   4   2.0000     -10.130203      -275.6568
   5   2.0000     -10.107639      -275.0428
   6   2.0000     -10.069536      -274.0060
   7   2.0000     -10.067311      -273.9455
   8   2.0000     -10.064866      -273.8789
   9   2.0000     -10.063642      -273.8456
  10   2.0000      -1.201995       -32.7080
  11   2.0000      -1.061847       -28.8943
  12   2.0000      -1.021276       -27.7903
  13   2.0000      -0.866663       -23.5831
  14   2.0000      -0.789467       -21.4825
  15   2.0000      -0.744259       -20.2523
  16   2.0000      -0.688066       -18.7232
  17   2.0000      -0.624768       -17.0008
  18   2.0000      -0.575789       -15.6680
  19   2.0000      -0.546343       -14.8667
  20   2.0000      -0.516738       -14.0611
  21   2.0000      -0.511842       -13.9279
  22   2.0000      -0.486403       -13.2357
  23   2.0000      -0.482586       -13.1318
  24   2.0000      -0.456730       -12.4282
  25   2.0000      -0.431630       -11.7452
  26   2.0000      -0.413308       -11.2467
  27   2.0000      -0.387706       -10.5500
  28   2.0000      -0.363577        -9.8934
  29   2.0000      -0.351521        -9.5654
  30   2.0000      -0.343947        -9.3593
  31   2.0000      -0.290212        -7.8971
  32   2.0000      -0.281684        -7.6650
  33   2.0000      -0.272387        -7.4120
  34   2.0000      -0.255339        -6.9481
  35   2.0000      -0.236922        -6.4470
  36   0.0000      -0.126314        -3.4372
  37   0.0000      -0.051852        -1.4110
  38   0.0000      -0.025697        -0.6993
  39   0.0000       0.036134         0.9833
  40   0.0000       0.063571         1.7299

MULLIKEN ATOMIC CHARGES
-----------------------
   0 C :   -0.103308
   1 C :   -0.225230
   2 C :    0.010892
   3 C :   -0.390328
   4 C :    0.445234
   5 C :   -0.249156
   6 O :   -0.394534
   7 N :    0.354113
   8 O :   -0.229068
   9 O :   -0.230766
  10 H :    0.156705
  11 H :    0.184873
  12 H :    0.180192
  13 H :    0.164151
  14 H :    0.326231
Sum of atomic charges:   -0.0000000

LOEWDIN ATOMIC CHARGES
----------------------
   0 C :   -0.138945
   1 C :   -0.096516
   2 C :    0.198893
   3 C :   -0.082124
   4 C :    0.186798
   5 C :   -0.108584
   6 O :   -0.477160
   7 N :   -0.492158
   8 O :   -0.017303
   9 O :   -0.024276
  10 H :    0.175186
  11 H :    0.198850
  12 H :    0.201449
  13 H :    0.184390
  14 H :    0.291496

  Mayer bond orders larger than 0.100000
B(  0-C ,  1-C ) :   1.3229 B(  0-C ,  5-C ) :   1.3937 B(  0-C , 10-H ) :   0.9565
B(  1-C ,  2-C ) :   1.4306 B(  1-C ,  8-O ) :   0.1062 B(  1-C , 11-H ) :   0.9340
B(  2-C ,  3-C ) :   1.4748 B(  2-C ,  7-N ) :   0.9568 B(  3-C ,  4-C ) :   1.2458
B(  3-C ,  9-O ) :   0.1028 B(  3-C , 12-H ) :   0.8950 B(  4-C ,  5-C ) :   1.3855
B(  4-C ,  6-O ) :   0.9352 B(  5-C , 13-H ) :   0.9427 B(  6-O , 14-H ) :   0.8750
B(  7-N ,  8-O ) :   1.8471 B(  7-N ,  9-O ) :   1.8389 B(  8-O ,  9-O ) :   0.2463

Dispersion correction           -0.005161527
FINAL SINGLE POINT ENERGY      -511.892890401159

DIPOLE MOMENT
-------------

Method             : SCF
Type of density    : Electron Density
Multiplicity       :   1
Irrep              :   0
Energy             :  -511.8980447705343408 Eh
Relativity type    :
Basis              : AO
                                X                 Y                 Z
Electronic contribution:      4.083116782       1.923596976       0.000076593
Nuclear contribution   :     -5.645347536      -2.009190326       0.000086219
                        -----------------------------------------
Total Dipole Moment    :     -1.562230754      -0.085593350       0.000162811
                        -----------------------------------------
Magnitude (a.u.)       :      1.564573800
Magnitude (Debye)      :      3.976830557

Rotational constants in cm-1:             0.092164             0.033401             0.024516
Rotational constants in MHz :          2763.006936          1001.326121           734.969791

                             ****ORCA TERMINATED NORMALLY****
TOTAL RUN TIME: 0 days 0 hours 0 minutes 30 seconds 77 msec
