                         Program Version 6.0.0  -   RELEASE  -
|  1> ! r2scan-3c def2/J RI DEFGRID2 scfconv6 printgap
|  2> %output
|  3>     printlevel normal
|  4> end
|  5> %cpcm
|  6>     smd true
|  7>     smdsolvent "water"
|  8> end
|  9> * xyz 0 1
| 10> C -1.089580228 -1.8648514744 -0.0001769241
| 11> C 0.2423035026 -1.4903753134 -9.75945e-05
| 12> C 0.5512625006 -0.1332583881 1.09356e-05
| 13> C -0.440493295 0.8444984637 8.05249e-05
| 14> C -1.7737180925 0.4555391913 2.99297e-05
| 15> C -2.0880136436 -0.908649112 -0.0001135886
| 16> O -2.7891853663 1.3355951178 0.0001833199
| 17> N 1.9132519788 0.2745337624 1.52066e-05
| 18> O 2.782182181 -0.5844736209 0.0004424331
| 19> O 2.1658784711 1.4707540215 -0.000444445
| 20> H -1.3514100665 -2.9099615613 -0.000277251
| 21> H 1.0393261402 -2.2158063875 -0.0001207727
| 22> H -0.1494980785 1.8839723681 0.0001886314
| 23> H -3.1288016137 -1.189205566 -0.0001697298
| 24> H -2.4723092497 2.2527091019 0.0004680703
| 25> *
| 26>
| 27>                          ****END OF INPUT****

CARTESIAN COORDINATES (ANGSTROEM)
---------------------------------
  C     -1.089580   -1.864851   -0.000177
  C      0.242304   -1.490375   -0.000098
  C      0.551263   -0.133258    0.000011
  C     -0.440493    0.844498    0.000081
  C     -1.773718    0.455539    0.000030
  C     -2.088014   -0.908649   -0.000114
  O     -2.789185    1.335595    0.000183
  N      1.913252    0.274534    0.000015
  O      2.782182   -0.584474    0.000442
  O      2.165878    1.470754   -0.000444
  H     -1.351410   -2.909962   -0.000277
  H      1.039326   -2.215806   -0.000121
  H     -0.149498    1.883972    0.000189
  H     -3.128802   -1.189206   -0.000170
  H     -2.472309    2.252709    0.000468

 Total Charge           Charge          ....    0
 Multiplicity           Mult            ....    1
 Number of Electrons    NEL             ....   72
 Basis Dimension        Dim             ....  235

ORBITAL ENERGIES
----------------

  NO   OCC          E(Eh)            E(eV)
   0   2.0000     -18.993378      -516.8361
   1   2.0000     -18.992968      -516.8249
   2   2.0000     -18.992030      -516.7994
   3   2.0000     -14.403452      -391.9379
   4   2.0000     -10.117482      -275.3107
   5   2.0000     -10.100075      -274.8370
   6   2.0000     -10.056984      -273.6644
   7   2.0000     -10.054232      -273.5896
   8   2.0000     -10.053471      -273.5689
   9   2.0000     -10.052778      -273.5500
  10   2.0000      -1.212865       -33.0037
  11   2.0000      -1.042381       -28.3646
  12   2.0000      -1.033160       -28.1137
  13   2.0000      -0.858746       -23.3677
  14   2.0000      -0.783747       -21.3269
  15   2.0000      -0.731399       -19.9024
  16   2.0000      -0.681521       -18.5451
  17   2.0000      -0.609856       -16.5950
  18   2.0000      -0.568734       -15.4760
  19   2.0000      -0.544018       -14.8035
  20   2.0000      -0.520086       -14.1523
  21   2.0000      -0.512980       -13.9589
  22   2.0000      -0.490267       -13.3409
  23   2.0000      -0.474188       -12.9033
  24   2.0000      -0.448795       -12.2123
  25   2.0000      -0.414806       -11.2874
  26   2.0000      -0.400340       -10.8938
  27   2.0000      -0.373593       -10.1660
  28   2.0000      -0.350823        -9.5464
  29   2.0000      -0.336742        -9.1632
  30   2.0000      -0.333679        -9.0799
  31   2.0000      -0.304439        -8.2842
  32   2.0000      -0.295445        -8.0395
  33   2.0000      -0.269850        -7.3430
  34   2.0000      -0.263688        -7.1753
  35   2.0000      -0.225411        -6.1337
  36   0.0000      -0.131103        -3.5675
  37   0.0000      -0.040691        -1.1073
  38   0.0000      -0.019789        -0.5385
  39   0.0000       0.076099         2.0708
  40   0.0000       0.079778         2.1709

MULLIKEN ATOMIC CHARGES
-----------------------
   0 C :   -0.153642
   1 C :   -0.248501
   2 C :    0.064433
   3 C :   -0.365915
   4 C :    0.372481
   5 C :   -0.257560
   6 O :   -0.427987
   7 N :    0.406609
   8 O :   -0.292593
   9 O :   -0.288862
  10 H :    0.194614
  11 H :    0.204861
  12 H :    0.213846
  13 H :    0.197447
  14 H :    0.380768
Sum of atomic charges:   -0.0000000

LOEWDIN ATOMIC CHARGES
----------------------
   0 C :   -0.138021
   1 C :   -0.096929
   2 C :    0.194124
   3 C :   -0.068961
   4 C :    0.184959
   5 C :   -0.100920
   6 O :   -0.484086
   7 N :   -0.491578
   8 O :   -0.055968
   9 O :   -0.057290
  10 H :    0.188504
  11 H :    0.203883
  12 H :    0.213926
  13 H :    0.195409
  14 H :    0.312948

  Mayer bond orders larger than 0.100000
B(  0-C ,  1-C ) :   1.3301 B(  0-C ,  5-C ) :   1.3862 B(  0-C , 10-H ) :   0.9562
B(  1-C ,  2-C ) :   1.3375 B(  1-C , 11-H ) :   0.9450 B(  2-C ,  3-C ) :   1.3628
B(  2-C ,  7-N ) :   0.9913 B(  3-C ,  4-C ) :   1.3046 B(  3-C , 12-H ) :   0.9100
B(  4-C ,  5-C ) :   1.3420 B(  4-C ,  6-O ) :   0.9542 B(  5-C , 13-H ) :   0.9425
B(  6-O , 14-H ) :   0.8439 B(  7-N ,  8-O ) :   1.7875 B(  7-N ,  9-O ) :   1.7845
B(  8-O ,  9-O ) :   0.2293

Dispersion correction           -0.005161527
FINAL SINGLE POINT ENERGY      -511.903878635358

DIPOLE MOMENT
-------------

Method             : SCF
Type of density    : Electron Density
Multiplicity       :   1
Irrep              :   0
Energy             :  -511.9090330047325210 Eh
Relativity type    :
Basis              : AO
                                X                 Y                 Z
Electronic contribution:      3.462597528       1.920809344       0.000132726
Nuclear contribution   :     -5.645347536      -2.009190326       0.000086219
                        -----------------------------------------
Total Dipole Moment    :     -2.182750008      -0.088380983       0.000218945
                        -----------------------------------------
Magnitude (a.u.)       :      2.184538589
Magnitude (Debye)      :      5.552655815

Rotational constants in cm-1:             0.092164             0.033401             0.024516
Rotational constants in MHz :          2763.006936          1001.326121           734.969791

                             ****ORCA TERMINATED NORMALLY****
TOTAL RUN TIME: 0 days 0 hours 0 minutes 31 seconds 419 msec
