                         Program Version 6.0.0  -   RELEASE  -
|  1> ! pbe def2-sv(p) def2/J RI DEFGRID1 loosescf d4 GCP(DFT/SV(P)) printgap
|  2> %output
|  3>     printlevel normal
|  4> end
|  5> * xyz 0 1
|  6> C -1.7378333151 -1.3629533108 -0.5017069228
|  7> C -1.1396471975 -0.4817275558 0.6134897411
|  8> H -1.8548896693 -0.398919687 1.4397495601
|  9> C -0.8517800912 0.9497143885 0.1215417272
| 10> H -1.1667465539 1.0334228925 -0.9318428419
| 11> C 0.6513621101 1.2656226675 0.2103452541
| 12> H 0.9374356632 1.3677120493 1.2632725562
| 13> C 1.4269999167 0.0985112227 -0.4062563694
| 14> H 1.0462100104 -0.08904443 -1.4224629209
| 15> C 1.1692662267 -1.1631929243 0.4439607757
| 16> H 1.9700322499 -1.2418392383 1.1958982829
| 17> O -0.0057288525 -1.0941140156 1.2124729639
| 18> O 1.1827966205 -2.261668143 -0.4167044273
| 19> O 2.7919844704 0.4192638503 -0.4435331509
| 20> O 0.9360786472 2.5056735159 -0.3797851016
| 21> O -1.6039050769 1.8459799104 0.9047470543
| 22> O -2.8427598422 -0.7665426164 -1.1280531376
| 23> H -2.0010749947 -2.3371507634 -0.0722912563
| 24> H -0.9953714288 -1.521009121 -1.2871662807
| 25> H 1.1417973207 -3.0872761281 0.0893730636
| 26> H 3.277049488 -0.2689122822 -0.9216150636
| 27> H 0.9612525458 2.4171881719 -1.3436125493
| 28> H -1.2978218082 2.7475508327 0.7213791274
| 29> H -3.5560157179 -0.6468740415 -0.4850653623
| 30> *
| 31>
| 32>                          ****END OF INPUT****

CARTESIAN COORDINATES (ANGSTROEM)
---------------------------------
  C     -1.737833   -1.362953   -0.501707
  C     -1.139647   -0.481728    0.613490
  H     -1.854890   -0.398920    1.439750
  C     -0.851780    0.949714    0.121542
  H     -1.166747    1.033423   -0.931843
  C      0.651362    1.265623    0.210345
  H      0.937436    1.367712    1.263273
  C      1.427000    0.098511   -0.406256
  H      1.046210   -0.089044   -1.422463
  C      1.169266   -1.163193    0.443961
  H      1.970032   -1.241839    1.195898
  O     -0.005729   -1.094114    1.212473
  O      1.182797   -2.261668   -0.416704
  O      2.791984    0.419264   -0.443533
  O      0.936079    2.505674   -0.379785
  O     -1.603905    1.845980    0.904747
  O     -2.842760   -0.766543   -1.128053
  H     -2.001075   -2.337151   -0.072291
  H     -0.995371   -1.521009   -1.287166
  H      1.141797   -3.087276    0.089373
  H      3.277049   -0.268912   -0.921615
  H      0.961253    2.417188   -1.343613
  H     -1.297822    2.747551    0.721379
  H     -3.556016   -0.646874   -0.485065

 Total Charge           Charge          ....    0
 Multiplicity           Mult            ....    1
 Number of Electrons    NEL             ....   96
 Basis Dimension        Dim             ....  192

ORBITAL ENERGIES
----------------

  NO   OCC          E(Eh)            E(eV)
   0   2.0000     -18.770956      -510.7837
   1   2.0000     -18.769825      -510.7529
   2   2.0000     -18.757814      -510.4261
   3   2.0000     -18.754839      -510.3451
   4   2.0000     -18.752075      -510.2699
   5   2.0000     -18.742996      -510.0229
   6   2.0000      -9.988329      -271.7962
   7   2.0000      -9.948132      -270.7024
   8   2.0000      -9.941028      -270.5091
   9   2.0000      -9.940495      -270.4946
  10   2.0000      -9.934970      -270.3443
  11   2.0000      -9.928966      -270.1809
  12   2.0000      -0.983171       -26.7534
  13   2.0000      -0.945319       -25.7234
  14   2.0000      -0.933361       -25.3980
  15   2.0000      -0.926438       -25.2097
  16   2.0000      -0.917007       -24.9530
  17   2.0000      -0.911529       -24.8040
  18   2.0000      -0.702481       -19.1155
  19   2.0000      -0.692179       -18.8351
  20   2.0000      -0.618450       -16.8289
  21   2.0000      -0.583394       -15.8749
  22   2.0000      -0.572766       -15.5858
  23   2.0000      -0.528773       -14.3887
  24   2.0000      -0.513894       -13.9838
  25   2.0000      -0.477131       -12.9834
  26   2.0000      -0.470637       -12.8067
  27   2.0000      -0.450681       -12.2637
  28   2.0000      -0.443426       -12.0662
  29   2.0000      -0.442352       -12.0370
  30   2.0000      -0.426456       -11.6045
  31   2.0000      -0.390277       -10.6200
  32   2.0000      -0.385840       -10.4992
  33   2.0000      -0.367494       -10.0000
  34   2.0000      -0.359746        -9.7892
  35   2.0000      -0.347341        -9.4516
  36   2.0000      -0.338174        -9.2022
  37   2.0000      -0.316310        -8.6072
  38   2.0000      -0.301334        -8.1997
  39   2.0000      -0.289680        -7.8826
  40   2.0000      -0.278001        -7.5648
  41   2.0000      -0.264141        -7.1877
  42   2.0000      -0.260029        -7.0757
  43   2.0000      -0.244655        -6.6574
  44   2.0000      -0.236393        -6.4326
  45   2.0000      -0.224348        -6.1048
  46   2.0000      -0.208829        -5.6825
  47   2.0000      -0.205945        -5.6041
  48   0.0000       0.017590         0.4786
  49   0.0000       0.021209         0.5771
  50   0.0000       0.027672         0.7530
  51   0.0000       0.043126         1.1735
  52   0.0000       0.047314         1.2875

MULLIKEN ATOMIC CHARGES
-----------------------
   0 C :    0.008680
   1 C :    0.020362
   2 H :    0.074115
   3 C :    0.070679
   4 H :    0.053247
   5 C :    0.076297
   6 H :    0.071273
   7 C :   -0.023957
   8 H :    0.056330
   9 C :    0.192687
  10 H :    0.065943
  11 O :   -0.308938
  12 O :   -0.395433
  13 O :   -0.398298
  14 O :   -0.410741
  15 O :   -0.421142
  16 O :   -0.423607
  17 H :    0.074812
  18 H :    0.106203
  19 H :    0.304198
  20 H :    0.305495
  21 H :    0.299167
  22 H :    0.300793
  23 H :    0.301836
Sum of atomic charges:    0.0000000

LOEWDIN ATOMIC CHARGES
----------------------
   0 C :   -0.145271
   1 C :   -0.067796
   2 H :    0.119365
   3 C :   -0.077268
   4 H :    0.099686
   5 C :   -0.074980
   6 H :    0.123174
   7 C :   -0.090471
   8 H :    0.101388
   9 C :   -0.011700
  10 H :    0.101848
  11 O :   -0.142048
  12 O :   -0.311063
  13 O :   -0.311346
  14 O :   -0.305742
  15 O :   -0.324752
  16 O :   -0.327399
  17 H :    0.097418
  18 H :    0.113980
  19 H :    0.286950
  20 H :    0.290216
  21 H :    0.285972
  22 H :    0.282809
  23 H :    0.287029

  Mayer bond orders larger than 0.100000
B(  0-C ,  1-C ) :   1.0269 B(  0-C , 16-O ) :   1.0533 B(  0-C , 17-H ) :   0.9178
B(  0-C , 18-H ) :   0.9076 B(  1-C ,  2-H ) :   0.8871 B(  1-C ,  3-C ) :   0.9735
B(  1-C , 11-O ) :   1.0146 B(  3-C ,  4-H ) :   0.8754 B(  3-C ,  5-C ) :   1.0176
B(  3-C , 15-O ) :   1.0711 B(  5-C ,  6-H ) :   0.8576 B(  5-C ,  7-C ) :   1.0067
B(  5-C , 14-O ) :   1.0574 B(  7-C ,  8-H ) :   0.8759 B(  7-C ,  9-C ) :   0.9948
B(  7-C , 13-O ) :   1.0973 B(  9-C , 10-H ) :   0.8896 B(  9-C , 11-O ) :   1.0604
B(  9-C , 12-O ) :   1.1159 B( 12-O , 19-H ) :   0.8393 B( 13-O , 20-H ) :   0.8459
B( 14-O , 21-H ) :   0.8469 B( 15-O , 22-H ) :   0.8364 B( 16-O , 23-H ) :   0.8494

Dispersion correction           -0.024534670
FINAL SINGLE POINT ENERGY      -685.690275030419

DIPOLE MOMENT
-------------

Method             : SCF
Type of density    : Electron Density
Multiplicity       :   1
Irrep              :   0
Energy             :  -685.8196911657386181 Eh
Relativity type    :
Basis              : AO
                                X                 Y                 Z
Electronic contribution:      1.614426982       1.075878697       1.339513134
Nuclear contribution   :     -1.436247761      -1.890328284      -1.649626649
                        -----------------------------------------
Total Dipole Moment    :      0.178179221      -0.814449587      -0.310113516
                        -----------------------------------------
Magnitude (a.u.)       :      0.889520296
Magnitude (Debye)      :      2.260980909

Rotational constants in cm-1:             0.036479             0.029279             0.019634
Rotational constants in MHz :          1093.613826           877.751833           588.609394

                             ****ORCA TERMINATED NORMALLY****
TOTAL RUN TIME: 0 days 0 hours 0 minutes 12 seconds 194 msec
