                         Program Version 6.0.0  -   RELEASE  -
|  1> ! r2scan-3c def2/J RI DEFGRID2 scfconv6 printgap
|  2> %output
|  3>     printlevel normal
|  4> end
|  5> * xyz 0 1
|  6> C -2.1136196684 -0.5422611687 0.7083617147
|  7> C -1.3555611672 -0.3282274609 -0.6054820419
|  8> C -0.0077026966 0.2732377143 -0.3078628937
|  9> O 0.2550626276 1.4571056164 -0.3535068531
| 10> O 0.8725988177 -0.6527490152 0.0535126465
| 11> C 2.1848161509 -0.2170264346 0.4165958188
| 12> H -3.0935046709 -0.9613293085 0.5013470823
| 13> H -1.5662351726 -1.2264252328 1.3514382535
| 14> H -2.2404255993 0.4038769296 1.2291709759
| 15> H -1.9053840064 0.3570120346 -1.2493885728
| 16> H -1.2111755263 -1.2838927313 -1.1073021833
| 17> H 2.6892108091 -1.0961295977 0.8048619826
| 18> H 2.1229742877 0.5681810695 1.1709833173
| 19> H 2.7011863872 0.1738870412 -0.460794887
| 20> *
| 21>
| 22>                          ****END OF INPUT****

CARTESIAN COORDINATES (ANGSTROEM)
---------------------------------
  C     -2.113620   -0.542261    0.708362
  C     -1.355561   -0.328227   -0.605482
  C     -0.007703    0.273238   -0.307863
  O      0.255063    1.457106   -0.353507
  O      0.872599   -0.652749    0.053513
  C      2.184816   -0.217026    0.416596
  H     -3.093505   -0.961329    0.501347
  H     -1.566235   -1.226425    1.351438
  H     -2.240426    0.403877    1.229171
  H     -1.905384    0.357012   -1.249389
  H     -1.211176   -1.283893   -1.107302
  H      2.689211   -1.096130    0.804862
  H      2.122974    0.568181    1.170983
  H      2.701186    0.173887   -0.460795

 Total Charge           Charge          ....    0
 Multiplicity           Mult            ....    1
 Number of Electrons    NEL             ....   48
 Basis Dimension        Dim             ....  164

ORBITAL ENERGIES
----------------

  NO   OCC          E(Eh)            E(eV)
   0   2.0000     -18.999852      -517.0123
   1   2.0000     -18.929103      -515.0871
   2   2.0000     -10.152217      -276.2559
   3   2.0000     -10.087415      -274.4925
   4   2.0000     -10.044822      -273.3335
   5   2.0000     -10.032776      -273.0057
   6   2.0000      -1.074082       -29.2272
   7   2.0000      -0.975953       -26.5570
   8   2.0000      -0.762573       -20.7507
   9   2.0000      -0.695844       -18.9349
  10   2.0000      -0.613820       -16.7029
  11   2.0000      -0.534934       -14.5563
  12   2.0000      -0.470929       -12.8146
  13   2.0000      -0.452096       -12.3022
  14   2.0000      -0.448409       -12.2018
  15   2.0000      -0.409775       -11.1505
  16   2.0000      -0.401335       -10.9209
  17   2.0000      -0.378788       -10.3073
  18   2.0000      -0.351726        -9.5709
  19   2.0000      -0.331917        -9.0319
  20   2.0000      -0.328755        -8.9459
  21   2.0000      -0.319060        -8.6821
  22   2.0000      -0.274418        -7.4673
  23   2.0000      -0.234720        -6.3871
  24   0.0000      -0.016036        -0.4363
  25   0.0000       0.063282         1.7220
  26   0.0000       0.095066         2.5869
  27   0.0000       0.122041         3.3209
  28   0.0000       0.125404         3.4124

MULLIKEN ATOMIC CHARGES
-----------------------
   0 C :   -0.470021
   1 C :   -0.286266
   2 C :    0.403434
   3 O :   -0.421518
   4 O :   -0.190333
   5 C :   -0.292011
   6 H :    0.153556
   7 H :    0.156870
   8 H :    0.158576
   9 H :    0.162193
  10 H :    0.152384
  11 H :    0.150018
  12 H :    0.164842
  13 H :    0.158277
Sum of atomic charges:    0.0000000

LOEWDIN ATOMIC CHARGES
----------------------
   0 C :   -0.391987
   1 C :   -0.236620
   2 C :    0.350130
   3 O :   -0.422348
   4 O :   -0.604344
   5 C :   -0.044245
   6 H :    0.153229
   7 H :    0.158087
   8 H :    0.159233
   9 H :    0.174677
  10 H :    0.174209
  11 H :    0.175919
  12 H :    0.178872
  13 H :    0.175188

  Mayer bond orders larger than 0.100000
B(  0-C ,  1-C ) :   0.8969 B(  0-C ,  6-H ) :   0.9705 B(  0-C ,  7-H ) :   0.9770
B(  0-C ,  8-H ) :   0.9741 B(  1-C ,  2-C ) :   0.9557 B(  1-C ,  9-H ) :   0.9735
B(  1-C , 10-H ) :   0.9705 B(  2-C ,  3-O ) :   1.8265 B(  2-C ,  4-O ) :   1.0464
B(  4-O ,  5-C ) :   0.8524 B(  5-C , 11-H ) :   0.9690 B(  5-C , 12-H ) :   0.9624
B(  5-C , 13-H ) :   0.9622

Dispersion correction           -0.003006405
FINAL SINGLE POINT ENERGY      -307.631700320927

DIPOLE MOMENT
-------------

Method             : SCF
Type of density    : Electron Density
Multiplicity       :   1
Irrep              :   0
Energy             :  -307.6380093406181686 Eh
Relativity type    :
Basis              : AO
                                X                 Y                 Z
Electronic contribution:      2.388540485       2.064274311      -1.904076398
Nuclear contribution   :     -2.331828968      -2.863384007       2.097348383
                        -----------------------------------------
Total Dipole Moment    :      0.056711517      -0.799109696       0.193271985
                        -----------------------------------------
Magnitude (a.u.)       :      0.824103491
Magnitude (Debye)      :      2.094704604

Rotational constants in cm-1:             0.221820             0.081265             0.068256
Rotational constants in MHz :          6650.006965          2436.251345          2046.270466

                             ****ORCA TERMINATED NORMALLY****
TOTAL RUN TIME: 0 days 0 hours 0 minutes 16 seconds 817 msec
