                         Program Version 6.0.0  -   RELEASE  -
|  1> ! pbe def2-sv(p) def2/J RI DEFGRID1 loosescf d4 GCP(DFT/SV(P)) printgap
|  2> %output
|  3>     printlevel normal
|  4> end
|  5> * xyz 0 1
|  6> C -2.4094803702 -0.7136864312 -0.0317462646
|  7> C -0.9898430511 -0.2812578503 0.350598727
|  8> H -0.9781672963 0.0209497667 1.4096830975
|  9> C -0.5041566826 0.8926067428 -0.5127025627
| 10> H -0.4203705444 0.5744677903 -1.556986522
| 11> C 0.8903163325 1.3338501004 -0.0372061036
| 12> H 0.7604120473 1.9932047799 0.8359308995
| 13> C 1.7211523962 0.1290039287 0.4625167765
| 14> H 2.752517067 0.247024927 0.1010584238
| 15> C 1.1938785216 -1.191803292 -0.1188414321
| 16> H 1.7347429739 -2.0380539681 0.3392358631
| 17> O -0.1507306648 -1.4277411415 0.2038052103
| 18> O 1.4147621428 -1.1659226164 -1.4937506387
| 19> O 1.6634748706 0.1372088158 1.8660738764
| 20> O 1.5055921298 2.0188664259 -1.0938263429
| 21> O -1.4209136384 1.9518314784 -0.5149572296
| 22> O -2.9548817739 -1.6221458976 0.889548492
| 23> H -2.3865083132 -1.1457523317 -1.0398960223
| 24> H -3.0640514105 0.1588675659 -0.0363759884
| 25> H 1.1388810571 -2.006559263 -1.8906920991
| 26> H 2.2311650093 -0.5558773287 2.2335764965
| 27> H 2.300669744 2.4738185522 -0.7805453261
| 28> H -1.4476024378 2.3650081937 0.3613616668
| 29> H -2.3618813398 -2.3847790108 0.9532573687
| 30> *
| 31>
| 32>                          ****END OF INPUT****

CARTESIAN COORDINATES (ANGSTROEM)
---------------------------------
  C     -2.409480   -0.713686   -0.031746
  C     -0.989843   -0.281258    0.350599
  H     -0.978167    0.020950    1.409683
  C     -0.504157    0.892607   -0.512703
  H     -0.420371    0.574468   -1.556987
  C      0.890316    1.333850   -0.037206
  H      0.760412    1.993205    0.835931
  C      1.721152    0.129004    0.462517
  H      2.752517    0.247025    0.101058
  C      1.193879   -1.191803   -0.118841
  H      1.734743   -2.038054    0.339236
  O     -0.150731   -1.427741    0.203805
  O      1.414762   -1.165923   -1.493751
  O      1.663475    0.137209    1.866074
  O      1.505592    2.018866   -1.093826
  O     -1.420914    1.951831   -0.514957
  O     -2.954882   -1.622146    0.889548
  H     -2.386508   -1.145752   -1.039896
  H     -3.064051    0.158868   -0.036376
  H      1.138881   -2.006559   -1.890692
  H      2.231165   -0.555877    2.233576
  H      2.300670    2.473819   -0.780545
  H     -1.447602    2.365008    0.361362
  H     -2.361881   -2.384779    0.953257

 Total Charge           Charge          ....    0
 Multiplicity           Mult            ....    1
 Number of Electrons    NEL             ....   96
 Basis Dimension        Dim             ....  192

ORBITAL ENERGIES
----------------

  NO   OCC          E(Eh)            E(eV)
   0   2.0000     -18.771111      -510.7879
   1   2.0000     -18.768037      -510.7043
   2   2.0000     -18.765196      -510.6269
   3   2.0000     -18.749490      -510.1996
   4   2.0000     -18.748901      -510.1835
   5   2.0000     -18.735361      -509.8151
   6   2.0000      -9.991835      -271.8916
   7   2.0000      -9.949686      -270.7447
   8   2.0000      -9.944940      -270.6156
   9   2.0000      -9.936494      -270.3858
  10   2.0000      -9.934822      -270.3403
  11   2.0000      -9.919915      -269.9346
  12   2.0000      -0.983388       -26.7593
  13   2.0000      -0.944304       -25.6958
  14   2.0000      -0.935546       -25.4575
  15   2.0000      -0.923681       -25.1346
  16   2.0000      -0.917139       -24.9566
  17   2.0000      -0.905866       -24.6499
  18   2.0000      -0.702965       -19.1287
  19   2.0000      -0.689488       -18.7619
  20   2.0000      -0.617133       -16.7931
  21   2.0000      -0.590088       -16.0571
  22   2.0000      -0.559896       -15.2356
  23   2.0000      -0.526584       -14.3291
  24   2.0000      -0.510873       -13.9016
  25   2.0000      -0.484999       -13.1975
  26   2.0000      -0.470852       -12.8125
  27   2.0000      -0.455180       -12.3861
  28   2.0000      -0.450662       -12.2631
  29   2.0000      -0.436508       -11.8780
  30   2.0000      -0.412250       -11.2179
  31   2.0000      -0.389792       -10.6068
  32   2.0000      -0.378415       -10.2972
  33   2.0000      -0.367639       -10.0040
  34   2.0000      -0.364075        -9.9070
  35   2.0000      -0.344313        -9.3692
  36   2.0000      -0.338949        -9.2233
  37   2.0000      -0.314516        -8.5584
  38   2.0000      -0.299776        -8.1573
  39   2.0000      -0.288490        -7.8502
  40   2.0000      -0.276764        -7.5311
  41   2.0000      -0.270440        -7.3590
  42   2.0000      -0.251267        -6.8373
  43   2.0000      -0.242687        -6.6038
  44   2.0000      -0.227090        -6.1794
  45   2.0000      -0.217421        -5.9163
  46   2.0000      -0.213359        -5.8058
  47   2.0000      -0.203795        -5.5455
  48   0.0000       0.011542         0.3141
  49   0.0000       0.020605         0.5607
  50   0.0000       0.026032         0.7084
  51   0.0000       0.036345         0.9890
  52   0.0000       0.050622         1.3775

MULLIKEN ATOMIC CHARGES
-----------------------
   0 C :    0.105346
   1 C :   -0.009136
   2 H :    0.052992
   3 C :    0.069146
   4 H :    0.075497
   5 C :    0.081437
   6 H :    0.047282
   7 C :    0.032987
   8 H :    0.059272
   9 C :    0.156473
  10 H :    0.043345
  11 O :   -0.326410
  12 O :   -0.377945
  13 O :   -0.415169
  14 O :   -0.396124
  15 O :   -0.404493
  16 O :   -0.435772
  17 H :    0.057540
  18 H :    0.084302
  19 H :    0.303584
  20 H :    0.303760
  21 H :    0.298963
  22 H :    0.296611
  23 H :    0.296513
Sum of atomic charges:   -0.0000000

LOEWDIN ATOMIC CHARGES
----------------------
   0 C :   -0.126480
   1 C :   -0.079234
   2 H :    0.104480
   3 C :   -0.072847
   4 H :    0.126404
   5 C :   -0.065136
   6 H :    0.101214
   7 C :   -0.086096
   8 H :    0.105743
   9 C :   -0.012475
  10 H :    0.086507
  11 O :   -0.156056
  12 O :   -0.305659
  13 O :   -0.312089
  14 O :   -0.306802
  15 O :   -0.300000
  16 O :   -0.338316
  17 H :    0.096870
  18 H :    0.116586
  19 H :    0.287057
  20 H :    0.288167
  21 H :    0.285134
  22 H :    0.282249
  23 H :    0.280777

  Mayer bond orders larger than 0.100000
B(  0-C ,  1-C ) :   1.0530 B(  0-C , 16-O ) :   1.0755 B(  0-C , 17-H ) :   0.9063
B(  0-C , 18-H ) :   0.9075 B(  1-C ,  2-H ) :   0.8676 B(  1-C ,  3-C ) :   1.0188
B(  1-C , 11-O ) :   0.9503 B(  3-C ,  4-H ) :   0.8280 B(  3-C ,  5-C ) :   1.0607
B(  3-C , 15-O ) :   1.0328 B(  5-C ,  6-H ) :   0.8677 B(  5-C ,  7-C ) :   0.9653
B(  5-C , 14-O ) :   1.1130 B(  7-C ,  8-H ) :   0.8748 B(  7-C ,  9-C ) :   1.0407
B(  7-C , 13-O ) :   1.0276 B(  9-C , 10-H ) :   0.8933 B(  9-C , 11-O ) :   1.0741
B(  9-C , 12-O ) :   1.1524 B( 12-O , 19-H ) :   0.8394 B( 13-O , 20-H ) :   0.8441
B( 14-O , 21-H ) :   0.8474 B( 15-O , 22-H ) :   0.8461 B( 16-O , 23-H ) :   0.8490

Dispersion correction           -0.024414396
FINAL SINGLE POINT ENERGY      -685.687463381585

DIPOLE MOMENT
-------------

Method             : SCF
Type of density    : Electron Density
Multiplicity       :   1
Irrep              :   0
Energy             :  -685.8164597369787998 Eh
Relativity type    :
Basis              : AO
                                X                 Y                 Z
Electronic contribution:      1.224390781      -0.241140535      -0.310375279
Nuclear contribution   :      0.244591664      -0.280873314       0.870010262
                        -----------------------------------------
Total Dipole Moment    :      1.468982444      -0.522013849       0.559634982
                        -----------------------------------------
Magnitude (a.u.)       :      1.656381355
Magnitude (Debye)      :      4.210186816

Rotational constants in cm-1:             0.040143             0.025627             0.020966
Rotational constants in MHz :          1203.443246           768.280087           628.533424

                             ****ORCA TERMINATED NORMALLY****
TOTAL RUN TIME: 0 days 0 hours 0 minutes 12 seconds 30 msec
