                         Program Version 6.0.0  -   RELEASE  -
|  1> ! pbe def2-sv(p) def2/J RI DEFGRID1 loosescf d4 GCP(DFT/SV(P)) printgap
|  2> %output
|  3>     printlevel normal
|  4> end
|  5> * xyz 0 1
|  6> C -1.6440261916 -1.1320545985 -0.7762650171
|  7> C -1.2840341256 -0.5604994225 0.6120139792
|  8> H -2.1004660972 -0.772532843 1.3093712952
|  9> C -1.0437093339 0.9566589296 0.6198390248
| 10> H -1.8159827452 1.4628710297 0.034479784
| 11> C 0.3429309213 1.3075086289 0.0262628946
| 12> H 0.9100199128 1.8475147549 0.7939326547
| 13> C 1.1745750718 0.0814525754 -0.4031294352
| 14> H 0.8271780252 -0.2538519286 -1.389648771
| 15> C 1.0620688875 -1.1097835146 0.5546088102
| 16> H 1.831042013 -0.9985665043 1.333926221
| 17> O -0.1674944306 -1.1889707129 1.2353097516
| 18> O 1.2844761938 -2.2678394073 -0.1923787315
| 19> O 2.5411897821 0.4144889379 -0.4699792995
| 20> O 0.245986865 2.1991536838 -1.057455099
| 21> O -1.1846152725 1.4539767728 1.9292923968
| 22> O -1.4965540213 -0.1523931354 -1.7874029545
| 23> H -2.6814593298 -1.4796400634 -0.74861455
| 24> H -0.9885793236 -1.9878889667 -0.9763966741
| 25> H 1.4010902798 -3.028188559 0.397373585
| 26> H 2.6397607694 1.180696807 -1.0561925111
| 27> H -0.3272278305 1.7956876185 -1.7289036786
| 28> H -0.6585530768 0.9083601425 2.532755404
| 29> H -1.8599604909 -0.5087212947 -2.6107366901
| 30> *
| 31>
| 32>                          ****END OF INPUT****

CARTESIAN COORDINATES (ANGSTROEM)
---------------------------------
  C     -1.644026   -1.132055   -0.776265
  C     -1.284034   -0.560499    0.612014
  H     -2.100466   -0.772533    1.309371
  C     -1.043709    0.956659    0.619839
  H     -1.815983    1.462871    0.034480
  C      0.342931    1.307509    0.026263
  H      0.910020    1.847515    0.793933
  C      1.174575    0.081453   -0.403129
  H      0.827178   -0.253852   -1.389649
  C      1.062069   -1.109784    0.554609
  H      1.831042   -0.998567    1.333926
  O     -0.167494   -1.188971    1.235310
  O      1.284476   -2.267839   -0.192379
  O      2.541190    0.414489   -0.469979
  O      0.245987    2.199154   -1.057455
  O     -1.184615    1.453977    1.929292
  O     -1.496554   -0.152393   -1.787403
  H     -2.681459   -1.479640   -0.748615
  H     -0.988579   -1.987889   -0.976397
  H      1.401090   -3.028189    0.397374
  H      2.639761    1.180697   -1.056193
  H     -0.327228    1.795688   -1.728904
  H     -0.658553    0.908360    2.532755
  H     -1.859960   -0.508721   -2.610737

 Total Charge           Charge          ....    0
 Multiplicity           Mult            ....    1
 Number of Electrons    NEL             ....   96
 Basis Dimension        Dim             ....  192

ORBITAL ENERGIES
----------------

  NO   OCC          E(Eh)            E(eV)
   0   2.0000     -18.778885      -510.9995
   1   2.0000     -18.770424      -510.7692
   2   2.0000     -18.758603      -510.4475
   3   2.0000     -18.741475      -509.9814
   4   2.0000     -18.740976      -509.9679
   5   2.0000     -18.740662      -509.9593
   6   2.0000      -9.982961      -271.6502
   7   2.0000      -9.948117      -270.7020
   8   2.0000      -9.944727      -270.6098
   9   2.0000      -9.934647      -270.3355
  10   2.0000      -9.930855      -270.2323
  11   2.0000      -9.930519      -270.2232
  12   2.0000      -0.979642       -26.6574
  13   2.0000      -0.949290       -25.8315
  14   2.0000      -0.931086       -25.3361
  15   2.0000      -0.925279       -25.1781
  16   2.0000      -0.906535       -24.6681
  17   2.0000      -0.906300       -24.6617
  18   2.0000      -0.700539       -19.0626
  19   2.0000      -0.681434       -18.5428
  20   2.0000      -0.626211       -17.0401
  21   2.0000      -0.577730       -15.7208
  22   2.0000      -0.575731       -15.6664
  23   2.0000      -0.512292       -13.9402
  24   2.0000      -0.499998       -13.6056
  25   2.0000      -0.494068       -13.4443
  26   2.0000      -0.472973       -12.8702
  27   2.0000      -0.459920       -12.5151
  28   2.0000      -0.431170       -11.7327
  29   2.0000      -0.420747       -11.4491
  30   2.0000      -0.415456       -11.3051
  31   2.0000      -0.408625       -11.1193
  32   2.0000      -0.396781       -10.7970
  33   2.0000      -0.371532       -10.1099
  34   2.0000      -0.360566        -9.8115
  35   2.0000      -0.341651        -9.2968
  36   2.0000      -0.335726        -9.1356
  37   2.0000      -0.313941        -8.5428
  38   2.0000      -0.297805        -8.1037
  39   2.0000      -0.291526        -7.9328
  40   2.0000      -0.276129        -7.5138
  41   2.0000      -0.256670        -6.9843
  42   2.0000      -0.253654        -6.9023
  43   2.0000      -0.239840        -6.5264
  44   2.0000      -0.236482        -6.4350
  45   2.0000      -0.230152        -6.2628
  46   2.0000      -0.215509        -5.8643
  47   2.0000      -0.188955        -5.1417
  48   0.0000       0.003667         0.0998
  49   0.0000       0.027115         0.7378
  50   0.0000       0.038987         1.0609
  51   0.0000       0.053746         1.4625
  52   0.0000       0.059336         1.6146

MULLIKEN ATOMIC CHARGES
-----------------------
   0 C :    0.029785
   1 C :   -0.043567
   2 H :    0.078429
   3 C :    0.091247
   4 H :    0.066961
   5 C :    0.090526
   6 H :    0.060595
   7 C :    0.026418
   8 H :    0.063225
   9 C :    0.189104
  10 H :    0.067141
  11 O :   -0.316358
  12 O :   -0.385078
  13 O :   -0.418711
  14 O :   -0.440794
  15 O :   -0.421783
  16 O :   -0.441417
  17 H :    0.082393
  18 H :    0.108102
  19 H :    0.300358
  20 H :    0.301511
  21 H :    0.303076
  22 H :    0.295218
  23 H :    0.313620
Sum of atomic charges:    0.0000000

LOEWDIN ATOMIC CHARGES
----------------------
   0 C :   -0.142085
   1 C :   -0.071115
   2 H :    0.120296
   3 C :   -0.072274
   4 H :    0.118636
   5 C :   -0.075170
   6 H :    0.119010
   7 C :   -0.092684
   8 H :    0.108975
   9 C :   -0.002999
  10 H :    0.101530
  11 O :   -0.154117
  12 O :   -0.305284
  13 O :   -0.320002
  14 O :   -0.318738
  15 O :   -0.316523
  16 O :   -0.334077
  17 H :    0.107472
  18 H :    0.111928
  19 H :    0.285055
  20 H :    0.285201
  21 H :    0.274660
  22 H :    0.278462
  23 H :    0.293841

  Mayer bond orders larger than 0.100000
B(  0-C ,  1-C ) :   1.0172 B(  0-C , 16-O ) :   1.0533 B(  0-C , 17-H ) :   0.9166
B(  0-C , 18-H ) :   0.9043 B(  1-C ,  2-H ) :   0.8947 B(  1-C ,  3-C ) :   1.0506
B(  1-C , 11-O ) :   1.0083 B(  3-C ,  4-H ) :   0.8799 B(  3-C ,  5-C ) :   0.9443
B(  3-C , 15-O ) :   1.0376 B(  5-C ,  6-H ) :   0.8635 B(  5-C ,  7-C ) :   1.0249
B(  5-C , 14-O ) :   1.0177 B(  7-C ,  8-H ) :   0.8662 B(  7-C ,  9-C ) :   0.9807
B(  7-C , 13-O ) :   1.0658 B(  9-C , 10-H ) :   0.8872 B(  9-C , 11-O ) :   1.0427
B(  9-C , 12-O ) :   1.1271 B( 12-O , 19-H ) :   0.8423 B( 13-O , 20-H ) :   0.8399
B( 14-O , 21-H ) :   0.8330 B( 15-O , 22-H ) :   0.8441 B( 16-O , 23-H ) :   0.8422

Dispersion correction           -0.025639989
FINAL SINGLE POINT ENERGY      -685.684390292767

DIPOLE MOMENT
-------------

Method             : SCF
Type of density    : Electron Density
Multiplicity       :   1
Irrep              :   0
Energy             :  -685.8161040656842715 Eh
Relativity type    :
Basis              : AO
                                X                 Y                 Z
Electronic contribution:      1.955295856       0.573205992       1.357936311
Nuclear contribution   :     -2.630465649      -1.714056538      -1.983351759
                        -----------------------------------------
Total Dipole Moment    :     -0.675169793      -1.140850546      -0.625415447
                        -----------------------------------------
Magnitude (a.u.)       :      1.465789446
Magnitude (Debye)      :      3.725740682

Rotational constants in cm-1:             0.034266             0.030858             0.026446
Rotational constants in MHz :          1027.277185           925.109191           792.842280

                             ****ORCA TERMINATED NORMALLY****
TOTAL RUN TIME: 0 days 0 hours 0 minutes 12 seconds 414 msec
