                         Program Version 6.0.0  -   RELEASE  -
|  1> ! r2scan-3c def2/J RI DEFGRID2 scfconv6 printgap
|  2> %output
|  3>     printlevel normal
|  4> end
|  5> * xyz 0 1
|  6> C -1.9446268914 0.6452773796 2.6415e-05
|  7> C -1.9088431716 -0.7398705602 4.54666e-05
|  8> C -0.6900955927 -1.3964491262 3.08054e-05
|  9> C 0.4662080252 -0.6467514891 -6.09631e-05
| 10> C 0.4619046593 0.7451112413 -0.0001347972
| 11> C -0.7759568022 1.3828489253 -6.198e-06
| 12> O 1.5946369817 1.486199452 2.55027e-05
| 13> F 1.6850542742 -1.2854137959 4.07932e-05
| 14> H -2.8923619893 1.1590826677 -9.91337e-05
| 15> H -2.8227134732 -1.3103764074 -0.0002503388
| 16> H -0.6214451948 -2.4719423834 -0.0001984592
| 17> H -0.7890056911 2.4603813847 0.000461037
| 18> H 2.3806837556 0.917474314 9.6108e-05
| 19> *
| 20>
| 21>                          ****END OF INPUT****

CARTESIAN COORDINATES (ANGSTROEM)
---------------------------------
  C     -1.944627    0.645277    0.000026
  C     -1.908843   -0.739871    0.000045
  C     -0.690096   -1.396449    0.000031
  C      0.466208   -0.646751   -0.000061
  C      0.461905    0.745111   -0.000135
  C     -0.775957    1.382849   -0.000006
  O      1.594637    1.486199    0.000026
  F      1.685054   -1.285414    0.000041
  H     -2.892362    1.159083   -0.000099
  H     -2.822713   -1.310376   -0.000250
  H     -0.621445   -2.471942   -0.000198
  H     -0.789006    2.460381    0.000461
  H      2.380684    0.917474    0.000096

 Total Charge           Charge          ....    0
 Multiplicity           Mult            ....    1
 Number of Electrons    NEL             ....   58
 Basis Dimension        Dim             ....  187

ORBITAL ENERGIES
----------------

  NO   OCC          E(Eh)            E(eV)
   0   2.0000     -24.506581      -666.8580
   1   2.0000     -18.996918      -516.9324
   2   2.0000     -10.122072      -275.4356
   3   2.0000     -10.110115      -275.1102
   4   2.0000     -10.048564      -273.4353
   5   2.0000     -10.042958      -273.2828
   6   2.0000     -10.042469      -273.2695
   7   2.0000     -10.040995      -273.2294
   8   2.0000      -1.186783       -32.2940
   9   2.0000      -1.040733       -28.3198
  10   2.0000      -0.835821       -22.7439
  11   2.0000      -0.730804       -19.8862
  12   2.0000      -0.719969       -19.5914
  13   2.0000      -0.604997       -16.4628
  14   2.0000      -0.595407       -16.2019
  15   2.0000      -0.542524       -14.7628
  16   2.0000      -0.499334       -13.5876
  17   2.0000      -0.472914       -12.8686
  18   2.0000      -0.439716       -11.9653
  19   2.0000      -0.437772       -11.9124
  20   2.0000      -0.414631       -11.2827
  21   2.0000      -0.382715       -10.4142
  22   2.0000      -0.377910       -10.2834
  23   2.0000      -0.371314       -10.1040
  24   2.0000      -0.345657        -9.4058
  25   2.0000      -0.322788        -8.7835
  26   2.0000      -0.322185        -8.7671
  27   2.0000      -0.241493        -6.5714
  28   2.0000      -0.214100        -5.8260
  29   0.0000      -0.038637        -1.0514
  30   0.0000      -0.023888        -0.6500
  31   0.0000       0.027687         0.7534
  32   0.0000       0.091896         2.5006
  33   0.0000       0.114769         3.1230

MULLIKEN ATOMIC CHARGES
-----------------------
   0 C :   -0.136625
   1 C :   -0.152811
   2 C :   -0.222075
   3 C :    0.260884
   4 C :    0.214138
   5 C :   -0.259534
   6 O :   -0.398163
   7 F :   -0.266766
   8 H :    0.150710
   9 H :    0.151877
  10 H :    0.164455
  11 H :    0.161865
  12 H :    0.332045
Sum of atomic charges:   -0.0000000

LOEWDIN ATOMIC CHARGES
----------------------
   0 C :   -0.161587
   1 C :   -0.176501
   2 C :   -0.148680
   3 C :    0.215598
   4 C :    0.183066
   5 C :   -0.134419
   6 O :   -0.473713
   7 F :   -0.300947
   8 H :    0.169922
   9 H :    0.169459
  10 H :    0.182751
  11 H :    0.182374
  12 H :    0.292678

  Mayer bond orders larger than 0.100000
B(  0-C ,  1-C ) :   1.4253 B(  0-C ,  5-C ) :   1.4030 B(  0-C ,  8-H ) :   0.9431
B(  1-C ,  2-C ) :   1.3803 B(  1-C ,  9-H ) :   0.9466 B(  2-C ,  3-C ) :   1.3840
B(  2-C , 10-H ) :   0.9299 B(  3-C ,  4-C ) :   1.4159 B(  3-C ,  7-F ) :   0.8474
B(  4-C ,  5-C ) :   1.3695 B(  4-C ,  6-O ) :   0.9568 B(  5-C , 11-H ) :   0.9452
B(  6-O , 12-H ) :   0.8628

Dispersion correction           -0.003889041
FINAL SINGLE POINT ENERGY      -406.642395628958

DIPOLE MOMENT
-------------

Method             : SCF
Type of density    : Electron Density
Multiplicity       :   1
Irrep              :   0
Energy             :  -406.6430022862753617 Eh
Relativity type    :
Basis              : AO
                                X                 Y                 Z
Electronic contribution:      5.785258796      -2.028138523      -0.000017100
Nuclear contribution   :     -5.989082317       1.920926833      -0.000028774
                        -----------------------------------------
Total Dipole Moment    :     -0.203823521      -0.107211690      -0.000045873
                        -----------------------------------------
Magnitude (a.u.)       :      0.230300621
Magnitude (Debye)      :      0.585377659

Rotational constants in cm-1:             0.110482             0.074880             0.044631
Rotational constants in MHz :          3312.171039          2244.831611          1337.999412

                             ****ORCA TERMINATED NORMALLY****
TOTAL RUN TIME: 0 days 0 hours 0 minutes 24 seconds 277 msec
