                         Program Version 6.0.0  -   RELEASE  -
|  1> ! r2scan-3c def2/J RI DEFGRID2 scfconv6 printgap
|  2> %output
|  3>     printlevel normal
|  4> end
|  5> %cpcm
|  6>     smd true
|  7>     smdsolvent "water"
|  8> end
|  9> * xyz 0 1
| 10> C -1.9446268914 0.6452773796 2.6415e-05
| 11> C -1.9088431716 -0.7398705602 4.54666e-05
| 12> C -0.6900955927 -1.3964491262 3.08054e-05
| 13> C 0.4662080252 -0.6467514891 -6.09631e-05
| 14> C 0.4619046593 0.7451112413 -0.0001347972
| 15> C -0.7759568022 1.3828489253 -6.198e-06
| 16> O 1.5946369817 1.486199452 2.55027e-05
| 17> F 1.6850542742 -1.2854137959 4.07932e-05
| 18> H -2.8923619893 1.1590826677 -9.91337e-05
| 19> H -2.8227134732 -1.3103764074 -0.0002503388
| 20> H -0.6214451948 -2.4719423834 -0.0001984592
| 21> H -0.7890056911 2.4603813847 0.000461037
| 22> H 2.3806837556 0.917474314 9.6108e-05
| 23> *
| 24>
| 25>                          ****END OF INPUT****

CARTESIAN COORDINATES (ANGSTROEM)
---------------------------------
  C     -1.944627    0.645277    0.000026
  C     -1.908843   -0.739871    0.000045
  C     -0.690096   -1.396449    0.000031
  C      0.466208   -0.646751   -0.000061
  C      0.461905    0.745111   -0.000135
  C     -0.775957    1.382849   -0.000006
  O      1.594637    1.486199    0.000026
  F      1.685054   -1.285414    0.000041
  H     -2.892362    1.159083   -0.000099
  H     -2.822713   -1.310376   -0.000250
  H     -0.621445   -2.471942   -0.000198
  H     -0.789006    2.460381    0.000461
  H      2.380684    0.917474    0.000096

 Total Charge           Charge          ....    0
 Multiplicity           Mult            ....    1
 Number of Electrons    NEL             ....   58
 Basis Dimension        Dim             ....  187

ORBITAL ENERGIES
----------------

  NO   OCC          E(Eh)            E(eV)
   0   2.0000     -24.505069      -666.8168
   1   2.0000     -18.992818      -516.8209
   2   2.0000     -10.119726      -275.3717
   3   2.0000     -10.107739      -275.0456
   4   2.0000     -10.043538      -273.2986
   5   2.0000     -10.038650      -273.1656
   6   2.0000     -10.037472      -273.1335
   7   2.0000     -10.035559      -273.0814
   8   2.0000      -1.185504       -32.2592
   9   2.0000      -1.036560       -28.2062
  10   2.0000      -0.833043       -22.6683
  11   2.0000      -0.727044       -19.7839
  12   2.0000      -0.716387       -19.4939
  13   2.0000      -0.600709       -16.3461
  14   2.0000      -0.590357       -16.0644
  15   2.0000      -0.538099       -14.6424
  16   2.0000      -0.494518       -13.4565
  17   2.0000      -0.468260       -12.7420
  18   2.0000      -0.437088       -11.8938
  19   2.0000      -0.434099       -11.8124
  20   2.0000      -0.407879       -11.0990
  21   2.0000      -0.381005       -10.3677
  22   2.0000      -0.377427       -10.2703
  23   2.0000      -0.367577       -10.0023
  24   2.0000      -0.339146        -9.2286
  25   2.0000      -0.321800        -8.7566
  26   2.0000      -0.317485        -8.6392
  27   2.0000      -0.240299        -6.5389
  28   2.0000      -0.213043        -5.7972
  29   0.0000      -0.036703        -0.9987
  30   0.0000      -0.022247        -0.6054
  31   0.0000       0.035761         0.9731
  32   0.0000       0.103863         2.8263
  33   0.0000       0.127842         3.4788

MULLIKEN ATOMIC CHARGES
-----------------------
   0 C :   -0.176710
   1 C :   -0.197296
   2 C :   -0.241803
   3 C :    0.259898
   4 C :    0.210812
   5 C :   -0.291128
   6 O :   -0.434905
   7 F :   -0.268026
   8 H :    0.185254
   9 H :    0.186757
  10 H :    0.200134
  11 H :    0.192581
  12 H :    0.374432
Sum of atomic charges:    0.0000000

LOEWDIN ATOMIC CHARGES
----------------------
   0 C :   -0.169930
   1 C :   -0.184972
   2 C :   -0.152367
   3 C :    0.211332
   4 C :    0.176588
   5 C :   -0.145453
   6 O :   -0.487801
   7 F :   -0.304777
   8 H :    0.181051
   9 H :    0.180713
  10 H :    0.194848
  11 H :    0.191880
  12 H :    0.308887

  Mayer bond orders larger than 0.100000
B(  0-C ,  1-C ) :   1.3911 B(  0-C ,  5-C ) :   1.3829 B(  0-C ,  8-H ) :   0.9489
B(  1-C ,  2-C ) :   1.3581 B(  1-C ,  9-H ) :   0.9530 B(  2-C ,  3-C ) :   1.3552
B(  2-C , 10-H ) :   0.9337 B(  3-C ,  4-C ) :   1.3944 B(  3-C ,  7-F ) :   0.8480
B(  4-C ,  5-C ) :   1.3230 B(  4-C ,  6-O ) :   0.9603 B(  5-C , 11-H ) :   0.9525
B(  6-O , 12-H ) :   0.8407

Dispersion correction           -0.003889041
FINAL SINGLE POINT ENERGY      -406.647889089276

DIPOLE MOMENT
-------------

Method             : SCF
Type of density    : Electron Density
Multiplicity       :   1
Irrep              :   0
Energy             :  -406.6484957465937669 Eh
Relativity type    :
Basis              : AO
                                X                 Y                 Z
Electronic contribution:      5.742327642      -2.122763407      -0.000030460
Nuclear contribution   :     -5.989082317       1.920926833      -0.000028774
                        -----------------------------------------
Total Dipole Moment    :     -0.246754675      -0.201836574      -0.000059233
                        -----------------------------------------
Magnitude (a.u.)       :      0.318788136
Magnitude (Debye)      :      0.810295047

Rotational constants in cm-1:             0.110482             0.074880             0.044631
Rotational constants in MHz :          3312.171039          2244.831611          1337.999412

                             ****ORCA TERMINATED NORMALLY****
TOTAL RUN TIME: 0 days 0 hours 0 minutes 27 seconds 598 msec
