                         Program Version 6.0.0  -   RELEASE  -
|  1> ! pbe def2-sv(p) def2/J RI DEFGRID1 loosescf d4 GCP(DFT/SV(P)) printgap
|  2> %output
|  3>     printlevel normal
|  4> end
|  5> * xyz 0 1
|  6> C -2.3998557333 -0.8537002455 0.4437542844
|  7> C -0.9360260778 -0.4208286631 0.5841319578
|  8> H -0.630124814 -0.559553265 1.6319849476
|  9> C -0.7305514779 1.0596257489 0.1996904887
| 10> H -1.4839621523 1.3490883137 -0.5418171555
| 11> C 0.6688785601 1.2492696799 -0.4341241082
| 12> H 0.9730790339 2.287785334 -0.2641569845
| 13> C 1.6770732385 0.3140808727 0.2585161424
| 14> H 2.6502431889 0.4262644333 -0.2321581311
| 15> C 1.2343441063 -1.1567931182 0.0564177023
| 16> H 1.422653395 -1.7084788318 1.0015886365
| 17> O -0.1439382326 -1.260284443 -0.2442128669
| 18> O 1.9488350449 -1.6912500623 -0.9961202366
| 19> O 1.7241096968 0.6589110836 1.6213251164
| 20> O 0.6716989711 1.0741718253 -1.8237371111
| 21> O -0.9227046611 1.9043390597 1.3032724938
| 22> O -2.8875396614 -0.7129610795 -0.8642833054
| 23> H -3.0105769797 -0.2043937381 1.0734966249
| 24> H -2.4984571053 -1.891650463 0.7847442528
| 25> H 1.6437790292 -2.5930861605 -1.1835980607
| 26> H 2.5822944427 0.426926609 2.0022445882
| 27> H 0.516159942 0.1400501153 -2.0291674131
| 28> H -0.1935027514 1.7653402974 1.9291502641
| 29> H -2.3765342584 -1.292442736 -1.4471776842
| 30> *
| 31>
| 32>                          ****END OF INPUT****

CARTESIAN COORDINATES (ANGSTROEM)
---------------------------------
  C     -2.399856   -0.853700    0.443754
  C     -0.936026   -0.420829    0.584132
  H     -0.630125   -0.559553    1.631985
  C     -0.730551    1.059626    0.199690
  H     -1.483962    1.349088   -0.541817
  C      0.668879    1.249270   -0.434124
  H      0.973079    2.287785   -0.264157
  C      1.677073    0.314081    0.258516
  H      2.650243    0.426264   -0.232158
  C      1.234344   -1.156793    0.056418
  H      1.422653   -1.708479    1.001589
  O     -0.143938   -1.260284   -0.244213
  O      1.948835   -1.691250   -0.996120
  O      1.724110    0.658911    1.621325
  O      0.671699    1.074172   -1.823737
  O     -0.922705    1.904339    1.303272
  O     -2.887540   -0.712961   -0.864283
  H     -3.010577   -0.204394    1.073497
  H     -2.498457   -1.891650    0.784744
  H      1.643779   -2.593086   -1.183598
  H      2.582294    0.426927    2.002245
  H      0.516160    0.140050   -2.029167
  H     -0.193503    1.765340    1.929150
  H     -2.376534   -1.292443   -1.447178

 Total Charge           Charge          ....    0
 Multiplicity           Mult            ....    1
 Number of Electrons    NEL             ....   96
 Basis Dimension        Dim             ....  192

ORBITAL ENERGIES
----------------

  NO   OCC          E(Eh)            E(eV)
   0   2.0000     -18.782616      -511.1010
   1   2.0000     -18.781607      -511.0735
   2   2.0000     -18.780827      -511.0523
   3   2.0000     -18.748539      -510.1737
   4   2.0000     -18.742197      -510.0011
   5   2.0000     -18.737969      -509.8861
   6   2.0000      -9.999688      -272.1054
   7   2.0000      -9.951382      -270.7909
   8   2.0000      -9.940944      -270.5068
   9   2.0000      -9.936418      -270.3837
  10   2.0000      -9.932119      -270.2667
  11   2.0000      -9.927127      -270.1309
  12   2.0000      -0.998369       -27.1670
  13   2.0000      -0.955097       -25.9895
  14   2.0000      -0.938821       -25.5466
  15   2.0000      -0.923829       -25.1387
  16   2.0000      -0.918435       -24.9919
  17   2.0000      -0.913122       -24.8473
  18   2.0000      -0.694232       -18.8910
  19   2.0000      -0.692518       -18.8444
  20   2.0000      -0.624255       -16.9868
  21   2.0000      -0.585655       -15.9365
  22   2.0000      -0.567646       -15.4464
  23   2.0000      -0.529785       -14.4162
  24   2.0000      -0.516065       -14.0428
  25   2.0000      -0.489957       -13.3324
  26   2.0000      -0.477534       -12.9944
  27   2.0000      -0.471397       -12.8274
  28   2.0000      -0.448332       -12.1997
  29   2.0000      -0.431589       -11.7441
  30   2.0000      -0.424477       -11.5506
  31   2.0000      -0.394735       -10.7413
  32   2.0000      -0.379343       -10.3224
  33   2.0000      -0.370750       -10.0886
  34   2.0000      -0.361200        -9.8287
  35   2.0000      -0.350690        -9.5428
  36   2.0000      -0.338552        -9.2125
  37   2.0000      -0.323457        -8.8017
  38   2.0000      -0.311328        -8.4717
  39   2.0000      -0.287482        -7.8228
  40   2.0000      -0.280050        -7.6205
  41   2.0000      -0.273741        -7.4489
  42   2.0000      -0.261634        -7.1194
  43   2.0000      -0.252977        -6.8839
  44   2.0000      -0.246758        -6.7146
  45   2.0000      -0.226193        -6.1550
  46   2.0000      -0.212319        -5.7775
  47   2.0000      -0.192247        -5.2313
  48   0.0000       0.000520         0.0142
  49   0.0000       0.014872         0.4047
  50   0.0000       0.032123         0.8741
  51   0.0000       0.051798         1.4095
  52   0.0000       0.058907         1.6029

MULLIKEN ATOMIC CHARGES
-----------------------
   0 C :    0.082906
   1 C :   -0.019823
   2 H :    0.050724
   3 C :    0.084914
   4 H :    0.077302
   5 C :    0.051433
   6 H :    0.076523
   7 C :   -0.010782
   8 H :    0.091686
   9 C :    0.184116
  10 H :    0.044955
  11 O :   -0.333436
  12 O :   -0.378078
  13 O :   -0.420202
  14 O :   -0.410737
  15 O :   -0.429059
  16 O :   -0.431085
  17 H :    0.098812
  18 H :    0.073034
  19 H :    0.309217
  20 H :    0.316261
  21 H :    0.292647
  22 H :    0.301670
  23 H :    0.297004
Sum of atomic charges:   -0.0000000

LOEWDIN ATOMIC CHARGES
----------------------
   0 C :   -0.122964
   1 C :   -0.084123
   2 H :    0.103951
   3 C :   -0.076697
   4 H :    0.121570
   5 C :   -0.070088
   6 H :    0.120050
   7 C :   -0.091874
   8 H :    0.118769
   9 C :   -0.007439
  10 H :    0.080435
  11 O :   -0.172784
  12 O :   -0.290990
  13 O :   -0.313207
  14 O :   -0.309205
  15 O :   -0.315237
  16 O :   -0.328198
  17 H :    0.125004
  18 H :    0.098591
  19 H :    0.291777
  20 H :    0.296824
  21 H :    0.269942
  22 H :    0.274511
  23 H :    0.281381

  Mayer bond orders larger than 0.100000
B(  0-C ,  1-C ) :   1.0440 B(  0-C , 16-O ) :   1.0692 B(  0-C , 17-H ) :   0.9178
B(  0-C , 18-H ) :   0.9136 B(  1-C ,  2-H ) :   0.8616 B(  1-C ,  3-C ) :   0.9789
B(  1-C , 11-O ) :   0.9911 B(  3-C ,  4-H ) :   0.8752 B(  3-C ,  5-C ) :   0.9724
B(  3-C , 15-O ) :   1.0385 B(  5-C ,  6-H ) :   0.8888 B(  5-C ,  7-C ) :   1.0091
B(  5-C , 14-O ) :   1.0684 B(  7-C ,  8-H ) :   0.8958 B(  7-C ,  9-C ) :   0.9284
B(  7-C , 13-O ) :   1.0478 B(  9-C , 10-H ) :   0.9006 B(  9-C , 11-O ) :   1.0167
B(  9-C , 12-O ) :   1.1570 B( 12-O , 19-H ) :   0.8376 B( 13-O , 20-H ) :   0.8411
B( 14-O , 21-H ) :   0.8351 B( 15-O , 22-H ) :   0.8310 B( 16-O , 23-H ) :   0.8462

Dispersion correction           -0.025098453
FINAL SINGLE POINT ENERGY      -685.694312305265

DIPOLE MOMENT
-------------

Method             : SCF
Type of density    : Electron Density
Multiplicity       :   1
Irrep              :   0
Energy             :  -685.8259565565997491 Eh
Relativity type    :
Basis              : AO
                                X                 Y                 Z
Electronic contribution:      1.605451684       0.194873631      -1.797907639
Nuclear contribution   :     -0.374126595      -1.739909292       2.541769045
                        -----------------------------------------
Total Dipole Moment    :      1.231325089      -1.545035661       0.743861406
                        -----------------------------------------
Magnitude (a.u.)       :      2.111072348
Magnitude (Debye)      :      5.365919473

Rotational constants in cm-1:             0.039076             0.028176             0.022972
Rotational constants in MHz :          1171.469299           844.699390           688.682103

                             ****ORCA TERMINATED NORMALLY****
TOTAL RUN TIME: 0 days 0 hours 0 minutes 12 seconds 182 msec
