                         Program Version 6.0.0  -   RELEASE  -
|  1> ! r2scan-3c def2/J RI DEFGRID2 scfconv6 printgap
|  2> %output
|  3>     printlevel normal
|  4> end
|  5> * xyz 0 1
|  6> C -1.2753747672 -0.9410479579 -0.1594077057
|  7> C -0.4097565788 0.3077880279 -0.3069351795
|  8> C -1.1324307768 1.5402367045 0.2283959844
|  9> C 0.9249573418 0.117036186 0.4188310956
| 10> O 1.6643549135 -0.9010660642 -0.227704033
| 11> H -0.7257510004 -1.8132548468 -0.5040704139
| 12> H -2.1843808017 -0.8451046949 -0.7472804632
| 13> H -1.548578394 -1.0900934742 0.883145768
| 14> H -0.1823813863 0.4514089028 -1.3684360262
| 15> H -1.3370092409 1.4257618293 1.2905965623
| 16> H -2.0766633842 1.6739247755 -0.2922108765
| 17> H -0.5299479725 2.434154312 0.0866768892
| 18> H 1.488352318 1.0604994704 0.3995615111
| 19> H 0.7350245155 -0.1548359822 1.4661946029
| 20> H 2.4949255374 -1.0417697568 0.2448136942
| 21> *
| 22>
| 23>                          ****END OF INPUT****

CARTESIAN COORDINATES (ANGSTROEM)
---------------------------------
  C     -1.275375   -0.941048   -0.159408
  C     -0.409757    0.307788   -0.306935
  C     -1.132431    1.540237    0.228396
  C      0.924957    0.117036    0.418831
  O      1.664355   -0.901066   -0.227704
  H     -0.725751   -1.813255   -0.504070
  H     -2.184381   -0.845105   -0.747280
  H     -1.548578   -1.090093    0.883146
  H     -0.182381    0.451409   -1.368436
  H     -1.337009    1.425762    1.290597
  H     -2.076663    1.673925   -0.292211
  H     -0.529948    2.434154    0.086677
  H      1.488352    1.060499    0.399562
  H      0.735025   -0.154836    1.466195
  H      2.494926   -1.041770    0.244814

 Total Charge           Charge          ....    0
 Multiplicity           Mult            ....    1
 Number of Electrons    NEL             ....   42
 Basis Dimension        Dim             ....  150

ORBITAL ENERGIES
----------------

  NO   OCC          E(Eh)            E(eV)
   0   2.0000     -18.946506      -515.5606
   1   2.0000     -10.071721      -274.0655
   2   2.0000     -10.031624      -272.9744
   3   2.0000     -10.017668      -272.5946
   4   2.0000     -10.008863      -272.3550
   5   2.0000      -0.982859       -26.7449
   6   2.0000      -0.765652       -20.8344
   7   2.0000      -0.648448       -17.6452
   8   2.0000      -0.637138       -17.3374
   9   2.0000      -0.526838       -14.3360
  10   2.0000      -0.480065       -13.0632
  11   2.0000      -0.437927       -11.9166
  12   2.0000      -0.408166       -11.1068
  13   2.0000      -0.389914       -10.6101
  14   2.0000      -0.357697        -9.7334
  15   2.0000      -0.347466        -9.4550
  16   2.0000      -0.331800        -9.0287
  17   2.0000      -0.303264        -8.2522
  18   2.0000      -0.298554        -8.1241
  19   2.0000      -0.281386        -7.6569
  20   2.0000      -0.234739        -6.3876
  21   0.0000       0.061453         1.6722
  22   0.0000       0.092623         2.5204
  23   0.0000       0.131446         3.5768
  24   0.0000       0.138416         3.7665
  25   0.0000       0.141363         3.8467

MULLIKEN ATOMIC CHARGES
-----------------------
   0 C :   -0.504681
   1 C :   -0.005834
   2 C :   -0.488507
   3 C :   -0.143209
   4 O :   -0.432706
   5 H :    0.171266
   6 H :    0.144613
   7 H :    0.140417
   8 H :    0.145807
   9 H :    0.145073
  10 H :    0.148350
  11 H :    0.145620
  12 H :    0.119587
  13 H :    0.123365
  14 H :    0.290838
Sum of atomic charges:    0.0000000

LOEWDIN ATOMIC CHARGES
----------------------
   0 C :   -0.413205
   1 C :   -0.225547
   2 C :   -0.414919
   3 C :    0.009731
   4 O :   -0.632708
   5 H :    0.166422
   6 H :    0.152010
   7 H :    0.151981
   8 H :    0.163908
   9 H :    0.153799
  10 H :    0.155782
  11 H :    0.153194
  12 H :    0.156578
  13 H :    0.156901
  14 H :    0.266074

  Mayer bond orders larger than 0.100000
B(  0-C ,  1-C ) :   0.9203 B(  0-C ,  5-H ) :   0.9676 B(  0-C ,  6-H ) :   0.9747
B(  0-C ,  7-H ) :   0.9833 B(  1-C ,  2-C ) :   0.9020 B(  1-C ,  3-C ) :   0.9479
B(  1-C ,  8-H ) :   0.9470 B(  2-C ,  9-H ) :   0.9825 B(  2-C , 10-H ) :   0.9711
B(  2-C , 11-H ) :   0.9738 B(  3-C ,  4-O ) :   0.9208 B(  3-C , 12-H ) :   0.9623
B(  3-C , 13-H ) :   0.9717 B(  4-O , 14-H ) :   0.9014

Dispersion correction           -0.003204220
FINAL SINGLE POINT ENERGY      -233.600158673166

DIPOLE MOMENT
-------------

Method             : SCF
Type of density    : Electron Density
Multiplicity       :   1
Irrep              :   0
Energy             :  -233.6053954839150322 Eh
Relativity type    :
Basis              : AO
                                X                 Y                 Z
Electronic contribution:      3.798368250      -1.693709161      -0.944385695
Nuclear contribution   :     -3.602582019       1.957395868       1.365394895
                        -----------------------------------------
Total Dipole Moment    :      0.195786231       0.263686707       0.421009200
                        -----------------------------------------
Magnitude (a.u.)       :      0.533958495
Magnitude (Debye)      :      1.357214635

Rotational constants in cm-1:             0.255787             0.117148             0.089161
Rotational constants in MHz :          7668.294798          3512.021543          2672.967777

                             ****ORCA TERMINATED NORMALLY****
TOTAL RUN TIME: 0 days 0 hours 0 minutes 15 seconds 221 msec
