                         Program Version 6.0.0  -   RELEASE  -
|  1> ! r2scan-3c def2/J RI DEFGRID2 scfconv6 printgap
|  2> %output
|  3>     printlevel normal
|  4> end
|  5> %cpcm
|  6>     smd true
|  7>     smdsolvent "water"
|  8> end
|  9> * xyz 0 1
| 10> C -1.2753747672 -0.9410479579 -0.1594077057
| 11> C -0.4097565788 0.3077880279 -0.3069351795
| 12> C -1.1324307768 1.5402367045 0.2283959844
| 13> C 0.9249573418 0.117036186 0.4188310956
| 14> O 1.6643549135 -0.9010660642 -0.227704033
| 15> H -0.7257510004 -1.8132548468 -0.5040704139
| 16> H -2.1843808017 -0.8451046949 -0.7472804632
| 17> H -1.548578394 -1.0900934742 0.883145768
| 18> H -0.1823813863 0.4514089028 -1.3684360262
| 19> H -1.3370092409 1.4257618293 1.2905965623
| 20> H -2.0766633842 1.6739247755 -0.2922108765
| 21> H -0.5299479725 2.434154312 0.0866768892
| 22> H 1.488352318 1.0604994704 0.3995615111
| 23> H 0.7350245155 -0.1548359822 1.4661946029
| 24> H 2.4949255374 -1.0417697568 0.2448136942
| 25> *
| 26>
| 27>                          ****END OF INPUT****

CARTESIAN COORDINATES (ANGSTROEM)
---------------------------------
  C     -1.275375   -0.941048   -0.159408
  C     -0.409757    0.307788   -0.306935
  C     -1.132431    1.540237    0.228396
  C      0.924957    0.117036    0.418831
  O      1.664355   -0.901066   -0.227704
  H     -0.725751   -1.813255   -0.504070
  H     -2.184381   -0.845105   -0.747280
  H     -1.548578   -1.090093    0.883146
  H     -0.182381    0.451409   -1.368436
  H     -1.337009    1.425762    1.290597
  H     -2.076663    1.673925   -0.292211
  H     -0.529948    2.434154    0.086677
  H      1.488352    1.060499    0.399562
  H      0.735025   -0.154836    1.466195
  H      2.494926   -1.041770    0.244814

 Total Charge           Charge          ....    0
 Multiplicity           Mult            ....    1
 Number of Electrons    NEL             ....   42
 Basis Dimension        Dim             ....  150

ORBITAL ENERGIES
----------------

  NO   OCC          E(Eh)            E(eV)
   0   2.0000     -18.948965      -515.6276
   1   2.0000     -10.065315      -273.8911
   2   2.0000     -10.027262      -272.8557
   3   2.0000     -10.009459      -272.3712
   4   2.0000     -10.006568      -272.2925
   5   2.0000      -0.984221       -26.7820
   6   2.0000      -0.760926       -20.7059
   7   2.0000      -0.644119       -17.5274
   8   2.0000      -0.632335       -17.2067
   9   2.0000      -0.522338       -14.2135
  10   2.0000      -0.476943       -12.9783
  11   2.0000      -0.433327       -11.7914
  12   2.0000      -0.404462       -11.0060
  13   2.0000      -0.386521       -10.5178
  14   2.0000      -0.352380        -9.5887
  15   2.0000      -0.342538        -9.3209
  16   2.0000      -0.333561        -9.0767
  17   2.0000      -0.300014        -8.1638
  18   2.0000      -0.294319        -8.0088
  19   2.0000      -0.278476        -7.5777
  20   2.0000      -0.238063        -6.4780
  21   0.0000       0.077322         2.1040
  22   0.0000       0.100324         2.7300
  23   0.0000       0.138846         3.7782
  24   0.0000       0.143245         3.8979
  25   0.0000       0.146551         3.9879

MULLIKEN ATOMIC CHARGES
-----------------------
   0 C :   -0.538185
   1 C :    0.007494
   2 C :   -0.532647
   3 C :   -0.155174
   4 O :   -0.516008
   5 H :    0.159799
   6 H :    0.160481
   7 H :    0.159573
   8 H :    0.149661
   9 H :    0.160340
  10 H :    0.160566
  11 H :    0.158977
  12 H :    0.137386
  13 H :    0.143137
  14 H :    0.344599
Sum of atomic charges:    0.0000000

LOEWDIN ATOMIC CHARGES
----------------------
   0 C :   -0.422180
   1 C :   -0.226783
   2 C :   -0.420572
   3 C :    0.011407
   4 O :   -0.667651
   5 H :    0.160161
   6 H :    0.156463
   7 H :    0.157391
   8 H :    0.163085
   9 H :    0.158187
  10 H :    0.158606
  11 H :    0.157314
  12 H :    0.164443
  13 H :    0.165474
  14 H :    0.284655

  Mayer bond orders larger than 0.100000
B(  0-C ,  1-C ) :   0.9061 B(  0-C ,  5-H ) :   0.9691 B(  0-C ,  6-H ) :   0.9720
B(  0-C ,  7-H ) :   0.9804 B(  1-C ,  2-C ) :   0.9005 B(  1-C ,  3-C ) :   0.9321
B(  1-C ,  8-H ) :   0.9474 B(  2-C ,  9-H ) :   0.9813 B(  2-C , 10-H ) :   0.9684
B(  2-C , 11-H ) :   0.9699 B(  3-C ,  4-O ) :   0.9049 B(  3-C , 12-H ) :   0.9630
B(  3-C , 13-H ) :   0.9716 B(  4-O , 14-H ) :   0.8747

Dispersion correction           -0.003204220
FINAL SINGLE POINT ENERGY      -233.605937042960

DIPOLE MOMENT
-------------

Method             : SCF
Type of density    : Electron Density
Multiplicity       :   1
Irrep              :   0
Energy             :  -233.6111738537096869 Eh
Relativity type    :
Basis              : AO
                                X                 Y                 Z
Electronic contribution:      3.845897675      -1.535406712      -0.725016383
Nuclear contribution   :     -3.602582019       1.957395868       1.365394895
                        -----------------------------------------
Total Dipole Moment    :      0.243315656       0.421989156       0.640378512
                        -----------------------------------------
Magnitude (a.u.)       :      0.804588090
Magnitude (Debye)      :      2.045100398

Rotational constants in cm-1:             0.255787             0.117148             0.089161
Rotational constants in MHz :          7668.294798          3512.021543          2672.967777

                             ****ORCA TERMINATED NORMALLY****
TOTAL RUN TIME: 0 days 0 hours 0 minutes 17 seconds 275 msec
