                         Program Version 6.0.0  -   RELEASE  -
|  1> ! pbe def2-sv(p) def2/J RI DEFGRID1 loosescf d4 GCP(DFT/SV(P)) printgap
|  2> %output
|  3>     printlevel normal
|  4> end
|  5> * xyz 0 1
|  6> C 1.7286030506 1.4818680733 0.4502581081
|  7> C 0.4494018078 0.7801403698 0.922234857
|  8> H 0.2470959222 1.1405529578 1.9336478235
|  9> C 0.4481714769 -0.7787770888 0.9238634478
| 10> H 0.2454538821 -1.1367991738 1.9360688643
| 11> C 1.7264431776 -1.4831581087 0.45344601
| 12> O 2.7775461884 -1.2760401015 1.3765151251
| 13> S 3.7957764885 -0.0019038654 1.0401557901
| 14> O 4.735364884 -0.0012496905 2.1248921384
| 15> O 2.7798963879 1.2749514857 1.3730727973
| 16> C -0.7713250577 -1.1161122504 0.0241866056
| 17> C -0.4364579063 -0.6718082407 -1.3874474101
| 18> C -0.4353312864 0.6693812552 -1.3888767695
| 19> C -0.7695529463 1.1173599851 0.0217465069
| 20> C -1.7620033334 0.0018429757 0.4205697902
| 21> Cl -3.2417073804 0.0018577858 -0.5560246532
| 22> Cl -2.2263872332 0.0039190919 2.1183441156
| 23> Cl -1.3613211486 2.7626523948 0.1663417063
| 24> Cl -0.078867605 1.7378787702 -2.6488960803
| 25> Cl -0.0808000553 -1.7435851052 -2.6446684829
| 26> Cl -1.3657614729 -2.7601755368 0.1723886182
| 27> H 1.5438760642 2.558594684 0.4183614175
| 28> H 2.0299367262 1.1432108333 -0.5443306772
| 29> H 1.5401723341 -2.5596682877 0.4232013257
| 30> H 2.0287790367 -1.146600731 -0.5415276768
| 31> *
| 32>
| 33>                          ****END OF INPUT****

CARTESIAN COORDINATES (ANGSTROEM)
---------------------------------
  C      1.728603    1.481868    0.450258
  C      0.449402    0.780140    0.922235
  H      0.247096    1.140553    1.933648
  C      0.448171   -0.778777    0.923863
  H      0.245454   -1.136799    1.936069
  C      1.726443   -1.483158    0.453446
  O      2.777546   -1.276040    1.376515
  S      3.795776   -0.001904    1.040156
  O      4.735365   -0.001250    2.124892
  O      2.779896    1.274951    1.373073
  C     -0.771325   -1.116112    0.024187
  C     -0.436458   -0.671808   -1.387447
  C     -0.435331    0.669381   -1.388877
  C     -0.769553    1.117360    0.021747
  C     -1.762003    0.001843    0.420570
  Cl    -3.241707    0.001858   -0.556025
  Cl    -2.226387    0.003919    2.118344
  Cl    -1.361321    2.762652    0.166342
  Cl    -0.078868    1.737879   -2.648896
  Cl    -0.080800   -1.743585   -2.644668
  Cl    -1.365761   -2.760176    0.172389
  H      1.543876    2.558595    0.418361
  H      2.029937    1.143211   -0.544331
  H      1.540172   -2.559668    0.423201
  H      2.028779   -1.146601   -0.541528

 Total Charge           Charge          ....    0
 Multiplicity           Mult            ....    1
 Number of Electrons    NEL             ....  202
 Basis Dimension        Dim             ....  306

ORBITAL ENERGIES
----------------

  NO   OCC          E(Eh)            E(eV)
   0   2.0000    -100.682933     -2739.7219
   1   2.0000    -100.682894     -2739.7208
   2   2.0000    -100.669485     -2739.3560
   3   2.0000    -100.662902     -2739.1768
   4   2.0000    -100.662894     -2739.1766
   5   2.0000    -100.659093     -2739.0732
   6   2.0000     -88.205949     -2400.2059
   7   2.0000     -18.802148      -511.6325
   8   2.0000     -18.802120      -511.6317
   9   2.0000     -18.765785      -510.6430
  10   2.0000     -10.046525      -273.3798
  11   2.0000     -10.015779      -272.5432
  12   2.0000     -10.015744      -272.5422
  13   2.0000      -9.990886      -271.8658
  14   2.0000      -9.990327      -271.8506
  15   2.0000      -9.974753      -271.4268
  16   2.0000      -9.974669      -271.4245
  17   2.0000      -9.949313      -270.7346
  18   2.0000      -9.949216      -270.7319
  19   2.0000      -9.218588      -250.8505
  20   2.0000      -9.218543      -250.8493
  21   2.0000      -9.205480      -250.4938
  22   2.0000      -9.198670      -250.3085
  23   2.0000      -9.198661      -250.3083
  24   2.0000      -9.195031      -250.2095
  25   2.0000      -7.832010      -213.1198
  26   2.0000      -7.050067      -191.8421
  27   2.0000      -7.050046      -191.8415
  28   2.0000      -7.038741      -191.5339
  29   2.0000      -7.038719      -191.5333
  30   2.0000      -7.037623      -191.5035
  31   2.0000      -7.037599      -191.5028
  32   2.0000      -7.037219      -191.4925
  33   2.0000      -7.030401      -191.3069
  34   2.0000      -7.030399      -191.3069
  35   2.0000      -7.027034      -191.2153
  36   2.0000      -7.024998      -191.1599
  37   2.0000      -7.024824      -191.1552
  38   2.0000      -7.018279      -190.9771
  39   2.0000      -7.018277      -190.9770
  40   2.0000      -7.017996      -190.9694
  41   2.0000      -7.017994      -190.9693
  42   2.0000      -7.014439      -190.8726
  43   2.0000      -7.014287      -190.8685
  44   2.0000      -5.860396      -159.4695
  45   2.0000      -5.859395      -159.4422
  46   2.0000      -5.849787      -159.1808
  47   2.0000      -1.040402       -28.3108
  48   2.0000      -0.958269       -26.0758
  49   2.0000      -0.947984       -25.7960
  50   2.0000      -0.922566       -25.1043
  51   2.0000      -0.851640       -23.1743
  52   2.0000      -0.839167       -22.8349
  53   2.0000      -0.812095       -22.0982
  54   2.0000      -0.806424       -21.9439
  55   2.0000      -0.781152       -21.2562
  56   2.0000      -0.775701       -21.1079
  57   2.0000      -0.733941       -19.9716
  58   2.0000      -0.696065       -18.9409
  59   2.0000      -0.672292       -18.2940
  60   2.0000      -0.633351       -17.2344
  61   2.0000      -0.631110       -17.1734
  62   2.0000      -0.576835       -15.6965
  63   2.0000      -0.555843       -15.1252
  64   2.0000      -0.539212       -14.6727
  65   2.0000      -0.519279       -14.1303
  66   2.0000      -0.500337       -13.6149
  67   2.0000      -0.496401       -13.5078
  68   2.0000      -0.495545       -13.4845
  69   2.0000      -0.476391       -12.9633
  70   2.0000      -0.466445       -12.6926
  71   2.0000      -0.441935       -12.0257
  72   2.0000      -0.434233       -11.8161
  73   2.0000      -0.433566       -11.7979
  74   2.0000      -0.425669       -11.5831
  75   2.0000      -0.411513       -11.1978
  76   2.0000      -0.407680       -11.0935
  77   2.0000      -0.405968       -11.0470
  78   2.0000      -0.397245       -10.8096
  79   2.0000      -0.388132       -10.5616
  80   2.0000      -0.374652       -10.1948
  81   2.0000      -0.357902        -9.7390
  82   2.0000      -0.353674        -9.6240
  83   2.0000      -0.334950        -9.1144
  84   2.0000      -0.332663        -9.0522
  85   2.0000      -0.319765        -8.7012
  86   2.0000      -0.316024        -8.5994
  87   2.0000      -0.310246        -8.4422
  88   2.0000      -0.301968        -8.2170
  89   2.0000      -0.298705        -8.1282
  90   2.0000      -0.296976        -8.0811
  91   2.0000      -0.296911        -8.0794
  92   2.0000      -0.289563        -7.8794
  93   2.0000      -0.287595        -7.8258
  94   2.0000      -0.286596        -7.7987
  95   2.0000      -0.282093        -7.6761
  96   2.0000      -0.278517        -7.5788
  97   2.0000      -0.276712        -7.5297
  98   2.0000      -0.252458        -6.8697
  99   2.0000      -0.242533        -6.5997
 100   2.0000      -0.234092        -6.3700
 101   0.0000      -0.077499        -2.1089
 102   0.0000      -0.066041        -1.7971
 103   0.0000      -0.028406        -0.7730
 104   0.0000      -0.027969        -0.7611
 105   0.0000      -0.019811        -0.5391

MULLIKEN ATOMIC CHARGES
-----------------------
   0 C :    0.072999
   1 C :   -0.060229
   2 H :    0.105250
   3 C :   -0.060063
   4 H :    0.105266
   5 C :    0.072866
   6 O :   -0.402089
   7 S :    0.787424
   8 O :   -0.386518
   9 O :   -0.402126
  10 C :   -0.097278
  11 C :    0.033877
  12 C :    0.033723
  13 C :   -0.097215
  14 C :   -0.135072
  15 Cl:    0.015145
  16 Cl:    0.020053
  17 Cl:   -0.015908
  18 Cl:    0.004473
  19 Cl:    0.004497
  20 Cl:   -0.015911
  21 H :    0.112683
  22 H :    0.095741
  23 H :    0.112680
  24 H :    0.095728
Sum of atomic charges:   -0.0000000

LOEWDIN ATOMIC CHARGES
----------------------
   0 C :   -0.138039
   1 C :   -0.150086
   2 H :    0.136998
   3 C :   -0.150079
   4 H :    0.137002
   5 C :   -0.138078
   6 O :   -0.303819
   7 S :    0.903394
   8 O :   -0.431183
   9 O :   -0.303818
  10 C :   -0.166610
  11 C :   -0.209610
  12 C :   -0.209560
  13 C :   -0.166610
  14 C :   -0.227652
  15 Cl:    0.126117
  16 Cl:    0.149465
  17 Cl:    0.136027
  18 Cl:    0.208245
  19 Cl:    0.208380
  20 Cl:    0.135995
  21 H :    0.127267
  22 H :    0.099516
  23 H :    0.127245
  24 H :    0.099491

  Mayer bond orders larger than 0.100000
B(  0-C ,  1-C ) :   1.0912 B(  0-C ,  9-O ) :   0.9931 B(  0-C , 21-H ) :   0.9064
B(  0-C , 22-H ) :   0.8843 B(  1-C ,  2-H ) :   0.8412 B(  1-C ,  3-C ) :   0.9812
B(  1-C , 13-C ) :   0.9639 B(  3-C ,  4-H ) :   0.8413 B(  3-C ,  5-C ) :   1.0912
B(  3-C , 10-C ) :   0.9639 B(  5-C ,  6-O ) :   0.9931 B(  5-C , 23-H ) :   0.9064
B(  5-C , 24-H ) :   0.8843 B(  6-O ,  7-S ) :   0.8935 B(  7-S ,  8-O ) :   1.8885
B(  7-S ,  9-O ) :   0.8935 B( 10-C , 11-C ) :   0.8912 B( 10-C , 14-C ) :   0.8250
B( 10-C , 20-Cl) :   1.1330 B( 11-C , 12-C ) :   1.7580 B( 11-C , 19-Cl) :   1.1429
B( 12-C , 13-C ) :   0.8912 B( 12-C , 18-Cl) :   1.1429 B( 13-C , 14-C ) :   0.8250
B( 13-C , 17-Cl) :   1.1330 B( 14-C , 15-Cl) :   1.1496 B( 14-C , 16-Cl) :   1.1493

Dispersion correction           -0.058274184
FINAL SINGLE POINT ENERGY     -3728.106917900567

DIPOLE MOMENT
-------------

Method             : SCF
Type of density    : Electron Density
Multiplicity       :   1
Irrep              :   0
Energy             : -3728.1596005902488287 Eh
Relativity type    :
Basis              : AO
                                X                 Y                 Z
Electronic contribution:    -18.936069652       0.003238114      -8.997619228
Nuclear contribution   :     18.419525141      -0.004064442       7.996712149
                        -----------------------------------------
Total Dipole Moment    :     -0.516544511      -0.000826327      -1.000907079
                        -----------------------------------------
Magnitude (a.u.)       :      1.126336493
Magnitude (Debye)      :      2.862919845

Rotational constants in cm-1:             0.009652             0.005993             0.005744
Rotational constants in MHz :           289.372136           179.677872           172.210894

                             ****ORCA TERMINATED NORMALLY****
TOTAL RUN TIME: 0 days 0 hours 0 minutes 21 seconds 836 msec
