                         Program Version 6.0.0  -   RELEASE  -
|  1> ! pbe def2-sv(p) def2/J RI DEFGRID1 loosescf d4 GCP(DFT/SV(P)) printgap
|  2> %output
|  3>     printlevel normal
|  4> end
|  5> * xyz 0 1
|  6> C -1.9927563592 -0.5785860257 -0.7500575902
|  7> C -1.1877207708 -0.1093739567 0.473326876
|  8> H -1.8712237464 -0.0721696741 1.3292586275
|  9> C -0.6066093115 1.3036507089 0.2607374954
| 10> H -1.3228885871 1.8849262464 -0.3300100395
| 11> C 0.7394623177 1.2899547245 -0.5018298656
| 12> H 1.179486369 2.2887008548 -0.381536138
| 13> C 1.6919045269 0.261496247 0.1260585733
| 14> H 2.5730694764 0.1623532449 -0.523686056
| 15> C 0.9943067867 -1.1120692834 0.1968060973
| 16> H 1.6049974474 -1.7998844763 0.8046832442
| 17> O -0.2146178974 -1.0610251017 0.8971502217
| 18> O 0.8658588206 -1.5949628823 -1.1091200354
| 19> O 2.0440493949 0.7190359389 1.4060934347
| 20> O 0.5846138186 1.0830140742 -1.8816595134
| 21> O -0.4776932821 1.9893049557 1.4816288668
| 22> O -2.4642462316 -1.8863593669 -0.5076715722
| 23> H -1.3728740555 -0.5541090939 -1.652757701
| 24> H -2.8254773739 0.123208806 -0.8757158161
| 25> H 0.4316772397 -2.4622023899 -1.0934341955
| 26> H 2.7214193986 0.1478809605 1.7964651093
| 27> H 0.6388808268 0.1290149718 -2.0635873677
| 28> H 0.2858213373 1.626670332 1.96218449
| 29> H -3.1008324999 -2.1262870485 -1.1952246819
| 30> *
| 31>
| 32>                          ****END OF INPUT****

CARTESIAN COORDINATES (ANGSTROEM)
---------------------------------
  C     -1.992756   -0.578586   -0.750058
  C     -1.187721   -0.109374    0.473327
  H     -1.871224   -0.072170    1.329259
  C     -0.606609    1.303651    0.260737
  H     -1.322889    1.884926   -0.330010
  C      0.739462    1.289955   -0.501830
  H      1.179486    2.288701   -0.381536
  C      1.691905    0.261496    0.126059
  H      2.573069    0.162353   -0.523686
  C      0.994307   -1.112069    0.196806
  H      1.604997   -1.799884    0.804683
  O     -0.214618   -1.061025    0.897150
  O      0.865859   -1.594963   -1.109120
  O      2.044049    0.719036    1.406093
  O      0.584614    1.083014   -1.881660
  O     -0.477693    1.989305    1.481629
  O     -2.464246   -1.886359   -0.507672
  H     -1.372874   -0.554109   -1.652758
  H     -2.825477    0.123209   -0.875716
  H      0.431677   -2.462202   -1.093434
  H      2.721419    0.147881    1.796465
  H      0.638881    0.129015   -2.063587
  H      0.285821    1.626670    1.962184
  H     -3.100832   -2.126287   -1.195225

 Total Charge           Charge          ....    0
 Multiplicity           Mult            ....    1
 Number of Electrons    NEL             ....   96
 Basis Dimension        Dim             ....  192

ORBITAL ENERGIES
----------------

  NO   OCC          E(Eh)            E(eV)
   0   2.0000     -18.787585      -511.2362
   1   2.0000     -18.780265      -511.0370
   2   2.0000     -18.765298      -510.6297
   3   2.0000     -18.749255      -510.1932
   4   2.0000     -18.744025      -510.0508
   5   2.0000     -18.729377      -509.6522
   6   2.0000      -9.996948      -272.0308
   7   2.0000      -9.954172      -270.8668
   8   2.0000      -9.938892      -270.4510
   9   2.0000      -9.936300      -270.3805
  10   2.0000      -9.931181      -270.2412
  11   2.0000      -9.930583      -270.2249
  12   2.0000      -0.992047       -26.9950
  13   2.0000      -0.954243       -25.9663
  14   2.0000      -0.929890       -25.3036
  15   2.0000      -0.923708       -25.1354
  16   2.0000      -0.918000       -24.9801
  17   2.0000      -0.904547       -24.6140
  18   2.0000      -0.698838       -19.0164
  19   2.0000      -0.693851       -18.8807
  20   2.0000      -0.620337       -16.8802
  21   2.0000      -0.591732       -16.1019
  22   2.0000      -0.569608       -15.4998
  23   2.0000      -0.530829       -14.4446
  24   2.0000      -0.501806       -13.6548
  25   2.0000      -0.483605       -13.1596
  26   2.0000      -0.476518       -12.9667
  27   2.0000      -0.461677       -12.5629
  28   2.0000      -0.438115       -11.9217
  29   2.0000      -0.430589       -11.7169
  30   2.0000      -0.421413       -11.4672
  31   2.0000      -0.400886       -10.9087
  32   2.0000      -0.386873       -10.5273
  33   2.0000      -0.372273       -10.1301
  34   2.0000      -0.371229       -10.1017
  35   2.0000      -0.346300        -9.4233
  36   2.0000      -0.339778        -9.2458
  37   2.0000      -0.323440        -8.8013
  38   2.0000      -0.304161        -8.2767
  39   2.0000      -0.288606        -7.8534
  40   2.0000      -0.285180        -7.7601
  41   2.0000      -0.264368        -7.1938
  42   2.0000      -0.253911        -6.9093
  43   2.0000      -0.242531        -6.5996
  44   2.0000      -0.236755        -6.4424
  45   2.0000      -0.226393        -6.1605
  46   2.0000      -0.212934        -5.7942
  47   2.0000      -0.192738        -5.2447
  48   0.0000       0.003494         0.0951
  49   0.0000       0.011117         0.3025
  50   0.0000       0.029219         0.7951
  51   0.0000       0.056952         1.5497
  52   0.0000       0.070914         1.9297

MULLIKEN ATOMIC CHARGES
-----------------------
   0 C :   -0.000509
   1 C :    0.060256
   2 H :    0.078352
   3 C :    0.073980
   4 H :    0.072823
   5 C :    0.046905
   6 H :    0.084456
   7 C :   -0.006018
   8 H :    0.084489
   9 C :    0.194879
  10 H :    0.053568
  11 O :   -0.304277
  12 O :   -0.415061
  13 O :   -0.416659
  14 O :   -0.422389
  15 O :   -0.434122
  16 O :   -0.433370
  17 H :    0.055379
  18 H :    0.077754
  19 H :    0.319014
  20 H :    0.311298
  21 H :    0.316315
  22 H :    0.302931
  23 H :    0.300008
Sum of atomic charges:    0.0000000

LOEWDIN ATOMIC CHARGES
----------------------
   0 C :   -0.147351
   1 C :   -0.061984
   2 H :    0.123711
   3 C :   -0.069340
   4 H :    0.118936
   5 C :   -0.065679
   6 H :    0.118704
   7 C :   -0.089074
   8 H :    0.110279
   9 C :   -0.010548
  10 H :    0.092374
  11 O :   -0.135162
  12 O :   -0.308710
  13 O :   -0.301886
  14 O :   -0.318411
  15 O :   -0.323752
  16 O :   -0.346388
  17 H :    0.089426
  18 H :    0.104183
  19 H :    0.296194
  20 H :    0.293418
  21 H :    0.271620
  22 H :    0.273343
  23 H :    0.286095

  Mayer bond orders larger than 0.100000
B(  0-C ,  1-C ) :   1.0541 B(  0-C , 16-O ) :   1.0850 B(  0-C , 17-H ) :   0.8946
B(  0-C , 18-H ) :   0.9117 B(  1-C ,  2-H ) :   0.8915 B(  1-C ,  3-C ) :   0.9810
B(  1-C , 11-O ) :   0.9860 B(  3-C ,  4-H ) :   0.8917 B(  3-C ,  5-C ) :   0.9621
B(  3-C , 15-O ) :   1.0519 B(  5-C ,  6-H ) :   0.8998 B(  5-C ,  7-C ) :   1.0118
B(  5-C , 14-O ) :   1.0844 B(  7-C ,  8-H ) :   0.8966 B(  7-C ,  9-C ) :   0.9671
B(  7-C , 13-O ) :   1.0285 B(  9-C , 10-H ) :   0.9048 B(  9-C , 11-O ) :   1.1031
B(  9-C , 12-O ) :   1.0763 B( 12-O , 19-H ) :   0.8236 B( 13-O , 20-H ) :   0.8388
B( 14-O , 21-H ) :   0.7974 B( 15-O , 22-H ) :   0.8195 B( 16-O , 23-H ) :   0.8523

Dispersion correction           -0.026001635
FINAL SINGLE POINT ENERGY      -685.696077971912

DIPOLE MOMENT
-------------

Method             : SCF
Type of density    : Electron Density
Multiplicity       :   1
Irrep              :   0
Energy             :  -685.8282361181608167 Eh
Relativity type    :
Basis              : AO
                                X                 Y                 Z
Electronic contribution:      1.472835623      -0.684318696       1.745079201
Nuclear contribution   :     -0.987524831      -0.622716105      -2.081647219
                        -----------------------------------------
Total Dipole Moment    :      0.485310793      -1.307034801      -0.336568018
                        -----------------------------------------
Magnitude (a.u.)       :      1.434274927
Magnitude (Debye)      :      3.645637141

Rotational constants in cm-1:             0.041803             0.028208             0.024958
Rotational constants in MHz :          1253.217165           845.643536           748.220300

                             ****ORCA TERMINATED NORMALLY****
TOTAL RUN TIME: 0 days 0 hours 0 minutes 12 seconds 452 msec
