                         Program Version 6.0.0  -   RELEASE  -
|  1> ! r2scan-3c def2/J RI DEFGRID2 scfconv6 printgap
|  2> %output
|  3>     printlevel normal
|  4> end
|  5> * xyz 0 1
|  6> C 2.4762604496 0.582635026 -1.0485913398
|  7> C 1.6952200338 -0.0211438632 0.0804768509
|  8> O 2.2416140453 -0.5892848749 1.012169215
|  9> C 0.2150255108 0.042588297 0.0043238027
| 10> C -0.4921873496 1.1244282107 -0.5176646632
| 11> C -1.8756282716 1.073704171 -0.5262908248
| 12> C -2.5022174765 -0.0514728664 -0.0104976245
| 13> N -1.8427239961 -1.0857419439 0.4922372827
| 14> C -0.5255612297 -1.0338768502 0.5019993677
| 15> H 3.3065997105 1.1592794237 -0.6478527087
| 16> H 1.864448487 1.1906013729 -1.7033468242
| 17> H 2.9047630327 -0.2364604495 -1.6248795385
| 18> H 0.0221255201 2.0023269885 -0.8774527612
| 19> H -2.4575494501 1.8927331387 -0.9158797812
| 20> H -3.5795990615 -0.1348183577 0.0122510959
| 21> H -0.0111729258 -1.8901988628 0.9180712899
| 22> *
| 23>
| 24>                          ****END OF INPUT****

CARTESIAN COORDINATES (ANGSTROEM)
---------------------------------
  C      2.476260    0.582635   -1.048591
  C      1.695220   -0.021144    0.080477
  O      2.241614   -0.589285    1.012169
  C      0.215026    0.042588    0.004324
  C     -0.492187    1.124428   -0.517665
  C     -1.875628    1.073704   -0.526291
  C     -2.502217   -0.051473   -0.010498
  N     -1.842724   -1.085742    0.492237
  C     -0.525561   -1.033877    0.501999
  H      3.306600    1.159279   -0.647853
  H      1.864448    1.190601   -1.703347
  H      2.904763   -0.236460   -1.624880
  H      0.022126    2.002327   -0.877453
  H     -2.457549    1.892733   -0.915880
  H     -3.579599   -0.134818    0.012251
  H     -0.011173   -1.890199    0.918071

 Total Charge           Charge          ....    0
 Multiplicity           Mult            ....    1
 Number of Electrons    NEL             ....   64
 Basis Dimension        Dim             ....  216

ORBITAL ENERGIES
----------------

  NO   OCC          E(Eh)            E(eV)
   0   2.0000     -18.945115      -515.5228
   1   2.0000     -14.168111      -385.5339
   2   2.0000     -10.132417      -275.7171
   3   2.0000     -10.083327      -274.3813
   4   2.0000     -10.081333      -274.3270
   5   2.0000     -10.074161      -274.1318
   6   2.0000     -10.064138      -273.8591
   7   2.0000     -10.060592      -273.7626
   8   2.0000     -10.043817      -273.3062
   9   2.0000      -1.011889       -27.5349
  10   2.0000      -0.930154       -25.3108
  11   2.0000      -0.800042       -21.7702
  12   2.0000      -0.756621       -20.5887
  13   2.0000      -0.720952       -19.6181
  14   2.0000      -0.632150       -17.2017
  15   2.0000      -0.615095       -16.7376
  16   2.0000      -0.541463       -14.7340
  17   2.0000      -0.501175       -13.6377
  18   2.0000      -0.474847       -12.9212
  19   2.0000      -0.448326       -12.1996
  20   2.0000      -0.427389       -11.6298
  21   2.0000      -0.423107       -11.5133
  22   2.0000      -0.403941       -10.9918
  23   2.0000      -0.393202       -10.6996
  24   2.0000      -0.386853       -10.5268
  25   2.0000      -0.376383       -10.2419
  26   2.0000      -0.351692        -9.5700
  27   2.0000      -0.337529        -9.1846
  28   2.0000      -0.287610        -7.8263
  29   2.0000      -0.262342        -7.1387
  30   2.0000      -0.242075        -6.5872
  31   2.0000      -0.221577        -6.0294
  32   0.0000      -0.095492        -2.5985
  33   0.0000      -0.065798        -1.7905
  34   0.0000      -0.016993        -0.4624
  35   0.0000       0.063219         1.7203
  36   0.0000       0.092863         2.5269

MULLIKEN ATOMIC CHARGES
-----------------------
   0 C :   -0.517865
   1 C :    0.220978
   2 O :   -0.339062
   3 C :    0.219755
   4 C :   -0.197055
   5 C :   -0.108961
   6 C :   -0.069399
   7 N :   -0.174484
   8 C :   -0.145676
   9 H :    0.181489
  10 H :    0.149217
  11 H :    0.183751
  12 H :    0.148152
  13 H :    0.151700
  14 H :    0.137373
  15 H :    0.160087
Sum of atomic charges:    0.0000000

LOEWDIN ATOMIC CHARGES
----------------------
   0 C :   -0.378404
   1 C :    0.237584
   2 O :   -0.454539
   3 C :   -0.055119
   4 C :   -0.103446
   5 C :   -0.141576
   6 C :    0.096054
   7 N :   -0.599918
   8 C :    0.134048
   9 H :    0.181628
  10 H :    0.160389
  11 H :    0.187288
  12 H :    0.173548
  13 H :    0.172373
  14 H :    0.187376
  15 H :    0.202714

  Mayer bond orders larger than 0.100000
B(  0-C ,  1-C ) :   0.9121 B(  0-C ,  9-H ) :   0.9643 B(  0-C , 10-H ) :   0.9701
B(  0-C , 11-H ) :   0.9423 B(  1-C ,  2-O ) :   1.9374 B(  1-C ,  3-C ) :   0.8905
B(  2-O ,  3-C ) :  -0.1194 B(  3-C ,  4-C ) :   1.3438 B(  3-C ,  8-C ) :   1.2653
B(  4-C ,  5-C ) :   1.4263 B(  4-C , 12-H ) :   0.9329 B(  5-C ,  6-C ) :   1.3575
B(  5-C , 13-H ) :   0.9403 B(  6-C ,  7-N ) :   1.4442 B(  6-C , 14-H ) :   0.9826
B(  7-N ,  8-C ) :   1.4894 B(  8-C , 15-H ) :   0.9895

Dispersion correction           -0.005267473
FINAL SINGLE POINT ENERGY      -400.828497849122

DIPOLE MOMENT
-------------

Method             : SCF
Type of density    : Electron Density
Multiplicity       :   1
Irrep              :   0
Energy             :  -400.8305902537130123 Eh
Relativity type    :
Basis              : AO
                                X                 Y                 Z
Electronic contribution:     -2.206897442      -2.604224934       3.369104560
Nuclear contribution   :      1.945992393       3.722464421      -4.522187828
                        -----------------------------------------
Total Dipole Moment    :     -0.260905050       1.118239488      -1.153083267
                        -----------------------------------------
Magnitude (a.u.)       :      1.627308212
Magnitude (Debye)      :      4.136288759

Rotational constants in cm-1:             0.126484             0.040646             0.032208
Rotational constants in MHz :          3791.903300          1218.539612           965.585410

                             ****ORCA TERMINATED NORMALLY****
TOTAL RUN TIME: 0 days 0 hours 0 minutes 27 seconds 570 msec
