                         Program Version 6.0.0  -   RELEASE  -
|  1> ! r2scan-3c def2/J RI DEFGRID2 scfconv6 printgap
|  2> %output
|  3>     printlevel normal
|  4> end
|  5> %cpcm
|  6>     smd true
|  7>     smdsolvent "water"
|  8> end
|  9> * xyz 0 1
| 10> C 2.4762604496 0.582635026 -1.0485913398
| 11> C 1.6952200338 -0.0211438632 0.0804768509
| 12> O 2.2416140453 -0.5892848749 1.012169215
| 13> C 0.2150255108 0.042588297 0.0043238027
| 14> C -0.4921873496 1.1244282107 -0.5176646632
| 15> C -1.8756282716 1.073704171 -0.5262908248
| 16> C -2.5022174765 -0.0514728664 -0.0104976245
| 17> N -1.8427239961 -1.0857419439 0.4922372827
| 18> C -0.5255612297 -1.0338768502 0.5019993677
| 19> H 3.3065997105 1.1592794237 -0.6478527087
| 20> H 1.864448487 1.1906013729 -1.7033468242
| 21> H 2.9047630327 -0.2364604495 -1.6248795385
| 22> H 0.0221255201 2.0023269885 -0.8774527612
| 23> H -2.4575494501 1.8927331387 -0.9158797812
| 24> H -3.5795990615 -0.1348183577 0.0122510959
| 25> H -0.0111729258 -1.8901988628 0.9180712899
| 26> *
| 27>
| 28>                          ****END OF INPUT****

CARTESIAN COORDINATES (ANGSTROEM)
---------------------------------
  C      2.476260    0.582635   -1.048591
  C      1.695220   -0.021144    0.080477
  O      2.241614   -0.589285    1.012169
  C      0.215026    0.042588    0.004324
  C     -0.492187    1.124428   -0.517665
  C     -1.875628    1.073704   -0.526291
  C     -2.502217   -0.051473   -0.010498
  N     -1.842724   -1.085742    0.492237
  C     -0.525561   -1.033877    0.501999
  H      3.306600    1.159279   -0.647853
  H      1.864448    1.190601   -1.703347
  H      2.904763   -0.236460   -1.624880
  H      0.022126    2.002327   -0.877453
  H     -2.457549    1.892733   -0.915880
  H     -3.579599   -0.134818    0.012251
  H     -0.011173   -1.890199    0.918071

 Total Charge           Charge          ....    0
 Multiplicity           Mult            ....    1
 Number of Electrons    NEL             ....   64
 Basis Dimension        Dim             ....  216

ORBITAL ENERGIES
----------------

  NO   OCC          E(Eh)            E(eV)
   0   2.0000     -18.952067      -515.7120
   1   2.0000     -14.167369      -385.5137
   2   2.0000     -10.135607      -275.8039
   3   2.0000     -10.077642      -274.2266
   4   2.0000     -10.075376      -274.1649
   5   2.0000     -10.062367      -273.8109
   6   2.0000     -10.058092      -273.6946
   7   2.0000     -10.048124      -273.4234
   8   2.0000     -10.027003      -272.8486
   9   2.0000      -1.020410       -27.7668
  10   2.0000      -0.927493       -25.2384
  11   2.0000      -0.792179       -21.5563
  12   2.0000      -0.748951       -20.3800
  13   2.0000      -0.709310       -19.3013
  14   2.0000      -0.625249       -17.0139
  15   2.0000      -0.605741       -16.4830
  16   2.0000      -0.534233       -14.5372
  17   2.0000      -0.492673       -13.4063
  18   2.0000      -0.467944       -12.7334
  19   2.0000      -0.444364       -12.0917
  20   2.0000      -0.421798       -11.4777
  21   2.0000      -0.412273       -11.2185
  22   2.0000      -0.402157       -10.9432
  23   2.0000      -0.386143       -10.5075
  24   2.0000      -0.378935       -10.3114
  25   2.0000      -0.362459        -9.8630
  26   2.0000      -0.344131        -9.3643
  27   2.0000      -0.336220        -9.1490
  28   2.0000      -0.281792        -7.6680
  29   2.0000      -0.258467        -7.0332
  30   2.0000      -0.246331        -6.7030
  31   2.0000      -0.227304        -6.1853
  32   0.0000      -0.092608        -2.5200
  33   0.0000      -0.059856        -1.6288
  34   0.0000      -0.012789        -0.3480
  35   0.0000       0.079421         2.1612
  36   0.0000       0.101202         2.7539

MULLIKEN ATOMIC CHARGES
-----------------------
   0 C :   -0.553274
   1 C :    0.277731
   2 O :   -0.440008
   3 C :    0.189213
   4 C :   -0.170639
   5 C :   -0.139933
   6 C :   -0.077677
   7 N :   -0.226379
   8 C :   -0.170814
   9 H :    0.195701
  10 H :    0.180841
  11 H :    0.208673
  12 H :    0.193252
  13 H :    0.191010
  14 H :    0.167751
  15 H :    0.174552
Sum of atomic charges:    0.0000000

LOEWDIN ATOMIC CHARGES
----------------------
   0 C :   -0.373826
   1 C :    0.256023
   2 O :   -0.527940
   3 C :   -0.058714
   4 C :   -0.081568
   5 C :   -0.132750
   6 C :    0.097055
   7 N :   -0.642768
   8 C :    0.121972
   9 H :    0.187948
  10 H :    0.174611
  11 H :    0.197224
  12 H :    0.191918
  13 H :    0.187357
  14 H :    0.198123
  15 H :    0.205335

  Mayer bond orders larger than 0.100000
B(  0-C ,  1-C ) :   0.9240 B(  0-C ,  9-H ) :   0.9533 B(  0-C , 10-H ) :   0.9574
B(  0-C , 11-H ) :   0.9328 B(  1-C ,  2-O ) :   1.8692 B(  1-C ,  3-C ) :   0.9065
B(  2-O ,  3-C ) :  -0.1133 B(  3-C ,  4-C ) :   1.3434 B(  3-C ,  8-C ) :   1.2507
B(  4-C ,  5-C ) :   1.4117 B(  4-C , 12-H ) :   0.9266 B(  5-C ,  6-C ) :   1.3581
B(  5-C , 13-H ) :   0.9403 B(  6-C ,  7-N ) :   1.4312 B(  6-C , 14-H ) :   0.9682
B(  7-N ,  8-C ) :   1.5081 B(  8-C , 15-H ) :   0.9820

Dispersion correction           -0.005267473
FINAL SINGLE POINT ENERGY      -400.842104415266

DIPOLE MOMENT
-------------

Method             : SCF
Type of density    : Electron Density
Multiplicity       :   1
Irrep              :   0
Energy             :  -400.8441968198563359 Eh
Relativity type    :
Basis              : AO
                                X                 Y                 Z
Electronic contribution:     -2.359127466      -2.020042644       2.794998356
Nuclear contribution   :      1.945992393       3.722464421      -4.522187828
                        -----------------------------------------
Total Dipole Moment    :     -0.413135073       1.702421777      -1.727189472
                        -----------------------------------------
Magnitude (a.u.)       :      2.460102431
Magnitude (Debye)      :      6.253083438

Rotational constants in cm-1:             0.126484             0.040646             0.032208
Rotational constants in MHz :          3791.903300          1218.539612           965.585410

                             ****ORCA TERMINATED NORMALLY****
TOTAL RUN TIME: 0 days 0 hours 0 minutes 32 seconds 135 msec
