                         Program Version 6.0.0  -   RELEASE  -
|  1> ! wb97x-v def2-tzvp def2/J RIJCOSX DEFGRID2 scfconv7 GCP(DFT/TZ) printgap
|  2> %output
|  3>     printlevel normal
|  4> end
|  5> * xyz 0 1
|  6> C 2.1475551491667284 1.0172021025843023 -0.5811240943785889
|  7> C 1.1860687938774959 -0.10267235186419076 -0.24907961590160285
|  8> C 1.6858437567780638 -1.012775387555894 0.8549169410883998
|  9> O -0.05430655184593849 0.5600229325183381 0.20304767037285842
| 10> C -1.2086177124033997 -0.11631711591807345 0.07346172121615621
| 11> O -1.2870051817553154 -1.241609192262009 -0.3965175679026415
| 12> C -2.382857967932232 0.6876144645155344 0.5348892413052461
| 13> H 1.7411533394540708 1.664903551777843 -1.3628473290676923
| 14> H 2.3613834390332684 1.6206185675082336 0.3066371637687196
| 15> H 3.087121277396675 0.5890921417502217 -0.9418627005064973
| 16> H 0.9399548463562 -0.6782836146465842 -1.145955780356939
| 17> H 1.9092928707817447 -0.4314205290509034 1.7550555904253302
| 18> H 2.6043831354579914 -1.5084529908087807 0.526631385931569
| 19> H 0.9495908250370093 -1.7822925199958042 1.1007792586143044
| 20> H -2.7966614057352355 1.2097869753550323 -0.33548622611977436
| 21> H -2.0974653037009325 1.432120888950125 1.2788640660335528
| 22> H -3.1513148325871767 0.02137405532908339 0.9291166660224186
| 23> *
| 24>
| 25>                          ****END OF INPUT****

CARTESIAN COORDINATES (ANGSTROEM)
---------------------------------
  C      2.147555    1.017202   -0.581124
  C      1.186069   -0.102672   -0.249080
  C      1.685844   -1.012775    0.854917
  O     -0.054307    0.560023    0.203048
  C     -1.208618   -0.116317    0.073462
  O     -1.287005   -1.241609   -0.396518
  C     -2.382858    0.687614    0.534889
  H      1.741153    1.664904   -1.362847
  H      2.361383    1.620619    0.306637
  H      3.087121    0.589092   -0.941863
  H      0.939955   -0.678284   -1.145956
  H      1.909293   -0.431421    1.755056
  H      2.604383   -1.508453    0.526631
  H      0.949591   -1.782293    1.100779
  H     -2.796661    1.209787   -0.335486
  H     -2.097465    1.432121    1.278864
  H     -3.151315    0.021374    0.929117

 Total Charge           Charge          ....    0
 Multiplicity           Mult            ....    1
 Number of Electrons    NEL             ....   56
 Basis Dimension        Dim             ....  277

ORBITAL ENERGIES
----------------

  NO   OCC          E(Eh)            E(eV)
   0   2.0000     -21.712094      -590.8161
   1   2.0000     -21.650098      -589.1291
   2   2.0000     -12.176024      -331.3264
   3   2.0000     -12.112033      -329.5852
   4   2.0000     -12.055138      -328.0370
   5   2.0000     -12.045189      -327.7663
   6   2.0000     -12.041414      -327.6635
   7   2.0000      -1.750356       -47.6296
   8   2.0000      -1.685110       -45.8542
   9   2.0000      -1.334777       -36.3211
  10   2.0000      -1.260009       -34.2866
  11   2.0000      -1.196160       -32.5492
  12   2.0000      -1.165026       -31.7020
  13   2.0000      -1.089627       -29.6503
  14   2.0000      -1.047071       -28.4923
  15   2.0000      -0.990884       -26.9633
  16   2.0000      -0.980514       -26.6811
  17   2.0000      -0.931995       -25.3609
  18   2.0000      -0.902949       -24.5705
  19   2.0000      -0.883231       -24.0339
  20   2.0000      -0.858640       -23.3648
  21   2.0000      -0.847826       -23.0705
  22   2.0000      -0.837482       -22.7890
  23   2.0000      -0.833872       -22.6908
  24   2.0000      -0.825124       -22.4528
  25   2.0000      -0.820080       -22.3155
  26   2.0000      -0.798281       -21.7223
  27   2.0000      -0.781015       -21.2525
  28   0.0000      -0.299890        -8.1604
  29   0.0000      -0.191690        -5.2162
  30   0.0000      -0.101696        -2.7673
  31   0.0000      -0.022041        -0.5998
  32   0.0000      -0.009127        -0.2484

MULLIKEN ATOMIC CHARGES
-----------------------
   0 C :   -0.312491
   1 C :    0.095277
   2 C :   -0.360660
   3 O :   -0.251248
   4 C :    0.328074
   5 O :   -0.372913
   6 C :   -0.337589
   7 H :    0.119479
   8 H :    0.113023
   9 H :    0.111308
  10 H :    0.101489
  11 H :    0.109184
  12 H :    0.112752
  13 H :    0.143792
  14 H :    0.132044
  15 H :    0.130189
  16 H :    0.138291
Sum of atomic charges:   -0.0000000

LOEWDIN ATOMIC CHARGES
----------------------
   0 C :   -0.279041
   1 C :   -0.314779
   2 C :   -0.278855
   3 O :    0.256812
   4 C :   -0.493021
   5 O :    0.069585
   6 C :   -0.255651
   7 H :    0.122452
   8 H :    0.122832
   9 H :    0.125805
  10 H :    0.144234
  11 H :    0.121957
  12 H :    0.125752
  13 H :    0.127394
  14 H :    0.140583
  15 H :    0.129121
  16 H :    0.134820

  Mayer bond orders larger than 0.100000
B(  0-C ,  1-C ) :   0.9796 B(  0-C ,  7-H ) :   0.9787 B(  0-C ,  8-H ) :   0.9718
B(  0-C ,  9-H ) :   0.9753 B(  1-C ,  2-C ) :   0.9896 B(  1-C ,  3-O ) :   0.8630
B(  1-C , 10-H ) :   0.9733 B(  2-C , 11-H ) :   0.9707 B(  2-C , 12-H ) :   0.9733
B(  2-C , 13-H ) :   0.9754 B(  3-O ,  4-C ) :   1.2046 B(  4-C ,  5-O ) :   2.0139
B(  4-C ,  6-C ) :   0.9733 B(  6-C , 14-H ) :   0.9474 B(  6-C , 15-H ) :   0.9724
B(  6-C , 16-H ) :   0.9784

FINAL SINGLE POINT ENERGY      -347.045140952319

DIPOLE MOMENT
-------------

Method             : SCF
Type of density    : Electron Density
Multiplicity       :   1
Irrep              :   0
Energy             :  -347.0568943580194059 Eh
Relativity type    :
Basis              : AO
                                X                 Y                 Z
Electronic contribution:     -4.660992190      -1.606183153      -1.145136862
Nuclear contribution   :      5.066340661       2.277961794       1.366050803
                        -----------------------------------------
Total Dipole Moment    :      0.405348472       0.671778641       0.220913941
                        -----------------------------------------
Magnitude (a.u.)       :      0.815105450
Magnitude (Debye)      :      2.071833403

Rotational constants in cm-1:             0.159096             0.055772             0.048289
Rotational constants in MHz :          4769.566612          1672.010279          1447.652984

                             ****ORCA TERMINATED NORMALLY****
TOTAL RUN TIME: 0 days 0 hours 1 minutes 55 seconds 631 msec
