                         Program Version 6.0.0  -   RELEASE  -
|  1> ! wb97x-v def2-tzvp def2/J RIJCOSX DEFGRID2 scfconv7 GCP(DFT/TZ) printgap
|  2> %output
|  3>     printlevel normal
|  4> end
|  5> %cpcm
|  6>     smd true
|  7>     smdsolvent "water"
|  8> end
|  9> * xyz 0 1
| 10> C 2.1475551491667284 1.0172021025843023 -0.5811240943785889
| 11> C 1.1860687938774959 -0.10267235186419076 -0.24907961590160285
| 12> C 1.6858437567780638 -1.012775387555894 0.8549169410883998
| 13> O -0.05430655184593849 0.5600229325183381 0.20304767037285842
| 14> C -1.2086177124033997 -0.11631711591807345 0.07346172121615621
| 15> O -1.2870051817553154 -1.241609192262009 -0.3965175679026415
| 16> C -2.382857967932232 0.6876144645155344 0.5348892413052461
| 17> H 1.7411533394540708 1.664903551777843 -1.3628473290676923
| 18> H 2.3613834390332684 1.6206185675082336 0.3066371637687196
| 19> H 3.087121277396675 0.5890921417502217 -0.9418627005064973
| 20> H 0.9399548463562 -0.6782836146465842 -1.145955780356939
| 21> H 1.9092928707817447 -0.4314205290509034 1.7550555904253302
| 22> H 2.6043831354579914 -1.5084529908087807 0.526631385931569
| 23> H 0.9495908250370093 -1.7822925199958042 1.1007792586143044
| 24> H -2.7966614057352355 1.2097869753550323 -0.33548622611977436
| 25> H -2.0974653037009325 1.432120888950125 1.2788640660335528
| 26> H -3.1513148325871767 0.02137405532908339 0.9291166660224186
| 27> *
| 28>
| 29>                          ****END OF INPUT****

CARTESIAN COORDINATES (ANGSTROEM)
---------------------------------
  C      2.147555    1.017202   -0.581124
  C      1.186069   -0.102672   -0.249080
  C      1.685844   -1.012775    0.854917
  O     -0.054307    0.560023    0.203048
  C     -1.208618   -0.116317    0.073462
  O     -1.287005   -1.241609   -0.396518
  C     -2.382858    0.687614    0.534889
  H      1.741153    1.664904   -1.362847
  H      2.361383    1.620619    0.306637
  H      3.087121    0.589092   -0.941863
  H      0.939955   -0.678284   -1.145956
  H      1.909293   -0.431421    1.755056
  H      2.604383   -1.508453    0.526631
  H      0.949591   -1.782293    1.100779
  H     -2.796661    1.209787   -0.335486
  H     -2.097465    1.432121    1.278864
  H     -3.151315    0.021374    0.929117

 Total Charge           Charge          ....    0
 Multiplicity           Mult            ....    1
 Number of Electrons    NEL             ....   56
 Basis Dimension        Dim             ....  277

ORBITAL ENERGIES
----------------

  NO   OCC          E(Eh)            E(eV)
   0   2.0000     -21.717753      -590.9701
   1   2.0000     -21.664923      -589.5325
   2   2.0000     -12.186719      -331.6175
   3   2.0000     -12.105596      -329.4100
   4   2.0000     -12.045885      -327.7852
   5   2.0000     -12.032149      -327.4114
   6   2.0000     -12.031454      -327.3925
   7   2.0000      -1.759006       -47.8650
   8   2.0000      -1.698242       -46.2115
   9   2.0000      -1.330748       -36.2115
  10   2.0000      -1.255056       -34.1518
  11   2.0000      -1.186917       -32.2976
  12   2.0000      -1.162346       -31.6290
  13   2.0000      -1.101811       -29.9818
  14   2.0000      -1.053647       -28.6712
  15   2.0000      -0.993269       -27.0282
  16   2.0000      -0.980911       -26.6920
  17   2.0000      -0.937260       -25.5041
  18   2.0000      -0.914197       -24.8766
  19   2.0000      -0.878708       -23.9108
  20   2.0000      -0.861352       -23.4386
  21   2.0000      -0.841232       -22.8911
  22   2.0000      -0.832039       -22.6409
  23   2.0000      -0.826464       -22.4892
  24   2.0000      -0.815916       -22.2022
  25   2.0000      -0.808484       -22.0000
  26   2.0000      -0.788303       -21.4508
  27   2.0000      -0.771847       -21.0030
  28   0.0000      -0.305000        -8.2995
  29   0.0000      -0.187271        -5.0959
  30   0.0000      -0.105803        -2.8790
  31   0.0000      -0.013983        -0.3805
  32   0.0000      -0.003762        -0.1024

MULLIKEN ATOMIC CHARGES
-----------------------
   0 C :   -0.374120
   1 C :    0.113175
   2 C :   -0.395708
   3 O :   -0.279008
   4 C :    0.415284
   5 O :   -0.492151
   6 C :   -0.382776
   7 H :    0.136489
   8 H :    0.130758
   9 H :    0.136677
  10 H :    0.108833
  11 H :    0.129551
  12 H :    0.140555
  13 H :    0.138435
  14 H :    0.166821
  15 H :    0.152780
  16 H :    0.154404
Sum of atomic charges:   -0.0000000

LOEWDIN ATOMIC CHARGES
----------------------
   0 C :   -0.281502
   1 C :   -0.312198
   2 C :   -0.281939
   3 O :    0.252636
   4 C :   -0.474617
   5 O :    0.006360
   6 C :   -0.251162
   7 H :    0.125266
   8 H :    0.126130
   9 H :    0.133177
  10 H :    0.145622
  11 H :    0.126777
  12 H :    0.133090
  13 H :    0.124296
  14 H :    0.151266
  15 H :    0.136925
  16 H :    0.139873

  Mayer bond orders larger than 0.100000
B(  0-C ,  1-C ) :   0.9830 B(  0-C ,  7-H ) :   0.9750 B(  0-C ,  8-H ) :   0.9693
B(  0-C ,  9-H ) :   0.9708 B(  1-C ,  2-C ) :   0.9844 B(  1-C ,  3-O ) :   0.8359
B(  1-C , 10-H ) :   0.9738 B(  2-C , 11-H ) :   0.9671 B(  2-C , 12-H ) :   0.9701
B(  2-C , 13-H ) :   0.9728 B(  3-O ,  4-C ) :   1.2218 B(  4-C ,  5-O ) :   1.8891
B(  4-C ,  6-C ) :   0.9837 B(  6-C , 14-H ) :   0.9362 B(  6-C , 15-H ) :   0.9680
B(  6-C , 16-H ) :   0.9681

FINAL SINGLE POINT ENERGY      -347.051093576909

DIPOLE MOMENT
-------------

Method             : SCF
Type of density    : Electron Density
Multiplicity       :   1
Irrep              :   0
Energy             :  -347.0628469826087894 Eh
Relativity type    :
Basis              : AO
                                X                 Y                 Z
Electronic contribution:     -4.509768587      -1.326323875      -1.068983314
Nuclear contribution   :      5.066340661       2.277961794       1.366050803
                        -----------------------------------------
Total Dipole Moment    :      0.556572075       0.951637918       0.297067489
                        -----------------------------------------
Magnitude (a.u.)       :      1.141768932
Magnitude (Debye)      :      2.902145988

Rotational constants in cm-1:             0.159096             0.055772             0.048289
Rotational constants in MHz :          4769.566612          1672.010279          1447.652984

                             ****ORCA TERMINATED NORMALLY****
TOTAL RUN TIME: 0 days 0 hours 1 minutes 58 seconds 633 msec
