                         Program Version 6.0.0  -   RELEASE  -
|  1> ! wb97x-v def2-tzvp def2/J RIJCOSX DEFGRID2 scfconv7 GCP(DFT/TZ) printgap
|  2> %output
|  3>     printlevel normal
|  4> end
|  5> * xyz 0 1
|  6> C -2.994807844400576 0.6462463410345138 -0.7547360170785439
|  7> C -2.2718427399973407 0.36311920121489233 0.5674275396982331
|  8> C -0.8504749987337866 -0.08037087389589534 0.33841921261489794
|  9> C -0.547987104593919 -1.4331779821208646 0.14455607042597146
| 10> C 0.7596476862829961 -1.8274449092412395 -0.124299448377522
| 11> C 1.7849211991160374 -0.889090435402934 -0.2044021224874525
| 12> C 1.4817480853709921 0.4581263715818433 -0.010500932356344694
| 13> C 0.17537135221638533 0.8626806395271381 0.2588770795238219
| 14> O 2.4473001744687357 1.4412435442134548 -0.07218325246286282
| 15> H -2.4842736782995525 1.4369888616738555 -1.3143719098785935
| 16> H -4.025773627185753 0.9666051033052956 -0.5739228724678567
| 17> H -3.0208983814897556 -0.2502348699421115 -1.3830693588615504
| 18> H -2.8119225951621285 -0.4159978197643505 1.116294914926923
| 19> H -2.279401036701991 1.2669155600105546 1.186232396927544
| 20> H -1.3393060751092796 -2.1746463545780346 0.20633963469059935
| 21> H 0.9902067838203356 -2.8784935250755845 -0.2701161621083072
| 22> H 2.8075917218997146 -1.1921509444251397 -0.4108215749106577
| 23> H -0.03465236321377796 1.9185121879646136 0.40677623362280413
| 24> H 3.3023200495378586 1.0315135067401178 -0.265732958707273
| 25> *
| 26>
| 27>                          ****END OF INPUT****

CARTESIAN COORDINATES (ANGSTROEM)
---------------------------------
  C     -2.994808    0.646246   -0.754736
  C     -2.271843    0.363119    0.567428
  C     -0.850475   -0.080371    0.338419
  C     -0.547987   -1.433178    0.144556
  C      0.759648   -1.827445   -0.124299
  C      1.784921   -0.889090   -0.204402
  C      1.481748    0.458126   -0.010501
  C      0.175371    0.862681    0.258877
  O      2.447300    1.441244   -0.072183
  H     -2.484274    1.436989   -1.314372
  H     -4.025774    0.966605   -0.573923
  H     -3.020898   -0.250235   -1.383069
  H     -2.811923   -0.415998    1.116295
  H     -2.279401    1.266916    1.186232
  H     -1.339306   -2.174646    0.206340
  H      0.990207   -2.878494   -0.270116
  H      2.807592   -1.192151   -0.410822
  H     -0.034652    1.918512    0.406776
  H      3.302320    1.031514   -0.265733

 Total Charge           Charge          ....    0
 Multiplicity           Mult            ....    1
 Number of Electrons    NEL             ....   66
 Basis Dimension        Dim             ....  339

ORBITAL ENERGIES
----------------

  NO   OCC          E(Eh)            E(eV)
   0   2.0000     -21.701680      -590.5327
   1   2.0000     -12.112811      -329.6063
   2   2.0000     -12.059473      -328.1549
   3   2.0000     -12.055153      -328.0374
   4   2.0000     -12.048557      -327.8579
   5   2.0000     -12.048197      -327.8481
   6   2.0000     -12.042270      -327.6868
   7   2.0000     -12.040780      -327.6463
   8   2.0000     -12.037105      -327.5463
   9   2.0000      -1.713748       -46.6334
  10   2.0000      -1.385888       -37.7119
  11   2.0000      -1.306447       -35.5502
  12   2.0000      -1.277667       -34.7671
  13   2.0000      -1.239994       -33.7419
  14   2.0000      -1.154603       -31.4184
  15   2.0000      -1.128106       -30.6973
  16   2.0000      -1.096998       -29.8508
  17   2.0000      -1.036678       -28.2094
  18   2.0000      -1.003171       -27.2977
  19   2.0000      -0.949383       -25.8340
  20   2.0000      -0.945316       -25.7234
  21   2.0000      -0.941148       -25.6099
  22   2.0000      -0.898536       -24.4504
  23   2.0000      -0.878220       -23.8976
  24   2.0000      -0.860521       -23.4160
  25   2.0000      -0.843141       -22.9430
  26   2.0000      -0.828011       -22.5313
  27   2.0000      -0.815801       -22.1991
  28   2.0000      -0.785825       -21.3834
  29   2.0000      -0.769575       -20.9412
  30   2.0000      -0.760852       -20.7038
  31   2.0000      -0.638504       -17.3746
  32   2.0000      -0.633680       -17.2433
  33   0.0000      -0.245355        -6.6765
  34   0.0000      -0.239927        -6.5288
  35   0.0000      -0.145506        -3.9594
  36   0.0000      -0.075989        -2.0678
  37   0.0000      -0.066614        -1.8127

MULLIKEN ATOMIC CHARGES
-----------------------
   0 C :   -0.339556
   1 C :   -0.205469
   2 C :    0.257087
   3 C :   -0.259126
   4 C :   -0.101620
   5 C :   -0.230924
   6 C :    0.274253
   7 C :   -0.314531
   8 O :   -0.392485
   9 H :    0.114070
  10 H :    0.110548
  11 H :    0.112168
  12 H :    0.103389
  13 H :    0.104346
  14 H :    0.112605
  15 H :    0.117554
  16 H :    0.107035
  17 H :    0.118868
  18 H :    0.311788
Sum of atomic charges:    0.0000000

LOEWDIN ATOMIC CHARGES
----------------------
   0 C :   -0.293628
   1 C :   -0.238990
   2 C :   -0.139361
   3 C :   -0.133758
   4 C :   -0.135753
   5 C :   -0.154131
   6 C :   -0.256980
   7 C :   -0.096117
   8 O :    0.060962
   9 H :    0.118947
  10 H :    0.115066
  11 H :    0.118404
  12 H :    0.138572
  13 H :    0.138720
  14 H :    0.142743
  15 H :    0.142563
  16 H :    0.138357
  17 H :    0.150119
  18 H :    0.184266

  Mayer bond orders larger than 0.100000
B(  0-C ,  1-C ) :   0.9760 B(  0-C ,  9-H ) :   0.9791 B(  0-C , 10-H ) :   0.9783
B(  0-C , 11-H ) :   0.9794 B(  1-C ,  2-C ) :   0.8950 B(  1-C , 12-H ) :   0.9878
B(  1-C , 13-H ) :   0.9892 B(  2-C ,  3-C ) :   1.3720 B(  2-C ,  7-C ) :   1.3984
B(  3-C ,  4-C ) :   1.4584 B(  3-C , 14-H ) :   0.9752 B(  4-C ,  5-C ) :   1.4171
B(  4-C , 15-H ) :   0.9651 B(  5-C ,  6-C ) :   1.3675 B(  5-C , 16-H ) :   0.9595
B(  6-C ,  7-C ) :   1.4194 B(  6-C ,  8-O ) :   1.1451 B(  7-C , 17-H ) :   0.9745
B(  8-O , 18-H ) :   0.8911

FINAL SINGLE POINT ENERGY      -386.119245518593

DIPOLE MOMENT
-------------

Method             : SCF
Type of density    : Electron Density
Multiplicity       :   1
Irrep              :   0
Energy             :  -386.1302128386931827 Eh
Relativity type    :
Basis              : AO
                                X                 Y                 Z
Electronic contribution:      8.521117543      -0.112866006       1.132588549
Nuclear contribution   :     -8.355989807      -0.247476125      -1.232077847
                        -----------------------------------------
Total Dipole Moment    :      0.165127736      -0.360342131      -0.099489298
                        -----------------------------------------
Magnitude (a.u.)       :      0.408670700
Magnitude (Debye)      :      1.038758368

Rotational constants in cm-1:             0.098600             0.038524             0.029767
Rotational constants in MHz :          2955.955489          1154.932784           892.377922

                             ****ORCA TERMINATED NORMALLY****
TOTAL RUN TIME: 0 days 0 hours 3 minutes 31 seconds 83 msec
