                         Program Version 6.0.0  -   RELEASE  -
|  1> ! wb97x-v def2-tzvp def2/J RIJCOSX DEFGRID2 scfconv7 GCP(DFT/TZ) printgap
|  2> %output
|  3>     printlevel normal
|  4> end
|  5> %cpcm
|  6>     smd true
|  7>     smdsolvent "water"
|  8> end
|  9> * xyz 0 1
| 10> C -2.994807844400576 0.6462463410345138 -0.7547360170785439
| 11> C -2.2718427399973407 0.36311920121489233 0.5674275396982331
| 12> C -0.8504749987337866 -0.08037087389589534 0.33841921261489794
| 13> C -0.547987104593919 -1.4331779821208646 0.14455607042597146
| 14> C 0.7596476862829961 -1.8274449092412395 -0.124299448377522
| 15> C 1.7849211991160374 -0.889090435402934 -0.2044021224874525
| 16> C 1.4817480853709921 0.4581263715818433 -0.010500932356344694
| 17> C 0.17537135221638533 0.8626806395271381 0.2588770795238219
| 18> O 2.4473001744687357 1.4412435442134548 -0.07218325246286282
| 19> H -2.4842736782995525 1.4369888616738555 -1.3143719098785935
| 20> H -4.025773627185753 0.9666051033052956 -0.5739228724678567
| 21> H -3.0208983814897556 -0.2502348699421115 -1.3830693588615504
| 22> H -2.8119225951621285 -0.4159978197643505 1.116294914926923
| 23> H -2.279401036701991 1.2669155600105546 1.186232396927544
| 24> H -1.3393060751092796 -2.1746463545780346 0.20633963469059935
| 25> H 0.9902067838203356 -2.8784935250755845 -0.2701161621083072
| 26> H 2.8075917218997146 -1.1921509444251397 -0.4108215749106577
| 27> H -0.03465236321377796 1.9185121879646136 0.40677623362280413
| 28> H 3.3023200495378586 1.0315135067401178 -0.265732958707273
| 29> *
| 30>
| 31>                          ****END OF INPUT****

CARTESIAN COORDINATES (ANGSTROEM)
---------------------------------
  C     -2.994808    0.646246   -0.754736
  C     -2.271843    0.363119    0.567428
  C     -0.850475   -0.080371    0.338419
  C     -0.547987   -1.433178    0.144556
  C      0.759648   -1.827445   -0.124299
  C      1.784921   -0.889090   -0.204402
  C      1.481748    0.458126   -0.010501
  C      0.175371    0.862681    0.258877
  O      2.447300    1.441244   -0.072183
  H     -2.484274    1.436989   -1.314372
  H     -4.025774    0.966605   -0.573923
  H     -3.020898   -0.250235   -1.383069
  H     -2.811923   -0.415998    1.116295
  H     -2.279401    1.266916    1.186232
  H     -1.339306   -2.174646    0.206340
  H      0.990207   -2.878494   -0.270116
  H      2.807592   -1.192151   -0.410822
  H     -0.034652    1.918512    0.406776
  H      3.302320    1.031514   -0.265733

 Total Charge           Charge          ....    0
 Multiplicity           Mult            ....    1
 Number of Electrons    NEL             ....   66
 Basis Dimension        Dim             ....  339

ORBITAL ENERGIES
----------------

  NO   OCC          E(Eh)            E(eV)
   0   2.0000     -21.700259      -590.4941
   1   2.0000     -12.112416      -329.5956
   2   2.0000     -12.058414      -328.1261
   3   2.0000     -12.051893      -327.9487
   4   2.0000     -12.044329      -327.7429
   5   2.0000     -12.041569      -327.6677
   6   2.0000     -12.040086      -327.6274
   7   2.0000     -12.038520      -327.5848
   8   2.0000     -12.029507      -327.3395
   9   2.0000      -1.712787       -46.6073
  10   2.0000      -1.385524       -37.7020
  11   2.0000      -1.302812       -35.4513
  12   2.0000      -1.277259       -34.7560
  13   2.0000      -1.235128       -33.6095
  14   2.0000      -1.152511       -31.3614
  15   2.0000      -1.124854       -30.6088
  16   2.0000      -1.093401       -29.7530
  17   2.0000      -1.033915       -28.1343
  18   2.0000      -1.004363       -27.3301
  19   2.0000      -0.946933       -25.7673
  20   2.0000      -0.946216       -25.7478
  21   2.0000      -0.939178       -25.5563
  22   2.0000      -0.893355       -24.3094
  23   2.0000      -0.874193       -23.7880
  24   2.0000      -0.853058       -23.2129
  25   2.0000      -0.837012       -22.7763
  26   2.0000      -0.823252       -22.4018
  27   2.0000      -0.811554       -22.0835
  28   2.0000      -0.779495       -21.2111
  29   2.0000      -0.761625       -20.7249
  30   2.0000      -0.760971       -20.7071
  31   2.0000      -0.638993       -17.3879
  32   2.0000      -0.634294       -17.2600
  33   0.0000      -0.245338        -6.6760
  34   0.0000      -0.240250        -6.5375
  35   0.0000      -0.143376        -3.9015
  36   0.0000      -0.074838        -2.0364
  37   0.0000      -0.036317        -0.9882

MULLIKEN ATOMIC CHARGES
-----------------------
   0 C :   -0.398516
   1 C :   -0.186202
   2 C :    0.201998
   3 C :   -0.306664
   4 C :   -0.124853
   5 C :   -0.293328
   6 C :    0.297440
   7 C :   -0.358841
   8 O :   -0.472386
   9 H :    0.126785
  10 H :    0.129443
  11 H :    0.127004
  12 H :    0.120752
  13 H :    0.120682
  14 H :    0.155901
  15 H :    0.163003
  16 H :    0.168530
  17 H :    0.151505
  18 H :    0.377748
Sum of atomic charges:    0.0000000

LOEWDIN ATOMIC CHARGES
----------------------
   0 C :   -0.299543
   1 C :   -0.237566
   2 C :   -0.148884
   3 C :   -0.143675
   4 C :   -0.145798
   5 C :   -0.152149
   6 C :   -0.269326
   7 C :   -0.109614
   8 O :    0.035096
   9 H :    0.119987
  10 H :    0.119228
  11 H :    0.119990
  12 H :    0.143367
  13 H :    0.143241
  14 H :    0.151987
  15 H :    0.152321
  16 H :    0.154638
  17 H :    0.156963
  18 H :    0.209737

  Mayer bond orders larger than 0.100000
B(  0-C ,  1-C ) :   0.9655 B(  0-C ,  9-H ) :   0.9781 B(  0-C , 10-H ) :   0.9753
B(  0-C , 11-H ) :   0.9784 B(  1-C ,  2-C ) :   0.9105 B(  1-C , 12-H ) :   0.9800
B(  1-C , 13-H ) :   0.9816 B(  2-C ,  3-C ) :   1.3561 B(  2-C ,  7-C ) :   1.4007
B(  3-C ,  4-C ) :   1.4235 B(  3-C , 14-H ) :   0.9809 B(  4-C ,  5-C ) :   1.3720
B(  4-C , 15-H ) :   0.9678 B(  5-C ,  6-C ) :   1.3632 B(  5-C , 16-H ) :   0.9698
B(  6-C ,  7-C ) :   1.3891 B(  6-C ,  8-O ) :   1.1033 B(  7-C , 17-H ) :   0.9819
B(  8-O , 18-H ) :   0.8496

FINAL SINGLE POINT ENERGY      -386.127970487071

DIPOLE MOMENT
-------------

Method             : SCF
Type of density    : Electron Density
Multiplicity       :   1
Irrep              :   0
Energy             :  -386.1389378071708052 Eh
Relativity type    :
Basis              : AO
                                X                 Y                 Z
Electronic contribution:      8.601481129      -0.280519480       1.102334985
Nuclear contribution   :     -8.355989807      -0.247476125      -1.232077847
                        -----------------------------------------
Total Dipole Moment    :      0.245491322      -0.527995605      -0.129742862
                        -----------------------------------------
Magnitude (a.u.)       :      0.596555578
Magnitude (Debye)      :      1.516323776

Rotational constants in cm-1:             0.098600             0.038524             0.029767
Rotational constants in MHz :          2955.955489          1154.932784           892.377922

                             ****ORCA TERMINATED NORMALLY****
TOTAL RUN TIME: 0 days 0 hours 3 minutes 37 seconds 797 msec
