                         Program Version 6.0.0  -   RELEASE  -
|  1> ! pbe def2-sv(p) def2/J RI DEFGRID1 loosescf d4 GCP(DFT/SV(P)) printgap
|  2> %output
|  3>     printlevel normal
|  4> end
|  5> * xyz 0 1
|  6> C 0.7328011877 -1.1978351175 0.2318539296
|  7> C -0.7329913785 -1.1979278531 -0.2317662154
|  8> N -1.4477350185 6.4755e-06 0.1920733942
|  9> C -0.7329989629 1.1981009864 -0.231317087
| 10> C 0.7331832586 1.1978151985 0.231446105
| 11> N 1.4477732542 -0.0002418853 -0.1923297532
| 12> H 1.2578834212 -2.0715274802 -0.1572242646
| 13> H 0.7706331024 -1.2285810347 1.3262665063
| 14> H -0.7709330953 -1.2292913181 -1.3260938326
| 15> H -1.2581564561 -2.0714174424 0.1579439341
| 16> H -1.5129529461 -0.0003138067 1.2067867999
| 17> H -0.7718040373 1.2303994359 -1.3255994348
| 18> H -1.2577191644 2.0714409669 0.1594342496
| 19> H 1.2579577434 2.0710403874 -0.1592027249
| 20> H 0.7719980325 1.2299203934 1.325779438
| 21> H 1.5126322934 -0.0002244661 -1.2071108398
| 22> *
| 23>
| 24>                          ****END OF INPUT****

CARTESIAN COORDINATES (ANGSTROEM)
---------------------------------
  C      0.732801   -1.197835    0.231854
  C     -0.732991   -1.197928   -0.231766
  N     -1.447735    0.000006    0.192073
  C     -0.732999    1.198101   -0.231317
  C      0.733183    1.197815    0.231446
  N      1.447773   -0.000242   -0.192330
  H      1.257883   -2.071527   -0.157224
  H      0.770633   -1.228581    1.326267
  H     -0.770933   -1.229291   -1.326094
  H     -1.258156   -2.071417    0.157944
  H     -1.512953   -0.000314    1.206787
  H     -0.771804    1.230399   -1.325599
  H     -1.257719    2.071441    0.159434
  H      1.257958    2.071040   -0.159203
  H      0.771998    1.229920    1.325779
  H      1.512632   -0.000224   -1.207111

 Total Charge           Charge          ....    0
 Multiplicity           Mult            ....    1
 Number of Electrons    NEL             ....   48
 Basis Dimension        Dim             ....  104

ORBITAL ENERGIES
----------------

  NO   OCC          E(Eh)            E(eV)
   0   2.0000     -13.969534      -380.1303
   1   2.0000     -13.969475      -380.1287
   2   2.0000      -9.904621      -269.5184
   3   2.0000      -9.904602      -269.5179
   4   2.0000      -9.904563      -269.5169
   5   2.0000      -9.904549      -269.5165
   6   2.0000      -0.846729       -23.0407
   7   2.0000      -0.790326       -21.5059
   8   2.0000      -0.679267       -18.4838
   9   2.0000      -0.587900       -15.9976
  10   2.0000      -0.567131       -15.4324
  11   2.0000      -0.532461       -14.4890
  12   2.0000      -0.457977       -12.4622
  13   2.0000      -0.408592       -11.1184
  14   2.0000      -0.405321       -11.0293
  15   2.0000      -0.399039       -10.8584
  16   2.0000      -0.382998       -10.4219
  17   2.0000      -0.347854        -9.4656
  18   2.0000      -0.339266        -9.2319
  19   2.0000      -0.310612        -8.4522
  20   2.0000      -0.300397        -8.1742
  21   2.0000      -0.295681        -8.0459
  22   2.0000      -0.209707        -5.7064
  23   2.0000      -0.149299        -4.0626
  24   0.0000       0.034590         0.9412
  25   0.0000       0.039704         1.0804
  26   0.0000       0.070335         1.9139
  27   0.0000       0.079195         2.1550
  28   0.0000       0.098594         2.6829

MULLIKEN ATOMIC CHARGES
-----------------------
   0 C :   -0.087844
   1 C :   -0.087862
   2 N :   -0.327479
   3 C :   -0.087909
   4 C :   -0.087935
   5 N :   -0.327429
   6 H :    0.084191
   7 H :    0.071920
   8 H :    0.071945
   9 H :    0.084218
  10 H :    0.190911
  11 H :    0.071972
  12 H :    0.084222
  13 H :    0.084173
  14 H :    0.071985
  15 H :    0.190921
Sum of atomic charges:   -0.0000000

LOEWDIN ATOMIC CHARGES
----------------------
   0 C :   -0.191816
   1 C :   -0.191799
   2 N :   -0.260117
   3 C :   -0.191806
   4 C :   -0.191815
   5 N :   -0.260077
   6 H :    0.112048
   7 H :    0.108114
   8 H :    0.108115
   9 H :    0.112060
  10 H :    0.203363
  11 H :    0.108121
  12 H :    0.112069
  13 H :    0.112057
  14 H :    0.108120
  15 H :    0.203366

  Mayer bond orders larger than 0.100000
B(  0-C ,  1-C ) :   1.0774 B(  0-C ,  5-N ) :   1.1000 B(  0-C ,  6-H ) :   0.9239
B(  0-C ,  7-H ) :   0.9125 B(  1-C ,  2-N ) :   1.0999 B(  1-C ,  8-H ) :   0.9126
B(  1-C ,  9-H ) :   0.9239 B(  2-N ,  3-C ) :   1.1000 B(  2-N , 10-H ) :   0.8801
B(  3-C ,  4-C ) :   1.0774 B(  3-C , 11-H ) :   0.9126 B(  3-C , 12-H ) :   0.9239
B(  4-C ,  5-N ) :   1.1000 B(  4-C , 13-H ) :   0.9239 B(  4-C , 14-H ) :   0.9126
B(  5-N , 15-H ) :   0.8801

Dispersion correction           -0.013015123
FINAL SINGLE POINT ENERGY      -267.288012619586

DIPOLE MOMENT
-------------

Method             : SCF
Type of density    : Electron Density
Multiplicity       :   1
Irrep              :   0
Energy             :  -267.3534348254572137 Eh
Relativity type    :
Basis              : AO
                                X                 Y                 Z
Electronic contribution:      0.000281751      -0.001375667      -0.000823807
Nuclear contribution   :     -0.000432385       0.001354957       0.000917841
                        -----------------------------------------
Total Dipole Moment    :     -0.000150633      -0.000020710       0.000094034
                        -----------------------------------------
Magnitude (a.u.)       :      0.000178778
Magnitude (Debye)      :      0.000454418

Rotational constants in cm-1:             0.158919             0.150971             0.088602
Rotational constants in MHz :          4764.266765          4525.997897          2656.234838

                             ****ORCA TERMINATED NORMALLY****
TOTAL RUN TIME: 0 days 0 hours 0 minutes 5 seconds 53 msec
