                         Program Version 6.0.0  -   RELEASE  -
|  1> ! pbe def2-sv(p) def2/J RI DEFGRID1 loosescf d4 GCP(DFT/SV(P)) printgap
|  2> %output
|  3>     printlevel normal
|  4> end
|  5> * xyz 0 1
|  6> C -2.3989926396 -1.1997539128 -0.187100522
|  7> C -1.07905476 -0.634118514 0.3765822259
|  8> H -1.1073868603 -0.6043272672 1.477047628
|  9> C -0.808172048 0.7996528118 -0.1084505083
| 10> H -0.9955012296 0.8510846767 -1.1927963612
| 11> C 0.6469253336 1.2278089634 0.1760329359
| 12> H 0.7710362521 1.3520090545 1.2587278587
| 13> C 1.62809983 0.158241697 -0.3038463086
| 14> H 1.5523612795 0.0569437774 -1.4002848187
| 15> C 1.225557419 -1.1889645838 0.3349203857
| 16> H 1.3017078591 -1.0968445888 1.4321105396
| 17> O -0.0782810936 -1.5368129234 -0.0532276985
| 18> O 2.0828624258 -2.2053729351 -0.0461548549
| 19> O 2.9335080753 0.5170948127 0.0646593926
| 20> O 0.8876894243 2.5015906898 -0.367184498
| 21> O -1.6912915587 1.6506256879 0.5796027122
| 22> O -3.4192051676 -0.2578707887 -0.3620944732
| 23> H -2.7297113633 -2.0223610319 0.4601179164
| 24> H -2.1876906721 -1.6069203653 -1.1792168939
| 25> H 1.7596612829 -2.5997032094 -0.8720360031
| 26> H 3.5045504458 -0.2642028299 -0.0077811123
| 27> H 1.0791110358 2.4312729376 -1.313472467
| 28> H -1.4383898299 2.5687306419 0.3960983554
| 29> H -3.5018110356 0.2865751669 0.4349391283
| 30> *
| 31>
| 32>                          ****END OF INPUT****

CARTESIAN COORDINATES (ANGSTROEM)
---------------------------------
  C     -2.398993   -1.199754   -0.187101
  C     -1.079055   -0.634119    0.376582
  H     -1.107387   -0.604327    1.477048
  C     -0.808172    0.799653   -0.108451
  H     -0.995501    0.851085   -1.192796
  C      0.646925    1.227809    0.176033
  H      0.771036    1.352009    1.258728
  C      1.628100    0.158242   -0.303846
  H      1.552361    0.056944   -1.400285
  C      1.225557   -1.188965    0.334920
  H      1.301708   -1.096845    1.432111
  O     -0.078281   -1.536813   -0.053228
  O      2.082862   -2.205373   -0.046155
  O      2.933508    0.517095    0.064659
  O      0.887689    2.501591   -0.367184
  O     -1.691292    1.650626    0.579603
  O     -3.419205   -0.257871   -0.362094
  H     -2.729711   -2.022361    0.460118
  H     -2.187691   -1.606920   -1.179217
  H      1.759661   -2.599703   -0.872036
  H      3.504550   -0.264203   -0.007781
  H      1.079111    2.431273   -1.313472
  H     -1.438390    2.568731    0.396098
  H     -3.501811    0.286575    0.434939

 Total Charge           Charge          ....    0
 Multiplicity           Mult            ....    1
 Number of Electrons    NEL             ....   96
 Basis Dimension        Dim             ....  192

ORBITAL ENERGIES
----------------

  NO   OCC          E(Eh)            E(eV)
   0   2.0000     -18.785917      -511.1908
   1   2.0000     -18.775290      -510.9016
   2   2.0000     -18.761734      -510.5327
   3   2.0000     -18.760390      -510.4962
   4   2.0000     -18.754537      -510.3369
   5   2.0000     -18.742249      -510.0025
   6   2.0000      -9.996810      -272.0270
   7   2.0000      -9.952149      -270.8118
   8   2.0000      -9.947822      -270.6940
   9   2.0000      -9.947330      -270.6806
  10   2.0000      -9.946867      -270.6680
  11   2.0000      -9.932053      -270.2649
  12   2.0000      -0.998120       -27.1602
  13   2.0000      -0.952498       -25.9188
  14   2.0000      -0.940861       -25.6021
  15   2.0000      -0.926519       -25.2119
  16   2.0000      -0.922913       -25.1137
  17   2.0000      -0.915659       -24.9164
  18   2.0000      -0.706975       -19.2378
  19   2.0000      -0.697839       -18.9892
  20   2.0000      -0.614813       -16.7299
  21   2.0000      -0.596278       -16.2255
  22   2.0000      -0.568701       -15.4751
  23   2.0000      -0.548731       -14.9317
  24   2.0000      -0.506484       -13.7821
  25   2.0000      -0.495353       -13.4793
  26   2.0000      -0.476366       -12.9626
  27   2.0000      -0.457656       -12.4535
  28   2.0000      -0.445136       -12.1128
  29   2.0000      -0.441035       -12.0012
  30   2.0000      -0.432353       -11.7649
  31   2.0000      -0.419489       -11.4149
  32   2.0000      -0.380214       -10.3461
  33   2.0000      -0.377315       -10.2673
  34   2.0000      -0.360007        -9.7963
  35   2.0000      -0.353677        -9.6240
  36   2.0000      -0.331540        -9.0217
  37   2.0000      -0.327853        -8.9213
  38   2.0000      -0.312451        -8.5022
  39   2.0000      -0.305096        -8.3021
  40   2.0000      -0.289214        -7.8699
  41   2.0000      -0.273481        -7.4418
  42   2.0000      -0.262313        -7.1379
  43   2.0000      -0.246185        -6.6990
  44   2.0000      -0.239855        -6.5268
  45   2.0000      -0.223097        -6.0708
  46   2.0000      -0.216164        -5.8821
  47   2.0000      -0.206374        -5.6157
  48   0.0000       0.008055         0.2192
  49   0.0000       0.019610         0.5336
  50   0.0000       0.035850         0.9755
  51   0.0000       0.047936         1.3044
  52   0.0000       0.049346         1.3428

MULLIKEN ATOMIC CHARGES
-----------------------
   0 C :    0.090246
   1 C :   -0.006850
   2 H :    0.060521
   3 C :    0.056651
   4 H :    0.045205
   5 C :    0.072405
   6 H :    0.066827
   7 C :    0.049060
   8 H :    0.024073
   9 C :    0.161933
  10 H :    0.059707
  11 O :   -0.307557
  12 O :   -0.387737
  13 O :   -0.403755
  14 O :   -0.411002
  15 O :   -0.427926
  16 O :   -0.432169
  17 H :    0.079367
  18 H :    0.082558
  19 H :    0.308859
  20 H :    0.303080
  21 H :    0.303966
  22 H :    0.309499
  23 H :    0.303039
Sum of atomic charges:   -0.0000000

LOEWDIN ATOMIC CHARGES
----------------------
   0 C :   -0.122000
   1 C :   -0.066746
   2 H :    0.105119
   3 C :   -0.077422
   4 H :    0.101419
   5 C :   -0.077834
   6 H :    0.120766
   7 C :   -0.100283
   8 H :    0.090209
   9 C :   -0.002482
  10 H :    0.099864
  11 O :   -0.145181
  12 O :   -0.295911
  13 O :   -0.316913
  14 O :   -0.307996
  15 O :   -0.318255
  16 O :   -0.330868
  17 H :    0.098415
  18 H :    0.113505
  19 H :    0.292277
  20 H :    0.284254
  21 H :    0.288164
  22 H :    0.288338
  23 H :    0.279562

  Mayer bond orders larger than 0.100000
B(  0-C ,  1-C ) :   1.0404 B(  0-C , 16-O ) :   1.1077 B(  0-C , 17-H ) :   0.9253
B(  0-C , 18-H ) :   0.9110 B(  1-C ,  2-H ) :   0.8743 B(  1-C ,  3-C ) :   0.9981
B(  1-C , 11-O ) :   0.9891 B(  3-C ,  4-H ) :   0.8711 B(  3-C ,  5-C ) :   1.0009
B(  3-C , 15-O ) :   1.0355 B(  5-C ,  6-H ) :   0.8659 B(  5-C ,  7-C ) :   1.0004
B(  5-C , 14-O ) :   1.0525 B(  7-C ,  8-H ) :   0.8530 B(  7-C ,  9-C ) :   0.9763
B(  7-C , 13-O ) :   1.1045 B(  9-C , 10-H ) :   0.8819 B(  9-C , 11-O ) :   1.0178
B(  9-C , 12-O ) :   1.1179 B( 12-O , 19-H ) :   0.8383 B( 13-O , 20-H ) :   0.8321
B( 14-O , 21-H ) :   0.8462 B( 15-O , 22-H ) :   0.8279 B( 16-O , 23-H ) :   0.8300

Dispersion correction           -0.023869759
FINAL SINGLE POINT ENERGY      -685.695262380544

DIPOLE MOMENT
-------------

Method             : SCF
Type of density    : Electron Density
Multiplicity       :   1
Irrep              :   0
Energy             :  -685.8260551444673183 Eh
Relativity type    :
Basis              : AO
                                X                 Y                 Z
Electronic contribution:      2.172024103       0.377166965       0.025998662
Nuclear contribution   :     -1.858297285      -0.597778496      -0.477958320
                        -----------------------------------------
Total Dipole Moment    :      0.313726818      -0.220611532      -0.451959658
                        -----------------------------------------
Magnitude (a.u.)       :      0.592757536
Magnitude (Debye)      :      1.506669920

Rotational constants in cm-1:             0.043394             0.024866             0.016704
Rotational constants in MHz :          1300.932222           745.472403           500.777175

                             ****ORCA TERMINATED NORMALLY****
TOTAL RUN TIME: 0 days 0 hours 0 minutes 11 seconds 482 msec
