                         Program Version 6.0.0  -   RELEASE  -
|  1> ! pbe def2-sv(p) def2/J RI DEFGRID1 loosescf d4 GCP(DFT/SV(P)) printgap
|  2> %output
|  3>     printlevel normal
|  4> end
|  5> * xyz 0 1
|  6> C -3.0805319098 0.008710324 0.7440782108
|  7> O -2.335222513 -0.180201264 -0.4459575452
|  8> C -0.9537461862 -0.087496538 -0.2611253401
|  9> C -0.20649546 -1.2303360978 -0.0077871028
| 10> C 1.1628391636 -1.1472955687 0.1356225878
| 11> C 1.8202211298 0.0830394111 0.0373888039
| 12> C 1.0548590504 1.2254900261 -0.2170139497
| 13> C -0.3143327444 1.1414433936 -0.3606573097
| 14> N 3.1720537837 0.176513262 0.2523991467
| 15> H -4.1267131896 -0.0803073831 0.460242416
| 16> H -2.89374198 0.9991195029 1.171471172
| 17> H -2.8304137693 -0.7548928931 1.4878063607
| 18> H -0.7092270799 -2.1835030172 0.0624749858
| 19> H 1.7367528418 -2.0415467551 0.3276560677
| 20> H 1.5446315184 2.1841746886 -0.3007988706
| 21> H -0.8996880361 2.0260011273 -0.5638882015
| 22> H 3.6264504923 1.0090570956 -0.082294964
| 23> H 3.702743804 -0.6737732775 0.1686810229
| 24> *
| 25>
| 26>                          ****END OF INPUT****

CARTESIAN COORDINATES (ANGSTROEM)
---------------------------------
  C     -3.080532    0.008710    0.744078
  O     -2.335223   -0.180201   -0.445958
  C     -0.953746   -0.087497   -0.261125
  C     -0.206495   -1.230336   -0.007787
  C      1.162839   -1.147296    0.135623
  C      1.820221    0.083039    0.037389
  C      1.054859    1.225490   -0.217014
  C     -0.314333    1.141443   -0.360657
  N      3.172054    0.176513    0.252399
  H     -4.126713   -0.080307    0.460242
  H     -2.893742    0.999120    1.171471
  H     -2.830414   -0.754893    1.487806
  H     -0.709227   -2.183503    0.062475
  H      1.736753   -2.041547    0.327656
  H      1.544632    2.184175   -0.300799
  H     -0.899688    2.026001   -0.563888
  H      3.626450    1.009057   -0.082295
  H      3.702744   -0.673773    0.168681

 Total Charge           Charge          ....    0
 Multiplicity           Mult            ....    1
 Number of Electrons    NEL             ....   66
 Basis Dimension        Dim             ....  144

ORBITAL ENERGIES
----------------

  NO   OCC          E(Eh)            E(eV)
   0   2.0000     -18.749908      -510.2109
   1   2.0000     -13.995975      -380.8498
   2   2.0000      -9.928270      -270.1620
   3   2.0000      -9.922739      -270.0114
   4   2.0000      -9.921824      -269.9866
   5   2.0000      -9.882736      -268.9229
   6   2.0000      -9.882640      -268.9203
   7   2.0000      -9.882200      -268.9083
   8   2.0000      -9.881987      -268.9025
   9   2.0000      -0.930972       -25.3330
  10   2.0000      -0.837461       -22.7885
  11   2.0000      -0.751124       -20.4391
  12   2.0000      -0.666105       -18.1256
  13   2.0000      -0.652460       -17.7543
  14   2.0000      -0.599298       -16.3077
  15   2.0000      -0.553133       -15.0515
  16   2.0000      -0.523395       -14.2423
  17   2.0000      -0.474865       -12.9217
  18   2.0000      -0.470915       -12.8142
  19   2.0000      -0.446079       -12.1384
  20   2.0000      -0.401415       -10.9231
  21   2.0000      -0.395899       -10.7729
  22   2.0000      -0.386278       -10.5112
  23   2.0000      -0.373714       -10.1693
  24   2.0000      -0.365394        -9.9429
  25   2.0000      -0.350278        -9.5315
  26   2.0000      -0.339185        -9.2297
  27   2.0000      -0.300621        -8.1803
  28   2.0000      -0.289757        -7.8847
  29   2.0000      -0.255576        -6.9546
  30   2.0000      -0.223043        -6.0693
  31   2.0000      -0.206082        -5.6078
  32   2.0000      -0.165788        -4.5113
  33   0.0000      -0.027204        -0.7403
  34   0.0000      -0.004690        -0.1276
  35   0.0000       0.032444         0.8829
  36   0.0000       0.055115         1.4998
  37   0.0000       0.064633         1.7588

MULLIKEN ATOMIC CHARGES
-----------------------
   0 C :   -0.073929
   1 O :   -0.319093
   2 C :    0.217666
   3 C :   -0.120091
   4 C :   -0.136066
   5 C :    0.180204
   6 C :   -0.136281
   7 C :   -0.121175
   8 N :   -0.334712
   9 H :    0.112132
  10 H :    0.086612
  11 H :    0.086286
  12 H :    0.036585
  13 H :    0.020923
  14 H :    0.020673
  15 H :    0.036953
  16 H :    0.221650
  17 H :    0.221664
Sum of atomic charges:   -0.0000000

LOEWDIN ATOMIC CHARGES
----------------------
   0 C :   -0.197629
   1 O :   -0.145998
   2 C :    0.001736
   3 C :   -0.131158
   4 C :   -0.160123
   5 C :   -0.013271
   6 C :   -0.159970
   7 C :   -0.131442
   8 N :   -0.314673
   9 H :    0.113687
  10 H :    0.098144
  11 H :    0.098399
  12 H :    0.127432
  13 H :    0.118229
  14 H :    0.118163
  15 H :    0.127299
  16 H :    0.225578
  17 H :    0.225597

  Mayer bond orders larger than 0.100000
B(  0-C ,  1-O ) :   0.9960 B(  0-C ,  9-H ) :   0.9622 B(  0-C , 10-H ) :   0.9438
B(  0-C , 11-H ) :   0.9437 B(  1-O ,  2-C ) :   1.0170 B(  2-C ,  3-C ) :   1.3720
B(  2-C ,  7-C ) :   1.3694 B(  3-C ,  4-C ) :   1.3445 B(  3-C , 12-H ) :   0.9620
B(  4-C ,  5-C ) :   1.3148 B(  4-C , 13-H ) :   0.9610 B(  5-C ,  6-C ) :   1.3137
B(  5-C ,  8-N ) :   1.2387 B(  6-C ,  7-C ) :   1.3462 B(  6-C , 14-H ) :   0.9611
B(  7-C , 15-H ) :   0.9610 B(  8-N , 16-H ) :   0.8826 B(  8-N , 17-H ) :   0.8826

Dispersion correction           -0.017625507
FINAL SINGLE POINT ENERGY      -401.243906095782

DIPOLE MOMENT
-------------

Method             : SCF
Type of density    : Electron Density
Multiplicity       :   1
Irrep              :   0
Energy             :  -401.3035584887713867 Eh
Relativity type    :
Basis              : AO
                                X                 Y                 Z
Electronic contribution:      1.686983836      -0.360052880      -2.313955173
Nuclear contribution   :     -0.813897138       0.452681154       2.557246385
                        -----------------------------------------
Total Dipole Moment    :      0.873086698       0.092628274       0.243291212
                        -----------------------------------------
Magnitude (a.u.)       :      0.911071344
Magnitude (Debye)      :      2.315759320

Rotational constants in cm-1:             0.156837             0.033108             0.028913
Rotational constants in MHz :          4701.842385           992.553992           866.798342

                             ****ORCA TERMINATED NORMALLY****
TOTAL RUN TIME: 0 days 0 hours 0 minutes 8 seconds 710 msec
