                         Program Version 6.0.0  -   RELEASE  -
|  1> ! pbe def2-sv(p) def2/J RI DEFGRID1 loosescf d4 GCP(DFT/SV(P)) printgap
|  2> %output
|  3>     printlevel normal
|  4> end
|  5> * xyz 0 1
|  6> C -1.7981560064 -1.017615473 -0.7096305359
|  7> C -1.0379779538 -0.4648080629 0.5058525702
|  8> H -1.7125546332 -0.5409624213 1.3674265283
|  9> C -0.6936302128 1.0235008869 0.3355512197
| 10> H -1.5270323948 1.4799361749 -0.2128218262
| 11> C 0.6070256357 1.2368966512 -0.4691293201
| 12> H 0.9061014814 2.286149475 -0.3422635762
| 13> C 1.7314011242 0.3518820949 0.1103189632
| 14> H 2.6199020183 0.4062889939 -0.5291529051
| 15> C 1.2616508617 -1.1172660714 0.1351732992
| 16> H 1.9852807689 -1.7271529833 0.6900755689
| 17> O 0.0735599429 -1.2658674641 0.8786056205
| 18> O 1.1865508915 -1.6558260874 -1.1462446664
| 19> O 2.1380932423 0.7956840255 1.3759915859
| 20> O 0.3643313215 0.9411627269 -1.8285168958
| 21> O -0.5658325147 1.5827703499 1.6253645302
| 22> O -3.121414072 -0.5329401575 -0.6305657542
| 23> H -1.7680535396 -2.1123365272 -0.6526449002
| 24> H -1.33061415 -0.6869764924 -1.642616127
| 25> H 0.7804852128 -1.0007469337 -1.7446420202
| 26> H 1.3628525486 0.8117493719 1.9643661029
| 27> H 0.9785598253 1.4354418215 -2.3900631386
| 28> H -0.6906329756 2.5415292101 1.5898314687
| 29> H -3.6373437115 -0.899700226 -1.362312912
| 30> *
| 31>
| 32>                          ****END OF INPUT****

CARTESIAN COORDINATES (ANGSTROEM)
---------------------------------
  C     -1.798156   -1.017615   -0.709631
  C     -1.037978   -0.464808    0.505853
  H     -1.712555   -0.540962    1.367427
  C     -0.693630    1.023501    0.335551
  H     -1.527032    1.479936   -0.212822
  C      0.607026    1.236897   -0.469129
  H      0.906101    2.286149   -0.342264
  C      1.731401    0.351882    0.110319
  H      2.619902    0.406289   -0.529153
  C      1.261651   -1.117266    0.135173
  H      1.985281   -1.727153    0.690076
  O      0.073560   -1.265867    0.878606
  O      1.186551   -1.655826   -1.146245
  O      2.138093    0.795684    1.375992
  O      0.364331    0.941163   -1.828517
  O     -0.565833    1.582770    1.625365
  O     -3.121414   -0.532940   -0.630566
  H     -1.768054   -2.112337   -0.652645
  H     -1.330614   -0.686976   -1.642616
  H      0.780485   -1.000747   -1.744642
  H      1.362853    0.811749    1.964366
  H      0.978560    1.435442   -2.390063
  H     -0.690633    2.541529    1.589831
  H     -3.637344   -0.899700   -1.362313

 Total Charge           Charge          ....    0
 Multiplicity           Mult            ....    1
 Number of Electrons    NEL             ....   96
 Basis Dimension        Dim             ....  192

ORBITAL ENERGIES
----------------

  NO   OCC          E(Eh)            E(eV)
   0   2.0000     -18.790697      -511.3208
   1   2.0000     -18.772766      -510.8329
   2   2.0000     -18.755330      -510.3585
   3   2.0000     -18.750133      -510.2171
   4   2.0000     -18.742505      -510.0095
   5   2.0000     -18.739398      -509.9249
   6   2.0000      -9.970116      -271.3007
   7   2.0000      -9.957278      -270.9513
   8   2.0000      -9.952676      -270.8261
   9   2.0000      -9.940103      -270.4840
  10   2.0000      -9.937994      -270.4266
  11   2.0000      -9.927521      -270.1416
  12   2.0000      -0.975847       -26.5541
  13   2.0000      -0.955582       -26.0027
  14   2.0000      -0.945863       -25.7382
  15   2.0000      -0.924372       -25.1534
  16   2.0000      -0.915955       -24.9244
  17   2.0000      -0.897656       -24.4264
  18   2.0000      -0.710056       -19.3216
  19   2.0000      -0.683993       -18.6124
  20   2.0000      -0.615216       -16.7409
  21   2.0000      -0.587847       -15.9961
  22   2.0000      -0.574773       -15.6404
  23   2.0000      -0.515668       -14.0320
  24   2.0000      -0.508823       -13.8458
  25   2.0000      -0.493861       -13.4386
  26   2.0000      -0.472704       -12.8629
  27   2.0000      -0.470676       -12.8078
  28   2.0000      -0.433772       -11.8035
  29   2.0000      -0.428622       -11.6634
  30   2.0000      -0.421700       -11.4750
  31   2.0000      -0.402220       -10.9450
  32   2.0000      -0.385953       -10.5023
  33   2.0000      -0.375585       -10.2202
  34   2.0000      -0.362980        -9.8772
  35   2.0000      -0.347162        -9.4468
  36   2.0000      -0.330407        -8.9908
  37   2.0000      -0.313089        -8.5196
  38   2.0000      -0.306987        -8.3535
  39   2.0000      -0.292423        -7.9572
  40   2.0000      -0.277692        -7.5564
  41   2.0000      -0.269347        -7.3293
  42   2.0000      -0.263453        -7.1689
  43   2.0000      -0.258364        -7.0305
  44   2.0000      -0.227494        -6.1904
  45   2.0000      -0.220068        -5.9883
  46   2.0000      -0.210919        -5.7394
  47   2.0000      -0.195910        -5.3310
  48   0.0000      -0.005613        -0.1527
  49   0.0000       0.008190         0.2229
  50   0.0000       0.024910         0.6778
  51   0.0000       0.065498         1.7823
  52   0.0000       0.073449         1.9986

MULLIKEN ATOMIC CHARGES
-----------------------
   0 C :    0.003059
   1 C :    0.061192
   2 H :    0.088293
   3 C :    0.025221
   4 H :    0.086370
   5 C :   -0.000708
   6 H :    0.063043
   7 C :    0.042497
   8 H :    0.067561
   9 C :    0.198584
  10 H :    0.073064
  11 O :   -0.304132
  12 O :   -0.413170
  13 O :   -0.427530
  14 O :   -0.411358
  15 O :   -0.413969
  16 O :   -0.439586
  17 H :    0.089840
  18 H :    0.074620
  19 H :    0.301168
  20 H :    0.303773
  21 H :    0.318910
  22 H :    0.309908
  23 H :    0.303349
Sum of atomic charges:   -0.0000000

LOEWDIN ATOMIC CHARGES
----------------------
   0 C :   -0.145284
   1 C :   -0.057525
   2 H :    0.128025
   3 C :   -0.070585
   4 H :    0.115211
   5 C :   -0.083899
   6 H :    0.102239
   7 C :   -0.093606
   8 H :    0.112357
   9 C :   -0.008298
  10 H :    0.111216
  11 O :   -0.139917
  12 O :   -0.315890
  13 O :   -0.317830
  14 O :   -0.307084
  15 O :   -0.305107
  16 O :   -0.344084
  17 H :    0.106327
  18 H :    0.095819
  19 H :    0.263986
  20 H :    0.273265
  21 H :    0.299258
  22 H :    0.292924
  23 H :    0.288481

  Mayer bond orders larger than 0.100000
B(  0-C ,  1-C ) :   1.0590 B(  0-C , 16-O ) :   1.0631 B(  0-C , 17-H ) :   0.9093
B(  0-C , 18-H ) :   0.8978 B(  1-C ,  2-H ) :   0.8880 B(  1-C ,  3-C ) :   1.0158
B(  1-C , 11-O ) :   1.0318 B(  3-C ,  4-H ) :   0.8875 B(  3-C ,  5-C ) :   0.9829
B(  3-C , 15-O ) :   1.0400 B(  5-C ,  6-H ) :   0.9022 B(  5-C ,  7-C ) :   0.9571
B(  5-C , 14-O ) :   1.0248 B(  7-C ,  8-H ) :   0.8953 B(  7-C ,  9-C ) :   0.9926
B(  7-C , 13-O ) :   1.0673 B(  9-C , 10-H ) :   0.9067 B(  9-C , 11-O ) :   1.0347
B(  9-C , 12-O ) :   1.1227 B( 12-O , 19-H ) :   0.7968 B( 13-O , 20-H ) :   0.8126
B( 14-O , 19-H ) :   0.1027 B( 14-O , 21-H ) :   0.8373 B( 15-O , 22-H ) :   0.8421
B( 16-O , 23-H ) :   0.8501

Dispersion correction           -0.025926790
FINAL SINGLE POINT ENERGY      -685.694511963915

DIPOLE MOMENT
-------------

Method             : SCF
Type of density    : Electron Density
Multiplicity       :   1
Irrep              :   0
Energy             :  -685.8271115286760278 Eh
Relativity type    :
Basis              : AO
                                X                 Y                 Z
Electronic contribution:      1.367512838      -0.503969798       1.860575264
Nuclear contribution   :     -1.906230970       1.867978737      -3.058885872
                        -----------------------------------------
Total Dipole Moment    :     -0.538718132       1.364008939      -1.198310608
                        -----------------------------------------
Magnitude (a.u.)       :      1.893854779
Magnitude (Debye)      :      4.813796289

Rotational constants in cm-1:             0.041060             0.028436             0.024519
Rotational constants in MHz :          1230.946914           852.483948           735.050535

                             ****ORCA TERMINATED NORMALLY****
TOTAL RUN TIME: 0 days 0 hours 0 minutes 12 seconds 480 msec
