                         Program Version 6.0.0  -   RELEASE  -
|  1> ! pbe def2-sv(p) def2/J RI DEFGRID1 loosescf d4 GCP(DFT/SV(P)) printgap
|  2> %output
|  3>     printlevel normal
|  4> end
|  5> * xyz 0 1
|  6> C -2.4845959796 0.2167537377 0.3928700974
|  7> C -1.7730872942 0.0402209224 -0.942276199
|  8> C -0.5180071082 -0.8020537041 -0.8262750654
|  9> Br 0.8781767738 0.0994805611 0.2438770559
| 10> H -2.7661964429 -0.7486161528 0.8076354861
| 11> H -1.8373394624 0.7231589983 1.1061942671
| 12> H -3.3829645634 0.813429414 0.2640029887
| 13> H -1.5214462598 1.017341811 -1.3596702337
| 14> H -2.4356147737 -0.4669588619 -1.6477212895
| 15> H -0.0581774312 -0.9849462223 -1.7954987946
| 16> H -0.7072088109 -1.7444107223 -0.315287805
| 17> *
| 18>
| 19>                          ****END OF INPUT****

CARTESIAN COORDINATES (ANGSTROEM)
---------------------------------
  C     -2.484596    0.216754    0.392870
  C     -1.773087    0.040221   -0.942276
  C     -0.518007   -0.802054   -0.826275
  Br     0.878177    0.099481    0.243877
  H     -2.766196   -0.748616    0.807635
  H     -1.837339    0.723159    1.106194
  H     -3.382965    0.813429    0.264003
  H     -1.521446    1.017342   -1.359670
  H     -2.435615   -0.466959   -1.647721
  H     -0.058177   -0.984946   -1.795499
  H     -0.707209   -1.744411   -0.315288

 Total Charge           Charge          ....    0
 Multiplicity           Mult            ....    1
 Number of Electrons    NEL             ....   60
 Basis Dimension        Dim             ....   88

ORBITAL ENERGIES
----------------

  NO   OCC          E(Eh)            E(eV)
   0   2.0000    -480.919318    -13086.4799
   1   2.0000     -61.761533     -1680.6167
   2   2.0000     -55.692152     -1515.4605
   3   2.0000     -55.689074     -1515.3767
   4   2.0000     -55.688970     -1515.3739
   5   2.0000      -9.940300      -270.4893
   6   2.0000      -9.901485      -269.4331
   7   2.0000      -9.879046      -268.8225
   8   2.0000      -8.386556      -228.2098
   9   2.0000      -6.268411      -170.5721
  10   2.0000      -6.254273      -170.1874
  11   2.0000      -6.254014      -170.1804
  12   2.0000      -2.469503       -67.1986
  13   2.0000      -2.466126       -67.1067
  14   2.0000      -2.465934       -67.1015
  15   2.0000      -2.455301       -66.8121
  16   2.0000      -2.455292       -66.8119
  17   2.0000      -0.747069       -20.3288
  18   2.0000      -0.682106       -18.5610
  19   2.0000      -0.605209       -16.4686
  20   2.0000      -0.526813       -14.3353
  21   2.0000      -0.425033       -11.5657
  22   2.0000      -0.417539       -11.3618
  23   2.0000      -0.379200       -10.3185
  24   2.0000      -0.344685        -9.3794
  25   2.0000      -0.320108        -8.7106
  26   2.0000      -0.315030        -8.5724
  27   2.0000      -0.300971        -8.1898
  28   2.0000      -0.234266        -6.3747
  29   2.0000      -0.231775        -6.3069
  30   0.0000      -0.026826        -0.7300
  31   0.0000       0.036981         1.0063
  32   0.0000       0.073550         2.0014
  33   0.0000       0.078691         2.1413
  34   0.0000       0.098620         2.6836

MULLIKEN ATOMIC CHARGES
-----------------------
   0 C :   -0.289073
   1 C :   -0.173141
   2 C :   -0.230168
   3 Br:   -0.132030
   4 H :    0.100268
   5 H :    0.120716
   6 H :    0.108939
   7 H :    0.108434
   8 H :    0.102394
   9 H :    0.143716
  10 H :    0.139946
Sum of atomic charges:   -0.0000000

LOEWDIN ATOMIC CHARGES
----------------------
   0 C :   -0.346564
   1 C :   -0.251597
   2 C :   -0.271985
   3 Br:   -0.000008
   4 H :    0.118232
   5 H :    0.121219
   6 H :    0.122279
   7 H :    0.124272
   8 H :    0.127161
   9 H :    0.129032
  10 H :    0.127959

  Mayer bond orders larger than 0.100000
B(  0-C ,  1-C ) :   1.1485 B(  0-C ,  4-H ) :   0.9547 B(  0-C ,  5-H ) :   0.9472
B(  0-C ,  6-H ) :   0.9530 B(  1-C ,  2-C ) :   1.1043 B(  1-C ,  7-H ) :   0.9248
B(  1-C ,  8-H ) :   0.9093 B(  2-C ,  3-Br) :   1.0331 B(  2-C ,  9-H ) :   0.9283
B(  2-C , 10-H ) :   0.9253

Dispersion correction           -0.007534611
FINAL SINGLE POINT ENERGY     -2691.674747072183

DIPOLE MOMENT
-------------

Method             : SCF
Type of density    : Electron Density
Multiplicity       :   1
Irrep              :   0
Energy             : -2691.7174928859085412 Eh
Relativity type    :
Basis              : AO
                                X                 Y                 Z
Electronic contribution:     19.484971280       1.960522554       4.631294094
Nuclear contribution   :    -20.077223224      -2.228695228      -5.022993118
                        -----------------------------------------
Total Dipole Moment    :     -0.592251944      -0.268172674      -0.391699024
                        -----------------------------------------
Magnitude (a.u.)       :      0.759017176
Magnitude (Debye)      :      1.929268340

Rotational constants in cm-1:             0.368852             0.075495             0.067284
Rotational constants in MHz :         11057.893603          2263.288379          2017.122214

                             ****ORCA TERMINATED NORMALLY****
TOTAL RUN TIME: 0 days 0 hours 0 minutes 4 seconds 182 msec
