                         Program Version 6.0.0  -   RELEASE  -
|  1> ! pbe def2-sv(p) def2/J RI DEFGRID1 loosescf d4 GCP(DFT/SV(P)) printgap
|  2> %output
|  3>     printlevel normal
|  4> end
|  5> * xyz 0 1
|  6> C 3.2683878145 1.0752208671 0.0086855984
|  7> N 2.2784662372 0.0344923908 -0.0015211187
|  8> C 2.4777079147 -1.2908305737 0.0013597712
|  9> N 1.3618186715 -1.9973975148 0.0013979927
| 10> C 0.3780827111 -1.0735536775 -0.0003641221
| 11> C 0.9145790726 0.2105929499 -0.0007905695
| 12> C 0.091815852 1.3736900324 -0.0038673645
| 13> O 0.4597104227 2.5435292343 -0.0125539278
| 14> N -1.2643742721 1.0510880172 0.0025807409
| 15> C -1.820810504 -0.2199143632 0.0025711648
| 16> O -3.0327704458 -0.3865842586 0.0055864719
| 17> N -0.9647371725 -1.287348496 0.0019187217
| 18> C -1.5052840888 -2.6339572156 -0.0096293091
| 19> C -2.1806885079 2.1831758071 0.0048714624
| 20> H 3.0721818301 1.7757182231 -0.8025236986
| 21> H 3.2188644351 1.6269396452 0.947882548
| 22> H 4.2530488474 0.6310334526 -0.1088969121
| 23> H 3.450763903 -1.7384787977 0.0019186324
| 24> H -2.3081457797 -2.7016373204 0.7223182439
| 25> H -0.6946587548 -3.3140467131 0.2317348391
| 26> H -1.9108703858 -2.8637061626 -0.9945643946
| 27> H -3.1927004811 1.8013884846 -0.0941675105
| 28> H -1.932569927 2.8437350525 -0.824450362
| 29> H -2.0726035279 2.7370230072 0.936728671
| 30> *
| 31>
| 32>                          ****END OF INPUT****

CARTESIAN COORDINATES (ANGSTROEM)
---------------------------------
  C      3.268388    1.075221    0.008686
  N      2.278466    0.034492   -0.001521
  C      2.477708   -1.290831    0.001360
  N      1.361819   -1.997398    0.001398
  C      0.378083   -1.073554   -0.000364
  C      0.914579    0.210593   -0.000791
  C      0.091816    1.373690   -0.003867
  O      0.459710    2.543529   -0.012554
  N     -1.264374    1.051088    0.002581
  C     -1.820811   -0.219914    0.002571
  O     -3.032770   -0.386584    0.005586
  N     -0.964737   -1.287348    0.001919
  C     -1.505284   -2.633957   -0.009629
  C     -2.180689    2.183176    0.004871
  H      3.072182    1.775718   -0.802524
  H      3.218864    1.626940    0.947883
  H      4.253049    0.631033   -0.108897
  H      3.450764   -1.738479    0.001919
  H     -2.308146   -2.701637    0.722318
  H     -0.694659   -3.314047    0.231735
  H     -1.910870   -2.863706   -0.994564
  H     -3.192700    1.801388   -0.094168
  H     -1.932570    2.843735   -0.824450
  H     -2.072604    2.737023    0.936729

 Total Charge           Charge          ....    0
 Multiplicity           Mult            ....    1
 Number of Electrons    NEL             ....  102
 Basis Dimension        Dim             ....  216

ORBITAL ENERGIES
----------------

  NO   OCC          E(Eh)            E(eV)
   0   2.0000     -18.727670      -509.6058
   1   2.0000     -18.723126      -509.4821
   2   2.0000     -14.081408      -383.1746
   3   2.0000     -14.056880      -382.5071
   4   2.0000     -14.047094      -382.2409
   5   2.0000     -13.992360      -380.7515
   6   2.0000     -10.016767      -272.5701
   7   2.0000      -9.996068      -272.0068
   8   2.0000      -9.966734      -271.2086
   9   2.0000      -9.962035      -271.0807
  10   2.0000      -9.946050      -270.6458
  11   2.0000      -9.932346      -270.2729
  12   2.0000      -9.922954      -270.0173
  13   2.0000      -9.911246      -269.6987
  14   2.0000      -0.980118       -26.6704
  15   2.0000      -0.959607       -26.1122
  16   2.0000      -0.937869       -25.5207
  17   2.0000      -0.885591       -24.0982
  18   2.0000      -0.849138       -23.1062
  19   2.0000      -0.826236       -22.4830
  20   2.0000      -0.720202       -19.5977
  21   2.0000      -0.673588       -18.3293
  22   2.0000      -0.666783       -18.1441
  23   2.0000      -0.641521       -17.4567
  24   2.0000      -0.598333       -16.2815
  25   2.0000      -0.583046       -15.8655
  26   2.0000      -0.546269       -14.8647
  27   2.0000      -0.527713       -14.3598
  28   2.0000      -0.485792       -13.2191
  29   2.0000      -0.462966       -12.5979
  30   2.0000      -0.461444       -12.5565
  31   2.0000      -0.437957       -11.9174
  32   2.0000      -0.432829       -11.7779
  33   2.0000      -0.410076       -11.1587
  34   2.0000      -0.407675       -11.0934
  35   2.0000      -0.403104       -10.9690
  36   2.0000      -0.386766       -10.5244
  37   2.0000      -0.377316       -10.2673
  38   2.0000      -0.376347       -10.2409
  39   2.0000      -0.364271        -9.9123
  40   2.0000      -0.356086        -9.6896
  41   2.0000      -0.347460        -9.4549
  42   2.0000      -0.341572        -9.2946
  43   2.0000      -0.340156        -9.2561
  44   2.0000      -0.289773        -7.8851
  45   2.0000      -0.252409        -6.8684
  46   2.0000      -0.250103        -6.8057
  47   2.0000      -0.233642        -6.3577
  48   2.0000      -0.230499        -6.2722
  49   2.0000      -0.208229        -5.6662
  50   2.0000      -0.193821        -5.2741
  51   0.0000      -0.058645        -1.5958
  52   0.0000      -0.008606        -0.2342
  53   0.0000       0.003528         0.0960
  54   0.0000       0.036098         0.9823
  55   0.0000       0.055592         1.5127

MULLIKEN ATOMIC CHARGES
-----------------------
   0 C :   -0.161447
   1 N :   -0.137466
   2 C :    0.026353
   3 N :   -0.116197
   4 C :    0.037153
   5 C :   -0.038522
   6 C :    0.122880
   7 O :   -0.203885
   8 N :   -0.279294
   9 C :    0.194735
  10 O :   -0.227443
  11 N :   -0.194850
  12 C :   -0.152864
  13 C :   -0.147674
  14 H :    0.146871
  15 H :    0.141116
  16 H :    0.124249
  17 H :    0.084122
  18 H :    0.132351
  19 H :    0.139147
  20 H :    0.124915
  21 H :    0.145578
  22 H :    0.121465
  23 H :    0.118704
Sum of atomic charges:   -0.0000000

LOEWDIN ATOMIC CHARGES
----------------------
   0 C :   -0.240067
   1 N :    0.068457
   2 C :   -0.072042
   3 N :   -0.125705
   4 C :    0.000199
   5 C :   -0.103910
   6 C :    0.021396
   7 O :   -0.199543
   8 N :   -0.023997
   9 C :    0.048195
  10 O :   -0.206212
  11 N :    0.003687
  12 C :   -0.239437
  13 C :   -0.248336
  14 H :    0.139755
  15 H :    0.136650
  16 H :    0.129580
  17 H :    0.122977
  18 H :    0.133093
  19 H :    0.134670
  20 H :    0.127972
  21 H :    0.137195
  22 H :    0.128422
  23 H :    0.127001

  Mayer bond orders larger than 0.100000
B(  0-C ,  1-N ) :   0.9888 B(  0-C , 14-H ) :   0.9439 B(  0-C , 15-H ) :   0.9475
B(  0-C , 16-H ) :   0.9457 B(  1-N ,  2-C ) :   1.2664 B(  1-N ,  5-C ) :   1.1735
B(  2-C ,  3-N ) :   1.5356 B(  2-C , 17-H ) :   0.9543 B(  3-N ,  4-C ) :   1.4470
B(  4-C ,  5-C ) :   1.3235 B(  4-C , 11-N ) :   1.1384 B(  5-C ,  6-C ) :   1.0342
B(  6-C ,  7-O ) :   2.0874 B(  6-C ,  8-N ) :   1.0429 B(  8-N ,  9-C ) :   1.0598
B(  8-N , 13-C ) :   0.9769 B(  9-C , 10-O ) :   2.0158 B(  9-C , 11-N ) :   1.0837
B( 11-N , 12-C ) :   0.9759 B( 12-C , 18-H ) :   0.9451 B( 12-C , 19-H ) :   0.9320
B( 12-C , 20-H ) :   0.9565 B( 13-C , 21-H ) :   0.9220 B( 13-C , 22-H ) :   0.9487
B( 13-C , 23-H ) :   0.9560

Dispersion correction           -0.029741146
FINAL SINGLE POINT ENERGY      -679.000935438876

DIPOLE MOMENT
-------------

Method             : SCF
Type of density    : Electron Density
Multiplicity       :   1
Irrep              :   0
Energy             :  -679.0822503263757426 Eh
Relativity type    :
Basis              : AO
                                X                 Y                 Z
Electronic contribution:     -0.299083176      -1.033870742      -0.008154791
Nuclear contribution   :      1.736514558       0.768495318       0.014912891
                        -----------------------------------------
Total Dipole Moment    :      1.437431382      -0.265375424       0.006758100
                        -----------------------------------------
Magnitude (a.u.)       :      1.461738268
Magnitude (Debye)      :      3.715443406

Rotational constants in cm-1:             0.035696             0.023893             0.014428
Rotational constants in MHz :          1070.131486           716.282705           432.554111

                             ****ORCA TERMINATED NORMALLY****
TOTAL RUN TIME: 0 days 0 hours 0 minutes 16 seconds 213 msec
