                         Program Version 6.0.0  -   RELEASE  -
|  1> ! r2scan-3c def2/J RI DEFGRID2 scfconv6 printgap
|  2> %output
|  3>     printlevel normal
|  4> end
|  5> * xyz 0 1
|  6> C 1.460593808 -0.3449612943 -0.4954572858
|  7> C 0.6769539432 0.4652786658 0.5289173978
|  8> C -0.8123352565 0.3287531062 0.4416440444
|  9> C -1.489927706 -0.4090604608 -0.4179181331
| 10> H 1.2552219284 -1.4066542644 -0.3826197815
| 11> H 2.5271749549 -0.1852797608 -0.35720892
| 12> H 1.1966216793 -0.0429966307 -1.5060210018
| 13> H 0.9257005893 1.5257404202 0.4215714345
| 14> H 0.984316501 0.1714583236 1.5374585981
| 15> H -1.3492831085 0.9132938888 1.1795499407
| 16> H -2.5661957954 -0.4432189963 -0.4025726366
| 17> H -1.0107916745 -1.009106864 -1.1715927502
| 18> *
| 19>
| 20>                          ****END OF INPUT****

CARTESIAN COORDINATES (ANGSTROEM)
---------------------------------
  C      1.460594   -0.344961   -0.495457
  C      0.676954    0.465279    0.528917
  C     -0.812335    0.328753    0.441644
  C     -1.489928   -0.409060   -0.417918
  H      1.255222   -1.406654   -0.382620
  H      2.527175   -0.185280   -0.357209
  H      1.196622   -0.042997   -1.506021
  H      0.925701    1.525740    0.421571
  H      0.984317    0.171458    1.537459
  H     -1.349283    0.913294    1.179550
  H     -2.566196   -0.443219   -0.402573
  H     -1.010792   -1.009107   -1.171593

 Total Charge           Charge          ....    0
 Multiplicity           Mult            ....    1
 Number of Electrons    NEL             ....   32
 Basis Dimension        Dim             ....  116

ORBITAL ENERGIES
----------------

  NO   OCC          E(Eh)            E(eV)
   0   2.0000     -10.033751      -273.0322
   1   2.0000     -10.032262      -272.9917
   2   2.0000     -10.018869      -272.6273
   3   2.0000     -10.015136      -272.5257
   4   2.0000      -0.769113       -20.9286
   5   2.0000      -0.691488       -18.8164
   6   2.0000      -0.607046       -16.5186
   7   2.0000      -0.504979       -13.7412
   8   2.0000      -0.443155       -12.0588
   9   2.0000      -0.420003       -11.4289
  10   2.0000      -0.392325       -10.6757
  11   2.0000      -0.356929        -9.7125
  12   2.0000      -0.325795        -8.8653
  13   2.0000      -0.318086        -8.6556
  14   2.0000      -0.301700        -8.2097
  15   2.0000      -0.235315        -6.4032
  16   0.0000      -0.006859        -0.1867
  17   0.0000       0.097812         2.6616
  18   0.0000       0.120919         3.2904
  19   0.0000       0.142827         3.8865
  20   0.0000       0.157065         4.2740

MULLIKEN ATOMIC CHARGES
-----------------------
   0 C :   -0.501861
   1 C :   -0.198751
   2 C :   -0.134690
   3 C :   -0.324986
   4 H :    0.152788
   5 H :    0.145280
   6 H :    0.152812
   7 H :    0.141704
   8 H :    0.141681
   9 H :    0.148372
  10 H :    0.138169
  11 H :    0.139482
Sum of atomic charges:   -0.0000000

LOEWDIN ATOMIC CHARGES
----------------------
   0 C :   -0.424135
   1 C :   -0.307699
   2 C :   -0.195922
   3 C :   -0.326246
   4 H :    0.153390
   5 H :    0.152455
   6 H :    0.153389
   7 H :    0.161576
   8 H :    0.161576
   9 H :    0.158953
  10 H :    0.156831
  11 H :    0.155834

  Mayer bond orders larger than 0.100000
B(  0-C ,  1-C ) :   0.8901 B(  0-C ,  4-H ) :   0.9786 B(  0-C ,  5-H ) :   0.9716
B(  0-C ,  6-H ) :   0.9786 B(  1-C ,  2-C ) :   0.9572 B(  1-C ,  7-H ) :   0.9611
B(  1-C ,  8-H ) :   0.9610 B(  2-C ,  3-C ) :   1.9492 B(  2-C ,  9-H ) :   0.9355
B(  3-C , 10-H ) :   0.9625 B(  3-C , 11-H ) :   0.9645

Dispersion correction           -0.002324174
FINAL SINGLE POINT ENERGY      -157.159000109769

DIPOLE MOMENT
-------------

Method             : SCF
Type of density    : Electron Density
Multiplicity       :   1
Irrep              :   0
Energy             :  -157.1613115948275663 Eh
Relativity type    :
Basis              : AO
                                X                 Y                 Z
Electronic contribution:     -1.670984626       0.526256802       0.726271275
Nuclear contribution   :      1.841410166      -0.447286267      -0.639302975
                        -----------------------------------------
Total Dipole Moment    :      0.170425541       0.078970535       0.086968300
                        -----------------------------------------
Magnitude (a.u.)       :      0.206989602
Magnitude (Debye)      :      0.526125757

Rotational constants in cm-1:             0.518079             0.187825             0.145283
Rotational constants in MHz :         15531.625140          5630.849798          4355.471908

                             ****ORCA TERMINATED NORMALLY****
TOTAL RUN TIME: 0 days 0 hours 0 minutes 8 seconds 463 msec
