                         Program Version 6.0.0  -   RELEASE  -
|  1> ! r2scan-3c def2/J RI DEFGRID2 scfconv6 printgap
|  2> %output
|  3>     printlevel normal
|  4> end
|  5> %cpcm
|  6>     smd true
|  7>     smdsolvent "water"
|  8> end
|  9> * xyz 0 1
| 10> C 1.460593808 -0.3449612943 -0.4954572858
| 11> C 0.6769539432 0.4652786658 0.5289173978
| 12> C -0.8123352565 0.3287531062 0.4416440444
| 13> C -1.489927706 -0.4090604608 -0.4179181331
| 14> H 1.2552219284 -1.4066542644 -0.3826197815
| 15> H 2.5271749549 -0.1852797608 -0.35720892
| 16> H 1.1966216793 -0.0429966307 -1.5060210018
| 17> H 0.9257005893 1.5257404202 0.4215714345
| 18> H 0.984316501 0.1714583236 1.5374585981
| 19> H -1.3492831085 0.9132938888 1.1795499407
| 20> H -2.5661957954 -0.4432189963 -0.4025726366
| 21> H -1.0107916745 -1.009106864 -1.1715927502
| 22> *
| 23>
| 24>                          ****END OF INPUT****

CARTESIAN COORDINATES (ANGSTROEM)
---------------------------------
  C      1.460594   -0.344961   -0.495457
  C      0.676954    0.465279    0.528917
  C     -0.812335    0.328753    0.441644
  C     -1.489928   -0.409060   -0.417918
  H      1.255222   -1.406654   -0.382620
  H      2.527175   -0.185280   -0.357209
  H      1.196622   -0.042997   -1.506021
  H      0.925701    1.525740    0.421571
  H      0.984317    0.171458    1.537459
  H     -1.349283    0.913294    1.179550
  H     -2.566196   -0.443219   -0.402573
  H     -1.010792   -1.009107   -1.171593

 Total Charge           Charge          ....    0
 Multiplicity           Mult            ....    1
 Number of Electrons    NEL             ....   32
 Basis Dimension        Dim             ....  116

ORBITAL ENERGIES
----------------

  NO   OCC          E(Eh)            E(eV)
   0   2.0000     -10.030548      -272.9451
   1   2.0000     -10.025740      -272.8142
   2   2.0000     -10.012301      -272.4486
   3   2.0000     -10.010228      -272.3921
   4   2.0000      -0.764795       -20.8111
   5   2.0000      -0.687078       -18.6963
   6   2.0000      -0.600758       -16.3475
   7   2.0000      -0.500170       -13.6103
   8   2.0000      -0.438448       -11.9308
   9   2.0000      -0.412379       -11.2214
  10   2.0000      -0.387591       -10.5469
  11   2.0000      -0.350518        -9.5381
  12   2.0000      -0.318037        -8.6542
  13   2.0000      -0.310538        -8.4502
  14   2.0000      -0.295973        -8.0538
  15   2.0000      -0.236535        -6.4364
  16   0.0000      -0.007332        -0.1995
  17   0.0000       0.104221         2.8360
  18   0.0000       0.129172         3.5150
  19   0.0000       0.149751         4.0749
  20   0.0000       0.162657         4.4261

MULLIKEN ATOMIC CHARGES
-----------------------
   0 C :   -0.518014
   1 C :   -0.216434
   2 C :   -0.159479
   3 C :   -0.403168
   4 H :    0.159012
   5 H :    0.158256
   6 H :    0.158973
   7 H :    0.159310
   8 H :    0.159209
   9 H :    0.173958
  10 H :    0.163904
  11 H :    0.164472
Sum of atomic charges:   -0.0000000

LOEWDIN ATOMIC CHARGES
----------------------
   0 C :   -0.430119
   1 C :   -0.310186
   2 C :   -0.200961
   3 C :   -0.352253
   4 H :    0.155116
   5 H :    0.156153
   6 H :    0.155089
   7 H :    0.168026
   8 H :    0.168002
   9 H :    0.166572
  10 H :    0.162426
  11 H :    0.162135

  Mayer bond orders larger than 0.100000
B(  0-C ,  1-C ) :   0.8843 B(  0-C ,  4-H ) :   0.9750 B(  0-C ,  5-H ) :   0.9693
B(  0-C ,  6-H ) :   0.9751 B(  1-C ,  2-C ) :   0.9436 B(  1-C ,  7-H ) :   0.9585
B(  1-C ,  8-H ) :   0.9585 B(  2-C ,  3-C ) :   1.9065 B(  2-C ,  9-H ) :   0.9368
B(  3-C , 10-H ) :   0.9624 B(  3-C , 11-H ) :   0.9649

Dispersion correction           -0.002324174
FINAL SINGLE POINT ENERGY      -157.157592057769

DIPOLE MOMENT
-------------

Method             : SCF
Type of density    : Electron Density
Multiplicity       :   1
Irrep              :   0
Energy             :  -157.1599035428272373 Eh
Relativity type    :
Basis              : AO
                                X                 Y                 Z
Electronic contribution:     -1.602174182       0.571407953       0.777655274
Nuclear contribution   :      1.841410166      -0.447286267      -0.639302975
                        -----------------------------------------
Total Dipole Moment    :      0.239235985       0.124121686       0.138352299
                        -----------------------------------------
Magnitude (a.u.)       :      0.302954465
Magnitude (Debye)      :      0.770049054

Rotational constants in cm-1:             0.518079             0.187825             0.145283
Rotational constants in MHz :         15531.625140          5630.849798          4355.471908

                             ****ORCA TERMINATED NORMALLY****
TOTAL RUN TIME: 0 days 0 hours 0 minutes 10 seconds 8 msec
