                         Program Version 6.0.0  -   RELEASE  -
|  1> ! pbe def2-sv(p) def2/J RI DEFGRID1 loosescf d4 GCP(DFT/SV(P)) printgap
|  2> %output
|  3>     printlevel normal
|  4> end
|  5> * xyz 0 1
|  6> C -2.5616651015 -0.6756544221 -0.3132085525
|  7> C -1.1734496819 -0.3100744106 0.2246287723
|  8> H -1.2144208887 -0.2530962507 1.3245090359
|  9> C -0.698197258 1.0425813773 -0.3428357045
| 10> H -0.6876254365 0.9670302826 -1.4371033514
| 11> C 0.7278493723 1.3351220079 0.1611074855
| 12> H 0.7212324861 1.4407731947 1.253155905
| 13> C 1.6463657691 0.1567740213 -0.1948476724
| 14> H 1.7362575422 0.0764186031 -1.2894537082
| 15> C 1.030705806 -1.1595325568 0.316516161
| 16> H 1.0191533885 -1.1303972628 1.4271184721
| 17> O -0.2818823102 -1.3449162324 -0.1564975003
| 18> O 1.8172643823 -2.1929050422 -0.1517126534
| 19> O 2.9009568451 0.3715395633 0.3939597671
| 20> O 1.2112417054 2.5632248673 -0.3065086905
| 21> O -1.5902880053 2.0819399679 -0.0500178476
| 22> O -3.1568247309 -1.7295608196 0.3955856392
| 23> H -2.4671604176 -0.9191127537 -1.3776806732
| 24> H -3.2181249831 0.188389011 -0.1982224868
| 25> H 1.396614151 -3.0467278504 0.0333068585
| 26> H 3.4788079303 -0.3780643965 0.1848214009
| 27> H 1.2914088177 2.5472524741 -1.2711239171
| 28> H -1.4728398895 2.3756951119 0.8650391846
| 29> H -2.6221363849 -2.5271351162 0.2757360821
| 30> *
| 31>
| 32>                          ****END OF INPUT****

CARTESIAN COORDINATES (ANGSTROEM)
---------------------------------
  C     -2.561665   -0.675654   -0.313209
  C     -1.173450   -0.310074    0.224629
  H     -1.214421   -0.253096    1.324509
  C     -0.698197    1.042581   -0.342836
  H     -0.687625    0.967030   -1.437103
  C      0.727849    1.335122    0.161107
  H      0.721232    1.440773    1.253156
  C      1.646366    0.156774   -0.194848
  H      1.736258    0.076419   -1.289454
  C      1.030706   -1.159533    0.316516
  H      1.019153   -1.130397    1.427118
  O     -0.281882   -1.344916   -0.156498
  O      1.817264   -2.192905   -0.151713
  O      2.900957    0.371540    0.393960
  O      1.211242    2.563225   -0.306509
  O     -1.590288    2.081940   -0.050018
  O     -3.156825   -1.729561    0.395586
  H     -2.467160   -0.919113   -1.377681
  H     -3.218125    0.188389   -0.198222
  H      1.396614   -3.046728    0.033307
  H      3.478808   -0.378064    0.184821
  H      1.291409    2.547252   -1.271124
  H     -1.472840    2.375695    0.865039
  H     -2.622136   -2.527135    0.275736

 Total Charge           Charge          ....    0
 Multiplicity           Mult            ....    1
 Number of Electrons    NEL             ....   96
 Basis Dimension        Dim             ....  192

ORBITAL ENERGIES
----------------

  NO   OCC          E(Eh)            E(eV)
   0   2.0000     -18.782325      -511.0930
   1   2.0000     -18.776608      -510.9375
   2   2.0000     -18.758476      -510.4441
   3   2.0000     -18.753669      -510.3133
   4   2.0000     -18.749969      -510.2126
   5   2.0000     -18.746857      -510.1279
   6   2.0000      -9.994226      -271.9567
   7   2.0000      -9.948693      -270.7177
   8   2.0000      -9.947641      -270.6891
   9   2.0000      -9.946196      -270.6498
  10   2.0000      -9.946064      -270.6462
  11   2.0000      -9.930338      -270.2182
  12   2.0000      -0.994684       -27.0667
  13   2.0000      -0.947688       -25.7879
  14   2.0000      -0.939606       -25.5680
  15   2.0000      -0.928063       -25.2539
  16   2.0000      -0.919313       -25.0158
  17   2.0000      -0.916740       -24.9458
  18   2.0000      -0.707483       -19.2516
  19   2.0000      -0.695426       -18.9235
  20   2.0000      -0.619277       -16.8514
  21   2.0000      -0.590803       -16.0766
  22   2.0000      -0.562971       -15.3192
  23   2.0000      -0.547033       -14.8855
  24   2.0000      -0.512234       -13.9386
  25   2.0000      -0.499252       -13.5853
  26   2.0000      -0.473690       -12.8898
  27   2.0000      -0.462026       -12.5724
  28   2.0000      -0.448672       -12.2090
  29   2.0000      -0.435404       -11.8479
  30   2.0000      -0.422418       -11.4946
  31   2.0000      -0.406100       -11.0506
  32   2.0000      -0.386091       -10.5061
  33   2.0000      -0.373092       -10.1524
  34   2.0000      -0.372647       -10.1402
  35   2.0000      -0.351833        -9.5739
  36   2.0000      -0.327821        -8.9205
  37   2.0000      -0.322354        -8.7717
  38   2.0000      -0.308695        -8.4000
  39   2.0000      -0.290718        -7.9108
  40   2.0000      -0.286050        -7.7838
  41   2.0000      -0.275533        -7.4976
  42   2.0000      -0.265443        -7.2231
  43   2.0000      -0.249919        -6.8007
  44   2.0000      -0.230895        -6.2830
  45   2.0000      -0.226086        -6.1521
  46   2.0000      -0.216733        -5.8976
  47   2.0000      -0.204440        -5.5631
  48   0.0000       0.014583         0.3968
  49   0.0000       0.016887         0.4595
  50   0.0000       0.024643         0.6706
  51   0.0000       0.038270         1.0414
  52   0.0000       0.057059         1.5527

MULLIKEN ATOMIC CHARGES
-----------------------
   0 C :    0.098894
   1 C :   -0.020923
   2 H :    0.043401
   3 C :    0.052774
   4 H :    0.051316
   5 C :    0.084453
   6 H :    0.053615
   7 C :    0.035503
   8 H :    0.045720
   9 C :    0.171568
  10 H :    0.041200
  11 O :   -0.318373
  12 O :   -0.385941
  13 O :   -0.403489
  14 O :   -0.396032
  15 O :   -0.400436
  16 O :   -0.431525
  17 H :    0.070435
  18 H :    0.094115
  19 H :    0.310444
  20 H :    0.306689
  21 H :    0.298232
  22 H :    0.303720
  23 H :    0.294639
Sum of atomic charges:    0.0000000

LOEWDIN ATOMIC CHARGES
----------------------
   0 C :   -0.127079
   1 C :   -0.082291
   2 H :    0.099677
   3 C :   -0.079953
   4 H :    0.111641
   5 C :   -0.076402
   6 H :    0.114447
   7 C :   -0.087717
   8 H :    0.101338
   9 C :   -0.007595
  10 H :    0.081834
  11 O :   -0.160639
  12 O :   -0.299435
  13 O :   -0.311724
  14 O :   -0.302130
  15 O :   -0.301027
  16 O :   -0.334824
  17 H :    0.102229
  18 H :    0.121568
  19 H :    0.292674
  20 H :    0.288547
  21 H :    0.286584
  22 H :    0.289267
  23 H :    0.281008

  Mayer bond orders larger than 0.100000
B(  0-C ,  1-C ) :   1.0448 B(  0-C , 16-O ) :   1.0802 B(  0-C , 17-H ) :   0.9082
B(  0-C , 18-H ) :   0.9089 B(  1-C ,  2-H ) :   0.8695 B(  1-C ,  3-C ) :   0.9590
B(  1-C , 11-O ) :   0.9716 B(  3-C ,  4-H ) :   0.8648 B(  3-C ,  5-C ) :   0.9951
B(  3-C , 15-O ) :   1.0586 B(  5-C ,  6-H ) :   0.8643 B(  5-C ,  7-C ) :   0.9933
B(  5-C , 14-O ) :   1.0845 B(  7-C ,  8-H ) :   0.8642 B(  7-C ,  9-C ) :   0.9860
B(  7-C , 13-O ) :   1.0947 B(  9-C , 10-H ) :   0.8858 B(  9-C , 11-O ) :   1.0139
B(  9-C , 12-O ) :   1.1645 B( 12-O , 19-H ) :   0.8372 B( 13-O , 20-H ) :   0.8397
B( 14-O , 21-H ) :   0.8494 B( 15-O , 22-H ) :   0.8453 B( 16-O , 23-H ) :   0.8515

Dispersion correction           -0.023572810
FINAL SINGLE POINT ENERGY      -685.695617023443

DIPOLE MOMENT
-------------

Method             : SCF
Type of density    : Electron Density
Multiplicity       :   1
Irrep              :   0
Energy             :  -685.8245435249050388 Eh
Relativity type    :
Basis              : AO
                                X                 Y                 Z
Electronic contribution:      2.286854839      -0.314731776       0.071050952
Nuclear contribution   :     -1.899432865      -0.621944272      -0.195070301
                        -----------------------------------------
Total Dipole Moment    :      0.387421975      -0.936676047      -0.124019349
                        -----------------------------------------
Magnitude (a.u.)       :      1.021194694
Magnitude (Debye)      :      2.595670631

Rotational constants in cm-1:             0.039315             0.025671             0.016276
Rotational constants in MHz :          1178.626917           769.599520           487.950562

                             ****ORCA TERMINATED NORMALLY****
TOTAL RUN TIME: 0 days 0 hours 0 minutes 11 seconds 805 msec
