                         Program Version 6.0.0  -   RELEASE  -
|  1> ! pbe def2-sv(p) def2/J RI DEFGRID1 loosescf d4 GCP(DFT/SV(P)) printgap
|  2> %output
|  3>     printlevel normal
|  4> end
|  5> * xyz 0 1
|  6> C -2.3177141423 -0.1992531209 -0.5653209105
|  7> C -1.2768867745 -0.5865667287 0.4869997615
|  8> C 0.0081086312 0.1611470933 0.2414200328
|  9> O 0.1257129879 1.3682954049 0.2802800009
| 10> O 1.0046826654 -0.6660865307 -0.0485796204
| 11> C 2.2981625376 -0.120802312 -0.3278095467
| 12> H -2.4553691712 0.8793935734 -0.5703350856
| 13> H -1.994176099 -0.5125621428 -1.5548221157
| 14> H -3.2664748616 -0.6760303788 -0.3396931721
| 15> H -1.0708292639 -1.6553387845 0.4593095529
| 16> H -1.6414995781 -0.3070314081 1.4763978245
| 17> H 2.7190839838 -0.7173095277 -1.1328130181
| 18> H 2.9138177366 -0.1998218895 0.5675873662
| 19> H 2.2041546395 0.9254524938 -0.6207836934
| 20> *
| 21>
| 22>                          ****END OF INPUT****

CARTESIAN COORDINATES (ANGSTROEM)
---------------------------------
  C     -2.317714   -0.199253   -0.565321
  C     -1.276887   -0.586567    0.487000
  C      0.008109    0.161147    0.241420
  O      0.125713    1.368295    0.280280
  O      1.004683   -0.666087   -0.048580
  C      2.298163   -0.120802   -0.327810
  H     -2.455369    0.879394   -0.570335
  H     -1.994176   -0.512562   -1.554822
  H     -3.266475   -0.676030   -0.339693
  H     -1.070829   -1.655339    0.459310
  H     -1.641500   -0.307031    1.476398
  H      2.719084   -0.717310   -1.132813
  H      2.913818   -0.199822    0.567587
  H      2.204155    0.925452   -0.620784

 Total Charge           Charge          ....    0
 Multiplicity           Mult            ....    1
 Number of Electrons    NEL             ....   48
 Basis Dimension        Dim             ....  100

ORBITAL ENERGIES
----------------

  NO   OCC          E(Eh)            E(eV)
   0   2.0000     -18.800051      -511.5754
   1   2.0000     -18.730628      -509.6863
   2   2.0000     -10.004686      -272.2414
   3   2.0000      -9.940393      -270.4918
   4   2.0000      -9.898691      -269.3571
   5   2.0000      -9.885099      -268.9872
   6   2.0000      -1.004732       -27.3401
   7   2.0000      -0.908353       -24.7175
   8   2.0000      -0.714178       -19.4338
   9   2.0000      -0.658983       -17.9318
  10   2.0000      -0.573301       -15.6003
  11   2.0000      -0.504799       -13.7363
  12   2.0000      -0.448897       -12.2151
  13   2.0000      -0.434233       -11.8161
  14   2.0000      -0.421126       -11.4594
  15   2.0000      -0.396736       -10.7957
  16   2.0000      -0.377608       -10.2752
  17   2.0000      -0.360879        -9.8200
  18   2.0000      -0.332279        -9.0418
  19   2.0000      -0.320982        -8.7344
  20   2.0000      -0.310001        -8.4356
  21   2.0000      -0.295135        -8.0310
  22   2.0000      -0.255641        -6.9563
  23   2.0000      -0.218448        -5.9443
  24   0.0000      -0.019385        -0.5275
  25   0.0000       0.047063         1.2807
  26   0.0000       0.064331         1.7505
  27   0.0000       0.084812         2.3079
  28   0.0000       0.093303         2.5389

MULLIKEN ATOMIC CHARGES
-----------------------
   0 C :   -0.298985
   1 C :   -0.151545
   2 C :    0.094998
   3 O :   -0.209925
   4 O :   -0.238351
   5 C :   -0.127861
   6 H :    0.123880
   7 H :    0.108954
   8 H :    0.111945
   9 H :    0.098190
  10 H :    0.114114
  11 H :    0.121923
  12 H :    0.121378
  13 H :    0.131285
Sum of atomic charges:    0.0000000

LOEWDIN ATOMIC CHARGES
----------------------
   0 C :   -0.331335
   1 C :   -0.252199
   2 C :    0.035652
   3 O :   -0.173809
   4 O :   -0.073797
   5 C :   -0.208437
   6 H :    0.127641
   7 H :    0.121654
   8 H :    0.122650
   9 H :    0.127516
  10 H :    0.140190
  11 H :    0.120684
  12 H :    0.120147
  13 H :    0.123443

  Mayer bond orders larger than 0.100000
B(  0-C ,  1-C ) :   1.1414 B(  0-C ,  6-H ) :   0.9497 B(  0-C ,  7-H ) :   0.9569
B(  0-C ,  8-H ) :   0.9533 B(  1-C ,  2-C ) :   1.0176 B(  1-C ,  9-H ) :   0.9141
B(  1-C , 10-H ) :   0.9042 B(  2-C ,  3-O ) :   2.0599 B(  2-C ,  4-O ) :   1.2203
B(  4-O ,  5-C ) :   0.9369 B(  5-C , 11-H ) :   0.9609 B(  5-C , 12-H ) :   0.9599
B(  5-C , 13-H ) :   0.9328

Dispersion correction           -0.009073555
FINAL SINGLE POINT ENERGY      -307.025866567342

DIPOLE MOMENT
-------------

Method             : SCF
Type of density    : Electron Density
Multiplicity       :   1
Irrep              :   0
Energy             :  -307.0802307425383333 Eh
Relativity type    :
Basis              : AO
                                X                 Y                 Z
Electronic contribution:      2.635778943       1.460936094       1.479897954
Nuclear contribution   :     -2.414290486      -2.112888159      -1.605668356
                        -----------------------------------------
Total Dipole Moment    :      0.221488457      -0.651952065      -0.125770402
                        -----------------------------------------
Magnitude (a.u.)       :      0.699940587
Magnitude (Debye)      :      1.779107584

Rotational constants in cm-1:             0.259486             0.074502             0.065264
Rotational constants in MHz :          7779.187306          2233.510402          1956.578378

                             ****ORCA TERMINATED NORMALLY****
TOTAL RUN TIME: 0 days 0 hours 0 minutes 6 seconds 973 msec
