                         Program Version 6.0.0  -   RELEASE  -
|  1> ! pbe def2-sv(p) def2/J RI DEFGRID1 loosescf d4 GCP(DFT/SV(P)) printgap
|  2> %output
|  3>     printlevel normal
|  4> end
|  5> * xyz 0 1
|  6> C 1.8947826334 -1.4645776963 6.2843e-06
|  7> C 2.580862622 -0.2472598698 1.72721e-05
|  8> C 1.8968166311 0.9449452513 1.90579e-05
|  9> C 0.4954435424 0.979402105 -7.50235e-05
| 10> C -0.1927730808 -0.2574513177 -6.12666e-05
| 11> C 0.5247693696 -1.4662372987 -3.09767e-05
| 12> N -1.5931837128 -0.3242396181 5.824e-06
| 13> O -2.1449972958 -1.4160152349 3.60766e-05
| 14> O -2.2428478438 0.7287681204 1.31542e-05
| 15> O -0.0883916261 2.1711884889 1.6619e-05
| 16> H 2.4379845536 -2.3944315472 1.723e-05
| 17> H 3.6589519853 -0.241125547 0.0001531803
| 18> H 2.4112250745 1.8919381735 0.0002371459
| 19> H -0.041215386 -2.3847511174 1.45309e-05
| 20> H -1.0694301339 2.0863633046 -6.29056e-05
| 21> *
| 22>
| 23>                          ****END OF INPUT****

CARTESIAN COORDINATES (ANGSTROEM)
---------------------------------
  C      1.894783   -1.464578    0.000006
  C      2.580863   -0.247260    0.000017
  C      1.896817    0.944945    0.000019
  C      0.495444    0.979402   -0.000075
  C     -0.192773   -0.257451   -0.000061
  C      0.524769   -1.466237   -0.000031
  N     -1.593184   -0.324240    0.000006
  O     -2.144997   -1.416015    0.000036
  O     -2.242848    0.728768    0.000013
  O     -0.088392    2.171188    0.000017
  H      2.437985   -2.394432    0.000017
  H      3.658952   -0.241126    0.000153
  H      2.411225    1.891938    0.000237
  H     -0.041215   -2.384751    0.000015
  H     -1.069430    2.086363   -0.000063

 Total Charge           Charge          ....    0
 Multiplicity           Mult            ....    1
 Number of Electrons    NEL             ....   72
 Basis Dimension        Dim             ....  150

ORBITAL ENERGIES
----------------

  NO   OCC          E(Eh)            E(eV)
   0   2.0000     -18.804968      -511.7092
   1   2.0000     -18.790731      -511.3218
   2   2.0000     -18.783679      -511.1299
   3   2.0000     -14.220180      -386.9508
   4   2.0000      -9.995284      -271.9855
   5   2.0000      -9.959351      -271.0077
   6   2.0000      -9.925230      -270.0793
   7   2.0000      -9.923886      -270.0427
   8   2.0000      -9.915530      -269.8153
   9   2.0000      -9.913753      -269.7669
  10   2.0000      -1.136781       -30.9334
  11   2.0000      -0.996166       -27.1071
  12   2.0000      -0.961417       -26.1615
  13   2.0000      -0.812829       -22.1182
  14   2.0000      -0.750305       -20.4168
  15   2.0000      -0.696613       -18.9558
  16   2.0000      -0.643412       -17.5081
  17   2.0000      -0.576925       -15.6989
  18   2.0000      -0.570071       -15.5124
  19   2.0000      -0.507282       -13.8038
  20   2.0000      -0.499090       -13.5809
  21   2.0000      -0.496387       -13.5074
  22   2.0000      -0.470310       -12.7978
  23   2.0000      -0.447235       -12.1699
  24   2.0000      -0.433149       -11.7866
  25   2.0000      -0.408731       -11.1221
  26   2.0000      -0.393696       -10.7130
  27   2.0000      -0.362867        -9.8741
  28   2.0000      -0.358582        -9.7575
  29   2.0000      -0.327951        -8.9240
  30   2.0000      -0.325060        -8.8453
  31   2.0000      -0.279267        -7.5992
  32   2.0000      -0.268644        -7.3102
  33   2.0000      -0.262457        -7.1418
  34   2.0000      -0.245645        -6.6843
  35   2.0000      -0.227151        -6.1811
  36   0.0000      -0.124506        -3.3880
  37   0.0000      -0.051572        -1.4033
  38   0.0000      -0.034401        -0.9361
  39   0.0000       0.031148         0.8476
  40   0.0000       0.066036         1.7969

MULLIKEN ATOMIC CHARGES
-----------------------
   0 C :   -0.052360
   1 C :    0.000872
   2 C :   -0.157216
   3 C :    0.138896
   4 C :    0.112242
   5 C :   -0.109777
   6 N :    0.230746
   7 O :   -0.211406
   8 O :   -0.271773
   9 O :   -0.276878
  10 H :    0.066154
  11 H :    0.071532
  12 H :    0.061992
  13 H :    0.073127
  14 H :    0.323849
Sum of atomic charges:   -0.0000000

LOEWDIN ATOMIC CHARGES
----------------------
   0 C :   -0.137917
   1 C :   -0.087165
   2 C :   -0.139323
   3 C :    0.042950
   4 C :   -0.089140
   5 C :   -0.097303
   6 N :    0.265439
   7 O :   -0.180532
   8 O :   -0.223119
   9 O :   -0.194964
  10 H :    0.132017
  11 H :    0.133464
  12 H :    0.139990
  13 H :    0.144709
  14 H :    0.290895

  Mayer bond orders larger than 0.100000
B(  0-C ,  1-C ) :   1.2796 B(  0-C ,  5-C ) :   1.3806 B(  0-C , 10-H ) :   0.9685
B(  1-C ,  2-C ) :   1.4080 B(  1-C , 11-H ) :   0.9678 B(  2-C ,  3-C ) :   1.3195
B(  2-C ,  5-C ) :   0.1049 B(  2-C , 12-H ) :   0.9607 B(  3-C ,  4-C ) :   1.1982
B(  3-C ,  9-O ) :   1.3688 B(  4-C ,  5-C ) :   1.3237 B(  4-C ,  6-N ) :   0.9562
B(  5-C , 13-H ) :   0.9468 B(  6-N ,  7-O ) :   1.5525 B(  6-N ,  8-O ) :   1.4020
B(  7-O ,  8-O ) :   0.2667 B(  8-O , 14-H ) :   0.1371 B(  9-O , 14-H ) :   0.7546

Dispersion correction           -0.016488845
FINAL SINGLE POINT ENERGY      -510.979649194322

DIPOLE MOMENT
-------------

Method             : SCF
Type of density    : Electron Density
Multiplicity       :   1
Irrep              :   0
Energy             :  -511.0324951257712200 Eh
Relativity type    :
Basis              : AO
                                X                 Y                 Z
Electronic contribution:     -5.584889420       0.918884409      -0.000332818
Nuclear contribution   :      6.865076235      -0.957385705       0.000337983
                        -----------------------------------------
Total Dipole Moment    :      1.280186815      -0.038501296       0.000005165
                        -----------------------------------------
Magnitude (a.u.)       :      1.280765643
Magnitude (Debye)      :      3.255447549

Rotational constants in cm-1:             0.079368             0.043301             0.028016
Rotational constants in MHz :          2379.403663          1298.127904           839.903135

                             ****ORCA TERMINATED NORMALLY****
TOTAL RUN TIME: 0 days 0 hours 0 minutes 10 seconds 687 msec
