                         Program Version 6.0.0  -   RELEASE  -
|  1> ! wb97x-v def2-tzvp def2/J RIJCOSX DEFGRID2 scfconv7 GCP(DFT/TZ) printgap
|  2> %output
|  3>     printlevel normal
|  4> end
|  5> * xyz 0 1
|  6> C -2.991373395393417 1.2402771845960727 -4.9694365990335513e-05
|  7> C -1.7555299140867826 0.3838239730862347 0.00026755783883630464
|  8> C -1.833351570436208 -1.0065074141688932 -0.0003573888679960845
|  9> C -0.6767948817570293 -1.7904344206074458 -0.0005808740587496823
| 10> C 0.5690159070536682 -1.1887424215826037 -0.0001713082534917965
| 11> C 0.6653750768422977 0.21482818590535474 0.00040824712811391806
| 12> C -0.48850040884094814 0.9884810556993043 0.0006801029043394474
| 13> O 1.9490735284294645 0.6983677563341342 0.0008145376600945715
| 14> C 2.1146203957284855 2.1251304728225398 -0.0016727371142440939
| 15> O 1.7035347901303919 -1.9742324159711877 -0.0002969866317131172
| 16> H -3.0260237212268795 1.8869165203196978 -0.8838956325485249
| 17> H -3.8942633961641278 0.6245865068148047 0.005486156702627098
| 18> H -3.0206569394412424 1.8954010522724356 0.8776596545960186
| 19> H -2.804249199040716 -1.4925619174514682 -0.0006982672937224242
| 20> H -0.7375450026837836 -2.8743452233656046 -0.0010685045636709969
| 21> H -0.41853023276054097 2.0707651508515843 0.001271520044343919
| 22> H 3.1912964873761824 2.2967515535084866 -0.0028770838975900755
| 23> H 1.670587468660845 2.570191383669099 0.8955076171899997
| 24> H 1.669021883924558 2.567112103047543 -0.8995937594477139
| 25> H 2.4765950268629506 -1.3899714940576122 -0.00024159453042931883
| 26> *
| 27>
| 28>                          ****END OF INPUT****

CARTESIAN COORDINATES (ANGSTROEM)
---------------------------------
  C     -2.991373    1.240277   -0.000050
  C     -1.755530    0.383824    0.000268
  C     -1.833352   -1.006507   -0.000357
  C     -0.676795   -1.790434   -0.000581
  C      0.569016   -1.188742   -0.000171
  C      0.665375    0.214828    0.000408
  C     -0.488500    0.988481    0.000680
  O      1.949074    0.698368    0.000815
  C      2.114620    2.125130   -0.001673
  O      1.703535   -1.974232   -0.000297
  H     -3.026024    1.886917   -0.883896
  H     -3.894263    0.624587    0.005486
  H     -3.020657    1.895401    0.877660
  H     -2.804249   -1.492562   -0.000698
  H     -0.737545   -2.874345   -0.001069
  H     -0.418530    2.070765    0.001272
  H      3.191296    2.296752   -0.002877
  H      1.670587    2.570191    0.895508
  H      1.669022    2.567112   -0.899594
  H      2.476595   -1.389971   -0.000242

 Total Charge           Charge          ....    0
 Multiplicity           Mult            ....    1
 Number of Electrons    NEL             ....   74
 Basis Dimension        Dim             ....  370

ORBITAL ENERGIES
----------------

  NO   OCC          E(Eh)            E(eV)
   0   2.0000     -21.714707      -590.8872
   1   2.0000     -21.691604      -590.2586
   2   2.0000     -12.111273      -329.5645
   3   2.0000     -12.110243      -329.5365
   4   2.0000     -12.103060      -329.3410
   5   2.0000     -12.054329      -328.0150
   6   2.0000     -12.048378      -327.8530
   7   2.0000     -12.043694      -327.7256
   8   2.0000     -12.041564      -327.6676
   9   2.0000     -12.040744      -327.6453
  10   2.0000      -1.728849       -47.0444
  11   2.0000      -1.702066       -46.3156
  12   2.0000      -1.386600       -37.7313
  13   2.0000      -1.307733       -35.5852
  14   2.0000      -1.286928       -35.0191
  15   2.0000      -1.236709       -33.6526
  16   2.0000      -1.198782       -32.6205
  17   2.0000      -1.127996       -30.6943
  18   2.0000      -1.111145       -30.2358
  19   2.0000      -1.085104       -29.5272
  20   2.0000      -1.031569       -28.0704
  21   2.0000      -1.003527       -27.3074
  22   2.0000      -0.989909       -26.9368
  23   2.0000      -0.981108       -26.6973
  24   2.0000      -0.934469       -25.4282
  25   2.0000      -0.933750       -25.4086
  26   2.0000      -0.908820       -24.7303
  27   2.0000      -0.892472       -24.2854
  28   2.0000      -0.845865       -23.0171
  29   2.0000      -0.837905       -22.8005
  30   2.0000      -0.837101       -22.7787
  31   2.0000      -0.831965       -22.6389
  32   2.0000      -0.827051       -22.5052
  33   2.0000      -0.805363       -21.9151
  34   2.0000      -0.754744       -20.5376
  35   2.0000      -0.639114       -17.3912
  36   2.0000      -0.628655       -17.1066
  37   0.0000      -0.244730        -6.6594
  38   0.0000      -0.243967        -6.6387
  39   0.0000      -0.204585        -5.5670
  40   0.0000      -0.145381        -3.9560
  41   0.0000      -0.093023        -2.5313

MULLIKEN ATOMIC CHARGES
-----------------------
   0 C :   -0.370012
   1 C :    0.140799
   2 C :   -0.203664
   3 C :   -0.177387
   4 C :    0.100194
   5 C :    0.340628
   6 C :   -0.332567
   7 O :   -0.313196
   8 C :   -0.215939
   9 O :   -0.398993
  10 H :    0.119561
  11 H :    0.115792
  12 H :    0.119447
  13 H :    0.109028
  14 H :    0.119046
  15 H :    0.130986
  16 H :    0.137516
  17 H :    0.127348
  18 H :    0.127414
  19 H :    0.323998
Sum of atomic charges:   -0.0000000

LOEWDIN ATOMIC CHARGES
----------------------
   0 C :   -0.254786
   1 C :   -0.181648
   2 C :   -0.131473
   3 C :   -0.118465
   4 C :   -0.239517
   5 C :   -0.234298
   6 C :   -0.119065
   7 O :    0.195950
   8 C :   -0.305546
   9 O :    0.060889
  10 H :    0.124748
  11 H :    0.124427
  12 H :    0.124710
  13 H :    0.142347
  14 H :    0.148631
  15 H :    0.147737
  16 H :    0.112834
  17 H :    0.108120
  18 H :    0.108155
  19 H :    0.186251

  Mayer bond orders larger than 0.100000
B(  0-C ,  1-C ) :   0.9124 B(  0-C , 10-H ) :   0.9777 B(  0-C , 11-H ) :   0.9951
B(  0-C , 12-H ) :   0.9782 B(  1-C ,  2-C ) :   1.4668 B(  1-C ,  6-C ) :   1.3512
B(  2-C ,  3-C ) :   1.3950 B(  2-C , 13-H ) :   0.9710 B(  3-C ,  4-C ) :   1.4934
B(  3-C , 14-H ) :   0.9774 B(  4-C ,  5-C ) :   1.2507 B(  4-C ,  9-O ) :   1.2020
B(  5-C ,  6-C ) :   1.3498 B(  5-C ,  7-O ) :   1.0418 B(  6-C , 15-H ) :   0.9503
B(  7-O ,  8-C ) :   0.9521 B(  8-C , 16-H ) :   0.9770 B(  8-C , 17-H ) :   0.9740
B(  8-C , 18-H ) :   0.9740 B(  9-O , 19-H ) :   0.8724

FINAL SINGLE POINT ENERGY      -461.336272343452

DIPOLE MOMENT
-------------

Method             : SCF
Type of density    : Electron Density
Multiplicity       :   1
Irrep              :   0
Energy             :  -461.3486007450521811 Eh
Relativity type    :
Basis              : AO
                                X                 Y                 Z
Electronic contribution:      4.717498852      -6.527314575       0.005319621
Nuclear contribution   :     -4.584765807       7.671292100      -0.006696022
                        -----------------------------------------
Total Dipole Moment    :      0.132733045       1.143977525      -0.001376402
                        -----------------------------------------
Magnitude (a.u.)       :      1.151652957
Magnitude (Debye)      :      2.927269183

Rotational constants in cm-1:             0.062250             0.039112             0.024240
Rotational constants in MHz :          1866.195522          1172.560883           726.708898

                             ****ORCA TERMINATED NORMALLY****
TOTAL RUN TIME: 0 days 0 hours 4 minutes 12 seconds 916 msec
