                         Program Version 6.0.0  -   RELEASE  -
|  1> ! wb97x-v def2-tzvp def2/J RIJCOSX DEFGRID2 scfconv7 GCP(DFT/TZ) printgap
|  2> %output
|  3>     printlevel normal
|  4> end
|  5> %cpcm
|  6>     smd true
|  7>     smdsolvent "water"
|  8> end
|  9> * xyz 0 1
| 10> C -2.991373395393417 1.2402771845960727 -4.9694365990335513e-05
| 11> C -1.7555299140867826 0.3838239730862347 0.00026755783883630464
| 12> C -1.833351570436208 -1.0065074141688932 -0.0003573888679960845
| 13> C -0.6767948817570293 -1.7904344206074458 -0.0005808740587496823
| 14> C 0.5690159070536682 -1.1887424215826037 -0.0001713082534917965
| 15> C 0.6653750768422977 0.21482818590535474 0.00040824712811391806
| 16> C -0.48850040884094814 0.9884810556993043 0.0006801029043394474
| 17> O 1.9490735284294645 0.6983677563341342 0.0008145376600945715
| 18> C 2.1146203957284855 2.1251304728225398 -0.0016727371142440939
| 19> O 1.7035347901303919 -1.9742324159711877 -0.0002969866317131172
| 20> H -3.0260237212268795 1.8869165203196978 -0.8838956325485249
| 21> H -3.8942633961641278 0.6245865068148047 0.005486156702627098
| 22> H -3.0206569394412424 1.8954010522724356 0.8776596545960186
| 23> H -2.804249199040716 -1.4925619174514682 -0.0006982672937224242
| 24> H -0.7375450026837836 -2.8743452233656046 -0.0010685045636709969
| 25> H -0.41853023276054097 2.0707651508515843 0.001271520044343919
| 26> H 3.1912964873761824 2.2967515535084866 -0.0028770838975900755
| 27> H 1.670587468660845 2.570191383669099 0.8955076171899997
| 28> H 1.669021883924558 2.567112103047543 -0.8995937594477139
| 29> H 2.4765950268629506 -1.3899714940576122 -0.00024159453042931883
| 30> *
| 31>
| 32>                          ****END OF INPUT****

CARTESIAN COORDINATES (ANGSTROEM)
---------------------------------
  C     -2.991373    1.240277   -0.000050
  C     -1.755530    0.383824    0.000268
  C     -1.833352   -1.006507   -0.000357
  C     -0.676795   -1.790434   -0.000581
  C      0.569016   -1.188742   -0.000171
  C      0.665375    0.214828    0.000408
  C     -0.488500    0.988481    0.000680
  O      1.949074    0.698368    0.000815
  C      2.114620    2.125130   -0.001673
  O      1.703535   -1.974232   -0.000297
  H     -3.026024    1.886917   -0.883896
  H     -3.894263    0.624587    0.005486
  H     -3.020657    1.895401    0.877660
  H     -2.804249   -1.492562   -0.000698
  H     -0.737545   -2.874345   -0.001069
  H     -0.418530    2.070765    0.001272
  H      3.191296    2.296752   -0.002877
  H      1.670587    2.570191    0.895508
  H      1.669022    2.567112   -0.899594
  H      2.476595   -1.389971   -0.000242

 Total Charge           Charge          ....    0
 Multiplicity           Mult            ....    1
 Number of Electrons    NEL             ....   74
 Basis Dimension        Dim             ....  370

ORBITAL ENERGIES
----------------

  NO   OCC          E(Eh)            E(eV)
   0   2.0000     -21.709246      -590.7386
   1   2.0000     -21.700118      -590.4902
   2   2.0000     -12.111616      -329.5738
   3   2.0000     -12.107078      -329.4503
   4   2.0000     -12.090152      -328.9898
   5   2.0000     -12.055145      -328.0372
   6   2.0000     -12.046711      -327.8077
   7   2.0000     -12.045898      -327.7855
   8   2.0000     -12.041460      -327.6648
   9   2.0000     -12.032871      -327.4311
  10   2.0000      -1.724919       -46.9374
  11   2.0000      -1.709584       -46.5201
  12   2.0000      -1.388730       -37.7893
  13   2.0000      -1.305750       -35.5313
  14   2.0000      -1.287905       -35.0457
  15   2.0000      -1.229152       -33.4469
  16   2.0000      -1.197630       -32.5892
  17   2.0000      -1.126696       -30.6590
  18   2.0000      -1.111253       -30.2387
  19   2.0000      -1.084337       -29.5063
  20   2.0000      -1.026088       -27.9213
  21   2.0000      -1.007635       -27.4191
  22   2.0000      -0.983662       -26.7668
  23   2.0000      -0.980877       -26.6910
  24   2.0000      -0.945117       -25.7180
  25   2.0000      -0.934181       -25.4203
  26   2.0000      -0.907768       -24.7016
  27   2.0000      -0.890424       -24.2297
  28   2.0000      -0.836770       -22.7697
  29   2.0000      -0.829774       -22.5793
  30   2.0000      -0.827607       -22.5203
  31   2.0000      -0.821306       -22.3489
  32   2.0000      -0.814844       -22.1730
  33   2.0000      -0.799771       -21.7629
  34   2.0000      -0.757055       -20.6005
  35   2.0000      -0.641860       -17.4659
  36   2.0000      -0.632317       -17.2062
  37   0.0000      -0.247978        -6.7478
  38   0.0000      -0.246606        -6.7105
  39   0.0000      -0.199421        -5.4265
  40   0.0000      -0.137657        -3.7458
  41   0.0000      -0.092341        -2.5127

MULLIKEN ATOMIC CHARGES
-----------------------
   0 C :   -0.397621
   1 C :    0.115134
   2 C :   -0.269074
   3 C :   -0.223132
   4 C :    0.124499
   5 C :    0.317655
   6 C :   -0.361916
   7 O :   -0.333422
   8 C :   -0.235216
   9 O :   -0.468493
  10 H :    0.139003
  11 H :    0.139793
  12 H :    0.139022
  13 H :    0.155768
  14 H :    0.153834
  15 H :    0.179970
  16 H :    0.159929
  17 H :    0.146961
  18 H :    0.146983
  19 H :    0.370323
Sum of atomic charges:   -0.0000000

LOEWDIN ATOMIC CHARGES
----------------------
   0 C :   -0.255830
   1 C :   -0.188685
   2 C :   -0.144625
   3 C :   -0.135799
   4 C :   -0.255356
   5 C :   -0.238848
   6 C :   -0.113862
   7 O :    0.188323
   8 C :   -0.299982
   9 O :    0.033783
  10 H :    0.130340
  11 H :    0.129278
  12 H :    0.130320
  13 H :    0.151922
  14 H :    0.155406
  15 H :    0.162012
  16 H :    0.118821
  17 H :    0.115369
  18 H :    0.115393
  19 H :    0.202021

  Mayer bond orders larger than 0.100000
B(  0-C ,  1-C ) :   0.9297 B(  0-C , 10-H ) :   0.9708 B(  0-C , 11-H ) :   0.9906
B(  0-C , 12-H ) :   0.9713 B(  1-C ,  2-C ) :   1.4406 B(  1-C ,  6-C ) :   1.3221
B(  2-C ,  3-C ) :   1.3847 B(  2-C , 13-H ) :   0.9775 B(  3-C ,  4-C ) :   1.4627
B(  3-C , 14-H ) :   0.9847 B(  4-C ,  5-C ) :   1.2454 B(  4-C ,  9-O ) :   1.1518
B(  5-C ,  6-C ) :   1.3502 B(  5-C ,  7-O ) :   1.0612 B(  6-C , 15-H ) :   0.9553
B(  7-O ,  8-C ) :   0.9186 B(  8-C , 16-H ) :   0.9689 B(  8-C , 17-H ) :   0.9706
B(  8-C , 18-H ) :   0.9706 B(  9-O , 19-H ) :   0.8415

FINAL SINGLE POINT ENERGY      -461.343538247055

DIPOLE MOMENT
-------------

Method             : SCF
Type of density    : Electron Density
Multiplicity       :   1
Irrep              :   0
Energy             :  -461.3558666486547963 Eh
Relativity type    :
Basis              : AO
                                X                 Y                 Z
Electronic contribution:      4.659340227      -6.031466183       0.004825431
Nuclear contribution   :     -4.584765807       7.671292100      -0.006696022
                        -----------------------------------------
Total Dipole Moment    :      0.074574421       1.639825918      -0.001870591
                        -----------------------------------------
Magnitude (a.u.)       :      1.641521819
Magnitude (Debye)      :      4.172416877

Rotational constants in cm-1:             0.062250             0.039112             0.024240
Rotational constants in MHz :          1866.195522          1172.560883           726.708898

                             ****ORCA TERMINATED NORMALLY****
TOTAL RUN TIME: 0 days 0 hours 4 minutes 38 seconds 221 msec
