                         Program Version 6.0.0  -   RELEASE  -
|  1> ! pbe def2-sv(p) def2/J RI DEFGRID1 loosescf d4 GCP(DFT/SV(P)) printgap
|  2> %output
|  3>     printlevel normal
|  4> end
|  5> * xyz 0 1
|  6> C -2.3951540952 -0.8327169438 0.4374188317
|  7> C -0.9305125836 -0.4046773726 0.5922843892
|  8> H -0.6268943926 -0.5590787633 1.6373416117
|  9> C -0.7250184052 1.0851726521 0.2295315377
| 10> H -1.5020170325 1.3954882296 -0.4792046727
| 11> C 0.6503195857 1.249834906 -0.4487235006
| 12> H 0.9729592227 2.2909129042 -0.3426409038
| 13> C 1.6720170934 0.3307611239 0.2532002997
| 14> H 2.6505546129 0.4614726629 -0.2245397928
| 15> C 1.2392462724 -1.1466508849 0.0451202357
| 16> H 1.4399150417 -1.7150810741 0.9686658625
| 17> O -0.142118575 -1.2311028159 -0.2559504927
| 18> O 1.9470029539 -1.7767197494 -0.9563425249
| 19> O 1.7114827626 0.6845607745 1.6145602513
| 20> O 0.6076781016 0.9779331473 -1.8269339487
| 21> O -0.8715077179 1.9161820281 1.3480759167
| 22> O -2.8368539987 -0.7504063619 -0.8931343043
| 23> H -3.0161521062 -0.147496174 1.0172376375
| 24> H -2.5149827504 -1.8506548449 0.8248743414
| 25> H 1.7879451607 -1.3327319113 -1.8054323578
| 26> H 2.5341130954 0.3773791639 2.0200716303
| 27> H 0.0013137519 0.2359995131 -1.9749046438
| 28> H -0.1232693025 1.7618606126 1.9479019653
| 29> H -2.3734836148 -1.4251055617 -1.4097485545
| 30> *
| 31>
| 32>                          ****END OF INPUT****

CARTESIAN COORDINATES (ANGSTROEM)
---------------------------------
  C     -2.395154   -0.832717    0.437419
  C     -0.930513   -0.404677    0.592284
  H     -0.626894   -0.559079    1.637342
  C     -0.725018    1.085173    0.229532
  H     -1.502017    1.395488   -0.479205
  C      0.650320    1.249835   -0.448724
  H      0.972959    2.290913   -0.342641
  C      1.672017    0.330761    0.253200
  H      2.650555    0.461473   -0.224540
  C      1.239246   -1.146651    0.045120
  H      1.439915   -1.715081    0.968666
  O     -0.142119   -1.231103   -0.255950
  O      1.947003   -1.776720   -0.956343
  O      1.711483    0.684561    1.614560
  O      0.607678    0.977933   -1.826934
  O     -0.871508    1.916182    1.348076
  O     -2.836854   -0.750406   -0.893134
  H     -3.016152   -0.147496    1.017238
  H     -2.514983   -1.850655    0.824874
  H      1.787945   -1.332732   -1.805432
  H      2.534113    0.377379    2.020072
  H      0.001314    0.236000   -1.974905
  H     -0.123269    1.761861    1.947902
  H     -2.373484   -1.425106   -1.409749

 Total Charge           Charge          ....    0
 Multiplicity           Mult            ....    1
 Number of Electrons    NEL             ....   96
 Basis Dimension        Dim             ....  192

ORBITAL ENERGIES
----------------

  NO   OCC          E(Eh)            E(eV)
   0   2.0000     -18.784515      -511.1526
   1   2.0000     -18.782791      -511.1057
   2   2.0000     -18.767054      -510.6775
   3   2.0000     -18.761202      -510.5183
   4   2.0000     -18.755005      -510.3496
   5   2.0000     -18.743588      -510.0390
   6   2.0000      -9.995626      -271.9948
   7   2.0000      -9.951508      -270.7943
   8   2.0000      -9.944997      -270.6171
   9   2.0000      -9.944159      -270.5943
  10   2.0000      -9.937661      -270.4175
  11   2.0000      -9.936064      -270.3740
  12   2.0000      -0.994486       -27.0613
  13   2.0000      -0.956699       -26.0331
  14   2.0000      -0.940021       -25.5793
  15   2.0000      -0.934950       -25.4413
  16   2.0000      -0.921713       -25.0811
  17   2.0000      -0.917869       -24.9765
  18   2.0000      -0.698340       -19.0028
  19   2.0000      -0.693207       -18.8631
  20   2.0000      -0.623533       -16.9672
  21   2.0000      -0.594087       -16.1659
  22   2.0000      -0.571398       -15.5485
  23   2.0000      -0.536982       -14.6120
  24   2.0000      -0.510550       -13.8928
  25   2.0000      -0.499637       -13.5958
  26   2.0000      -0.483888       -13.1673
  27   2.0000      -0.466100       -12.6832
  28   2.0000      -0.458111       -12.4658
  29   2.0000      -0.435422       -11.8484
  30   2.0000      -0.417895       -11.3715
  31   2.0000      -0.393646       -10.7117
  32   2.0000      -0.384095       -10.4518
  33   2.0000      -0.379324       -10.3219
  34   2.0000      -0.366673        -9.9777
  35   2.0000      -0.356638        -9.7046
  36   2.0000      -0.342241        -9.3128
  37   2.0000      -0.315977        -8.5982
  38   2.0000      -0.312226        -8.4961
  39   2.0000      -0.307912        -8.3787
  40   2.0000      -0.283441        -7.7128
  41   2.0000      -0.271407        -7.3854
  42   2.0000      -0.269118        -7.3231
  43   2.0000      -0.261517        -7.1162
  44   2.0000      -0.247095        -6.7238
  45   2.0000      -0.232031        -6.3139
  46   2.0000      -0.211559        -5.7568
  47   2.0000      -0.202187        -5.5018
  48   0.0000      -0.003175        -0.0864
  49   0.0000       0.014149         0.3850
  50   0.0000       0.037285         1.0146
  51   0.0000       0.047191         1.2841
  52   0.0000       0.060459         1.6452

MULLIKEN ATOMIC CHARGES
-----------------------
   0 C :    0.069967
   1 C :   -0.003572
   2 H :    0.054619
   3 C :    0.050399
   4 H :    0.083774
   5 C :    0.051303
   6 H :    0.081412
   7 C :   -0.016105
   8 H :    0.082657
   9 C :    0.197108
  10 H :    0.055834
  11 O :   -0.322500
  12 O :   -0.378230
  13 O :   -0.422238
  14 O :   -0.421588
  15 O :   -0.426537
  16 O :   -0.435794
  17 H :    0.101882
  18 H :    0.081174
  19 H :    0.294697
  20 H :    0.317429
  21 H :    0.298815
  22 H :    0.304812
  23 H :    0.300682
Sum of atomic charges:   -0.0000000

LOEWDIN ATOMIC CHARGES
----------------------
   0 C :   -0.122914
   1 C :   -0.084135
   2 H :    0.106553
   3 C :   -0.077585
   4 H :    0.120873
   5 C :   -0.071350
   6 H :    0.119548
   7 C :   -0.101374
   8 H :    0.112316
   9 C :   -0.002749
  10 H :    0.096864
  11 O :   -0.167622
  12 O :   -0.289108
  13 O :   -0.314028
  14 O :   -0.312203
  15 O :   -0.313701
  16 O :   -0.330588
  17 H :    0.124792
  18 H :    0.102712
  19 H :    0.279097
  20 H :    0.297085
  21 H :    0.269434
  22 H :    0.275204
  23 H :    0.282880

  Mayer bond orders larger than 0.100000
B(  0-C ,  1-C ) :   1.0375 B(  0-C , 16-O ) :   1.0679 B(  0-C , 17-H ) :   0.9198
B(  0-C , 18-H ) :   0.9160 B(  1-C ,  2-H ) :   0.8621 B(  1-C ,  3-C ) :   0.9719
B(  1-C , 11-O ) :   0.9970 B(  3-C ,  4-H ) :   0.8847 B(  3-C ,  5-C ) :   1.0020
B(  3-C , 15-O ) :   1.0490 B(  5-C ,  6-H ) :   0.8904 B(  5-C ,  7-C ) :   0.9810
B(  5-C , 14-O ) :   1.0453 B(  7-C ,  8-H ) :   0.9017 B(  7-C ,  9-C ) :   0.9221
B(  7-C , 13-O ) :   1.0353 B(  9-C , 10-H ) :   0.9018 B(  9-C , 11-O ) :   1.0051
B(  9-C , 12-O ) :   1.1578 B( 12-O , 19-H ) :   0.8304 B( 13-O , 20-H ) :   0.8397
B( 14-O , 21-H ) :   0.8219 B( 15-O , 22-H ) :   0.8261 B( 16-O , 23-H ) :   0.8445

Dispersion correction           -0.025320412
FINAL SINGLE POINT ENERGY      -685.695282838657

DIPOLE MOMENT
-------------

Method             : SCF
Type of density    : Electron Density
Multiplicity       :   1
Irrep              :   0
Energy             :  -685.8277979277239638 Eh
Relativity type    :
Basis              : AO
                                X                 Y                 Z
Electronic contribution:      1.639711482      -0.140005376      -1.521962830
Nuclear contribution   :     -0.716231269      -0.478345300       2.030490360
                        -----------------------------------------
Total Dipole Moment    :      0.923480213      -0.618350675       0.508527531
                        -----------------------------------------
Magnitude (a.u.)       :      1.222200275
Magnitude (Debye)      :      3.106586214

Rotational constants in cm-1:             0.038968             0.028772             0.023107
Rotational constants in MHz :          1168.241837           862.556217           692.738781

                             ****ORCA TERMINATED NORMALLY****
TOTAL RUN TIME: 0 days 0 hours 0 minutes 12 seconds 51 msec
