                         Program Version 6.0.0  -   RELEASE  -
|  1> ! pbe def2-sv(p) def2/J RI DEFGRID1 loosescf d4 GCP(DFT/SV(P)) printgap
|  2> %output
|  3>     printlevel normal
|  4> end
|  5> * xyz 0 1
|  6> C -1.74970513 -1.382490126 -0.4807967434
|  7> C -1.133941597 -0.4820980422 0.6079266116
|  8> H -1.8403296828 -0.3767765743 1.4394558499
|  9> C -0.846890894 0.9368401839 0.0779600429
| 10> H -1.1204380119 0.9839648309 -0.9884383516
| 11> C 0.6483017265 1.262149679 0.2238009412
| 12> H 0.8782027535 1.3560474949 1.2927340125
| 13> C 1.4613055284 0.1098486136 -0.3777266131
| 14> H 1.1465264821 -0.0696838151 -1.412719286
| 15> C 1.1749930547 -1.1751326107 0.4318968034
| 16> H 1.9719244901 -1.3122666175 1.178627784
| 17> O 0.0042825335 -1.0834477722 1.2115205291
| 18> O 1.1433828563 -2.2456531914 -0.4572429582
| 19> O 2.8306884317 0.3918576719 -0.4561105305
| 20> O 0.9626353778 2.5090630821 -0.3397630258
| 21> O -1.6377731592 1.8462840269 0.8061676001
| 22> O -2.8676522357 -0.7960174884 -1.093899894
| 23> H -2.0032827297 -2.3505355396 -0.0319704626
| 24> H -1.0210383187 -1.5498814399 -1.2771821527
| 25> H 1.1422697583 -3.087766399 0.0229458451
| 26> H 3.1538910842 0.7244854557 0.3945027927
| 27> H 1.0073330845 2.4348761523 -1.3041123914
| 28> H -1.3479120223 2.7473013483 0.5953695214
| 29> H -3.5671136347 -0.6649406837 -0.438026844
| 30> *
| 31>
| 32>                          ****END OF INPUT****

CARTESIAN COORDINATES (ANGSTROEM)
---------------------------------
  C     -1.749705   -1.382490   -0.480797
  C     -1.133942   -0.482098    0.607927
  H     -1.840330   -0.376777    1.439456
  C     -0.846891    0.936840    0.077960
  H     -1.120438    0.983965   -0.988438
  C      0.648302    1.262150    0.223801
  H      0.878203    1.356047    1.292734
  C      1.461306    0.109849   -0.377727
  H      1.146526   -0.069684   -1.412719
  C      1.174993   -1.175133    0.431897
  H      1.971924   -1.312267    1.178628
  O      0.004283   -1.083448    1.211521
  O      1.143383   -2.245653   -0.457243
  O      2.830688    0.391858   -0.456111
  O      0.962635    2.509063   -0.339763
  O     -1.637773    1.846284    0.806168
  O     -2.867652   -0.796017   -1.093900
  H     -2.003283   -2.350536   -0.031970
  H     -1.021038   -1.549881   -1.277182
  H      1.142270   -3.087766    0.022946
  H      3.153891    0.724485    0.394503
  H      1.007333    2.434876   -1.304112
  H     -1.347912    2.747301    0.595370
  H     -3.567114   -0.664941   -0.438027

 Total Charge           Charge          ....    0
 Multiplicity           Mult            ....    1
 Number of Electrons    NEL             ....   96
 Basis Dimension        Dim             ....  192

ORBITAL ENERGIES
----------------

  NO   OCC          E(Eh)            E(eV)
   0   2.0000     -18.770640      -510.7751
   1   2.0000     -18.766583      -510.6647
   2   2.0000     -18.761470      -510.5255
   3   2.0000     -18.756052      -510.3781
   4   2.0000     -18.751313      -510.2492
   5   2.0000     -18.746247      -510.1113
   6   2.0000      -9.989628      -271.8316
   7   2.0000      -9.947231      -270.6779
   8   2.0000      -9.944039      -270.5911
   9   2.0000      -9.941927      -270.5336
  10   2.0000      -9.937835      -270.4222
  11   2.0000      -9.927733      -270.1474
  12   2.0000      -0.981973       -26.7208
  13   2.0000      -0.949472       -25.8364
  14   2.0000      -0.932965       -25.3873
  15   2.0000      -0.925978       -25.1971
  16   2.0000      -0.917156       -24.9571
  17   2.0000      -0.913235       -24.8504
  18   2.0000      -0.703101       -19.1324
  19   2.0000      -0.691952       -18.8290
  20   2.0000      -0.620587       -16.8870
  21   2.0000      -0.581787       -15.8312
  22   2.0000      -0.579084       -15.7577
  23   2.0000      -0.530981       -14.4487
  24   2.0000      -0.504721       -13.7342
  25   2.0000      -0.494192       -13.4476
  26   2.0000      -0.470841       -12.8122
  27   2.0000      -0.454461       -12.3665
  28   2.0000      -0.446697       -12.1552
  29   2.0000      -0.430919       -11.7259
  30   2.0000      -0.420028       -11.4295
  31   2.0000      -0.404524       -11.0076
  32   2.0000      -0.384798       -10.4709
  33   2.0000      -0.363573        -9.8933
  34   2.0000      -0.360298        -9.8042
  35   2.0000      -0.348289        -9.4774
  36   2.0000      -0.336187        -9.1481
  37   2.0000      -0.315116        -8.5747
  38   2.0000      -0.306462        -8.3393
  39   2.0000      -0.287665        -7.8278
  40   2.0000      -0.282013        -7.6740
  41   2.0000      -0.267903        -7.2900
  42   2.0000      -0.261427        -7.1138
  43   2.0000      -0.241846        -6.5810
  44   2.0000      -0.239930        -6.5288
  45   2.0000      -0.226568        -6.1652
  46   2.0000      -0.209551        -5.7022
  47   2.0000      -0.205659        -5.5963
  48   0.0000       0.018947         0.5156
  49   0.0000       0.024360         0.6629
  50   0.0000       0.027264         0.7419
  51   0.0000       0.031511         0.8574
  52   0.0000       0.050221         1.3666

MULLIKEN ATOMIC CHARGES
-----------------------
   0 C :    0.009757
   1 C :    0.022061
   2 H :    0.073649
   3 C :    0.067379
   4 H :    0.055230
   5 C :    0.042764
   6 H :    0.056595
   7 C :   -0.007009
   8 H :    0.069282
   9 C :    0.219828
  10 H :    0.050175
  11 O :   -0.312181
  12 O :   -0.384020
  13 O :   -0.403014
  14 O :   -0.411751
  15 O :   -0.418786
  16 O :   -0.424137
  17 H :    0.074284
  18 H :    0.109735
  19 H :    0.303742
  20 H :    0.302509
  21 H :    0.302843
  22 H :    0.300157
  23 H :    0.300908
Sum of atomic charges:   -0.0000000

LOEWDIN ATOMIC CHARGES
----------------------
   0 C :   -0.145276
   1 C :   -0.067206
   2 H :    0.119047
   3 C :   -0.077373
   4 H :    0.101560
   5 C :   -0.091358
   6 H :    0.114529
   7 C :   -0.091096
   8 H :    0.117974
   9 C :   -0.006398
  10 H :    0.096768
  11 O :   -0.147544
  12 O :   -0.299609
  13 O :   -0.304603
  14 O :   -0.310902
  15 O :   -0.324369
  16 O :   -0.327773
  17 H :    0.097031
  18 H :    0.116034
  19 H :    0.287415
  20 H :    0.286280
  21 H :    0.288287
  22 H :    0.282166
  23 H :    0.286417

  Mayer bond orders larger than 0.100000
B(  0-C ,  1-C ) :   1.0314 B(  0-C , 16-O ) :   1.0521 B(  0-C , 17-H ) :   0.9180
B(  0-C , 18-H ) :   0.9072 B(  1-C ,  2-H ) :   0.8871 B(  1-C ,  3-C ) :   0.9732
B(  1-C , 11-O ) :   1.0155 B(  3-C ,  4-H ) :   0.8779 B(  3-C ,  5-C ) :   1.0160
B(  3-C , 15-O ) :   1.0703 B(  5-C ,  6-H ) :   0.8528 B(  5-C ,  7-C ) :   1.0016
B(  5-C , 14-O ) :   1.0635 B(  7-C ,  8-H ) :   0.8690 B(  7-C ,  9-C ) :   0.9686
B(  7-C , 13-O ) :   1.0633 B(  9-C , 10-H ) :   0.8893 B(  9-C , 11-O ) :   1.0530
B(  9-C , 12-O ) :   1.1347 B( 12-O , 19-H ) :   0.8391 B( 13-O , 20-H ) :   0.8464
B( 14-O , 21-H ) :   0.8460 B( 15-O , 22-H ) :   0.8365 B( 16-O , 23-H ) :   0.8496

Dispersion correction           -0.024535002
FINAL SINGLE POINT ENERGY      -685.689761621976

DIPOLE MOMENT
-------------

Method             : SCF
Type of density    : Electron Density
Multiplicity       :   1
Irrep              :   0
Energy             :  -685.8193842313183950 Eh
Relativity type    :
Basis              : AO
                                X                 Y                 Z
Electronic contribution:      1.592864184       0.830522635       0.925702569
Nuclear contribution   :     -1.494588336      -1.083917213      -0.500996026
                        -----------------------------------------
Total Dipole Moment    :      0.098275848      -0.253394578       0.424706543
                        -----------------------------------------
Magnitude (a.u.)       :      0.504224753
Magnitude (Debye)      :      1.281637469

Rotational constants in cm-1:             0.037054             0.029025             0.019446
Rotational constants in MHz :          1110.862921           870.141693           582.978909

                             ****ORCA TERMINATED NORMALLY****
TOTAL RUN TIME: 0 days 0 hours 0 minutes 12 seconds 338 msec
