                         Program Version 6.0.0  -   RELEASE  -
|  1> ! pbe def2-sv(p) def2/J RI DEFGRID1 loosescf d4 GCP(DFT/SV(P)) printgap
|  2> %output
|  3>     printlevel normal
|  4> end
|  5> * xyz 0 1
|  6> C -2.5054413403 0.0396579246 0.0205105853
|  7> C -1.0861166282 -0.5122996067 -0.039530683
|  8> C -0.0613206148 0.6057334678 0.0549100122
|  9> S 1.6347232672 -0.1047631077 -0.0199601511
| 10> H -2.6684929557 0.5704883328 0.9555141598
| 11> H -2.6813450972 0.7277973816 -0.8029522161
| 12> H -3.2252066659 -0.7714012276 -0.0467997725
| 13> H -0.937542775 -1.0561798309 -0.9755040622
| 14> H -0.9252004894 -1.2157416848 0.780971861
| 15> H -0.1631583617 1.300057135 -0.7783210453
| 16> H -0.1518523423 1.1392694344 1.0003746145
| 17> H 2.2768102932 1.0525160004 0.0740240004
| 18> *
| 19>
| 20>                          ****END OF INPUT****

CARTESIAN COORDINATES (ANGSTROEM)
---------------------------------
  C     -2.505441    0.039658    0.020511
  C     -1.086117   -0.512300   -0.039531
  C     -0.061321    0.605733    0.054910
  S      1.634723   -0.104763   -0.019960
  H     -2.668493    0.570488    0.955514
  H     -2.681345    0.727797   -0.802952
  H     -3.225207   -0.771401   -0.046800
  H     -0.937543   -1.056180   -0.975504
  H     -0.925200   -1.215742    0.780972
  H     -0.163158    1.300057   -0.778321
  H     -0.151852    1.139269    1.000375
  H      2.276810    1.052516    0.074024

 Total Charge           Charge          ....    0
 Multiplicity           Mult            ....    1
 Number of Electrons    NEL             ....   42
 Basis Dimension        Dim             ....   76

ORBITAL ENERGIES
----------------

  NO   OCC          E(Eh)            E(eV)
   0   2.0000     -88.009720     -2394.8662
   1   2.0000      -9.915572      -269.8164
   2   2.0000      -9.894162      -269.2338
   3   2.0000      -9.881082      -268.8779
   4   2.0000      -7.656312      -208.3388
   5   2.0000      -5.684763      -154.6903
   6   2.0000      -5.680951      -154.5865
   7   2.0000      -5.672308      -154.3513
   8   2.0000      -0.733125       -19.9493
   9   2.0000      -0.668133       -18.1808
  10   2.0000      -0.582412       -15.8482
  11   2.0000      -0.523400       -14.2424
  12   2.0000      -0.429131       -11.6772
  13   2.0000      -0.397783       -10.8242
  14   2.0000      -0.384300       -10.4573
  15   2.0000      -0.358683        -9.7602
  16   2.0000      -0.320232        -8.7140
  17   2.0000      -0.305128        -8.3029
  18   2.0000      -0.299673        -8.1545
  19   2.0000      -0.282070        -7.6755
  20   2.0000      -0.190237        -5.1766
  21   0.0000       0.003972         0.1081
  22   0.0000       0.035449         0.9646
  23   0.0000       0.056421         1.5353
  24   0.0000       0.075924         2.0660
  25   0.0000       0.085511         2.3269

MULLIKEN ATOMIC CHARGES
-----------------------
   0 C :   -0.272312
   1 C :   -0.182425
   2 C :   -0.278156
   3 S :   -0.184387
   4 H :    0.102282
   5 H :    0.102378
   6 H :    0.111125
   7 H :    0.103012
   8 H :    0.103171
   9 H :    0.126141
  10 H :    0.126171
  11 H :    0.142999
Sum of atomic charges:    0.0000000

LOEWDIN ATOMIC CHARGES
----------------------
   0 C :   -0.338020
   1 C :   -0.251617
   2 C :   -0.327906
   3 S :    0.001460
   4 H :    0.118707
   5 H :    0.118736
   6 H :    0.123352
   7 H :    0.119970
   8 H :    0.119997
   9 H :    0.119146
  10 H :    0.119075
  11 H :    0.077100

  Mayer bond orders larger than 0.100000
B(  0-C ,  1-C ) :   1.1563 B(  0-C ,  4-H ) :   0.9553 B(  0-C ,  5-H ) :   0.9553
B(  0-C ,  6-H ) :   0.9533 B(  1-C ,  2-C ) :   1.1142 B(  1-C ,  7-H ) :   0.9258
B(  1-C ,  8-H ) :   0.9257 B(  2-C ,  3-S ) :   1.0562 B(  2-C ,  9-H ) :   0.9261
B(  2-C , 10-H ) :   0.9262 B(  3-S , 11-H ) :   0.9096

Dispersion correction           -0.007785167
FINAL SINGLE POINT ENERGY      -516.698937769742

DIPOLE MOMENT
-------------

Method             : SCF
Type of density    : Electron Density
Multiplicity       :   1
Irrep              :   0
Energy             :  -516.7406967150898254 Eh
Relativity type    :
Basis              : AO
                                X                 Y                 Z
Electronic contribution:      7.571675234      -1.176894764      -0.152090215
Nuclear contribution   :     -7.998384140       1.641781729       0.195057359
                        -----------------------------------------
Total Dipole Moment    :     -0.426708907       0.464886965       0.042967144
                        -----------------------------------------
Magnitude (a.u.)       :      0.632492337
Magnitude (Debye)      :      1.607667758

Rotational constants in cm-1:             0.805258             0.079514             0.075442
Rotational constants in MHz :         24141.022253          2383.755122          2261.699721

                             ****ORCA TERMINATED NORMALLY****
TOTAL RUN TIME: 0 days 0 hours 0 minutes 4 seconds 510 msec
