                         Program Version 6.0.0  -   RELEASE  -
|  1> ! r2scan-3c def2/J RI DEFGRID2 scfconv6 printgap
|  2> %output
|  3>     printlevel normal
|  4> end
|  5> * xyz 0 1
|  6> C -2.3840412 -1.1803304633 -0.2790808829
|  7> C -1.0652619833 -0.6185308065 0.2626223534
|  8> H -1.1069372776 -0.5745429802 1.3632328477
|  9> C -0.7790712953 0.7950925284 -0.2655633693
| 10> H -0.8024622726 0.773907511 -1.3678139511
| 11> C 0.6206843102 1.2321797191 0.183793558
| 12> H 0.6092847877 1.3393636642 1.2811771306
| 13> C 1.6797434017 0.1893991058 -0.1886109477
| 14> H 1.7892051846 0.158508732 -1.282243418
| 15> C 1.2433358516 -1.2044532646 0.2824223456
| 16> H 1.2757554294 -1.2145462509 1.3919156179
| 17> O -0.0617269444 -1.522098827 -0.152901367
| 18> O 2.0971064985 -2.1382810639 -0.2587749334
| 19> O 2.9052473852 0.4793932042 0.4279570561
| 20> O 0.9985613454 2.4489552299 -0.411977789
| 21> O -1.6829053274 1.7524270892 0.2276088553
| 22> O -3.448598536 -0.3748687172 0.1702073192
| 23> H -2.4818924817 -2.2107362446 0.0791709718
| 24> H -2.327635229 -1.1913689373 -1.3742783013
| 25> H 1.7783933436 -3.0321130228 -0.0533574202
| 26> H 3.1782593177 1.3681774594 0.1511889766
| 27> H 0.2910574405 3.0934189776 -0.2595818297
| 28> H -2.5779817423 1.3695181167 0.2198023059
| 29> H -4.2878150584 -0.7523641639 -0.1302160928
| 30> *
| 31>
| 32>                          ****END OF INPUT****

CARTESIAN COORDINATES (ANGSTROEM)
---------------------------------
  C     -2.384041   -1.180330   -0.279081
  C     -1.065262   -0.618531    0.262622
  H     -1.106937   -0.574543    1.363233
  C     -0.779071    0.795093   -0.265563
  H     -0.802462    0.773908   -1.367814
  C      0.620684    1.232180    0.183794
  H      0.609285    1.339364    1.281177
  C      1.679743    0.189399   -0.188611
  H      1.789205    0.158509   -1.282243
  C      1.243336   -1.204453    0.282422
  H      1.275755   -1.214546    1.391916
  O     -0.061727   -1.522099   -0.152901
  O      2.097106   -2.138281   -0.258775
  O      2.905247    0.479393    0.427957
  O      0.998561    2.448955   -0.411978
  O     -1.682905    1.752427    0.227609
  O     -3.448599   -0.374869    0.170207
  H     -2.481892   -2.210736    0.079171
  H     -2.327635   -1.191369   -1.374278
  H      1.778393   -3.032113   -0.053357
  H      3.178259    1.368177    0.151189
  H      0.291057    3.093419   -0.259582
  H     -2.577982    1.369518    0.219802
  H     -4.287815   -0.752364   -0.130216

 Total Charge           Charge          ....    0
 Multiplicity           Mult            ....    1
 Number of Electrons    NEL             ....   96
 Basis Dimension        Dim             ....  318

ORBITAL ENERGIES
----------------

  NO   OCC          E(Eh)            E(eV)
   0   2.0000     -18.987348      -516.6720
   1   2.0000     -18.973809      -516.3036
   2   2.0000     -18.962690      -516.0010
   3   2.0000     -18.955772      -515.8128
   4   2.0000     -18.951781      -515.7042
   5   2.0000     -18.948366      -515.6112
   6   2.0000     -10.138461      -275.8815
   7   2.0000     -10.100418      -274.8463
   8   2.0000     -10.100086      -274.8373
   9   2.0000     -10.087473      -274.4941
  10   2.0000     -10.084638      -274.4170
  11   2.0000     -10.083575      -274.3880
  12   2.0000      -1.051867       -28.6228
  13   2.0000      -1.024886       -27.8886
  14   2.0000      -1.007533       -27.4164
  15   2.0000      -0.993144       -27.0248
  16   2.0000      -0.981236       -26.7008
  17   2.0000      -0.977283       -26.5932
  18   2.0000      -0.751638       -20.4531
  19   2.0000      -0.740728       -20.1562
  20   2.0000      -0.665850       -18.1187
  21   2.0000      -0.610676       -16.6173
  22   2.0000      -0.593229       -16.1426
  23   2.0000      -0.554357       -15.0848
  24   2.0000      -0.532576       -14.4921
  25   2.0000      -0.513824       -13.9819
  26   2.0000      -0.497944       -13.5498
  27   2.0000      -0.484388       -13.1809
  28   2.0000      -0.481474       -13.1016
  29   2.0000      -0.460820       -12.5396
  30   2.0000      -0.433837       -11.8053
  31   2.0000      -0.424688       -11.5564
  32   2.0000      -0.410852       -11.1799
  33   2.0000      -0.404444       -11.0055
  34   2.0000      -0.376294       -10.2395
  35   2.0000      -0.373934       -10.1753
  36   2.0000      -0.360545        -9.8109
  37   2.0000      -0.346440        -9.4271
  38   2.0000      -0.326608        -8.8874
  39   2.0000      -0.325617        -8.8605
  40   2.0000      -0.301049        -8.1920
  41   2.0000      -0.293453        -7.9853
  42   2.0000      -0.272409        -7.4126
  43   2.0000      -0.269932        -7.3452
  44   2.0000      -0.253687        -6.9032
  45   2.0000      -0.244415        -6.6509
  46   2.0000      -0.233394        -6.3510
  47   2.0000      -0.228537        -6.2188
  48   0.0000       0.016390         0.4460
  49   0.0000       0.052696         1.4339
  50   0.0000       0.062269         1.6944
  51   0.0000       0.086085         2.3425
  52   0.0000       0.091606         2.4927

MULLIKEN ATOMIC CHARGES
-----------------------
   0 C :   -0.199119
   1 C :   -0.097867
   2 H :    0.180731
   3 C :    0.025566
   4 H :    0.169063
   5 C :   -0.022312
   6 H :    0.170444
   7 C :    0.030100
   8 H :    0.171812
   9 C :   -0.093398
  10 H :    0.142998
  11 O :   -0.193867
  12 O :   -0.375508
  13 O :   -0.422723
  14 O :   -0.447668
  15 O :   -0.444138
  16 O :   -0.430189
  17 H :    0.138322
  18 H :    0.138531
  19 H :    0.307097
  20 H :    0.313494
  21 H :    0.315753
  22 H :    0.314521
  23 H :    0.308359
Sum of atomic charges:    0.0000000

LOEWDIN ATOMIC CHARGES
----------------------
   0 C :    0.056468
   1 C :    0.123516
   2 H :    0.185916
   3 C :    0.104445
   4 H :    0.181364
   5 C :    0.108396
   6 H :    0.186651
   7 C :    0.127610
   8 H :    0.190861
   9 C :    0.308727
  10 H :    0.181323
  11 O :   -0.687145
  12 O :   -0.479118
  13 O :   -0.556585
  14 O :   -0.574989
  15 O :   -0.591023
  16 O :   -0.625856
  17 H :    0.172213
  18 H :    0.170649
  19 H :    0.283377
  20 H :    0.283286
  21 H :    0.284322
  22 H :    0.288243
  23 H :    0.277351

  Mayer bond orders larger than 0.100000
B(  0-C ,  1-C ) :   0.9755 B(  0-C , 16-O ) :   0.9719 B(  0-C , 17-H ) :   0.9565
B(  0-C , 18-H ) :   0.9727 B(  1-C ,  2-H ) :   0.9509 B(  1-C ,  3-C ) :   0.8113
B(  1-C , 11-O ) :   0.8097 B(  3-C ,  4-H ) :   0.9606 B(  3-C ,  5-C ) :   0.8561
B(  3-C , 15-O ) :   0.8641 B(  5-C ,  6-H ) :   0.9907 B(  5-C ,  7-C ) :   0.8515
B(  5-C , 14-O ) :   0.9139 B(  7-C ,  8-H ) :   0.9731 B(  7-C ,  9-C ) :   0.8788
B(  7-C , 13-O ) :   0.9054 B(  9-C , 10-H ) :   1.0063 B(  9-C , 11-O ) :   0.8950
B(  9-C , 12-O ) :   1.0884 B( 12-O , 19-H ) :   0.8802 B( 13-O , 20-H ) :   0.8801
B( 14-O , 21-H ) :   0.8758 B( 15-O , 22-H ) :   0.8453 B( 16-O , 23-H ) :   0.8910

Dispersion correction           -0.007955822
FINAL SINGLE POINT ENERGY      -687.074895790749

DIPOLE MOMENT
-------------

Method             : SCF
Type of density    : Electron Density
Multiplicity       :   1
Irrep              :   0
Energy             :  -687.0869067820883629 Eh
Relativity type    :
Basis              : AO
                                X                 Y                 Z
Electronic contribution:      2.738826827       0.190691993      -0.060721550
Nuclear contribution   :     -4.362504694      -0.809250278       0.017853659
                        -----------------------------------------
Total Dipole Moment    :     -1.623677868      -0.618558286      -0.042867891
                        -----------------------------------------
Magnitude (a.u.)       :      1.738039651
Magnitude (Debye)      :      4.417745708

Rotational constants in cm-1:             0.043902             0.024623             0.016513
Rotational constants in MHz :          1316.141892           738.184201           495.040102

                             ****ORCA TERMINATED NORMALLY****
TOTAL RUN TIME: 0 days 0 hours 0 minutes 48 seconds 506 msec
