                         Program Version 6.0.0  -   RELEASE  -
|  1> ! r2scan-3c def2/J RI DEFGRID2 scfconv6 printgap
|  2> %output
|  3>     printlevel normal
|  4> end
|  5> %cpcm
|  6>     smd true
|  7>     smdsolvent "water"
|  8> end
|  9> * xyz 0 1
| 10> C -2.3840412 -1.1803304633 -0.2790808829
| 11> C -1.0652619833 -0.6185308065 0.2626223534
| 12> H -1.1069372776 -0.5745429802 1.3632328477
| 13> C -0.7790712953 0.7950925284 -0.2655633693
| 14> H -0.8024622726 0.773907511 -1.3678139511
| 15> C 0.6206843102 1.2321797191 0.183793558
| 16> H 0.6092847877 1.3393636642 1.2811771306
| 17> C 1.6797434017 0.1893991058 -0.1886109477
| 18> H 1.7892051846 0.158508732 -1.282243418
| 19> C 1.2433358516 -1.2044532646 0.2824223456
| 20> H 1.2757554294 -1.2145462509 1.3919156179
| 21> O -0.0617269444 -1.522098827 -0.152901367
| 22> O 2.0971064985 -2.1382810639 -0.2587749334
| 23> O 2.9052473852 0.4793932042 0.4279570561
| 24> O 0.9985613454 2.4489552299 -0.411977789
| 25> O -1.6829053274 1.7524270892 0.2276088553
| 26> O -3.448598536 -0.3748687172 0.1702073192
| 27> H -2.4818924817 -2.2107362446 0.0791709718
| 28> H -2.327635229 -1.1913689373 -1.3742783013
| 29> H 1.7783933436 -3.0321130228 -0.0533574202
| 30> H 3.1782593177 1.3681774594 0.1511889766
| 31> H 0.2910574405 3.0934189776 -0.2595818297
| 32> H -2.5779817423 1.3695181167 0.2198023059
| 33> H -4.2878150584 -0.7523641639 -0.1302160928
| 34> *
| 35>
| 36>                          ****END OF INPUT****

CARTESIAN COORDINATES (ANGSTROEM)
---------------------------------
  C     -2.384041   -1.180330   -0.279081
  C     -1.065262   -0.618531    0.262622
  H     -1.106937   -0.574543    1.363233
  C     -0.779071    0.795093   -0.265563
  H     -0.802462    0.773908   -1.367814
  C      0.620684    1.232180    0.183794
  H      0.609285    1.339364    1.281177
  C      1.679743    0.189399   -0.188611
  H      1.789205    0.158509   -1.282243
  C      1.243336   -1.204453    0.282422
  H      1.275755   -1.214546    1.391916
  O     -0.061727   -1.522099   -0.152901
  O      2.097106   -2.138281   -0.258775
  O      2.905247    0.479393    0.427957
  O      0.998561    2.448955   -0.411978
  O     -1.682905    1.752427    0.227609
  O     -3.448599   -0.374869    0.170207
  H     -2.481892   -2.210736    0.079171
  H     -2.327635   -1.191369   -1.374278
  H      1.778393   -3.032113   -0.053357
  H      3.178259    1.368177    0.151189
  H      0.291057    3.093419   -0.259582
  H     -2.577982    1.369518    0.219802
  H     -4.287815   -0.752364   -0.130216

 Total Charge           Charge          ....    0
 Multiplicity           Mult            ....    1
 Number of Electrons    NEL             ....   96
 Basis Dimension        Dim             ....  318

ORBITAL ENERGIES
----------------

  NO   OCC          E(Eh)            E(eV)
   0   2.0000     -18.976056      -516.3647
   1   2.0000     -18.969717      -516.1922
   2   2.0000     -18.966214      -516.0969
   3   2.0000     -18.962084      -515.9845
   4   2.0000     -18.960763      -515.9486
   5   2.0000     -18.955718      -515.8113
   6   2.0000     -10.139918      -275.9212
   7   2.0000     -10.091676      -274.6085
   8   2.0000     -10.088500      -274.5220
   9   2.0000     -10.085809      -274.4488
  10   2.0000     -10.084843      -274.4225
  11   2.0000     -10.080917      -274.3157
  12   2.0000      -1.055051       -28.7094
  13   2.0000      -1.014357       -27.6020
  14   2.0000      -1.007720       -27.4215
  15   2.0000      -0.996036       -27.1035
  16   2.0000      -0.985513       -26.8172
  17   2.0000      -0.983150       -26.7529
  18   2.0000      -0.747832       -20.3495
  19   2.0000      -0.739477       -20.1222
  20   2.0000      -0.660259       -17.9665
  21   2.0000      -0.611618       -16.6430
  22   2.0000      -0.587446       -15.9852
  23   2.0000      -0.552006       -15.0208
  24   2.0000      -0.527204       -14.3460
  25   2.0000      -0.515580       -14.0297
  26   2.0000      -0.490811       -13.3557
  27   2.0000      -0.484660       -13.1883
  28   2.0000      -0.478253       -13.0139
  29   2.0000      -0.457418       -12.4470
  30   2.0000      -0.430251       -11.7077
  31   2.0000      -0.424261       -11.5447
  32   2.0000      -0.407670       -11.0933
  33   2.0000      -0.402496       -10.9525
  34   2.0000      -0.378309       -10.2943
  35   2.0000      -0.373298       -10.1580
  36   2.0000      -0.362318        -9.8592
  37   2.0000      -0.346008        -9.4154
  38   2.0000      -0.333813        -9.0835
  39   2.0000      -0.331027        -9.0077
  40   2.0000      -0.308178        -8.3859
  41   2.0000      -0.292226        -7.9519
  42   2.0000      -0.280163        -7.6236
  43   2.0000      -0.261072        -7.1041
  44   2.0000      -0.253408        -6.8956
  45   2.0000      -0.251027        -6.8308
  46   2.0000      -0.239750        -6.5239
  47   2.0000      -0.232095        -6.3156
  48   0.0000       0.031167         0.8481
  49   0.0000       0.064234         1.7479
  50   0.0000       0.079328         2.1586
  51   0.0000       0.091156         2.4805
  52   0.0000       0.099953         2.7199

MULLIKEN ATOMIC CHARGES
-----------------------
   0 C :   -0.211878
   1 C :   -0.093265
   2 H :    0.205075
   3 C :    0.008425
   4 H :    0.186390
   5 C :   -0.004341
   6 H :    0.181840
   7 C :    0.036152
   8 H :    0.184271
   9 C :   -0.081556
  10 H :    0.168405
  11 O :   -0.238731
  12 O :   -0.447814
  13 O :   -0.492788
  14 O :   -0.502339
  15 O :   -0.501839
  16 O :   -0.482174
  17 H :    0.156753
  18 H :    0.155983
  19 H :    0.361604
  20 H :    0.354836
  21 H :    0.353136
  22 H :    0.347267
  23 H :    0.356588
Sum of atomic charges:    0.0000000

LOEWDIN ATOMIC CHARGES
----------------------
   0 C :    0.059831
   1 C :    0.125441
   2 H :    0.194473
   3 C :    0.106744
   4 H :    0.188913
   5 C :    0.109221
   6 H :    0.193432
   7 C :    0.123665
   8 H :    0.195905
   9 C :    0.307369
  10 H :    0.193092
  11 O :   -0.699884
  12 O :   -0.510353
  13 O :   -0.588265
  14 O :   -0.596605
  15 O :   -0.613083
  16 O :   -0.633253
  17 H :    0.178989
  18 H :    0.176873
  19 H :    0.303327
  20 H :    0.297486
  21 H :    0.296083
  22 H :    0.294650
  23 H :    0.295951

  Mayer bond orders larger than 0.100000
B(  0-C ,  1-C ) :   0.9474 B(  0-C , 16-O ) :   0.9707 B(  0-C , 17-H ) :   0.9589
B(  0-C , 18-H ) :   0.9705 B(  1-C ,  2-H ) :   0.9456 B(  1-C ,  3-C ) :   0.8172
B(  1-C , 11-O ) :   0.8054 B(  3-C ,  4-H ) :   0.9579 B(  3-C ,  5-C ) :   0.8758
B(  3-C , 15-O ) :   0.8531 B(  5-C ,  6-H ) :   0.9697 B(  5-C ,  7-C ) :   0.8885
B(  5-C , 14-O ) :   0.8936 B(  7-C ,  8-H ) :   0.9531 B(  7-C ,  9-C ) :   0.8775
B(  7-C , 13-O ) :   0.8812 B(  9-C , 10-H ) :   0.9987 B(  9-C , 11-O ) :   0.9174
B(  9-C , 12-O ) :   1.0698 B( 12-O , 19-H ) :   0.8530 B( 13-O , 20-H ) :   0.8602
B( 14-O , 21-H ) :   0.8576 B( 15-O , 22-H ) :   0.8291 B( 16-O , 23-H ) :   0.8641

Dispersion correction           -0.007955822
FINAL SINGLE POINT ENERGY      -687.107641713171

DIPOLE MOMENT
-------------

Method             : SCF
Type of density    : Electron Density
Multiplicity       :   1
Irrep              :   0
Energy             :  -687.1196527045102584 Eh
Relativity type    :
Basis              : AO
                                X                 Y                 Z
Electronic contribution:      2.172884773       0.012200201      -0.017913318
Nuclear contribution   :     -4.362504694      -0.809250278       0.017853659
                        -----------------------------------------
Total Dipole Moment    :     -2.189619921      -0.797050077      -0.000059659
                        -----------------------------------------
Magnitude (a.u.)       :      2.330176866
Magnitude (Debye)      :      5.922838899

Rotational constants in cm-1:             0.043902             0.024623             0.016513
Rotational constants in MHz :          1316.141892           738.184201           495.040102

                             ****ORCA TERMINATED NORMALLY****
TOTAL RUN TIME: 0 days 0 hours 0 minutes 56 seconds 571 msec
