                         Program Version 6.0.0  -   RELEASE  -
|  1> ! r2scan-3c def2/J RI DEFGRID2 scfconv6 printgap
|  2> %output
|  3>     printlevel normal
|  4> end
|  5> * xyz 0 1
|  6> C -2.6416872699 1.5093474809 0.1105547841
|  7> C -1.9526745099 0.157666274 -0.0096668429
|  8> C -0.448109163 0.1926778 0.0127998372
|  9> C 0.3031428287 1.3489730631 0.1331393186
| 10> C 1.6893101971 1.3095669679 0.1470033265
| 11> C 2.346300646 0.0993618301 0.0394335565
| 12> C 1.6168035292 -1.0712506805 -0.0819963261
| 13> C 0.2307552389 -1.029685702 -0.0956572818
| 14> O -0.5217666764 -2.1619262102 -0.2136731933
| 15> H -2.3608045198 2.1618284816 -0.7127504104
| 16> H -2.3834263957 1.9935953882 1.0493094708
| 17> H -3.7199735164 1.3718847196 0.0835928436
| 18> H -2.2616113073 -0.3300336812 -0.9393720985
| 19> H -2.2837636112 -0.4963022672 0.8029589276
| 20> H -0.1934958655 2.3018626805 0.218109761
| 21> H 2.2511195553 2.2262300605 0.2419580029
| 22> H 3.4249230687 0.0589506279 0.049297316
| 23> H 2.126758163 -2.0206570593 -0.1663852975
| 24> H 0.0518009129 -2.9395937201 -0.2809434284
| 25> *
| 26>
| 27>                          ****END OF INPUT****

CARTESIAN COORDINATES (ANGSTROEM)
---------------------------------
  C     -2.641687    1.509347    0.110555
  C     -1.952675    0.157666   -0.009667
  C     -0.448109    0.192678    0.012800
  C      0.303143    1.348973    0.133139
  C      1.689310    1.309567    0.147003
  C      2.346301    0.099362    0.039434
  C      1.616804   -1.071251   -0.081996
  C      0.230755   -1.029686   -0.095657
  O     -0.521767   -2.161926   -0.213673
  H     -2.360805    2.161828   -0.712750
  H     -2.383426    1.993595    1.049309
  H     -3.719974    1.371885    0.083593
  H     -2.261611   -0.330034   -0.939372
  H     -2.283764   -0.496302    0.802959
  H     -0.193496    2.301863    0.218110
  H      2.251120    2.226230    0.241958
  H      3.424923    0.058951    0.049297
  H      2.126758   -2.020657   -0.166385
  H      0.051801   -2.939594   -0.280943

 Total Charge           Charge          ....    0
 Multiplicity           Mult            ....    1
 Number of Electrons    NEL             ....   66
 Basis Dimension        Dim             ....  226

ORBITAL ENERGIES
----------------

  NO   OCC          E(Eh)            E(eV)
   0   2.0000     -18.985718      -516.6276
   1   2.0000     -10.091584      -274.6059
   2   2.0000     -10.036032      -273.0943
   3   2.0000     -10.031522      -272.9716
   4   2.0000     -10.030835      -272.9529
   5   2.0000     -10.029576      -272.9186
   6   2.0000     -10.028356      -272.8854
   7   2.0000     -10.023027      -272.7404
   8   2.0000     -10.018509      -272.6175
   9   2.0000      -1.028629       -27.9904
  10   2.0000      -0.822055       -22.3693
  11   2.0000      -0.755013       -20.5449
  12   2.0000      -0.706102       -19.2140
  13   2.0000      -0.690953       -18.8018
  14   2.0000      -0.610258       -16.6060
  15   2.0000      -0.583515       -15.8782
  16   2.0000      -0.542414       -14.7598
  17   2.0000      -0.512419       -13.9436
  18   2.0000      -0.459465       -12.5027
  19   2.0000      -0.433366       -11.7925
  20   2.0000      -0.421911       -11.4808
  21   2.0000      -0.403449       -10.9784
  22   2.0000      -0.399357       -10.8671
  23   2.0000      -0.376211       -10.2372
  24   2.0000      -0.359425        -9.7804
  25   2.0000      -0.345045        -9.3891
  26   2.0000      -0.338286        -9.2052
  27   2.0000      -0.318452        -8.6655
  28   2.0000      -0.309294        -8.4163
  29   2.0000      -0.308016        -8.3815
  30   2.0000      -0.295486        -8.0406
  31   2.0000      -0.228591        -6.2203
  32   2.0000      -0.200235        -5.4487
  33   0.0000      -0.025107        -0.6832
  34   0.0000      -0.013264        -0.3609
  35   0.0000       0.055414         1.5079
  36   0.0000       0.089822         2.4442
  37   0.0000       0.095990         2.6120

MULLIKEN ATOMIC CHARGES
-----------------------
   0 C :   -0.505462
   1 C :   -0.295320
   2 C :   -0.029527
   3 C :   -0.161319
   4 C :   -0.209261
   5 C :   -0.131639
   6 C :   -0.343778
   7 C :    0.410888
   8 O :   -0.407681
   9 H :    0.155257
  10 H :    0.155192
  11 H :    0.149895
  12 H :    0.167347
  13 H :    0.167301
  14 H :    0.145330
  15 H :    0.143770
  16 H :    0.145620
  17 H :    0.133266
  18 H :    0.310124
Sum of atomic charges:    0.0000000

LOEWDIN ATOMIC CHARGES
----------------------
   0 C :   -0.419578
   1 C :   -0.271521
   2 C :   -0.069143
   3 C :   -0.155067
   4 C :   -0.187408
   5 C :   -0.162291
   6 C :   -0.172498
   7 C :    0.188081
   8 O :   -0.510497
   9 H :    0.153076
  10 H :    0.153066
  11 H :    0.153593
  12 H :    0.172144
  13 H :    0.172129
  14 H :    0.171767
  15 H :    0.165765
  16 H :    0.166934
  17 H :    0.167158
  18 H :    0.284291

  Mayer bond orders larger than 0.100000
B(  0-C ,  1-C ) :   0.8344 B(  0-C ,  9-H ) :   0.9834 B(  0-C , 10-H ) :   0.9833
B(  0-C , 11-H ) :   0.9716 B(  1-C ,  2-C ) :   0.8755 B(  1-C , 12-H ) :   0.9819
B(  1-C , 13-H ) :   0.9818 B(  2-C ,  3-C ) :   1.4445 B(  2-C ,  7-C ) :   1.4887
B(  3-C ,  4-C ) :   1.3982 B(  3-C , 14-H ) :   0.9414 B(  4-C ,  5-C ) :   1.4403
B(  4-C , 15-H ) :   0.9454 B(  5-C ,  6-C ) :   1.3851 B(  5-C , 16-H ) :   0.9422
B(  6-C ,  7-C ) :   1.2999 B(  6-C , 17-H ) :   0.9513 B(  7-C ,  8-O ) :   0.9405
B(  8-O , 18-H ) :   0.8830

Dispersion correction           -0.006160535
FINAL SINGLE POINT ENERGY      -386.001177821188

DIPOLE MOMENT
-------------

Method             : SCF
Type of density    : Electron Density
Multiplicity       :   1
Irrep              :   0
Energy             :  -386.0019375128205184 Eh
Relativity type    :
Basis              : AO
                                X                 Y                 Z
Electronic contribution:      5.197705575      -4.382976624      -0.353007082
Nuclear contribution   :     -5.025503194       4.028134103       0.321228722
                        -----------------------------------------
Total Dipole Moment    :      0.172202381      -0.354842522      -0.031778360
                        -----------------------------------------
Magnitude (a.u.)       :      0.395697788
Magnitude (Debye)      :      1.005783846

Rotational constants in cm-1:             0.084001             0.049485             0.031504
Rotational constants in MHz :          2518.285515          1483.514405           944.457082

                             ****ORCA TERMINATED NORMALLY****
TOTAL RUN TIME: 0 days 0 hours 0 minutes 27 seconds 422 msec
