                         Program Version 6.0.0  -   RELEASE  -
|  1> ! r2scan-3c def2/J RI DEFGRID2 scfconv6 printgap
|  2> %output
|  3>     printlevel normal
|  4> end
|  5> %cpcm
|  6>     smd true
|  7>     smdsolvent "water"
|  8> end
|  9> * xyz 0 1
| 10> C -2.6416872699 1.5093474809 0.1105547841
| 11> C -1.9526745099 0.157666274 -0.0096668429
| 12> C -0.448109163 0.1926778 0.0127998372
| 13> C 0.3031428287 1.3489730631 0.1331393186
| 14> C 1.6893101971 1.3095669679 0.1470033265
| 15> C 2.346300646 0.0993618301 0.0394335565
| 16> C 1.6168035292 -1.0712506805 -0.0819963261
| 17> C 0.2307552389 -1.029685702 -0.0956572818
| 18> O -0.5217666764 -2.1619262102 -0.2136731933
| 19> H -2.3608045198 2.1618284816 -0.7127504104
| 20> H -2.3834263957 1.9935953882 1.0493094708
| 21> H -3.7199735164 1.3718847196 0.0835928436
| 22> H -2.2616113073 -0.3300336812 -0.9393720985
| 23> H -2.2837636112 -0.4963022672 0.8029589276
| 24> H -0.1934958655 2.3018626805 0.218109761
| 25> H 2.2511195553 2.2262300605 0.2419580029
| 26> H 3.4249230687 0.0589506279 0.049297316
| 27> H 2.126758163 -2.0206570593 -0.1663852975
| 28> H 0.0518009129 -2.9395937201 -0.2809434284
| 29> *
| 30>
| 31>                          ****END OF INPUT****

CARTESIAN COORDINATES (ANGSTROEM)
---------------------------------
  C     -2.641687    1.509347    0.110555
  C     -1.952675    0.157666   -0.009667
  C     -0.448109    0.192678    0.012800
  C      0.303143    1.348973    0.133139
  C      1.689310    1.309567    0.147003
  C      2.346301    0.099362    0.039434
  C      1.616804   -1.071251   -0.081996
  C      0.230755   -1.029686   -0.095657
  O     -0.521767   -2.161926   -0.213673
  H     -2.360805    2.161828   -0.712750
  H     -2.383426    1.993595    1.049309
  H     -3.719974    1.371885    0.083593
  H     -2.261611   -0.330034   -0.939372
  H     -2.283764   -0.496302    0.802959
  H     -0.193496    2.301863    0.218110
  H      2.251120    2.226230    0.241958
  H      3.424923    0.058951    0.049297
  H      2.126758   -2.020657   -0.166385
  H      0.051801   -2.939594   -0.280943

 Total Charge           Charge          ....    0
 Multiplicity           Mult            ....    1
 Number of Electrons    NEL             ....   66
 Basis Dimension        Dim             ....  226

ORBITAL ENERGIES
----------------

  NO   OCC          E(Eh)            E(eV)
   0   2.0000     -18.982137      -516.5302
   1   2.0000     -10.092145      -274.6212
   2   2.0000     -10.037690      -273.1394
   3   2.0000     -10.030294      -272.9382
   4   2.0000     -10.028934      -272.9012
   5   2.0000     -10.028593      -272.8919
   6   2.0000     -10.027511      -272.8624
   7   2.0000     -10.023700      -272.7587
   8   2.0000     -10.012001      -272.4404
   9   2.0000      -1.025057       -27.8932
  10   2.0000      -0.823746       -22.4153
  11   2.0000      -0.753861       -20.5136
  12   2.0000      -0.706132       -19.2148
  13   2.0000      -0.688863       -18.7449
  14   2.0000      -0.608213       -16.5503
  15   2.0000      -0.580103       -15.7854
  16   2.0000      -0.540368       -14.7042
  17   2.0000      -0.508707       -13.8426
  18   2.0000      -0.457990       -12.4625
  19   2.0000      -0.431581       -11.7439
  20   2.0000      -0.419870       -11.4252
  21   2.0000      -0.399848       -10.8804
  22   2.0000      -0.395155       -10.7527
  23   2.0000      -0.376455       -10.2439
  24   2.0000      -0.359104        -9.7717
  25   2.0000      -0.341861        -9.3025
  26   2.0000      -0.334920        -9.1136
  27   2.0000      -0.315864        -8.5951
  28   2.0000      -0.311731        -8.4826
  29   2.0000      -0.305009        -8.2997
  30   2.0000      -0.293314        -7.9815
  31   2.0000      -0.231859        -6.3092
  32   2.0000      -0.203566        -5.5393
  33   0.0000      -0.027379        -0.7450
  34   0.0000      -0.016639        -0.4528
  35   0.0000       0.076192         2.0733
  36   0.0000       0.098355         2.6764
  37   0.0000       0.104172         2.8347

MULLIKEN ATOMIC CHARGES
-----------------------
   0 C :   -0.531539
   1 C :   -0.303087
   2 C :   -0.043947
   3 C :   -0.191581
   4 C :   -0.257314
   5 C :   -0.163103
   6 C :   -0.340026
   7 C :    0.352134
   8 O :   -0.447442
   9 H :    0.165281
  10 H :    0.165253
  11 H :    0.162950
  12 H :    0.178366
  13 H :    0.178520
  14 H :    0.174133
  15 H :    0.173972
  16 H :    0.178391
  17 H :    0.180406
  18 H :    0.368633
Sum of atomic charges:    0.0000000

LOEWDIN ATOMIC CHARGES
----------------------
   0 C :   -0.423142
   1 C :   -0.275365
   2 C :   -0.079767
   3 C :   -0.168657
   4 C :   -0.204800
   5 C :   -0.177059
   6 C :   -0.170354
   7 C :    0.178402
   8 O :   -0.523793
   9 H :    0.156737
  10 H :    0.156737
  11 H :    0.157352
  12 H :    0.174295
  13 H :    0.174356
  14 H :    0.181484
  15 H :    0.175027
  16 H :    0.177499
  17 H :    0.185338
  18 H :    0.305707

  Mayer bond orders larger than 0.100000
B(  0-C ,  1-C ) :   0.8411 B(  0-C ,  9-H ) :   0.9798 B(  0-C , 10-H ) :   0.9798
B(  0-C , 11-H ) :   0.9683 B(  1-C ,  2-C ) :   0.8631 B(  1-C ,  7-C ) :  -0.1049
B(  1-C , 12-H ) :   0.9794 B(  1-C , 13-H ) :   0.9792 B(  2-C ,  3-C ) :   1.4130
B(  2-C ,  7-C ) :   1.4328 B(  3-C ,  4-C ) :   1.3606 B(  3-C , 14-H ) :   0.9525
B(  4-C ,  5-C ) :   1.3869 B(  4-C , 15-H ) :   0.9610 B(  5-C ,  6-C ) :   1.3354
B(  5-C , 16-H ) :   0.9563 B(  6-C ,  7-C ) :   1.3039 B(  6-C , 17-H ) :   0.9657
B(  7-C ,  8-O ) :   0.9570 B(  8-O , 18-H ) :   0.8526

Dispersion correction           -0.006160535
FINAL SINGLE POINT ENERGY      -386.009355830330

DIPOLE MOMENT
-------------

Method             : SCF
Type of density    : Electron Density
Multiplicity       :   1
Irrep              :   0
Energy             :  -386.0101155219625753 Eh
Relativity type    :
Basis              : AO
                                X                 Y                 Z
Electronic contribution:      5.311933818      -4.541385298      -0.366396375
Nuclear contribution   :     -5.025503194       4.028134103       0.321228722
                        -----------------------------------------
Total Dipole Moment    :      0.286430624      -0.513251195      -0.045167653
                        -----------------------------------------
Magnitude (a.u.)       :      0.589499287
Magnitude (Debye)      :      1.498388108

Rotational constants in cm-1:             0.084001             0.049485             0.031504
Rotational constants in MHz :          2518.285515          1483.514405           944.457082

                             ****ORCA TERMINATED NORMALLY****
TOTAL RUN TIME: 0 days 0 hours 0 minutes 33 seconds 181 msec
