                         Program Version 6.0.0  -   RELEASE  -
|  1> ! wb97x-v def2-tzvp def2/J RIJCOSX DEFGRID2 scfconv7 GCP(DFT/TZ) printgap
|  2> %output
|  3>     printlevel normal
|  4> end
|  5> * xyz 0 1
|  6> C -2.5661746638623377 -0.885722379508878 0.3503441120024218
|  7> C -1.1385882294859644 -0.43390252543980534 0.5947337865148339
|  8> H -0.9806542987191431 -0.370991481537548 1.6842994525740551
|  9> C -0.8067652102679166 0.9160787851038696 -0.03969179126821776
| 10> H -0.9985803127529085 0.864086815278572 -1.121545782787818
| 11> C 0.6621306107169249 1.2370229116666502 0.18658391274722236
| 12> H 0.8307501755146922 1.3715949232557152 1.2685539130568353
| 13> C 1.5496464549344569 0.09634863066536632 -0.30623809402570734
| 14> H 1.4537443959146328 -0.0003019879751420283 -1.3956650561693933
| 15> C 1.1068770910586847 -1.2204725728035501 0.3351145398710541
| 16> H 1.2472606614319304 -1.1910286171055362 1.426923592899529
| 17> O -0.27741827387388746 -1.4419200264662946 0.035794594448728505
| 18> O 1.8300151989825444 -2.3265564451488108 -0.13254643018254642
| 19> O 2.9288012470755 0.37166753721656365 -0.05025762231157737
| 20> O 0.9486642460033857 2.45644368587464 -0.5076722990029644
| 21> O -1.6528893057387513 1.895763796684483 0.5712548515523558
| 22> O -2.9096338339715113 -0.940114753628301 -1.0388619679098894
| 23> H -3.2523822596686482 -0.17522483815275464 0.8175143537859375
| 24> H -2.7090236727228514 -1.8662049998116836 0.8242525003697845
| 25> H 1.8592206088684233 -2.283205078229103 -1.1001435094804561
| 26> H 3.0392143483730703 0.4698543172348096 0.9069281791869775
| 27> H 1.8687917838741286 2.685549218498284 -0.3193608591839188
| 28> H -1.421520609152407 2.7524732994245507 0.18824592562254264
| 29> H -2.3420884261882953 -1.6047464190924237 -1.451199421283055
| 30> *
| 31>
| 32>                          ****END OF INPUT****

CARTESIAN COORDINATES (ANGSTROEM)
---------------------------------
  C     -2.566175   -0.885722    0.350344
  C     -1.138588   -0.433903    0.594734
  H     -0.980654   -0.370991    1.684299
  C     -0.806765    0.916079   -0.039692
  H     -0.998580    0.864087   -1.121546
  C      0.662131    1.237023    0.186584
  H      0.830750    1.371595    1.268554
  C      1.549646    0.096349   -0.306238
  H      1.453744   -0.000302   -1.395665
  C      1.106877   -1.220473    0.335115
  H      1.247261   -1.191029    1.426924
  O     -0.277418   -1.441920    0.035795
  O      1.830015   -2.326556   -0.132546
  O      2.928801    0.371668   -0.050258
  O      0.948664    2.456444   -0.507672
  O     -1.652889    1.895764    0.571255
  O     -2.909634   -0.940115   -1.038862
  H     -3.252382   -0.175225    0.817514
  H     -2.709024   -1.866205    0.824253
  H      1.859221   -2.283205   -1.100144
  H      3.039214    0.469854    0.906928
  H      1.868792    2.685549   -0.319361
  H     -1.421521    2.752473    0.188246
  H     -2.342088   -1.604746   -1.451199

 Total Charge           Charge          ....    0
 Multiplicity           Mult            ....    1
 Number of Electrons    NEL             ....   96
 Basis Dimension        Dim             ....  444

ORBITAL ENERGIES
----------------

  NO   OCC          E(Eh)            E(eV)
   0   2.0000     -21.700210      -590.4927
   1   2.0000     -21.697237      -590.4118
   2   2.0000     -21.695422      -590.3625
   3   2.0000     -21.693069      -590.2984
   4   2.0000     -21.681378      -589.9803
   5   2.0000     -21.672852      -589.7483
   6   2.0000     -12.166692      -331.0725
   7   2.0000     -12.120204      -329.8075
   8   2.0000     -12.118330      -329.7565
   9   2.0000     -12.113984      -329.6383
  10   2.0000     -12.109402      -329.5136
  11   2.0000     -12.095731      -329.1416
  12   2.0000      -1.728333       -47.0303
  13   2.0000      -1.703853       -46.3642
  14   2.0000      -1.694944       -46.1218
  15   2.0000      -1.686361       -45.8882
  16   2.0000      -1.681492       -45.7557
  17   2.0000      -1.672174       -45.5022
  18   2.0000      -1.344224       -36.5782
  19   2.0000      -1.327483       -36.1227
  20   2.0000      -1.239857       -33.7382
  21   2.0000      -1.208227       -32.8775
  22   2.0000      -1.176088       -32.0030
  23   2.0000      -1.134821       -30.8800
  24   2.0000      -1.102976       -30.0135
  25   2.0000      -1.066385       -29.0178
  26   2.0000      -1.059607       -28.8334
  27   2.0000      -1.046786       -28.4845
  28   2.0000      -1.036914       -28.2159
  29   2.0000      -1.013432       -27.5769
  30   2.0000      -1.005980       -27.3741
  31   2.0000      -0.990264       -26.9464
  32   2.0000      -0.980874       -26.6909
  33   2.0000      -0.976343       -26.5676
  34   2.0000      -0.961870       -26.1738
  35   2.0000      -0.948989       -25.8233
  36   2.0000      -0.942098       -25.6358
  37   2.0000      -0.938377       -25.5345
  38   2.0000      -0.928257       -25.2592
  39   2.0000      -0.918357       -24.9898
  40   2.0000      -0.904359       -24.6089
  41   2.0000      -0.898858       -24.4592
  42   2.0000      -0.847434       -23.0599
  43   2.0000      -0.839204       -22.8359
  44   2.0000      -0.820203       -22.3188
  45   2.0000      -0.816460       -22.2170
  46   2.0000      -0.803047       -21.8520
  47   2.0000      -0.782907       -21.3040
  48   0.0000      -0.247655        -6.7390
  49   0.0000      -0.202902        -5.5212
  50   0.0000      -0.185229        -5.0403
  51   0.0000      -0.157175        -4.2770
  52   0.0000      -0.133577        -3.6348

MULLIKEN ATOMIC CHARGES
-----------------------
   0 C :    0.006524
   1 C :   -0.016326
   2 H :    0.070136
   3 C :    0.133384
   4 H :    0.080341
   5 C :    0.013580
   6 H :    0.079649
   7 C :    0.005257
   8 H :    0.094090
   9 C :    0.091594
  10 H :    0.078066
  11 O :   -0.257538
  12 O :   -0.385098
  13 O :   -0.416265
  14 O :   -0.443145
  15 O :   -0.450296
  16 O :   -0.458353
  17 H :    0.115709
  18 H :    0.107154
  19 H :    0.308094
  20 H :    0.302039
  21 H :    0.315008
  22 H :    0.317970
  23 H :    0.308427
Sum of atomic charges:   -0.0000000

LOEWDIN ATOMIC CHARGES
----------------------
   0 C :   -0.306800
   1 C :   -0.300870
   2 H :    0.145711
   3 C :   -0.300867
   4 H :    0.146778
   5 C :   -0.324537
   6 H :    0.138818
   7 C :   -0.323714
   8 H :    0.150953
   9 C :   -0.410236
  10 H :    0.130157
  11 O :    0.180202
  12 O :    0.018704
  13 O :   -0.009737
  14 O :   -0.016484
  15 O :   -0.008201
  16 O :   -0.043893
  17 H :    0.136980
  18 H :    0.122191
  19 H :    0.179412
  20 H :    0.173110
  21 H :    0.174702
  22 H :    0.177745
  23 H :    0.169876

  Mayer bond orders larger than 0.100000
B(  0-C ,  1-C ) :   0.9833 B(  0-C , 16-O ) :   0.9879 B(  0-C , 17-H ) :   0.9625
B(  0-C , 18-H ) :   0.9793 B(  1-C ,  2-H ) :   0.9516 B(  1-C ,  3-C ) :   0.9535
B(  1-C , 11-O ) :   0.9910 B(  1-C , 16-O ) :   0.1205 B(  3-C ,  4-H ) :   0.9529
B(  3-C ,  5-C ) :   0.9380 B(  3-C , 15-O ) :   1.0703 B(  5-C ,  6-H ) :   0.9609
B(  5-C ,  7-C ) :   0.9971 B(  5-C , 14-O ) :   1.0761 B(  7-C ,  8-H ) :   0.9270
B(  7-C ,  9-C ) :   0.9777 B(  7-C , 13-O ) :   1.0135 B(  9-C , 10-H ) :   0.9694
B(  9-C , 11-O ) :   1.0304 B(  9-C , 12-O ) :   1.1736 B( 12-O , 19-H ) :   0.8874
B( 13-O , 20-H ) :   0.8920 B( 14-O , 21-H ) :   0.8862 B( 15-O , 22-H ) :   0.8864
B( 16-O , 23-H ) :   0.8932

FINAL SINGLE POINT ENERGY      -687.246327687706

DIPOLE MOMENT
-------------

Method             : SCF
Type of density    : Electron Density
Multiplicity       :   1
Irrep              :   0
Energy             :  -687.2651951029059774 Eh
Relativity type    :
Basis              : AO
                                X                 Y                 Z
Electronic contribution:      1.960462424      -0.461212046      -1.305623995
Nuclear contribution   :     -1.188134877       0.774868557       1.778553069
                        -----------------------------------------
Total Dipole Moment    :      0.772327548       0.313656511       0.472929074
                        -----------------------------------------
Magnitude (a.u.)       :      0.958400833
Magnitude (Debye)      :      2.436061320

Rotational constants in cm-1:             0.039274             0.026473             0.017477
Rotational constants in MHz :          1177.393829           793.627442           523.960311

                             ****ORCA TERMINATED NORMALLY****
TOTAL RUN TIME: 0 days 0 hours 4 minutes 49 seconds 104 msec
