                         Program Version 6.0.0  -   RELEASE  -
|  1> ! wb97x-v def2-tzvp def2/J RIJCOSX DEFGRID2 scfconv7 GCP(DFT/TZ) printgap
|  2> %output
|  3>     printlevel normal
|  4> end
|  5> %cpcm
|  6>     smd true
|  7>     smdsolvent "water"
|  8> end
|  9> * xyz 0 1
| 10> C -2.5661746638623377 -0.885722379508878 0.3503441120024218
| 11> C -1.1385882294859644 -0.43390252543980534 0.5947337865148339
| 12> H -0.9806542987191431 -0.370991481537548 1.6842994525740551
| 13> C -0.8067652102679166 0.9160787851038696 -0.03969179126821776
| 14> H -0.9985803127529085 0.864086815278572 -1.121545782787818
| 15> C 0.6621306107169249 1.2370229116666502 0.18658391274722236
| 16> H 0.8307501755146922 1.3715949232557152 1.2685539130568353
| 17> C 1.5496464549344569 0.09634863066536632 -0.30623809402570734
| 18> H 1.4537443959146328 -0.0003019879751420283 -1.3956650561693933
| 19> C 1.1068770910586847 -1.2204725728035501 0.3351145398710541
| 20> H 1.2472606614319304 -1.1910286171055362 1.426923592899529
| 21> O -0.27741827387388746 -1.4419200264662946 0.035794594448728505
| 22> O 1.8300151989825444 -2.3265564451488108 -0.13254643018254642
| 23> O 2.9288012470755 0.37166753721656365 -0.05025762231157737
| 24> O 0.9486642460033857 2.45644368587464 -0.5076722990029644
| 25> O -1.6528893057387513 1.895763796684483 0.5712548515523558
| 26> O -2.9096338339715113 -0.940114753628301 -1.0388619679098894
| 27> H -3.2523822596686482 -0.17522483815275464 0.8175143537859375
| 28> H -2.7090236727228514 -1.8662049998116836 0.8242525003697845
| 29> H 1.8592206088684233 -2.283205078229103 -1.1001435094804561
| 30> H 3.0392143483730703 0.4698543172348096 0.9069281791869775
| 31> H 1.8687917838741286 2.685549218498284 -0.3193608591839188
| 32> H -1.421520609152407 2.7524732994245507 0.18824592562254264
| 33> H -2.3420884261882953 -1.6047464190924237 -1.451199421283055
| 34> *
| 35>
| 36>                          ****END OF INPUT****

CARTESIAN COORDINATES (ANGSTROEM)
---------------------------------
  C     -2.566175   -0.885722    0.350344
  C     -1.138588   -0.433903    0.594734
  H     -0.980654   -0.370991    1.684299
  C     -0.806765    0.916079   -0.039692
  H     -0.998580    0.864087   -1.121546
  C      0.662131    1.237023    0.186584
  H      0.830750    1.371595    1.268554
  C      1.549646    0.096349   -0.306238
  H      1.453744   -0.000302   -1.395665
  C      1.106877   -1.220473    0.335115
  H      1.247261   -1.191029    1.426924
  O     -0.277418   -1.441920    0.035795
  O      1.830015   -2.326556   -0.132546
  O      2.928801    0.371668   -0.050258
  O      0.948664    2.456444   -0.507672
  O     -1.652889    1.895764    0.571255
  O     -2.909634   -0.940115   -1.038862
  H     -3.252382   -0.175225    0.817514
  H     -2.709024   -1.866205    0.824253
  H      1.859221   -2.283205   -1.100144
  H      3.039214    0.469854    0.906928
  H      1.868792    2.685549   -0.319361
  H     -1.421521    2.752473    0.188246
  H     -2.342088   -1.604746   -1.451199

 Total Charge           Charge          ....    0
 Multiplicity           Mult            ....    1
 Number of Electrons    NEL             ....   96
 Basis Dimension        Dim             ....  444

ORBITAL ENERGIES
----------------

  NO   OCC          E(Eh)            E(eV)
   0   2.0000     -21.691512      -590.2561
   1   2.0000     -21.691299      -590.2502
   2   2.0000     -21.685207      -590.0845
   3   2.0000     -21.681659      -589.9879
   4   2.0000     -21.681195      -589.9753
   5   2.0000     -21.677395      -589.8719
   6   2.0000     -12.152745      -330.6930
   7   2.0000     -12.104078      -329.3687
   8   2.0000     -12.103385      -329.3498
   9   2.0000     -12.101869      -329.3086
  10   2.0000     -12.100528      -329.2721
  11   2.0000     -12.091182      -329.0178
  12   2.0000      -1.722839       -46.8808
  13   2.0000      -1.690875       -46.0110
  14   2.0000      -1.686715       -45.8979
  15   2.0000      -1.681167       -45.7469
  16   2.0000      -1.678349       -45.6702
  17   2.0000      -1.675798       -45.6008
  18   2.0000      -1.332557       -36.2607
  19   2.0000      -1.317035       -35.8383
  20   2.0000      -1.232133       -33.5280
  21   2.0000      -1.198900       -32.6237
  22   2.0000      -1.168689       -31.8016
  23   2.0000      -1.128884       -30.7185
  24   2.0000      -1.092770       -29.7358
  25   2.0000      -1.057939       -28.7880
  26   2.0000      -1.053516       -28.6676
  27   2.0000      -1.038961       -28.2716
  28   2.0000      -1.034432       -28.1483
  29   2.0000      -1.008300       -27.4373
  30   2.0000      -0.998489       -27.1703
  31   2.0000      -0.985065       -26.8050
  32   2.0000      -0.975206       -26.5367
  33   2.0000      -0.971322       -26.4310
  34   2.0000      -0.960389       -26.1335
  35   2.0000      -0.946015       -25.7424
  36   2.0000      -0.941365       -25.6158
  37   2.0000      -0.929537       -25.2940
  38   2.0000      -0.923399       -25.1270
  39   2.0000      -0.913397       -24.8548
  40   2.0000      -0.898104       -24.4387
  41   2.0000      -0.893298       -24.3079
  42   2.0000      -0.839202       -22.8359
  43   2.0000      -0.835240       -22.7280
  44   2.0000      -0.807893       -21.9839
  45   2.0000      -0.803217       -21.8567
  46   2.0000      -0.798461       -21.7272
  47   2.0000      -0.770545       -20.9676
  48   0.0000      -0.235885        -6.4188
  49   0.0000      -0.191919        -5.2224
  50   0.0000      -0.172712        -4.6997
  51   0.0000      -0.149989        -4.0814
  52   0.0000      -0.123578        -3.3627

MULLIKEN ATOMIC CHARGES
-----------------------
   0 C :   -0.013412
   1 C :    0.043991
   2 H :    0.109432
   3 C :    0.098043
   4 H :    0.090854
   5 C :    0.033118
   6 H :    0.115208
   7 C :    0.050550
   8 H :    0.125317
   9 C :    0.099910
  10 H :    0.129651
  11 O :   -0.327994
  12 O :   -0.494130
  13 O :   -0.523788
  14 O :   -0.527609
  15 O :   -0.532008
  16 O :   -0.555241
  17 H :    0.129651
  18 H :    0.132031
  19 H :    0.369403
  20 H :    0.364064
  21 H :    0.361601
  22 H :    0.361587
  23 H :    0.359772
Sum of atomic charges:   -0.0000000

LOEWDIN ATOMIC CHARGES
----------------------
   0 C :   -0.308105
   1 C :   -0.295103
   2 H :    0.159010
   3 C :   -0.301306
   4 H :    0.147602
   5 C :   -0.311350
   6 H :    0.153872
   7 C :   -0.314946
   8 H :    0.159175
   9 C :   -0.403828
  10 H :    0.144987
  11 O :    0.160994
  12 O :   -0.019735
  13 O :   -0.042459
  14 O :   -0.044875
  15 O :   -0.038917
  16 O :   -0.081892
  17 H :    0.137345
  18 H :    0.129887
  19 H :    0.200637
  20 H :    0.198218
  21 H :    0.191177
  22 H :    0.191476
  23 H :    0.188137

  Mayer bond orders larger than 0.100000
B(  0-C ,  1-C ) :   0.9668 B(  0-C , 16-O ) :   0.9615 B(  0-C , 17-H ) :   0.9667
B(  0-C , 18-H ) :   0.9809 B(  1-C ,  2-H ) :   0.9451 B(  1-C ,  3-C ) :   0.9730
B(  1-C , 11-O ) :   0.9636 B(  3-C ,  4-H ) :   0.9483 B(  3-C ,  5-C ) :   0.9759
B(  3-C , 15-O ) :   1.0288 B(  5-C ,  6-H ) :   0.9609 B(  5-C ,  7-C ) :   1.0022
B(  5-C , 14-O ) :   1.0419 B(  7-C ,  8-H ) :   0.9296 B(  7-C ,  9-C ) :   0.9784
B(  7-C , 13-O ) :   0.9832 B(  9-C , 10-H ) :   0.9765 B(  9-C , 11-O ) :   1.0036
B(  9-C , 12-O ) :   1.1195 B( 12-O , 19-H ) :   0.8502 B( 13-O , 20-H ) :   0.8583
B( 14-O , 21-H ) :   0.8589 B( 15-O , 22-H ) :   0.8587 B( 16-O , 23-H ) :   0.8622

FINAL SINGLE POINT ENERGY      -687.287460523393

DIPOLE MOMENT
-------------

Method             : SCF
Type of density    : Electron Density
Multiplicity       :   1
Irrep              :   0
Energy             :  -687.3063279385933129 Eh
Relativity type    :
Basis              : AO
                                X                 Y                 Z
Electronic contribution:      2.298998501      -0.381422663      -0.976308229
Nuclear contribution   :     -1.188134877       0.774868557       1.778553069
                        -----------------------------------------
Total Dipole Moment    :      1.110863624       0.393445894       0.802244840
                        -----------------------------------------
Magnitude (a.u.)       :      1.425627738
Magnitude (Debye)      :      3.623657733

Rotational constants in cm-1:             0.039274             0.026473             0.017477
Rotational constants in MHz :          1177.393829           793.627442           523.960311

                             ****ORCA TERMINATED NORMALLY****
TOTAL RUN TIME: 0 days 0 hours 5 minutes 25 seconds 427 msec
