                         Program Version 6.0.0  -   RELEASE  -
|  1> ! wb97x-v def2-tzvp def2/J RIJCOSX DEFGRID2 scfconv7 GCP(DFT/TZ) printgap
|  2> %output
|  3>     printlevel normal
|  4> end
|  5> * xyz 0 1
|  6> C -1.2023617456041547 -0.24805991048732587 0.011685033444695729
|  7> N 1.339105003581892e-06 0.584585066057501 -0.1273793305690168
|  8> C 1.202558756688213 -0.2477823232162165 0.011678828009563082
|  9> H -1.2637960019994743 -0.9489116925458346 -0.8277894492716265
| 10> H -2.0985447064418805 0.37897097724193046 -0.010087227243562494
| 11> H -1.218503027727272 -0.8400270040687045 0.9424397753707324
| 12> H -6.920475059226697e-05 1.230805469118549 0.6570682123019365
| 13> H 2.0985649200178242 0.37951050520616014 -0.009659950919659007
| 14> H 1.2644001346167462 -0.9483267992854041 -0.8280237232495515
| 15> H 1.2186539143412625 -0.8400605901193204 0.9422363243046701
| 16> *
| 17>
| 18>                          ****END OF INPUT****

CARTESIAN COORDINATES (ANGSTROEM)
---------------------------------
  C     -1.202362   -0.248060    0.011685
  N      0.000001    0.584585   -0.127379
  C      1.202559   -0.247782    0.011679
  H     -1.263796   -0.948912   -0.827789
  H     -2.098545    0.378971   -0.010087
  H     -1.218503   -0.840027    0.942440
  H     -0.000069    1.230805    0.657068
  H      2.098565    0.379511   -0.009660
  H      1.264400   -0.948327   -0.828024
  H      1.218654   -0.840061    0.942236

 Total Charge           Charge          ....    0
 Multiplicity           Mult            ....    1
 Number of Electrons    NEL             ....   26
 Basis Dimension        Dim             ....  135

ORBITAL ENERGIES
----------------

  NO   OCC          E(Eh)            E(eV)
   0   2.0000     -16.511938      -449.3127
   1   2.0000     -12.059774      -328.1631
   2   2.0000     -12.059505      -328.1558
   3   2.0000      -1.460588       -39.7446
   4   2.0000      -1.200705       -32.6728
   5   2.0000      -1.120947       -30.5025
   6   2.0000      -0.951254       -25.8849
   7   2.0000      -0.907445       -24.6928
   8   2.0000      -0.878314       -23.9001
   9   2.0000      -0.813591       -22.1389
  10   2.0000      -0.802270       -21.8309
  11   2.0000      -0.798264       -21.7219
  12   2.0000      -0.703399       -19.1405
  13   0.0000      -0.077631        -2.1125
  14   0.0000      -0.035611        -0.9690
  15   0.0000      -0.017578        -0.4783
  16   0.0000       0.021487         0.5847
  17   0.0000       0.038260         1.0411

MULLIKEN ATOMIC CHARGES
-----------------------
   0 C :   -0.259070
   1 N :   -0.306246
   2 C :   -0.259063
   3 H :    0.111093
   4 H :    0.117366
   5 H :    0.091183
   6 H :    0.185101
   7 H :    0.117364
   8 H :    0.111098
   9 H :    0.091173
Sum of atomic charges:    0.0000000

LOEWDIN ATOMIC CHARGES
----------------------
   0 C :   -0.348665
   1 N :   -0.084502
   2 C :   -0.348665
   3 H :    0.109767
   4 H :    0.108337
   5 H :    0.093192
   6 H :    0.159243
   7 H :    0.108337
   8 H :    0.109765
   9 H :    0.093192

  Mayer bond orders larger than 0.100000
B(  0-C ,  1-N ) :   1.0039 B(  0-C ,  3-H ) :   0.9803 B(  0-C ,  4-H ) :   0.9810
B(  0-C ,  5-H ) :   0.9753 B(  1-N ,  2-C ) :   1.0039 B(  1-N ,  6-H ) :   0.9402
B(  2-C ,  7-H ) :   0.9810 B(  2-C ,  8-H ) :   0.9803 B(  2-C ,  9-H ) :   0.9753

FINAL SINGLE POINT ENERGY      -135.163302272191

DIPOLE MOMENT
-------------

Method             : SCF
Type of density    : Electron Density
Multiplicity       :   1
Irrep              :   0
Energy             :  -135.1702613455913990 Eh
Relativity type    :
Basis              : AO
                                X                 Y                 Z
Electronic contribution:     -0.000185769       1.413185297      -0.468016776
Nuclear contribution   :      0.000210927      -1.578775091       0.903844693
                        -----------------------------------------
Total Dipole Moment    :      0.000025158      -0.165589794       0.435827916
                        -----------------------------------------
Magnitude (a.u.)       :      0.466225217
Magnitude (Debye)      :      1.185050325

Rotational constants in cm-1:             1.113650             0.314253             0.275686
Rotational constants in MHz :         33386.372583          9421.073478          8264.865870

                             ****ORCA TERMINATED NORMALLY****
TOTAL RUN TIME: 0 days 0 hours 0 minutes 29 seconds 396 msec
