                         Program Version 6.0.0  -   RELEASE  -
|  1> ! wb97x-v def2-tzvp def2/J RIJCOSX DEFGRID2 scfconv7 GCP(DFT/TZ) printgap
|  2> %output
|  3>     printlevel normal
|  4> end
|  5> %cpcm
|  6>     smd true
|  7>     smdsolvent "water"
|  8> end
|  9> * xyz 0 1
| 10> C -1.2023617456041547 -0.24805991048732587 0.011685033444695729
| 11> N 1.339105003581892e-06 0.584585066057501 -0.1273793305690168
| 12> C 1.202558756688213 -0.2477823232162165 0.011678828009563082
| 13> H -1.2637960019994743 -0.9489116925458346 -0.8277894492716265
| 14> H -2.0985447064418805 0.37897097724193046 -0.010087227243562494
| 15> H -1.218503027727272 -0.8400270040687045 0.9424397753707324
| 16> H -6.920475059226697e-05 1.230805469118549 0.6570682123019365
| 17> H 2.0985649200178242 0.37951050520616014 -0.009659950919659007
| 18> H 1.2644001346167462 -0.9483267992854041 -0.8280237232495515
| 19> H 1.2186539143412625 -0.8400605901193204 0.9422363243046701
| 20> *
| 21>
| 22>                          ****END OF INPUT****

CARTESIAN COORDINATES (ANGSTROEM)
---------------------------------
  C     -1.202362   -0.248060    0.011685
  N      0.000001    0.584585   -0.127379
  C      1.202559   -0.247782    0.011679
  H     -1.263796   -0.948912   -0.827789
  H     -2.098545    0.378971   -0.010087
  H     -1.218503   -0.840027    0.942440
  H     -0.000069    1.230805    0.657068
  H      2.098565    0.379511   -0.009660
  H      1.264400   -0.948327   -0.828024
  H      1.218654   -0.840061    0.942236

 Total Charge           Charge          ....    0
 Multiplicity           Mult            ....    1
 Number of Electrons    NEL             ....   26
 Basis Dimension        Dim             ....  135

ORBITAL ENERGIES
----------------

  NO   OCC          E(Eh)            E(eV)
   0   2.0000     -16.507956      -449.2043
   1   2.0000     -12.051050      -327.9257
   2   2.0000     -12.050785      -327.9185
   3   2.0000      -1.455258       -39.5996
   4   2.0000      -1.193487       -32.4764
   5   2.0000      -1.113451       -30.2986
   6   2.0000      -0.945026       -25.7155
   7   2.0000      -0.901185       -24.5225
   8   2.0000      -0.871992       -23.7281
   9   2.0000      -0.805152       -21.9093
  10   2.0000      -0.794222       -21.6119
  11   2.0000      -0.789827       -21.4923
  12   2.0000      -0.700302       -19.0562
  13   0.0000      -0.070452        -1.9171
  14   0.0000      -0.029398        -0.8000
  15   0.0000      -0.004341        -0.1181
  16   0.0000       0.034115         0.9283
  17   0.0000       0.049757         1.3540

MULLIKEN ATOMIC CHARGES
-----------------------
   0 C :   -0.292838
   1 N :   -0.385682
   2 C :   -0.292827
   3 H :    0.127657
   4 H :    0.134384
   5 H :    0.109296
   6 H :    0.228682
   7 H :    0.134391
   8 H :    0.127655
   9 H :    0.109283
Sum of atomic charges:    0.0000000

LOEWDIN ATOMIC CHARGES
----------------------
   0 C :   -0.353211
   1 N :   -0.108766
   2 C :   -0.353211
   3 H :    0.111771
   4 H :    0.111210
   5 H :    0.099116
   6 H :    0.170996
   7 H :    0.111213
   8 H :    0.111766
   9 H :    0.099115

  Mayer bond orders larger than 0.100000
B(  0-C ,  1-N ) :   0.9909 B(  0-C ,  3-H ) :   0.9768 B(  0-C ,  4-H ) :   0.9764
B(  0-C ,  5-H ) :   0.9777 B(  1-N ,  2-C ) :   0.9909 B(  1-N ,  6-H ) :   0.9268
B(  2-C ,  7-H ) :   0.9764 B(  2-C ,  8-H ) :   0.9768 B(  2-C ,  9-H ) :   0.9777

FINAL SINGLE POINT ENERGY      -135.170265374981

DIPOLE MOMENT
-------------

Method             : SCF
Type of density    : Electron Density
Multiplicity       :   1
Irrep              :   0
Energy             :  -135.1772244483809402 Eh
Relativity type    :
Basis              : AO
                                X                 Y                 Z
Electronic contribution:     -0.000173529       1.344770316      -0.297801973
Nuclear contribution   :      0.000210927      -1.578775091       0.903844693
                        -----------------------------------------
Total Dipole Moment    :      0.000037398      -0.234004775       0.606042720
                        -----------------------------------------
Magnitude (a.u.)       :      0.649650687
Magnitude (Debye)      :      1.651280816

Rotational constants in cm-1:             1.113650             0.314253             0.275686
Rotational constants in MHz :         33386.372583          9421.073478          8264.865870

                             ****ORCA TERMINATED NORMALLY****
TOTAL RUN TIME: 0 days 0 hours 0 minutes 31 seconds 697 msec
