                         Program Version 6.0.0  -   RELEASE  -
|  1> ! wb97x-v def2-tzvp def2/J RIJCOSX DEFGRID2 scfconv7 GCP(DFT/TZ) printgap
|  2> %output
|  3>     printlevel normal
|  4> end
|  5> * xyz 0 1
|  6> C 0.7405186600357233 0.0002210583170504632 -0.0034983417933793773
|  7> C 1.4511508612297364 0.8307626438666469 -0.8703048841087488
|  8> C 2.847394620811475 0.8378334875026063 -0.8787643090018438
|  9> C 3.5434726823675775 0.0012004257989132743 0.0010570378835272007
| 10> C 2.8451748031881174 -0.836390903893704 0.8782043013502887
| 11> C 1.4490040982921242 -0.8303928404283043 0.8651135623063616
| 12> Cl 0.5596620574144525 -1.864293935268802 1.9354214282323792
| 13> Cl 3.703232477188183 -1.8688212127501498 1.964775234893242
| 14> Cl 5.270279928230694 0.0024101435510590556 0.004457660010298666
| 15> Cl 3.70831641039051 1.8708654448626862 -1.9624928632841097
| 16> Cl 0.5644131843440412 1.8639461026717683 -1.943428264281055
| 17> C -0.7405146315112787 0.0009112475545115328 -0.003507143278311999
| 18> C -1.4491805135791433 0.8312329779518278 0.8652243807957176
| 19> C -2.845353496837436 0.8364208312108947 0.8787836891522617
| 20> C -3.5434665938664582 -0.0016643060210473801 0.0019598319314936357
| 21> C -2.8472052654434883 -0.837831072251651 -0.8781587767065369
| 22> C -1.450966315637816 -0.8299468839363942 -0.8701712599525876
| 23> Cl -0.5640070035158781 -1.86263920680958 -1.9435924138473126
| 24> Cl -3.707887139349796 -1.8713875087516696 -1.9615760266149493
| 25> Cl -5.270271387327432 -0.004116520652242843 0.006150036218065378
| 26> Cl -3.7036475937971676 1.8683650095564244 1.9656302762488502
| 27> Cl -0.5600626178778936 1.8656536392728345 1.9352079020716335
| 28> *
| 29>
| 30>                          ****END OF INPUT****

CARTESIAN COORDINATES (ANGSTROEM)
---------------------------------
  C      0.740519    0.000221   -0.003498
  C      1.451151    0.830763   -0.870305
  C      2.847395    0.837833   -0.878764
  C      3.543473    0.001200    0.001057
  C      2.845175   -0.836391    0.878204
  C      1.449004   -0.830393    0.865114
  Cl     0.559662   -1.864294    1.935421
  Cl     3.703232   -1.868821    1.964775
  Cl     5.270280    0.002410    0.004458
  Cl     3.708316    1.870865   -1.962493
  Cl     0.564413    1.863946   -1.943428
  C     -0.740515    0.000911   -0.003507
  C     -1.449181    0.831233    0.865224
  C     -2.845353    0.836421    0.878784
  C     -3.543467   -0.001664    0.001960
  C     -2.847205   -0.837831   -0.878159
  C     -1.450966   -0.829947   -0.870171
  Cl    -0.564007   -1.862639   -1.943592
  Cl    -3.707887   -1.871388   -1.961576
  Cl    -5.270271   -0.004117    0.006150
  Cl    -3.703648    1.868365    1.965630
  Cl    -0.560063    1.865654    1.935208

 Total Charge           Charge          ....    0
 Multiplicity           Mult            ....    1
 Number of Electrons    NEL             ....  242
 Basis Dimension        Dim             ....  742

ORBITAL ENERGIES
----------------

  NO   OCC          E(Eh)            E(eV)
   0   2.0000    -107.175691     -2916.3988
   1   2.0000    -107.175682     -2916.3986
   2   2.0000    -107.175676     -2916.3984
   3   2.0000    -107.175675     -2916.3984
   4   2.0000    -107.175100     -2916.3827
   5   2.0000    -107.175097     -2916.3827
   6   2.0000    -107.174420     -2916.3642
   7   2.0000    -107.174418     -2916.3642
   8   2.0000    -107.174418     -2916.3642
   9   2.0000    -107.174417     -2916.3641
  10   2.0000     -12.166510      -331.0676
  11   2.0000     -12.166502      -331.0673
  12   2.0000     -12.163915      -330.9970
  13   2.0000     -12.163911      -330.9969
  14   2.0000     -12.163149      -330.9761
  15   2.0000     -12.163126      -330.9755
  16   2.0000     -12.161608      -330.9342
  17   2.0000     -12.161595      -330.9338
  18   2.0000     -12.161060      -330.9193
  19   2.0000     -12.160984      -330.9172
  20   2.0000     -12.125278      -329.9456
  21   2.0000     -12.123632      -329.9008
  22   2.0000     -11.328749      -308.2709
  23   2.0000     -11.328736      -308.2706
  24   2.0000     -11.328698      -308.2695
  25   2.0000     -11.328679      -308.2690
  26   2.0000     -11.328150      -308.2546
  27   2.0000     -11.328140      -308.2544
  28   2.0000     -11.327435      -308.2352
  29   2.0000     -11.327435      -308.2352
  30   2.0000     -11.327410      -308.2345
  31   2.0000     -11.327395      -308.2341
  32   2.0000      -9.120737      -248.1879
  33   2.0000      -9.120736      -248.1879
  34   2.0000      -9.120439      -248.1798
  35   2.0000      -9.120320      -248.1765
  36   2.0000      -9.119955      -248.1666
  37   2.0000      -9.119952      -248.1665
  38   2.0000      -9.119247      -248.1473
  39   2.0000      -9.119246      -248.1473
  40   2.0000      -9.118637      -248.1307
  41   2.0000      -9.118545      -248.1282
  42   2.0000      -9.117858      -248.1095
  43   2.0000      -9.117845      -248.1092
  44   2.0000      -9.117843      -248.1091
  45   2.0000      -9.117649      -248.1038
  46   2.0000      -9.117583      -248.1020
  47   2.0000      -9.117571      -248.1017
  48   2.0000      -9.117494      -248.0996
  49   2.0000      -9.117304      -248.0945
  50   2.0000      -9.117046      -248.0874
  51   2.0000      -9.117044      -248.0874
  52   2.0000      -9.116933      -248.0844
  53   2.0000      -9.116929      -248.0842
  54   2.0000      -9.116221      -248.0650
  55   2.0000      -9.116221      -248.0650
  56   2.0000      -9.116147      -248.0630
  57   2.0000      -9.116078      -248.0611
  58   2.0000      -9.115891      -248.0560
  59   2.0000      -9.115890      -248.0560
  60   2.0000      -9.115712      -248.0511
  61   2.0000      -9.115712      -248.0511
  62   2.0000      -1.514916       -41.2230
  63   2.0000      -1.507305       -41.0159
  64   2.0000      -1.475093       -40.1393
  65   2.0000      -1.474929       -40.1349
  66   2.0000      -1.471443       -40.0400
  67   2.0000      -1.460511       -39.7425
  68   2.0000      -1.442991       -39.2658
  69   2.0000      -1.442798       -39.2605
  70   2.0000      -1.435980       -39.0750
  71   2.0000      -1.434059       -39.0227
  72   2.0000      -1.398807       -38.0635
  73   2.0000      -1.385279       -37.6954
  74   2.0000      -1.339526       -36.4504
  75   2.0000      -1.298748       -35.3407
  76   2.0000      -1.298691       -35.3392
  77   2.0000      -1.293709       -35.2036
  78   2.0000      -1.195176       -32.5224
  79   2.0000      -1.159397       -31.5488
  80   2.0000      -1.158500       -31.5244
  81   2.0000      -1.146305       -31.1925
  82   2.0000      -1.062142       -28.9023
  83   2.0000      -1.060762       -28.8648
  84   2.0000      -1.041884       -28.3511
  85   2.0000      -1.015508       -27.6334
  86   2.0000      -1.004127       -27.3237
  87   2.0000      -0.987672       -26.8759
  88   2.0000      -0.971967       -26.4486
  89   2.0000      -0.968894       -26.3649
  90   2.0000      -0.968881       -26.3646
  91   2.0000      -0.949038       -25.8246
  92   2.0000      -0.934222       -25.4215
  93   2.0000      -0.933757       -25.4088
  94   2.0000      -0.930360       -25.3164
  95   2.0000      -0.901118       -24.5207
  96   2.0000      -0.900904       -24.5149
  97   2.0000      -0.861982       -23.4557
  98   2.0000      -0.858645       -23.3649
  99   2.0000      -0.850542       -23.1444
 100   2.0000      -0.850339       -23.1389
 101   2.0000      -0.834867       -22.7179
 102   2.0000      -0.833412       -22.6783
 103   2.0000      -0.832220       -22.6459
 104   2.0000      -0.832178       -22.6447
 105   2.0000      -0.831260       -22.6197
 106   2.0000      -0.831252       -22.6195
 107   2.0000      -0.828910       -22.5558
 108   2.0000      -0.828874       -22.5548
 109   2.0000      -0.825974       -22.4759
 110   2.0000      -0.825792       -22.4709
 111   2.0000      -0.821377       -22.3508
 112   2.0000      -0.821361       -22.3504
 113   2.0000      -0.812385       -22.1061
 114   2.0000      -0.812356       -22.1053
 115   2.0000      -0.784259       -21.3408
 116   2.0000      -0.783474       -21.3194
 117   2.0000      -0.704507       -19.1706
 118   2.0000      -0.702053       -19.1038
 119   2.0000      -0.695918       -18.9369
 120   2.0000      -0.695683       -18.9305
 121   0.0000      -0.367515       -10.0006
 122   0.0000      -0.355642        -9.6775
 123   0.0000      -0.333636        -9.0787
 124   0.0000      -0.331845        -9.0300
 125   0.0000      -0.330459        -8.9923

MULLIKEN ATOMIC CHARGES
-----------------------
   0 C :   -0.067866
   1 C :    0.116781
   2 C :   -0.062126
   3 C :    0.038694
   4 C :   -0.061917
   5 C :    0.115939
   6 Cl:   -0.021412
   7 Cl:   -0.011658
   8 Cl:   -0.013353
   9 Cl:   -0.011680
  10 Cl:   -0.021336
  11 C :   -0.067724
  12 C :    0.115796
  13 C :   -0.061749
  14 C :    0.038469
  15 C :   -0.062033
  16 C :    0.116548
  17 Cl:   -0.021298
  18 Cl:   -0.011680
  19 Cl:   -0.013335
  20 Cl:   -0.011690
  21 Cl:   -0.021370
Sum of atomic charges:   -0.0000000

LOEWDIN ATOMIC CHARGES
----------------------
   0 C :   -0.151066
   1 C :   -0.394545
   2 C :   -0.443617
   3 C :   -0.439034
   4 C :   -0.443641
   5 C :   -0.394456
   6 Cl:    0.462019
   7 Cl:    0.446659
   8 Cl:    0.449095
   9 Cl:    0.446657
  10 Cl:    0.461931
  11 C :   -0.151066
  12 C :   -0.394475
  13 C :   -0.443636
  14 C :   -0.439037
  15 C :   -0.443619
  16 C :   -0.394529
  17 Cl:    0.461939
  18 Cl:    0.446658
  19 Cl:    0.449095
  20 Cl:    0.446658
  21 Cl:    0.462010

  Mayer bond orders larger than 0.100000
B(  0-C ,  1-C ) :   1.3040 B(  0-C ,  5-C ) :   1.3047 B(  0-C , 11-C ) :   0.7566
B(  1-C ,  2-C ) :   1.3457 B(  1-C , 10-Cl) :   1.2164 B(  2-C ,  3-C ) :   1.3276
B(  2-C ,  9-Cl) :   1.2371 B(  3-C ,  4-C ) :   1.3276 B(  3-C ,  8-Cl) :   1.2275
B(  4-C ,  5-C ) :   1.3460 B(  4-C ,  7-Cl) :   1.2371 B(  5-C ,  6-Cl) :   1.2162
B( 11-C , 12-C ) :   1.3047 B( 11-C , 16-C ) :   1.3044 B( 12-C , 13-C ) :   1.3458
B( 12-C , 21-Cl) :   1.2164 B( 13-C , 14-C ) :   1.3276 B( 13-C , 20-Cl) :   1.2369
B( 14-C , 15-C ) :   1.3277 B( 14-C , 19-Cl) :   1.2278 B( 15-C , 16-C ) :   1.3457
B( 15-C , 18-Cl) :   1.2370 B( 16-C , 17-Cl) :   1.2167

FINAL SINGLE POINT ENERGY     -5058.755854771164

DIPOLE MOMENT
-------------

Method             : SCF
Type of density    : Electron Density
Multiplicity       :   1
Irrep              :   0
Energy             : -5058.7674007525638444 Eh
Relativity type    :
Basis              : AO
                                X                 Y                 Z
Electronic contribution:      0.000002544      -0.000740564       0.004568620
Nuclear contribution   :     -0.000001639       0.000768887      -0.004760602
                        -----------------------------------------
Total Dipole Moment    :      0.000000905       0.000028323      -0.000191982
                        -----------------------------------------
Magnitude (a.u.)       :      0.000194062
Magnitude (Debye)      :      0.000493265

Rotational constants in cm-1:             0.007632             0.002895             0.002847
Rotational constants in MHz :           228.793675            86.801953            85.364796

                             ****ORCA TERMINATED NORMALLY****
TOTAL RUN TIME: 0 days 0 hours 15 minutes 20 seconds 66 msec
