                         Program Version 6.0.0  -   RELEASE  -
|  1> ! wb97x-v def2-tzvp def2/J RIJCOSX DEFGRID2 scfconv7 GCP(DFT/TZ) printgap
|  2> %output
|  3>     printlevel normal
|  4> end
|  5> %cpcm
|  6>     smd true
|  7>     smdsolvent "water"
|  8> end
|  9> * xyz 0 1
| 10> C 0.7405186600357233 0.0002210583170504632 -0.0034983417933793773
| 11> C 1.4511508612297364 0.8307626438666469 -0.8703048841087488
| 12> C 2.847394620811475 0.8378334875026063 -0.8787643090018438
| 13> C 3.5434726823675775 0.0012004257989132743 0.0010570378835272007
| 14> C 2.8451748031881174 -0.836390903893704 0.8782043013502887
| 15> C 1.4490040982921242 -0.8303928404283043 0.8651135623063616
| 16> Cl 0.5596620574144525 -1.864293935268802 1.9354214282323792
| 17> Cl 3.703232477188183 -1.8688212127501498 1.964775234893242
| 18> Cl 5.270279928230694 0.0024101435510590556 0.004457660010298666
| 19> Cl 3.70831641039051 1.8708654448626862 -1.9624928632841097
| 20> Cl 0.5644131843440412 1.8639461026717683 -1.943428264281055
| 21> C -0.7405146315112787 0.0009112475545115328 -0.003507143278311999
| 22> C -1.4491805135791433 0.8312329779518278 0.8652243807957176
| 23> C -2.845353496837436 0.8364208312108947 0.8787836891522617
| 24> C -3.5434665938664582 -0.0016643060210473801 0.0019598319314936357
| 25> C -2.8472052654434883 -0.837831072251651 -0.8781587767065369
| 26> C -1.450966315637816 -0.8299468839363942 -0.8701712599525876
| 27> Cl -0.5640070035158781 -1.86263920680958 -1.9435924138473126
| 28> Cl -3.707887139349796 -1.8713875087516696 -1.9615760266149493
| 29> Cl -5.270271387327432 -0.004116520652242843 0.006150036218065378
| 30> Cl -3.7036475937971676 1.8683650095564244 1.9656302762488502
| 31> Cl -0.5600626178778936 1.8656536392728345 1.9352079020716335
| 32> *
| 33>
| 34>                          ****END OF INPUT****

CARTESIAN COORDINATES (ANGSTROEM)
---------------------------------
  C      0.740519    0.000221   -0.003498
  C      1.451151    0.830763   -0.870305
  C      2.847395    0.837833   -0.878764
  C      3.543473    0.001200    0.001057
  C      2.845175   -0.836391    0.878204
  C      1.449004   -0.830393    0.865114
  Cl     0.559662   -1.864294    1.935421
  Cl     3.703232   -1.868821    1.964775
  Cl     5.270280    0.002410    0.004458
  Cl     3.708316    1.870865   -1.962493
  Cl     0.564413    1.863946   -1.943428
  C     -0.740515    0.000911   -0.003507
  C     -1.449181    0.831233    0.865224
  C     -2.845353    0.836421    0.878784
  C     -3.543467   -0.001664    0.001960
  C     -2.847205   -0.837831   -0.878159
  C     -1.450966   -0.829947   -0.870171
  Cl    -0.564007   -1.862639   -1.943592
  Cl    -3.707887   -1.871388   -1.961576
  Cl    -5.270271   -0.004117    0.006150
  Cl    -3.703648    1.868365    1.965630
  Cl    -0.560063    1.865654    1.935208

 Total Charge           Charge          ....    0
 Multiplicity           Mult            ....    1
 Number of Electrons    NEL             ....  242
 Basis Dimension        Dim             ....  742

ORBITAL ENERGIES
----------------

  NO   OCC          E(Eh)            E(eV)
   0   2.0000    -107.172285     -2916.3061
   1   2.0000    -107.172282     -2916.3061
   2   2.0000    -107.171872     -2916.2949
   3   2.0000    -107.171863     -2916.2947
   4   2.0000    -107.171858     -2916.2945
   5   2.0000    -107.171858     -2916.2945
   6   2.0000    -107.171689     -2916.2899
   7   2.0000    -107.171689     -2916.2899
   8   2.0000    -107.171688     -2916.2899
   9   2.0000    -107.171685     -2916.2898
  10   2.0000     -12.161088      -330.9200
  11   2.0000     -12.161080      -330.9198
  12   2.0000     -12.158427      -330.8476
  13   2.0000     -12.158423      -330.8475
  14   2.0000     -12.157626      -330.8258
  15   2.0000     -12.157605      -330.8252
  16   2.0000     -12.156079      -330.7837
  17   2.0000     -12.156065      -330.7833
  18   2.0000     -12.155555      -330.7695
  19   2.0000     -12.155480      -330.7674
  20   2.0000     -12.119410      -329.7859
  21   2.0000     -12.117765      -329.7412
  22   2.0000     -11.325362      -308.1788
  23   2.0000     -11.325355      -308.1786
  24   2.0000     -11.324958      -308.1678
  25   2.0000     -11.324946      -308.1674
  26   2.0000     -11.324895      -308.1660
  27   2.0000     -11.324876      -308.1656
  28   2.0000     -11.324723      -308.1614
  29   2.0000     -11.324722      -308.1613
  30   2.0000     -11.324706      -308.1609
  31   2.0000     -11.324690      -308.1605
  32   2.0000      -9.117311      -248.0946
  33   2.0000      -9.117280      -248.0938
  34   2.0000      -9.117119      -248.0894
  35   2.0000      -9.117119      -248.0894
  36   2.0000      -9.116622      -248.0759
  37   2.0000      -9.116587      -248.0750
  38   2.0000      -9.116346      -248.0684
  39   2.0000      -9.116345      -248.0684
  40   2.0000      -9.115778      -248.0529
  41   2.0000      -9.115632      -248.0490
  42   2.0000      -9.114709      -248.0238
  43   2.0000      -9.114705      -248.0237
  44   2.0000      -9.114184      -248.0096
  45   2.0000      -9.114182      -248.0095
  46   2.0000      -9.114092      -248.0071
  47   2.0000      -9.113995      -248.0044
  48   2.0000      -9.113937      -248.0028
  49   2.0000      -9.113900      -248.0018
  50   2.0000      -9.113846      -248.0003
  51   2.0000      -9.113750      -247.9977
  52   2.0000      -9.113727      -247.9971
  53   2.0000      -9.113716      -247.9968
  54   2.0000      -9.113485      -247.9905
  55   2.0000      -9.113476      -247.9903
  56   2.0000      -9.113422      -247.9888
  57   2.0000      -9.113159      -247.9817
  58   2.0000      -9.113009      -247.9776
  59   2.0000      -9.112989      -247.9770
  60   2.0000      -9.112934      -247.9755
  61   2.0000      -9.112932      -247.9755
  62   2.0000      -1.509773       -41.0830
  63   2.0000      -1.502456       -40.8839
  64   2.0000      -1.471080       -40.0301
  65   2.0000      -1.470922       -40.0258
  66   2.0000      -1.467328       -39.9280
  67   2.0000      -1.456594       -39.6359
  68   2.0000      -1.439493       -39.1706
  69   2.0000      -1.439296       -39.1652
  70   2.0000      -1.432962       -38.9929
  71   2.0000      -1.431005       -38.9396
  72   2.0000      -1.394073       -37.9346
  73   2.0000      -1.380374       -37.5619
  74   2.0000      -1.334308       -36.3084
  75   2.0000      -1.293454       -35.1967
  76   2.0000      -1.293396       -35.1951
  77   2.0000      -1.288191       -35.0534
  78   2.0000      -1.189705       -32.3735
  79   2.0000      -1.154196       -31.4073
  80   2.0000      -1.153298       -31.3828
  81   2.0000      -1.140975       -31.0475
  82   2.0000      -1.056646       -28.7528
  83   2.0000      -1.055264       -28.7152
  84   2.0000      -1.037093       -28.2207
  85   2.0000      -1.011282       -27.5184
  86   2.0000      -1.000092       -27.2139
  87   2.0000      -0.983897       -26.7732
  88   2.0000      -0.967565       -26.3288
  89   2.0000      -0.964723       -26.2514
  90   2.0000      -0.964710       -26.2511
  91   2.0000      -0.944994       -25.7146
  92   2.0000      -0.929975       -25.3059
  93   2.0000      -0.929506       -25.2931
  94   2.0000      -0.925916       -25.1954
  95   2.0000      -0.895667       -24.3723
  96   2.0000      -0.895471       -24.3670
  97   2.0000      -0.858009       -23.3476
  98   2.0000      -0.854784       -23.2598
  99   2.0000      -0.846776       -23.0419
 100   2.0000      -0.846561       -23.0361
 101   2.0000      -0.831702       -22.6318
 102   2.0000      -0.830340       -22.5947
 103   2.0000      -0.829057       -22.5598
 104   2.0000      -0.828905       -22.5557
 105   2.0000      -0.828632       -22.5482
 106   2.0000      -0.828625       -22.5480
 107   2.0000      -0.826247       -22.4833
 108   2.0000      -0.826205       -22.4822
 109   2.0000      -0.822528       -22.3821
 110   2.0000      -0.822358       -22.3775
 111   2.0000      -0.818453       -22.2712
 112   2.0000      -0.818367       -22.2689
 113   2.0000      -0.809712       -22.0334
 114   2.0000      -0.809677       -22.0324
 115   2.0000      -0.779825       -21.2201
 116   2.0000      -0.779023       -21.1983
 117   2.0000      -0.698733       -19.0135
 118   2.0000      -0.696254       -18.9460
 119   2.0000      -0.690238       -18.7823
 120   2.0000      -0.690049       -18.7772
 121   0.0000      -0.362920        -9.8756
 122   0.0000      -0.351140        -9.5550
 123   0.0000      -0.327391        -8.9088
 124   0.0000      -0.325695        -8.8626
 125   0.0000      -0.324224        -8.8226

MULLIKEN ATOMIC CHARGES
-----------------------
   0 C :   -0.059641
   1 C :    0.116632
   2 C :   -0.046757
   3 C :    0.055594
   4 C :   -0.046522
   5 C :    0.115734
   6 Cl:   -0.029450
   7 Cl:   -0.024693
   8 Cl:   -0.026720
   9 Cl:   -0.024721
  10 Cl:   -0.029394
  11 C :   -0.059409
  12 C :    0.115527
  13 C :   -0.046311
  14 C :    0.055336
  15 C :   -0.046612
  16 C :    0.116320
  17 Cl:   -0.029353
  18 Cl:   -0.024721
  19 Cl:   -0.026701
  20 Cl:   -0.024727
  21 Cl:   -0.029410
Sum of atomic charges:   -0.0000000

LOEWDIN ATOMIC CHARGES
----------------------
   0 C :   -0.148344
   1 C :   -0.390539
   2 C :   -0.436664
   3 C :   -0.431386
   4 C :   -0.436689
   5 C :   -0.390448
   6 Cl:    0.457061
   7 Cl:    0.439158
   8 Cl:    0.441742
   9 Cl:    0.439155
  10 Cl:    0.456954
  11 C :   -0.148344
  12 C :   -0.390468
  13 C :   -0.436685
  14 C :   -0.431388
  15 C :   -0.436665
  16 C :   -0.390522
  17 Cl:    0.456965
  18 Cl:    0.439156
  19 Cl:    0.441743
  20 Cl:    0.439156
  21 Cl:    0.457049

  Mayer bond orders larger than 0.100000
B(  0-C ,  1-C ) :   1.3072 B(  0-C ,  5-C ) :   1.3079 B(  0-C , 11-C ) :   0.7679
B(  1-C ,  2-C ) :   1.3472 B(  1-C , 10-Cl) :   1.2094 B(  2-C ,  3-C ) :   1.3323
B(  2-C ,  9-Cl) :   1.2152 B(  3-C ,  4-C ) :   1.3323 B(  3-C ,  8-Cl) :   1.2048
B(  4-C ,  5-C ) :   1.3475 B(  4-C ,  7-Cl) :   1.2152 B(  5-C ,  6-Cl) :   1.2092
B( 11-C , 12-C ) :   1.3080 B( 11-C , 16-C ) :   1.3076 B( 12-C , 13-C ) :   1.3473
B( 12-C , 21-Cl) :   1.2095 B( 13-C , 14-C ) :   1.3323 B( 13-C , 20-Cl) :   1.2150
B( 14-C , 15-C ) :   1.3324 B( 14-C , 19-Cl) :   1.2050 B( 15-C , 16-C ) :   1.3471
B( 15-C , 18-Cl) :   1.2150 B( 16-C , 17-Cl) :   1.2098

FINAL SINGLE POINT ENERGY     -5058.751907610388

DIPOLE MOMENT
-------------

Method             : SCF
Type of density    : Electron Density
Multiplicity       :   1
Irrep              :   0
Energy             : -5058.7634535917877656 Eh
Relativity type    :
Basis              : AO
                                X                 Y                 Z
Electronic contribution:      0.000002417      -0.000703692       0.004278663
Nuclear contribution   :     -0.000001639       0.000768887      -0.004760602
                        -----------------------------------------
Total Dipole Moment    :      0.000000778       0.000065195      -0.000481939
                        -----------------------------------------
Magnitude (a.u.)       :      0.000486329
Magnitude (Debye)      :      0.001236151

Rotational constants in cm-1:             0.007632             0.002895             0.002847
Rotational constants in MHz :           228.793675            86.801953            85.364796

                             ****ORCA TERMINATED NORMALLY****
TOTAL RUN TIME: 0 days 0 hours 16 minutes 51 seconds 38 msec
