                         Program Version 6.0.0  -   RELEASE  -
|  1> ! r2scan-3c def2/J RI DEFGRID2 scfconv6 printgap
|  2> %output
|  3>     printlevel normal
|  4> end
|  5> * xyz 0 1
|  6> C -3.2991156587 0.2609944365 -0.0087472212
|  7> C -1.8164214656 0.0873110804 0.0086998943
|  8> C -0.9732532932 1.1982524807 0.0061472068
|  9> C 0.3952351121 1.0437826704 0.0014515467
| 10> C 0.9612747404 -0.2361158447 -0.0007207302
| 11> C 0.1189492718 -1.3518408775 0.0004167864
| 12> C -1.2494897282 -1.1863789663 0.0051336329
| 13> C 2.4031998053 -0.4034464929 -0.0029234375
| 14> O 3.2254676661 0.4941666642 -0.002689823
| 15> H -3.5895854761 1.162876869 0.5231837504
| 16> H -3.6410419901 0.3549603513 -1.0392100443
| 17> H -3.7968666552 -0.5966627971 0.4348722338
| 18> H -1.4012470801 2.1893203964 0.0090083052
| 19> H 1.0574401792 1.8968932695 0.0010815523
| 20> H 0.5502710494 -2.3417828938 -0.0006798663
| 21> H -1.8939888341 -2.0524236887 0.0071446132
| 22> H 2.7417705203 -1.4571244666 -0.0054081029
| 23> *
| 24>
| 25>                          ****END OF INPUT****

CARTESIAN COORDINATES (ANGSTROEM)
---------------------------------
  C     -3.299116    0.260994   -0.008747
  C     -1.816421    0.087311    0.008700
  C     -0.973253    1.198252    0.006147
  C      0.395235    1.043783    0.001452
  C      0.961275   -0.236116   -0.000721
  C      0.118949   -1.351841    0.000417
  C     -1.249490   -1.186379    0.005134
  C      2.403200   -0.403446   -0.002923
  O      3.225468    0.494167   -0.002690
  H     -3.589585    1.162877    0.523184
  H     -3.641042    0.354960   -1.039210
  H     -3.796867   -0.596663    0.434872
  H     -1.401247    2.189320    0.009008
  H      1.057440    1.896893    0.001082
  H      0.550271   -2.341783   -0.000680
  H     -1.893989   -2.052424    0.007145
  H      2.741771   -1.457124   -0.005408

 Total Charge           Charge          ....    0
 Multiplicity           Mult            ....    1
 Number of Electrons    NEL             ....   64
 Basis Dimension        Dim             ....  216

ORBITAL ENERGIES
----------------

  NO   OCC          E(Eh)            E(eV)
   0   2.0000     -18.940909      -515.4083
   1   2.0000     -10.113266      -275.1960
   2   2.0000     -10.066985      -273.9366
   3   2.0000     -10.057407      -273.6760
   4   2.0000     -10.051496      -273.5151
   5   2.0000     -10.050938      -273.4999
   6   2.0000     -10.049546      -273.4620
   7   2.0000     -10.048396      -273.4308
   8   2.0000     -10.042798      -273.2784
   9   2.0000      -1.001985       -27.2654
  10   2.0000      -0.848008       -23.0755
  11   2.0000      -0.768669       -20.9165
  12   2.0000      -0.734437       -19.9850
  13   2.0000      -0.687320       -18.7029
  14   2.0000      -0.605103       -16.4657
  15   2.0000      -0.592884       -16.1332
  16   2.0000      -0.545717       -14.8497
  17   2.0000      -0.484482       -13.1834
  18   2.0000      -0.455858       -12.4045
  19   2.0000      -0.437732       -11.9113
  20   2.0000      -0.411576       -11.1995
  21   2.0000      -0.407716       -11.0945
  22   2.0000      -0.406397       -11.0586
  23   2.0000      -0.393455       -10.7064
  24   2.0000      -0.379077       -10.3152
  25   2.0000      -0.367416        -9.9979
  26   2.0000      -0.338181        -9.2024
  27   2.0000      -0.334284        -9.0963
  28   2.0000      -0.321640        -8.7523
  29   2.0000      -0.255681        -6.9574
  30   2.0000      -0.243386        -6.6229
  31   2.0000      -0.221082        -6.0159
  32   0.0000      -0.094171        -2.5625
  33   0.0000      -0.048243        -1.3128
  34   0.0000       0.005716         0.1555
  35   0.0000       0.070014         1.9052
  36   0.0000       0.088974         2.4211

MULLIKEN ATOMIC CHARGES
-----------------------
   0 C :   -0.525192
   1 C :    0.221853
   2 C :   -0.195492
   3 C :   -0.174274
   4 C :    0.247078
   5 C :   -0.223353
   6 C :   -0.209131
   7 C :   -0.008950
   8 O :   -0.350351
   9 H :    0.156404
  10 H :    0.177455
  11 H :    0.154683
  12 H :    0.149053
  13 H :    0.178339
  14 H :    0.152609
  15 H :    0.147630
  16 H :    0.101641
Sum of atomic charges:    0.0000000

LOEWDIN ATOMIC CHARGES
----------------------
   0 C :   -0.385867
   1 C :   -0.073000
   2 C :   -0.155290
   3 C :   -0.095340
   4 C :   -0.107515
   5 C :   -0.125866
   6 C :   -0.161485
   7 C :    0.210043
   8 O :   -0.464748
   9 H :    0.164692
  10 H :    0.171945
  11 H :    0.163304
  12 H :    0.171603
  13 H :    0.187667
  14 H :    0.173425
  15 H :    0.170817
  16 H :    0.155615

  Mayer bond orders larger than 0.100000
B(  0-C ,  1-C ) :   0.8055 B(  0-C ,  9-H ) :   0.9843 B(  0-C , 10-H ) :   0.9637
B(  0-C , 11-H ) :   0.9874 B(  1-C ,  2-C ) :   1.3534 B(  1-C ,  6-C ) :   1.3885
B(  2-C ,  3-C ) :   1.4551 B(  2-C , 12-H ) :   0.9514 B(  3-C ,  4-C ) :   1.3628
B(  3-C , 13-H ) :   0.9669 B(  4-C ,  5-C ) :   1.3608 B(  4-C ,  7-C ) :   0.8418
B(  4-C ,  8-O ) :  -0.1155 B(  4-C , 16-H ) :  -0.1263 B(  5-C ,  6-C ) :   1.4642
B(  5-C , 14-H ) :   0.9324 B(  6-C , 15-H ) :   0.9473 B(  7-C ,  8-O ) :   1.9477
B(  7-C , 16-H ) :   1.0487

Dispersion correction           -0.005593162
FINAL SINGLE POINT ENERGY      -384.793418889754

DIPOLE MOMENT
-------------

Method             : SCF
Type of density    : Electron Density
Multiplicity       :   1
Irrep              :   0
Energy             :  -384.7931987664532585 Eh
Relativity type    :
Basis              : AO
                                X                 Y                 Z
Electronic contribution:      7.716765381       0.287723416       0.041427755
Nuclear contribution   :     -9.308820760      -0.784441350      -0.065718850
                        -----------------------------------------
Total Dipole Moment    :     -1.592055379      -0.496717934      -0.024291095
                        -----------------------------------------
Magnitude (a.u.)       :      1.667920590
Magnitude (Debye)      :      4.239517219

Rotational constants in cm-1:             0.167892             0.033283             0.027920
Rotational constants in MHz :          5033.281765           997.798831           837.018096

                             ****ORCA TERMINATED NORMALLY****
TOTAL RUN TIME: 0 days 0 hours 0 minutes 25 seconds 612 msec
