                         Program Version 6.0.0  -   RELEASE  -
|  1> ! r2scan-3c def2/J RI DEFGRID2 scfconv6 printgap
|  2> %output
|  3>     printlevel normal
|  4> end
|  5> %cpcm
|  6>     smd true
|  7>     smdsolvent "water"
|  8> end
|  9> * xyz 0 1
| 10> C -3.2991156587 0.2609944365 -0.0087472212
| 11> C -1.8164214656 0.0873110804 0.0086998943
| 12> C -0.9732532932 1.1982524807 0.0061472068
| 13> C 0.3952351121 1.0437826704 0.0014515467
| 14> C 0.9612747404 -0.2361158447 -0.0007207302
| 15> C 0.1189492718 -1.3518408775 0.0004167864
| 16> C -1.2494897282 -1.1863789663 0.0051336329
| 17> C 2.4031998053 -0.4034464929 -0.0029234375
| 18> O 3.2254676661 0.4941666642 -0.002689823
| 19> H -3.5895854761 1.162876869 0.5231837504
| 20> H -3.6410419901 0.3549603513 -1.0392100443
| 21> H -3.7968666552 -0.5966627971 0.4348722338
| 22> H -1.4012470801 2.1893203964 0.0090083052
| 23> H 1.0574401792 1.8968932695 0.0010815523
| 24> H 0.5502710494 -2.3417828938 -0.0006798663
| 25> H -1.8939888341 -2.0524236887 0.0071446132
| 26> H 2.7417705203 -1.4571244666 -0.0054081029
| 27> *
| 28>
| 29>                          ****END OF INPUT****

CARTESIAN COORDINATES (ANGSTROEM)
---------------------------------
  C     -3.299116    0.260994   -0.008747
  C     -1.816421    0.087311    0.008700
  C     -0.973253    1.198252    0.006147
  C      0.395235    1.043783    0.001452
  C      0.961275   -0.236116   -0.000721
  C      0.118949   -1.351841    0.000417
  C     -1.249490   -1.186379    0.005134
  C      2.403200   -0.403446   -0.002923
  O      3.225468    0.494167   -0.002690
  H     -3.589585    1.162877    0.523184
  H     -3.641042    0.354960   -1.039210
  H     -3.796867   -0.596663    0.434872
  H     -1.401247    2.189320    0.009008
  H      1.057440    1.896893    0.001082
  H      0.550271   -2.341783   -0.000680
  H     -1.893989   -2.052424    0.007145
  H      2.741771   -1.457124   -0.005408

 Total Charge           Charge          ....    0
 Multiplicity           Mult            ....    1
 Number of Electrons    NEL             ....   64
 Basis Dimension        Dim             ....  216

ORBITAL ENERGIES
----------------

  NO   OCC          E(Eh)            E(eV)
   0   2.0000     -18.951999      -515.7101
   1   2.0000     -10.119746      -275.3723
   2   2.0000     -10.059433      -273.7311
   3   2.0000     -10.048867      -273.4436
   4   2.0000     -10.046006      -273.3657
   5   2.0000     -10.045600      -273.3547
   6   2.0000     -10.039068      -273.1769
   7   2.0000     -10.038614      -273.1646
   8   2.0000     -10.022540      -272.7272
   9   2.0000      -1.015885       -27.6436
  10   2.0000      -0.841127       -22.8882
  11   2.0000      -0.759892       -20.6777
  12   2.0000      -0.726189       -19.7606
  13   2.0000      -0.676090       -18.3974
  14   2.0000      -0.598296       -16.2805
  15   2.0000      -0.583659       -15.8822
  16   2.0000      -0.538817       -14.6620
  17   2.0000      -0.480488       -13.0747
  18   2.0000      -0.450586       -12.2611
  19   2.0000      -0.428358       -11.6562
  20   2.0000      -0.407133       -11.0786
  21   2.0000      -0.398339       -10.8394
  22   2.0000      -0.397003       -10.8030
  23   2.0000      -0.394994       -10.7483
  24   2.0000      -0.382460       -10.4073
  25   2.0000      -0.350786        -9.5454
  26   2.0000      -0.333152        -9.0655
  27   2.0000      -0.327554        -8.9132
  28   2.0000      -0.310597        -8.4518
  29   2.0000      -0.249650        -6.7933
  30   2.0000      -0.239744        -6.5238
  31   2.0000      -0.233832        -6.3629
  32   0.0000      -0.095429        -2.5967
  33   0.0000      -0.041151        -1.1198
  34   0.0000       0.008417         0.2290
  35   0.0000       0.088199         2.4000
  36   0.0000       0.106251         2.8912

MULLIKEN ATOMIC CHARGES
-----------------------
   0 C :   -0.550766
   1 C :    0.211714
   2 C :   -0.232308
   3 C :   -0.198788
   4 C :    0.215491
   5 C :   -0.228943
   6 C :   -0.231340
   7 C :    0.037407
   8 O :   -0.452594
   9 H :    0.175029
  10 H :    0.195032
  11 H :    0.174522
  12 H :    0.182883
  13 H :    0.191683
  14 H :    0.189351
  15 H :    0.182883
  16 H :    0.138744
Sum of atomic charges:    0.0000000

LOEWDIN ATOMIC CHARGES
----------------------
   0 C :   -0.388512
   1 C :   -0.065066
   2 C :   -0.156960
   3 C :   -0.107738
   4 C :   -0.121937
   5 C :   -0.119098
   6 C :   -0.162522
   7 C :    0.224641
   8 O :   -0.544659
   9 H :    0.171470
  10 H :    0.180171
  11 H :    0.170388
  12 H :    0.183924
  13 H :    0.189747
  14 H :    0.187531
  15 H :    0.183882
  16 H :    0.174737

  Mayer bond orders larger than 0.100000
B(  0-C ,  1-C ) :   0.8205 B(  0-C ,  9-H ) :   0.9772 B(  0-C , 10-H ) :   0.9544
B(  0-C , 11-H ) :   0.9801 B(  1-C ,  2-C ) :   1.3307 B(  1-C ,  6-C ) :   1.3564
B(  2-C ,  3-C ) :   1.4627 B(  2-C , 12-H ) :   0.9558 B(  3-C ,  4-C ) :   1.2752
B(  3-C , 13-H ) :   0.9691 B(  4-C ,  5-C ) :   1.3473 B(  4-C ,  7-C ) :   0.9114
B(  4-C ,  8-O ) :  -0.1104 B(  5-C ,  6-C ) :   1.4418 B(  5-C , 14-H ) :   0.9383
B(  6-C , 15-H ) :   0.9555 B(  7-C ,  8-O ) :   1.8694 B(  7-C , 16-H ) :   1.0171

Dispersion correction           -0.005593162
FINAL SINGLE POINT ENERGY      -384.800464979548

DIPOLE MOMENT
-------------

Method             : SCF
Type of density    : Electron Density
Multiplicity       :   1
Irrep              :   0
Energy             :  -384.8002448562469908 Eh
Relativity type    :
Basis              : AO
                                X                 Y                 Z
Electronic contribution:      7.029965570      -0.044259822       0.030585691
Nuclear contribution   :     -9.308820760      -0.784441350      -0.065718850
                        -----------------------------------------
Total Dipole Moment    :     -2.278855191      -0.828701172      -0.035133159
                        -----------------------------------------
Magnitude (a.u.)       :      2.425110503
Magnitude (Debye)      :      6.164141027

Rotational constants in cm-1:             0.167892             0.033283             0.027920
Rotational constants in MHz :          5033.281765           997.798831           837.018096

                             ****ORCA TERMINATED NORMALLY****
TOTAL RUN TIME: 0 days 0 hours 0 minutes 28 seconds 832 msec
