                         Program Version 6.0.0  -   RELEASE  -
|  1> ! r2scan-3c def2/J RI DEFGRID2 scfconv6 printgap
|  2> %output
|  3>     printlevel normal
|  4> end
|  5> * xyz 0 1
|  6> C 1.2808069845 -1.2134937182 0.2446234318
|  7> C 0.4816370143 -0.0975783521 -0.4379873576
|  8> C 0.9109106516 1.2657030923 0.095122087
|  9> C -0.9859890814 -0.3768558573 -0.2767980116
| 10> C -1.8847905223 0.3948525011 0.3049878487
| 11> H 2.3466479871 -1.0648396571 0.0897645989
| 12> H 1.0052299024 -2.1858047166 -0.1570096786
| 13> H 1.0826656555 -1.2137634538 1.3143284679
| 14> H 0.7023445722 -0.1347297477 -1.5130710295
| 15> H 0.3638208578 2.0627609293 -0.4020651189
| 16> H 0.7320889409 1.3299602568 1.165822965
| 17> H 1.9730791064 1.4151330783 -0.0839746983
| 18> H -1.2939133727 -1.3316548351 -0.6868167535
| 19> H -2.9175602676 0.0970984903 0.3756957485
| 20> H -1.6418653224 1.3520114818 0.7320730692
| 21> *
| 22>
| 23>                          ****END OF INPUT****

CARTESIAN COORDINATES (ANGSTROEM)
---------------------------------
  C      1.280807   -1.213494    0.244623
  C      0.481637   -0.097578   -0.437987
  C      0.910911    1.265703    0.095122
  C     -0.985989   -0.376856   -0.276798
  C     -1.884791    0.394853    0.304988
  H      2.346648   -1.064840    0.089765
  H      1.005230   -2.185805   -0.157010
  H      1.082666   -1.213763    1.314328
  H      0.702345   -0.134730   -1.513071
  H      0.363821    2.062761   -0.402065
  H      0.732089    1.329960    1.165823
  H      1.973079    1.415133   -0.083975
  H     -1.293913   -1.331655   -0.686817
  H     -2.917560    0.097098    0.375696
  H     -1.641865    1.352011    0.732073

 Total Charge           Charge          ....    0
 Multiplicity           Mult            ....    1
 Number of Electrons    NEL             ....   40
 Basis Dimension        Dim             ....  145

ORBITAL ENERGIES
----------------

  NO   OCC          E(Eh)            E(eV)
   0   2.0000     -10.040732      -273.2222
   1   2.0000     -10.030938      -272.9557
   2   2.0000     -10.019735      -272.6509
   3   2.0000     -10.016929      -272.5745
   4   2.0000     -10.015809      -272.5440
   5   2.0000      -0.783845       -21.3295
   6   2.0000      -0.703689       -19.1484
   7   2.0000      -0.653082       -17.7713
   8   2.0000      -0.582369       -15.8471
   9   2.0000      -0.499856       -13.6018
  10   2.0000      -0.448950       -12.2166
  11   2.0000      -0.415696       -11.3117
  12   2.0000      -0.407623       -11.0920
  13   2.0000      -0.365985        -9.9590
  14   2.0000      -0.351068        -9.5531
  15   2.0000      -0.347396        -9.4531
  16   2.0000      -0.316046        -8.6001
  17   2.0000      -0.302235        -8.2242
  18   2.0000      -0.294546        -8.0150
  19   2.0000      -0.236151        -6.4260
  20   0.0000      -0.009284        -0.2526
  21   0.0000       0.090952         2.4749
  22   0.0000       0.122050         3.3211
  23   0.0000       0.133924         3.6442
  24   0.0000       0.139447         3.7945

MULLIKEN ATOMIC CHARGES
-----------------------
   0 C :   -0.459125
   1 C :    0.022623
   2 C :   -0.542033
   3 C :   -0.167939
   4 C :   -0.321930
   5 H :    0.142278
   6 H :    0.145037
   7 H :    0.152504
   8 H :    0.145361
   9 H :    0.157385
  10 H :    0.156457
  11 H :    0.145624
  12 H :    0.145329
  13 H :    0.137860
  14 H :    0.140568
Sum of atomic charges:   -0.0000000

LOEWDIN ATOMIC CHARGES
----------------------
   0 C :   -0.406479
   1 C :   -0.239791
   2 C :   -0.416535
   3 C :   -0.188381
   4 C :   -0.318345
   5 H :    0.152370
   6 H :    0.153416
   7 H :    0.157142
   8 H :    0.163428
   9 H :    0.156885
  10 H :    0.156138
  11 H :    0.155039
  12 H :    0.161780
  13 H :    0.156583
  14 H :    0.156751

  Mayer bond orders larger than 0.100000
B(  0-C ,  1-C ) :   0.8947 B(  0-C ,  5-H ) :   0.9708 B(  0-C ,  6-H ) :   0.9752
B(  0-C ,  7-H ) :   0.9788 B(  1-C ,  2-C ) :   0.8965 B(  1-C ,  3-C ) :   0.9564
B(  1-C ,  8-H ) :   0.9575 B(  2-C ,  9-H ) :   0.9733 B(  2-C , 10-H ) :   0.9829
B(  2-C , 11-H ) :   0.9732 B(  3-C ,  4-C ) :   1.9581 B(  3-C , 12-H ) :   0.9321
B(  4-C , 13-H ) :   0.9609 B(  4-C , 14-H ) :   0.9659

Dispersion correction           -0.003471452
FINAL SINGLE POINT ENERGY      -196.459647489605

DIPOLE MOMENT
-------------

Method             : SCF
Type of density    : Electron Density
Multiplicity       :   1
Irrep              :   0
Energy             :  -196.4622732100485507 Eh
Relativity type    :
Basis              : AO
                                X                 Y                 Z
Electronic contribution:     -2.037582285      -0.351156325      -0.849691023
Nuclear contribution   :      2.207084055       0.306005097       0.783136343
                        -----------------------------------------
Total Dipole Moment    :      0.169501770      -0.045151228      -0.066554680
                        -----------------------------------------
Magnitude (a.u.)       :      0.187613989
Magnitude (Debye)      :      0.476876861

Rotational constants in cm-1:             0.244281             0.132539             0.097674
Rotational constants in MHz :          7323.355316          3973.414626          2928.192807

                             ****ORCA TERMINATED NORMALLY****
TOTAL RUN TIME: 0 days 0 hours 0 minutes 12 seconds 85 msec
