                         Program Version 6.0.0  -   RELEASE  -
|  1> ! r2scan-3c def2/J RI DEFGRID2 scfconv6 printgap
|  2> %output
|  3>     printlevel normal
|  4> end
|  5> %cpcm
|  6>     smd true
|  7>     smdsolvent "water"
|  8> end
|  9> * xyz 0 1
| 10> C 1.2808069845 -1.2134937182 0.2446234318
| 11> C 0.4816370143 -0.0975783521 -0.4379873576
| 12> C 0.9109106516 1.2657030923 0.095122087
| 13> C -0.9859890814 -0.3768558573 -0.2767980116
| 14> C -1.8847905223 0.3948525011 0.3049878487
| 15> H 2.3466479871 -1.0648396571 0.0897645989
| 16> H 1.0052299024 -2.1858047166 -0.1570096786
| 17> H 1.0826656555 -1.2137634538 1.3143284679
| 18> H 0.7023445722 -0.1347297477 -1.5130710295
| 19> H 0.3638208578 2.0627609293 -0.4020651189
| 20> H 0.7320889409 1.3299602568 1.165822965
| 21> H 1.9730791064 1.4151330783 -0.0839746983
| 22> H -1.2939133727 -1.3316548351 -0.6868167535
| 23> H -2.9175602676 0.0970984903 0.3756957485
| 24> H -1.6418653224 1.3520114818 0.7320730692
| 25> *
| 26>
| 27>                          ****END OF INPUT****

CARTESIAN COORDINATES (ANGSTROEM)
---------------------------------
  C      1.280807   -1.213494    0.244623
  C      0.481637   -0.097578   -0.437987
  C      0.910911    1.265703    0.095122
  C     -0.985989   -0.376856   -0.276798
  C     -1.884791    0.394853    0.304988
  H      2.346648   -1.064840    0.089765
  H      1.005230   -2.185805   -0.157010
  H      1.082666   -1.213763    1.314328
  H      0.702345   -0.134730   -1.513071
  H      0.363821    2.062761   -0.402065
  H      0.732089    1.329960    1.165823
  H      1.973079    1.415133   -0.083975
  H     -1.293913   -1.331655   -0.686817
  H     -2.917560    0.097098    0.375696
  H     -1.641865    1.352011    0.732073

 Total Charge           Charge          ....    0
 Multiplicity           Mult            ....    1
 Number of Electrons    NEL             ....   40
 Basis Dimension        Dim             ....  145

ORBITAL ENERGIES
----------------

  NO   OCC          E(Eh)            E(eV)
   0   2.0000     -10.033555      -273.0269
   1   2.0000     -10.028784      -272.8971
   2   2.0000     -10.012823      -272.4628
   3   2.0000     -10.011401      -272.4241
   4   2.0000     -10.008320      -272.3402
   5   2.0000      -0.778464       -21.1831
   6   2.0000      -0.700243       -19.0546
   7   2.0000      -0.645272       -17.5587
   8   2.0000      -0.576764       -15.6946
   9   2.0000      -0.494416       -13.4537
  10   2.0000      -0.443279       -12.0622
  11   2.0000      -0.408442       -11.1143
  12   2.0000      -0.402444       -10.9511
  13   2.0000      -0.359146        -9.7729
  14   2.0000      -0.343350        -9.3430
  15   2.0000      -0.340435        -9.2637
  16   2.0000      -0.308856        -8.4044
  17   2.0000      -0.294470        -8.0129
  18   2.0000      -0.288363        -7.8468
  19   2.0000      -0.237165        -6.4536
  20   0.0000      -0.009419        -0.2563
  21   0.0000       0.097651         2.6572
  22   0.0000       0.129671         3.5285
  23   0.0000       0.140942         3.8352
  24   0.0000       0.146207         3.9785

MULLIKEN ATOMIC CHARGES
-----------------------
   0 C :   -0.499412
   1 C :    0.035324
   2 C :   -0.563586
   3 C :   -0.202933
   4 C :   -0.394903
   5 H :    0.157435
   6 H :    0.160289
   7 H :    0.158910
   8 H :    0.160171
   9 H :    0.163059
  10 H :    0.164916
  11 H :    0.160121
  12 H :    0.171835
  13 H :    0.163456
  14 H :    0.165319
Sum of atomic charges:   -0.0000000

LOEWDIN ATOMIC CHARGES
----------------------
   0 C :   -0.413172
   1 C :   -0.239130
   2 C :   -0.422738
   3 C :   -0.194465
   4 C :   -0.342502
   5 H :    0.157076
   6 H :    0.157519
   7 H :    0.157714
   8 H :    0.169331
   9 H :    0.158266
  10 H :    0.158348
  11 H :    0.158938
  12 H :    0.169480
  13 H :    0.162215
  14 H :    0.163119

  Mayer bond orders larger than 0.100000
B(  0-C ,  1-C ) :   0.8854 B(  0-C ,  5-H ) :   0.9680 B(  0-C ,  6-H ) :   0.9724
B(  0-C ,  7-H ) :   0.9773 B(  1-C ,  2-C ) :   0.8939 B(  1-C ,  3-C ) :   0.9446
B(  1-C ,  8-H ) :   0.9554 B(  2-C ,  9-H ) :   0.9700 B(  2-C , 10-H ) :   0.9786
B(  2-C , 11-H ) :   0.9710 B(  3-C ,  4-C ) :   1.9178 B(  3-C , 12-H ) :   0.9347
B(  4-C , 13-H ) :   0.9616 B(  4-C , 14-H ) :   0.9661

Dispersion correction           -0.003471452
FINAL SINGLE POINT ENERGY      -196.457695347858

DIPOLE MOMENT
-------------

Method             : SCF
Type of density    : Electron Density
Multiplicity       :   1
Irrep              :   0
Energy             :  -196.4603210683019086 Eh
Relativity type    :
Basis              : AO
                                X                 Y                 Z
Electronic contribution:     -1.956412486      -0.384255302      -0.895122939
Nuclear contribution   :      2.207084055       0.306005097       0.783136343
                        -----------------------------------------
Total Dipole Moment    :      0.250671568      -0.078250205      -0.111986596
                        -----------------------------------------
Magnitude (a.u.)       :      0.285482622
Magnitude (Debye)      :      0.725639157

Rotational constants in cm-1:             0.244281             0.132539             0.097674
Rotational constants in MHz :          7323.355316          3973.414626          2928.192807

                             ****ORCA TERMINATED NORMALLY****
TOTAL RUN TIME: 0 days 0 hours 0 minutes 14 seconds 159 msec
