                         Program Version 6.0.0  -   RELEASE  -
|  1> ! wb97x-v def2-tzvp def2/J RIJCOSX DEFGRID2 scfconv7 GCP(DFT/TZ) printgap
|  2> %output
|  3>     printlevel normal
|  4> end
|  5> * xyz 0 1
|  6> C 2.2932535479812257 -0.35874280014105614 -0.39808774526510515
|  7> C 1.0827336183037868 -0.2403151659710991 0.5135060668428355
|  8> H 1.3347680123203334 -0.620740966080557 1.5107178995702304
|  9> C 0.5011326400458042 1.1727552948670643 0.5793983395098986
| 10> C -0.5005871926290415 1.172592783487334 -0.5781346287611088
| 11> C -1.081000550974368 -0.2412088106607606 -0.5134922237640276
| 12> H -1.32861002399467 -0.6224148812858058 -1.5115425280252732
| 13> O -4.670303205900698e-05 -1.0711535590324952 0.002909822364422147
| 14> C -2.2951487070403265 -0.3600424023556125 0.3931277814137247
| 15> H 3.1424526977260085 0.1833166873561916 0.03151333373119468
| 16> H 2.583580240559898 -1.4072434914223637 -0.517397462717287
| 17> H 2.0785778637312053 0.05791532562440218 -1.388081900600383
| 18> H -0.014672633953320857 1.3278017884612274 1.531965142843804
| 19> H 1.2744140455696127 1.9385234389791957 0.4775194353577443
| 20> H -1.2748152733000626 1.9373020653180728 -0.47549759696790656
| 21> H 0.014927728319369912 1.329375511818965 -1.5305416062521944
| 22> H -2.085129659771502 0.05845485290113546 1.3833605501923347
| 23> H -2.5846272292718737 -1.4087382569783544 0.5127930880983925
| 24> H -3.143225356008915 0.1802476840278681 -0.040891134601702614
| 25> *
| 26>
| 27>                          ****END OF INPUT****

CARTESIAN COORDINATES (ANGSTROEM)
---------------------------------
  C      2.293254   -0.358743   -0.398088
  C      1.082734   -0.240315    0.513506
  H      1.334768   -0.620741    1.510718
  C      0.501133    1.172755    0.579398
  C     -0.500587    1.172593   -0.578135
  C     -1.081001   -0.241209   -0.513492
  H     -1.328610   -0.622415   -1.511543
  O     -0.000047   -1.071154    0.002910
  C     -2.295149   -0.360042    0.393128
  H      3.142453    0.183317    0.031513
  H      2.583580   -1.407243   -0.517397
  H      2.078578    0.057915   -1.388082
  H     -0.014673    1.327802    1.531965
  H      1.274414    1.938523    0.477519
  H     -1.274815    1.937302   -0.475498
  H      0.014928    1.329376   -1.530542
  H     -2.085130    0.058455    1.383361
  H     -2.584627   -1.408738    0.512793
  H     -3.143225    0.180248   -0.040891

 Total Charge           Charge          ....    0
 Multiplicity           Mult            ....    1
 Number of Electrons    NEL             ....   56
 Basis Dimension        Dim             ....  289

ORBITAL ENERGIES
----------------

  NO   OCC          E(Eh)            E(eV)
   0   2.0000     -21.656608      -589.3063
   1   2.0000     -12.091203      -329.0184
   2   2.0000     -12.090946      -329.0114
   3   2.0000     -12.045860      -327.7845
   4   2.0000     -12.044720      -327.7535
   5   2.0000     -12.031548      -327.3951
   6   2.0000     -12.031453      -327.3925
   7   2.0000      -1.656534       -45.0766
   8   2.0000      -1.313845       -35.7515
   9   2.0000      -1.295746       -35.2590
  10   2.0000      -1.209667       -32.9167
  11   2.0000      -1.150002       -31.2931
  12   2.0000      -1.089834       -29.6559
  13   2.0000      -1.052570       -28.6419
  14   2.0000      -0.966502       -26.2998
  15   2.0000      -0.949756       -25.8442
  16   2.0000      -0.932798       -25.3827
  17   2.0000      -0.877033       -23.8653
  18   2.0000      -0.860316       -23.4104
  19   2.0000      -0.851996       -23.1840
  20   2.0000      -0.831563       -22.6280
  21   2.0000      -0.829347       -22.5677
  22   2.0000      -0.814667       -22.1682
  23   2.0000      -0.806202       -21.9379
  24   2.0000      -0.783123       -21.3098
  25   2.0000      -0.772760       -21.0279
  26   2.0000      -0.762466       -20.7477
  27   2.0000      -0.759969       -20.6798
  28   0.0000      -0.162931        -4.4336
  29   0.0000      -0.128743        -3.5033
  30   0.0000      -0.030931        -0.8417
  31   0.0000      -0.025653        -0.6981
  32   0.0000      -0.023535        -0.6404

MULLIKEN ATOMIC CHARGES
-----------------------
   0 C :   -0.356153
   1 C :    0.138286
   2 H :    0.071860
   3 C :   -0.224360
   4 C :   -0.225379
   5 C :    0.138308
   6 H :    0.071668
   7 O :   -0.326975
   8 C :   -0.356056
   9 H :    0.102307
  10 H :    0.120890
  11 H :    0.101111
  12 H :    0.105063
  13 H :    0.104888
  14 H :    0.104966
  15 H :    0.105286
  16 H :    0.101085
  17 H :    0.120892
  18 H :    0.102311
Sum of atomic charges:    0.0000000

LOEWDIN ATOMIC CHARGES
----------------------
   0 C :   -0.283854
   1 C :   -0.318177
   2 H :    0.134114
   3 C :   -0.235284
   4 C :   -0.235300
   5 C :   -0.317895
   6 H :    0.134046
   7 O :    0.151574
   8 C :   -0.283911
   9 H :    0.118931
  10 H :    0.121960
  11 H :    0.118462
  12 H :    0.133100
  13 H :    0.134921
  14 H :    0.134940
  15 H :    0.133026
  16 H :    0.118468
  17 H :    0.121958
  18 H :    0.118918

  Mayer bond orders larger than 0.100000
B(  0-C ,  1-C ) :   0.9889 B(  0-C ,  9-H ) :   0.9726 B(  0-C , 10-H ) :   0.9826
B(  0-C , 11-H ) :   0.9759 B(  1-C ,  2-H ) :   0.9595 B(  1-C ,  3-C ) :   0.9690
B(  1-C ,  7-O ) :   0.9984 B(  3-C ,  4-C ) :   0.9937 B(  3-C , 12-H ) :   0.9737
B(  3-C , 13-H ) :   0.9701 B(  4-C ,  5-C ) :   0.9685 B(  4-C , 14-H ) :   0.9702
B(  4-C , 15-H ) :   0.9740 B(  5-C ,  6-H ) :   0.9595 B(  5-C ,  7-O ) :   0.9984
B(  5-C ,  8-C ) :   0.9888 B(  8-C , 16-H ) :   0.9759 B(  8-C , 17-H ) :   0.9825
B(  8-C , 18-H ) :   0.9726

FINAL SINGLE POINT ENERGY      -311.103962577924

DIPOLE MOMENT
-------------

Method             : SCF
Type of density    : Electron Density
Multiplicity       :   1
Irrep              :   0
Energy             :  -311.1173587620237413 Eh
Relativity type    :
Basis              : AO
                                X                 Y                 Z
Electronic contribution:      0.003195090      -2.145999000       0.011683965
Nuclear contribution   :     -0.002380838       2.801138647      -0.013482541
                        -----------------------------------------
Total Dipole Moment    :      0.000814251       0.655139647      -0.001798576
                        -----------------------------------------
Magnitude (a.u.)       :      0.655142622
Magnitude (Debye)      :      1.665240206

Rotational constants in cm-1:             0.161960             0.069694             0.059881
Rotational constants in MHz :          4855.438311          2089.380212          1795.174715

                             ****ORCA TERMINATED NORMALLY****
TOTAL RUN TIME: 0 days 0 hours 2 minutes 16 seconds 299 msec
