                         Program Version 6.0.0  -   RELEASE  -
|  1> ! wb97x-v def2-tzvp def2/J RIJCOSX DEFGRID2 scfconv7 GCP(DFT/TZ) printgap
|  2> %output
|  3>     printlevel normal
|  4> end
|  5> %cpcm
|  6>     smd true
|  7>     smdsolvent "water"
|  8> end
|  9> * xyz 0 1
| 10> C 2.2932535479812257 -0.35874280014105614 -0.39808774526510515
| 11> C 1.0827336183037868 -0.2403151659710991 0.5135060668428355
| 12> H 1.3347680123203334 -0.620740966080557 1.5107178995702304
| 13> C 0.5011326400458042 1.1727552948670643 0.5793983395098986
| 14> C -0.5005871926290415 1.172592783487334 -0.5781346287611088
| 15> C -1.081000550974368 -0.2412088106607606 -0.5134922237640276
| 16> H -1.32861002399467 -0.6224148812858058 -1.5115425280252732
| 17> O -4.670303205900698e-05 -1.0711535590324952 0.002909822364422147
| 18> C -2.2951487070403265 -0.3600424023556125 0.3931277814137247
| 19> H 3.1424526977260085 0.1833166873561916 0.03151333373119468
| 20> H 2.583580240559898 -1.4072434914223637 -0.517397462717287
| 21> H 2.0785778637312053 0.05791532562440218 -1.388081900600383
| 22> H -0.014672633953320857 1.3278017884612274 1.531965142843804
| 23> H 1.2744140455696127 1.9385234389791957 0.4775194353577443
| 24> H -1.2748152733000626 1.9373020653180728 -0.47549759696790656
| 25> H 0.014927728319369912 1.329375511818965 -1.5305416062521944
| 26> H -2.085129659771502 0.05845485290113546 1.3833605501923347
| 27> H -2.5846272292718737 -1.4087382569783544 0.5127930880983925
| 28> H -3.143225356008915 0.1802476840278681 -0.040891134601702614
| 29> *
| 30>
| 31>                          ****END OF INPUT****

CARTESIAN COORDINATES (ANGSTROEM)
---------------------------------
  C      2.293254   -0.358743   -0.398088
  C      1.082734   -0.240315    0.513506
  H      1.334768   -0.620741    1.510718
  C      0.501133    1.172755    0.579398
  C     -0.500587    1.172593   -0.578135
  C     -1.081001   -0.241209   -0.513492
  H     -1.328610   -0.622415   -1.511543
  O     -0.000047   -1.071154    0.002910
  C     -2.295149   -0.360042    0.393128
  H      3.142453    0.183317    0.031513
  H      2.583580   -1.407243   -0.517397
  H      2.078578    0.057915   -1.388082
  H     -0.014673    1.327802    1.531965
  H      1.274414    1.938523    0.477519
  H     -1.274815    1.937302   -0.475498
  H      0.014928    1.329376   -1.530542
  H     -2.085130    0.058455    1.383361
  H     -2.584627   -1.408738    0.512793
  H     -3.143225    0.180248   -0.040891

 Total Charge           Charge          ....    0
 Multiplicity           Mult            ....    1
 Number of Electrons    NEL             ....   56
 Basis Dimension        Dim             ....  289

ORBITAL ENERGIES
----------------

  NO   OCC          E(Eh)            E(eV)
   0   2.0000     -21.664901      -589.5319
   1   2.0000     -12.087768      -328.9249
   2   2.0000     -12.087513      -328.9180
   3   2.0000     -12.034828      -327.4843
   4   2.0000     -12.033695      -327.4535
   5   2.0000     -12.025101      -327.2196
   6   2.0000     -12.025008      -327.2171
   7   2.0000      -1.664886       -45.3039
   8   2.0000      -1.306598       -35.5544
   9   2.0000      -1.292914       -35.1820
  10   2.0000      -1.203458       -32.7477
  11   2.0000      -1.144835       -31.1525
  12   2.0000      -1.086735       -29.5716
  13   2.0000      -1.050057       -28.5735
  14   2.0000      -0.967676       -26.3318
  15   2.0000      -0.953156       -25.9367
  16   2.0000      -0.928310       -25.2606
  17   2.0000      -0.873173       -23.7603
  18   2.0000      -0.857222       -23.3262
  19   2.0000      -0.847488       -23.0613
  20   2.0000      -0.823978       -22.4216
  21   2.0000      -0.820937       -22.3388
  22   2.0000      -0.807574       -21.9752
  23   2.0000      -0.801210       -21.8020
  24   2.0000      -0.778978       -21.1971
  25   2.0000      -0.765983       -20.8434
  26   2.0000      -0.756092       -20.5743
  27   2.0000      -0.752426       -20.4745
  28   0.0000      -0.161521        -4.3952
  29   0.0000      -0.127593        -3.4720
  30   0.0000      -0.021738        -0.5915
  31   0.0000      -0.016130        -0.4389
  32   0.0000      -0.013578        -0.3695

MULLIKEN ATOMIC CHARGES
-----------------------
   0 C :   -0.420002
   1 C :    0.148052
   2 H :    0.094521
   3 C :   -0.241834
   4 C :   -0.242588
   5 C :    0.148078
   6 H :    0.094355
   7 O :   -0.423961
   8 C :   -0.419934
   9 H :    0.127071
  10 H :    0.128208
  11 H :    0.127530
  12 H :    0.122840
  13 H :    0.125893
  14 H :    0.125928
  15 H :    0.123104
  16 H :    0.127451
  17 H :    0.128205
  18 H :    0.127085
Sum of atomic charges:    0.0000000

LOEWDIN ATOMIC CHARGES
----------------------
   0 C :   -0.290530
   1 C :   -0.318918
   2 H :    0.138403
   3 C :   -0.232479
   4 C :   -0.232473
   5 C :   -0.318607
   6 H :    0.138348
   7 O :    0.109638
   8 C :   -0.290614
   9 H :    0.126054
  10 H :    0.120688
  11 H :    0.123329
  12 H :    0.137935
  13 H :    0.140647
  14 H :    0.140649
  15 H :    0.137894
  16 H :    0.123309
  17 H :    0.120681
  18 H :    0.126046

  Mayer bond orders larger than 0.100000
B(  0-C ,  1-C ) :   0.9865 B(  0-C ,  9-H ) :   0.9700 B(  0-C , 10-H ) :   0.9800
B(  0-C , 11-H ) :   0.9723 B(  1-C ,  2-H ) :   0.9599 B(  1-C ,  3-C ) :   0.9733
B(  1-C ,  7-O ) :   0.9425 B(  3-C ,  4-C ) :   0.9905 B(  3-C , 12-H ) :   0.9697
B(  3-C , 13-H ) :   0.9660 B(  4-C ,  5-C ) :   0.9728 B(  4-C , 14-H ) :   0.9661
B(  4-C , 15-H ) :   0.9699 B(  5-C ,  6-H ) :   0.9600 B(  5-C ,  7-O ) :   0.9424
B(  5-C ,  8-C ) :   0.9864 B(  8-C , 16-H ) :   0.9724 B(  8-C , 17-H ) :   0.9800
B(  8-C , 18-H ) :   0.9700

FINAL SINGLE POINT ENERGY      -311.108551877221

DIPOLE MOMENT
-------------

Method             : SCF
Type of density    : Electron Density
Multiplicity       :   1
Irrep              :   0
Energy             :  -311.1219480613214614 Eh
Relativity type    :
Basis              : AO
                                X                 Y                 Z
Electronic contribution:      0.003517173      -1.772237886       0.010435516
Nuclear contribution   :     -0.002380838       2.801138647      -0.013482541
                        -----------------------------------------
Total Dipole Moment    :      0.001136335       1.028900761      -0.003047024
                        -----------------------------------------
Magnitude (a.u.)       :      1.028905900
Magnitude (Debye)      :      2.615270959

Rotational constants in cm-1:             0.161960             0.069694             0.059881
Rotational constants in MHz :          4855.438311          2089.380212          1795.174715

                             ****ORCA TERMINATED NORMALLY****
TOTAL RUN TIME: 0 days 0 hours 2 minutes 39 seconds 467 msec
