                         Program Version 6.0.0  -   RELEASE  -
|  1> ! wb97x-v def2-tzvp def2/J RIJCOSX DEFGRID2 scfconv7 GCP(DFT/TZ) printgap
|  2> %output
|  3>     printlevel normal
|  4> end
|  5> * xyz 0 1
|  6> C -2.581505612576359 -0.26378660254407027 2.930080838385259e-06
|  7> C -1.8805327737095814 -1.4850728302086906 -2.209532214086533e-06
|  8> C -0.5080480576052582 -1.4668442390030976 -2.256720395907534e-06
|  9> C 0.19509966136638338 -0.2470002472133449 9.244228613163578e-06
| 10> C -0.4961137991018858 1.00235926046662 2.5367165725343505e-06
| 11> C -1.9144800478220922 0.935384381487013 4.118273486913104e-06
| 12> N 0.0880196314577977 2.213518109301383 3.9658654336401865e-06
| 13> N 1.6202565421641568 -0.31561822392262856 3.497428677607332e-05
| 14> O 2.1767855261105553 -1.4244435216859108 -2.0424904371075945e-05
| 15> O 2.2831572059236924 0.7420525728790607 -2.4236883489613435e-05
| 16> H -3.666786724062346 -0.26509511650920947 4.216049930552647e-06
| 17> H -2.4153625653428903 -2.4274765546985826 -1.96914647041696e-06
| 18> H 0.05868776605462397 -2.3887427013612497 -2.6826577892454145e-06
| 19> H -2.4632539469232575 1.8721548098483025 7.00322851640405e-06
| 20> H 1.0910829032378495 2.297795320529378 8.841059280985659e-07
| 21> H -0.49727625045966006 3.033982214829124 7.031304293780068e-06
| 22> *
| 23>
| 24>                          ****END OF INPUT****

CARTESIAN COORDINATES (ANGSTROEM)
---------------------------------
  C     -2.581506   -0.263787    0.000003
  C     -1.880533   -1.485073   -0.000002
  C     -0.508048   -1.466844   -0.000002
  C      0.195100   -0.247000    0.000009
  C     -0.496114    1.002359    0.000003
  C     -1.914480    0.935384    0.000004
  N      0.088020    2.213518    0.000004
  N      1.620257   -0.315618    0.000035
  O      2.176786   -1.424444   -0.000020
  O      2.283157    0.742053   -0.000024
  H     -3.666787   -0.265095    0.000004
  H     -2.415363   -2.427477   -0.000002
  H      0.058688   -2.388743   -0.000003
  H     -2.463254    1.872155    0.000007
  H      1.091083    2.297795    0.000001
  H     -0.497276    3.033982    0.000007

 Total Charge           Charge          ....    0
 Multiplicity           Mult            ....    1
 Number of Electrons    NEL             ....   72
 Basis Dimension        Dim             ....  346

ORBITAL ENERGIES
----------------

  NO   OCC          E(Eh)            E(eV)
   0   2.0000     -21.700221      -590.4930
   1   2.0000     -21.696996      -590.4053
   2   2.0000     -16.768075      -456.2825
   3   2.0000     -16.558746      -450.5864
   4   2.0000     -12.138877      -330.3156
   5   2.0000     -12.110433      -329.5416
   6   2.0000     -12.081060      -328.7424
   7   2.0000     -12.078018      -328.6596
   8   2.0000     -12.070072      -328.4433
   9   2.0000     -12.060300      -328.1774
  10   2.0000      -1.882974       -51.2383
  11   2.0000      -1.726909       -46.9916
  12   2.0000      -1.533703       -41.7342
  13   2.0000      -1.428837       -38.8806
  14   2.0000      -1.371095       -37.3094
  15   2.0000      -1.293279       -35.1919
  16   2.0000      -1.260429       -34.2980
  17   2.0000      -1.180516       -32.1235
  18   2.0000      -1.150716       -31.3126
  19   2.0000      -1.123065       -30.5602
  20   2.0000      -1.103591       -30.0302
  21   2.0000      -1.063416       -28.9370
  22   2.0000      -1.048697       -28.5365
  23   2.0000      -1.040124       -28.3032
  24   2.0000      -0.962578       -26.1931
  25   2.0000      -0.950700       -25.8699
  26   2.0000      -0.919500       -25.0209
  27   2.0000      -0.911100       -24.7923
  28   2.0000      -0.893955       -24.3258
  29   2.0000      -0.886698       -24.1283
  30   2.0000      -0.862151       -23.4603
  31   2.0000      -0.856772       -23.3139
  32   2.0000      -0.838659       -22.8211
  33   2.0000      -0.772581       -21.0230
  34   2.0000      -0.685426       -18.6514
  35   2.0000      -0.639968       -17.4144
  36   0.0000      -0.477262       -12.9870
  37   0.0000      -0.260969        -7.1013
  38   0.0000      -0.254784        -6.9330
  39   0.0000      -0.227042        -6.1781
  40   0.0000      -0.134744        -3.6666

MULLIKEN ATOMIC CHARGES
-----------------------
   0 C :   -0.084385
   1 C :   -0.139845
   2 C :   -0.133065
   3 C :   -0.036745
   4 C :    0.210564
   5 C :   -0.206841
   6 N :   -0.397157
   7 N :    0.471075
   8 O :   -0.332210
   9 O :   -0.378911
  10 H :    0.128037
  11 H :    0.125843
  12 H :    0.162943
  13 H :    0.109226
  14 H :    0.269664
  15 H :    0.231808
Sum of atomic charges:    0.0000000

LOEWDIN ATOMIC CHARGES
----------------------
   0 C :   -0.112825
   1 C :   -0.160989
   2 C :   -0.089115
   3 C :   -0.161949
   4 C :   -0.189244
   5 C :   -0.129639
   6 N :    0.026829
   7 N :    0.011426
   8 O :   -0.048418
   9 O :   -0.079002
  10 H :    0.147982
  11 H :    0.144138
  12 H :    0.159332
  13 H :    0.143801
  14 H :    0.168027
  15 H :    0.169646

  Mayer bond orders larger than 0.100000
B(  0-C ,  1-C ) :   1.3240 B(  0-C ,  5-C ) :   1.5754 B(  0-C , 10-H ) :   0.9680
B(  1-C ,  2-C ) :   1.5308 B(  1-C , 11-H ) :   0.9760 B(  2-C ,  3-C ) :   1.3573
B(  2-C , 12-H ) :   0.9289 B(  3-C ,  4-C ) :   1.3220 B(  3-C ,  7-N ) :   1.0643
B(  4-C ,  5-C ) :   1.2984 B(  4-C ,  6-N ) :   1.2679 B(  5-C , 13-H ) :   0.9535
B(  6-N , 14-H ) :   0.8814 B(  6-N , 15-H ) :   0.9155 B(  7-N ,  8-O ) :   1.6097
B(  7-N ,  9-O ) :   1.5040 B(  8-O ,  9-O ) :   0.1766

FINAL SINGLE POINT ENERGY      -492.144793350699

DIPOLE MOMENT
-------------

Method             : SCF
Type of density    : Electron Density
Multiplicity       :   1
Irrep              :   0
Energy             :  -492.1538727655986349 Eh
Relativity type    :
Basis              : AO
                                X                 Y                 Z
Electronic contribution:      5.612057100      -1.093394980       0.000029706
Nuclear contribution   :     -7.371458376       2.012698988       0.000012402
                        -----------------------------------------
Total Dipole Moment    :     -1.759401276       0.919304008       0.000042109
                        -----------------------------------------
Magnitude (a.u.)       :      1.985097658
Magnitude (Debye)      :      5.045717257

Rotational constants in cm-1:             0.077449             0.042554             0.027464
Rotational constants in MHz :          2321.862229          1275.732734           823.348843

                             ****ORCA TERMINATED NORMALLY****
TOTAL RUN TIME: 0 days 0 hours 3 minutes 49 seconds 154 msec
