                         Program Version 6.0.0  -   RELEASE  -
|  1> ! wb97x-v def2-tzvp def2/J RIJCOSX DEFGRID2 scfconv7 GCP(DFT/TZ) printgap
|  2> %output
|  3>     printlevel normal
|  4> end
|  5> %cpcm
|  6>     smd true
|  7>     smdsolvent "water"
|  8> end
|  9> * xyz 0 1
| 10> C -2.581505612576359 -0.26378660254407027 2.930080838385259e-06
| 11> C -1.8805327737095814 -1.4850728302086906 -2.209532214086533e-06
| 12> C -0.5080480576052582 -1.4668442390030976 -2.256720395907534e-06
| 13> C 0.19509966136638338 -0.2470002472133449 9.244228613163578e-06
| 14> C -0.4961137991018858 1.00235926046662 2.5367165725343505e-06
| 15> C -1.9144800478220922 0.935384381487013 4.118273486913104e-06
| 16> N 0.0880196314577977 2.213518109301383 3.9658654336401865e-06
| 17> N 1.6202565421641568 -0.31561822392262856 3.497428677607332e-05
| 18> O 2.1767855261105553 -1.4244435216859108 -2.0424904371075945e-05
| 19> O 2.2831572059236924 0.7420525728790607 -2.4236883489613435e-05
| 20> H -3.666786724062346 -0.26509511650920947 4.216049930552647e-06
| 21> H -2.4153625653428903 -2.4274765546985826 -1.96914647041696e-06
| 22> H 0.05868776605462397 -2.3887427013612497 -2.6826577892454145e-06
| 23> H -2.4632539469232575 1.8721548098483025 7.00322851640405e-06
| 24> H 1.0910829032378495 2.297795320529378 8.841059280985659e-07
| 25> H -0.49727625045966006 3.033982214829124 7.031304293780068e-06
| 26> *
| 27>
| 28>                          ****END OF INPUT****

CARTESIAN COORDINATES (ANGSTROEM)
---------------------------------
  C     -2.581506   -0.263787    0.000003
  C     -1.880533   -1.485073   -0.000002
  C     -0.508048   -1.466844   -0.000002
  C      0.195100   -0.247000    0.000009
  C     -0.496114    1.002359    0.000003
  C     -1.914480    0.935384    0.000004
  N      0.088020    2.213518    0.000004
  N      1.620257   -0.315618    0.000035
  O      2.176786   -1.424444   -0.000020
  O      2.283157    0.742053   -0.000024
  H     -3.666787   -0.265095    0.000004
  H     -2.415363   -2.427477   -0.000002
  H      0.058688   -2.388743   -0.000003
  H     -2.463254    1.872155    0.000007
  H      1.091083    2.297795    0.000001
  H     -0.497276    3.033982    0.000007

 Total Charge           Charge          ....    0
 Multiplicity           Mult            ....    1
 Number of Electrons    NEL             ....   72
 Basis Dimension        Dim             ....  346

ORBITAL ENERGIES
----------------

  NO   OCC          E(Eh)            E(eV)
   0   2.0000     -21.711013      -590.7867
   1   2.0000     -21.708127      -590.7082
   2   2.0000     -16.778092      -456.5551
   3   2.0000     -16.545255      -450.2193
   4   2.0000     -12.130581      -330.0899
   5   2.0000     -12.105606      -329.4103
   6   2.0000     -12.069948      -328.4400
   7   2.0000     -12.068103      -328.3898
   8   2.0000     -12.055436      -328.0451
   9   2.0000     -12.049459      -327.8824
  10   2.0000      -1.894943       -51.5640
  11   2.0000      -1.739364       -47.3305
  12   2.0000      -1.520570       -41.3768
  13   2.0000      -1.428401       -38.8688
  14   2.0000      -1.365114       -37.1466
  15   2.0000      -1.283296       -34.9202
  16   2.0000      -1.257558       -34.2199
  17   2.0000      -1.184374       -32.2285
  18   2.0000      -1.152804       -31.3694
  19   2.0000      -1.124101       -30.5883
  20   2.0000      -1.096563       -29.8390
  21   2.0000      -1.074871       -29.2487
  22   2.0000      -1.035579       -28.1795
  23   2.0000      -1.027924       -27.9712
  24   2.0000      -0.952231       -25.9115
  25   2.0000      -0.939498       -25.5650
  26   2.0000      -0.923202       -25.1216
  27   2.0000      -0.920002       -25.0345
  28   2.0000      -0.903396       -24.5827
  29   2.0000      -0.890633       -24.2354
  30   2.0000      -0.849663       -23.1205
  31   2.0000      -0.844886       -22.9905
  32   2.0000      -0.825554       -22.4645
  33   2.0000      -0.763522       -20.7765
  34   2.0000      -0.680286       -18.5115
  35   2.0000      -0.630446       -17.1553
  36   0.0000      -0.483035       -13.1441
  37   0.0000      -0.253067        -6.8863
  38   0.0000      -0.244359        -6.6494
  39   0.0000      -0.234589        -6.3835
  40   0.0000      -0.139841        -3.8053

MULLIKEN ATOMIC CHARGES
-----------------------
   0 C :   -0.089611
   1 C :   -0.203867
   2 C :   -0.159906
   3 C :   -0.000557
   4 C :    0.186836
   5 C :   -0.255171
   6 N :   -0.405623
   7 N :    0.517139
   8 O :   -0.420351
   9 O :   -0.432585
  10 H :    0.171512
  11 H :    0.166761
  12 H :    0.178482
  13 H :    0.167058
  14 H :    0.288543
  15 H :    0.291340
Sum of atomic charges:    0.0000000

LOEWDIN ATOMIC CHARGES
----------------------
   0 C :   -0.108174
   1 C :   -0.165013
   2 C :   -0.098580
   3 C :   -0.165382
   4 C :   -0.186058
   5 C :   -0.121643
   6 N :    0.046155
   7 N :    0.015635
   8 O :   -0.107123
   9 O :   -0.109056
  10 H :    0.159687
  11 H :    0.153466
  12 H :    0.162159
  13 H :    0.160341
  14 H :    0.172755
  15 H :    0.190830

  Mayer bond orders larger than 0.100000
B(  0-C ,  1-C ) :   1.2793 B(  0-C ,  5-C ) :   1.5491 B(  0-C , 10-H ) :   0.9683
B(  1-C ,  2-C ) :   1.5575 B(  1-C , 11-H ) :   0.9788 B(  2-C ,  3-C ) :   1.2787
B(  2-C , 12-H ) :   0.9412 B(  3-C ,  4-C ) :   1.2925 B(  3-C ,  7-N ) :   1.0982
B(  4-C ,  5-C ) :   1.2739 B(  4-C ,  6-N ) :   1.3263 B(  5-C , 13-H ) :   0.9607
B(  6-N , 14-H ) :   0.8782 B(  6-N , 15-H ) :   0.8843 B(  7-N ,  8-O ) :   1.5401
B(  7-N ,  9-O ) :   1.4738 B(  8-O ,  9-O ) :   0.1562

FINAL SINGLE POINT ENERGY      -492.154966308425

DIPOLE MOMENT
-------------

Method             : SCF
Type of density    : Electron Density
Multiplicity       :   1
Irrep              :   0
Energy             :  -492.1640457233246480 Eh
Relativity type    :
Basis              : AO
                                X                 Y                 Z
Electronic contribution:      4.815792916      -0.596196654       0.000046014
Nuclear contribution   :     -7.371458376       2.012698988       0.000012402
                        -----------------------------------------
Total Dipole Moment    :     -2.555665460       1.416502334       0.000058417
                        -----------------------------------------
Magnitude (a.u.)       :      2.921969337
Magnitude (Debye)      :      7.427055818

Rotational constants in cm-1:             0.077449             0.042554             0.027464
Rotational constants in MHz :          2321.862229          1275.732734           823.348843

                             ****ORCA TERMINATED NORMALLY****
TOTAL RUN TIME: 0 days 0 hours 3 minutes 28 seconds 627 msec
