                         Program Version 6.0.0  -   RELEASE  -
|  1> ! pbe def2-sv(p) def2/J RI DEFGRID1 loosescf d4 GCP(DFT/SV(P)) printgap
|  2> %output
|  3>     printlevel normal
|  4> end
|  5> * xyz 0 1
|  6> C -2.5624998007 -0.8693868147 0.274932376
|  7> C -1.1342518942 -0.4298364379 0.6255133517
|  8> H -1.033920684 -0.3560268302 1.719063453
|  9> C -0.8216093686 0.9474206764 0.0257232122
| 10> H -1.0531731883 0.9297522047 -1.0497692089
| 11> C 0.6658898009 1.2829540863 0.1967734895
| 12> H 0.8760313163 1.4237074585 1.2697987294
| 13> C 1.5377851828 0.1333233833 -0.3129541014
| 14> H 1.393457429 0.0195539866 -1.3977071955
| 15> C 1.0976550939 -1.1740734732 0.3625679934
| 16> H 1.2675557942 -1.0825031793 1.4567171369
| 17> O -0.2653339777 -1.4290873753 0.1246883998
| 18> O 1.8378708704 -2.2066049443 -0.177314524
| 19> O 2.8750566691 0.4416430699 -0.0151250555
| 20> O 0.9166150891 2.4761723937 -0.5031116443
| 21> O -1.627177539 1.8862038803 0.689948266
| 22> O -2.7391588449 -1.0484803473 -1.1048309053
| 23> H -3.2526901857 -0.083357862 0.583442584
| 24> H -2.7894021488 -1.7948488074 0.8176327622
| 25> H 1.469078682 -3.0597353645 0.1000968829
| 26> H 3.4375650854 -0.2993442227 -0.285151769
| 27> H 1.8681536643 2.6555957553 -0.4759211054
| 28> H -1.4153163382 2.7660708694 0.3428924746
| 29> H -2.1043752194 -1.7152390281 -1.4065615672
| 30> *
| 31>
| 32>                          ****END OF INPUT****

CARTESIAN COORDINATES (ANGSTROEM)
---------------------------------
  C     -2.562500   -0.869387    0.274932
  C     -1.134252   -0.429836    0.625513
  H     -1.033921   -0.356027    1.719063
  C     -0.821609    0.947421    0.025723
  H     -1.053173    0.929752   -1.049769
  C      0.665890    1.282954    0.196773
  H      0.876031    1.423707    1.269799
  C      1.537785    0.133323   -0.312954
  H      1.393457    0.019554   -1.397707
  C      1.097655   -1.174073    0.362568
  H      1.267556   -1.082503    1.456717
  O     -0.265334   -1.429087    0.124688
  O      1.837871   -2.206605   -0.177315
  O      2.875057    0.441643   -0.015125
  O      0.916615    2.476172   -0.503112
  O     -1.627178    1.886204    0.689948
  O     -2.739159   -1.048480   -1.104831
  H     -3.252690   -0.083358    0.583443
  H     -2.789402   -1.794849    0.817633
  H      1.469079   -3.059735    0.100097
  H      3.437565   -0.299344   -0.285152
  H      1.868154    2.655596   -0.475921
  H     -1.415316    2.766071    0.342892
  H     -2.104375   -1.715239   -1.406562

 Total Charge           Charge          ....    0
 Multiplicity           Mult            ....    1
 Number of Electrons    NEL             ....   96
 Basis Dimension        Dim             ....  192

ORBITAL ENERGIES
----------------

  NO   OCC          E(Eh)            E(eV)
   0   2.0000     -18.781871      -511.0807
   1   2.0000     -18.775093      -510.8962
   2   2.0000     -18.762074      -510.5420
   3   2.0000     -18.753866      -510.3186
   4   2.0000     -18.749356      -510.1959
   5   2.0000     -18.744651      -510.0679
   6   2.0000      -9.993835      -271.9461
   7   2.0000      -9.945563      -270.6325
   8   2.0000      -9.942781      -270.5568
   9   2.0000      -9.940840      -270.5040
  10   2.0000      -9.938151      -270.4308
  11   2.0000      -9.928139      -270.1584
  12   2.0000      -0.994601       -27.0645
  13   2.0000      -0.946882       -25.7660
  14   2.0000      -0.940519       -25.5928
  15   2.0000      -0.926499       -25.2113
  16   2.0000      -0.916477       -24.9386
  17   2.0000      -0.914482       -24.8843
  18   2.0000      -0.704427       -19.1684
  19   2.0000      -0.694521       -18.8989
  20   2.0000      -0.618512       -16.8306
  21   2.0000      -0.584408       -15.9025
  22   2.0000      -0.560951       -15.2642
  23   2.0000      -0.527571       -14.3559
  24   2.0000      -0.519666       -14.1408
  25   2.0000      -0.486363       -13.2346
  26   2.0000      -0.470752       -12.8098
  27   2.0000      -0.462608       -12.5882
  28   2.0000      -0.442064       -12.0292
  29   2.0000      -0.440910       -11.9978
  30   2.0000      -0.418743       -11.3946
  31   2.0000      -0.410339       -11.1659
  32   2.0000      -0.382718       -10.4143
  33   2.0000      -0.372423       -10.1341
  34   2.0000      -0.361223        -9.8294
  35   2.0000      -0.354341        -9.6421
  36   2.0000      -0.329920        -8.9776
  37   2.0000      -0.324284        -8.8242
  38   2.0000      -0.305310        -8.3079
  39   2.0000      -0.295840        -8.0502
  40   2.0000      -0.282606        -7.6901
  41   2.0000      -0.274182        -7.4609
  42   2.0000      -0.259291        -7.0557
  43   2.0000      -0.246565        -6.7094
  44   2.0000      -0.230271        -6.2660
  45   2.0000      -0.220003        -5.9866
  46   2.0000      -0.214692        -5.8421
  47   2.0000      -0.212398        -5.7796
  48   0.0000       0.014866         0.4045
  49   0.0000       0.024681         0.6716
  50   0.0000       0.042984         1.1696
  51   0.0000       0.043889         1.1943
  52   0.0000       0.057508         1.5649

MULLIKEN ATOMIC CHARGES
-----------------------
   0 C :    0.098159
   1 C :   -0.016591
   2 H :    0.057026
   3 C :    0.067224
   4 H :    0.059230
   5 C :    0.073592
   6 H :    0.052392
   7 C :    0.036840
   8 H :    0.060272
   9 C :    0.179445
  10 H :    0.038415
  11 O :   -0.325426
  12 O :   -0.387340
  13 O :   -0.425667
  14 O :   -0.425712
  15 O :   -0.421982
  16 O :   -0.438483
  17 H :    0.098904
  18 H :    0.075046
  19 H :    0.311322
  20 H :    0.311926
  21 H :    0.311438
  22 H :    0.312097
  23 H :    0.297874
Sum of atomic charges:   -0.0000000

LOEWDIN ATOMIC CHARGES
----------------------
   0 C :   -0.121916
   1 C :   -0.069542
   2 H :    0.107343
   3 C :   -0.066664
   4 H :    0.108208
   5 C :   -0.075366
   6 H :    0.103295
   7 C :   -0.091249
   8 H :    0.108383
   9 C :   -0.004595
  10 H :    0.081506
  11 O :   -0.156917
  12 O :   -0.300801
  13 O :   -0.321851
  14 O :   -0.324438
  15 O :   -0.316884
  16 O :   -0.330311
  17 H :    0.125505
  18 H :    0.098474
  19 H :    0.293268
  20 H :    0.291697
  21 H :    0.290807
  22 H :    0.292090
  23 H :    0.279958

  Mayer bond orders larger than 0.100000
B(  0-C ,  1-C ) :   1.0475 B(  0-C , 16-O ) :   1.0652 B(  0-C , 17-H ) :   0.9125
B(  0-C , 18-H ) :   0.9177 B(  1-C ,  2-H ) :   0.8693 B(  1-C ,  3-C ) :   1.0122
B(  1-C , 11-O ) :   0.9816 B(  3-C ,  4-H ) :   0.8640 B(  3-C ,  5-C ) :   1.0257
B(  3-C , 15-O ) :   1.0597 B(  5-C ,  6-H ) :   0.8728 B(  5-C ,  7-C ) :   1.0054
B(  5-C , 14-O ) :   1.0860 B(  7-C ,  8-H ) :   0.8657 B(  7-C ,  9-C ) :   0.9949
B(  7-C , 13-O ) :   1.0663 B(  9-C , 10-H ) :   0.8848 B(  9-C , 11-O ) :   1.0081
B(  9-C , 12-O ) :   1.1679 B( 12-O , 19-H ) :   0.8370 B( 13-O , 20-H ) :   0.8374
B( 14-O , 21-H ) :   0.8366 B( 15-O , 22-H ) :   0.8374 B( 16-O , 23-H ) :   0.8422

Dispersion correction           -0.023911944
FINAL SINGLE POINT ENERGY      -685.706761660084

DIPOLE MOMENT
-------------

Method             : SCF
Type of density    : Electron Density
Multiplicity       :   1
Irrep              :   0
Energy             :  -685.8369809748360240 Eh
Relativity type    :
Basis              : AO
                                X                 Y                 Z
Electronic contribution:      2.128080814      -0.128605118      -1.257485672
Nuclear contribution   :     -1.239584058      -0.557725755       1.556393671
                        -----------------------------------------
Total Dipole Moment    :      0.888496756      -0.686330873       0.298907999
                        -----------------------------------------
Magnitude (a.u.)       :      1.161818637
Magnitude (Debye)      :      2.953108287

Rotational constants in cm-1:             0.039037             0.027258             0.017871
Rotational constants in MHz :          1170.300348           817.172431           535.749592

                             ****ORCA TERMINATED NORMALLY****
TOTAL RUN TIME: 0 days 0 hours 0 minutes 12 seconds 300 msec
