                         Program Version 6.0.0  -   RELEASE  -
|  1> ! wb97x-v def2-tzvp def2/J RIJCOSX DEFGRID2 scfconv7 GCP(DFT/TZ) printgap
|  2> %output
|  3>     printlevel normal
|  4> end
|  5> * xyz 0 1
|  6> C 0.7329166178145101 1.0980761667235085e-06 0.005818479729503733
|  7> N -0.7386110033344768 2.413057859850053e-06 -0.09278502741841514
|  8> H 1.1355553810264811 0.8813979450238967 -0.5017422082367138
|  9> H 1.1355469736768573 -0.8814546979174113 -0.5016466729656617
| 10> H 1.1177812733276882 5.572448787756891e-05 1.0360403764750734
| 11> H -1.0872121491971192 -0.8039643397510327 0.4208857842812839
| 12> H -1.0872052391894813 0.8040242914471191 0.42080459750010274
| 13> *
| 14>
| 15>                          ****END OF INPUT****

CARTESIAN COORDINATES (ANGSTROEM)
---------------------------------
  C      0.732917    0.000001    0.005818
  N     -0.738611    0.000002   -0.092785
  H      1.135555    0.881398   -0.501742
  H      1.135547   -0.881455   -0.501647
  H      1.117781    0.000056    1.036040
  H     -1.087212   -0.803964    0.420886
  H     -1.087205    0.804024    0.420805

 Total Charge           Charge          ....    0
 Multiplicity           Mult            ....    1
 Number of Electrons    NEL             ....   18
 Basis Dimension        Dim             ....   92

ORBITAL ENERGIES
----------------

  NO   OCC          E(Eh)            E(eV)
   0   2.0000     -16.505311      -449.1323
   1   2.0000     -12.060664      -328.1873
   2   2.0000      -1.437128       -39.1062
   3   2.0000      -1.157518       -31.4977
   4   2.0000      -0.956542       -26.0288
   5   2.0000      -0.910158       -24.7667
   6   2.0000      -0.843736       -22.9592
   7   2.0000      -0.801887       -21.8205
   8   2.0000      -0.720134       -19.5958
   9   0.0000      -0.062140        -1.6909
  10   0.0000      -0.014774        -0.4020
  11   0.0000       0.024509         0.6669
  12   0.0000       0.047308         1.2873
  13   0.0000       0.058590         1.5943

MULLIKEN ATOMIC CHARGES
-----------------------
   0 C :   -0.235378
   1 N :   -0.497115
   2 H :    0.112578
   3 H :    0.112578
   4 H :    0.094153
   5 H :    0.206592
   6 H :    0.206592
Sum of atomic charges:    0.0000000

LOEWDIN ATOMIC CHARGES
----------------------
   0 C :   -0.371794
   1 N :   -0.215709
   2 H :    0.106791
   3 H :    0.106791
   4 H :    0.090007
   5 H :    0.141957
   6 H :    0.141958

  Mayer bond orders larger than 0.100000
B(  0-C ,  1-N ) :   0.9994 B(  0-C ,  2-H ) :   0.9809 B(  0-C ,  3-H ) :   0.9809
B(  0-C ,  4-H ) :   0.9803 B(  1-N ,  5-H ) :   0.9481 B(  1-N ,  6-H ) :   0.9481

FINAL SINGLE POINT ENERGY       -95.857476851127

DIPOLE MOMENT
-------------

Method             : SCF
Type of density    : Electron Density
Multiplicity       :   1
Irrep              :   0
Energy             :   -95.8621615751265637 Eh
Relativity type    :
Basis              : AO
                                X                 Y                 Z
Electronic contribution:     -1.032933934      -0.000010459      -0.292533402
Nuclear contribution   :      1.183474913       0.000039207       0.872461423
                        -----------------------------------------
Total Dipole Moment    :      0.150540980       0.000028748       0.579928021
                        -----------------------------------------
Magnitude (a.u.)       :      0.599148644
Magnitude (Debye)      :      1.522914824

Rotational constants in cm-1:             3.417772             0.752721             0.726557
Rotational constants in MHz :        102462.241375         22566.004788         21781.639524

                             ****ORCA TERMINATED NORMALLY****
TOTAL RUN TIME: 0 days 0 hours 0 minutes 14 seconds 157 msec
