                         Program Version 6.0.0  -   RELEASE  -
|  1> ! wb97x-v def2-tzvp def2/J RIJCOSX DEFGRID2 scfconv7 GCP(DFT/TZ) printgap
|  2> %output
|  3>     printlevel normal
|  4> end
|  5> %cpcm
|  6>     smd true
|  7>     smdsolvent "water"
|  8> end
|  9> * xyz 0 1
| 10> C 0.7329166178145101 1.0980761667235085e-06 0.005818479729503733
| 11> N -0.7386110033344768 2.413057859850053e-06 -0.09278502741841514
| 12> H 1.1355553810264811 0.8813979450238967 -0.5017422082367138
| 13> H 1.1355469736768573 -0.8814546979174113 -0.5016466729656617
| 14> H 1.1177812733276882 5.572448787756891e-05 1.0360403764750734
| 15> H -1.0872121491971192 -0.8039643397510327 0.4208857842812839
| 16> H -1.0872052391894813 0.8040242914471191 0.42080459750010274
| 17> *
| 18>
| 19>                          ****END OF INPUT****

CARTESIAN COORDINATES (ANGSTROEM)
---------------------------------
  C      0.732917    0.000001    0.005818
  N     -0.738611    0.000002   -0.092785
  H      1.135555    0.881398   -0.501742
  H      1.135547   -0.881455   -0.501647
  H      1.117781    0.000056    1.036040
  H     -1.087212   -0.803964    0.420886
  H     -1.087205    0.804024    0.420805

 Total Charge           Charge          ....    0
 Multiplicity           Mult            ....    1
 Number of Electrons    NEL             ....   18
 Basis Dimension        Dim             ....   92

ORBITAL ENERGIES
----------------

  NO   OCC          E(Eh)            E(eV)
   0   2.0000     -16.500293      -448.9958
   1   2.0000     -12.051952      -327.9503
   2   2.0000      -1.431025       -38.9402
   3   2.0000      -1.149873       -31.2896
   4   2.0000      -0.950147       -25.8548
   5   2.0000      -0.903918       -24.5969
   6   2.0000      -0.836998       -22.7759
   7   2.0000      -0.793481       -21.5917
   8   2.0000      -0.717304       -19.5188
   9   0.0000      -0.054235        -1.4758
  10   0.0000      -0.000808        -0.0220
  11   0.0000       0.041515         1.1297
  12   0.0000       0.058895         1.6026
  13   0.0000       0.070937         1.9303

MULLIKEN ATOMIC CHARGES
-----------------------
   0 C :   -0.263192
   1 N :   -0.596583
   2 H :    0.126987
   3 H :    0.126986
   4 H :    0.112588
   5 H :    0.246607
   6 H :    0.246608
Sum of atomic charges:    0.0000000

LOEWDIN ATOMIC CHARGES
----------------------
   0 C :   -0.375543
   1 N :   -0.244686
   2 H :    0.108520
   3 H :    0.108520
   4 H :    0.096358
   5 H :    0.153416
   6 H :    0.153416

  Mayer bond orders larger than 0.100000
B(  0-C ,  1-N ) :   0.9837 B(  0-C ,  2-H ) :   0.9779 B(  0-C ,  3-H ) :   0.9779
B(  0-C ,  4-H ) :   0.9823 B(  1-N ,  5-H ) :   0.9329 B(  1-N ,  6-H ) :   0.9329

FINAL SINGLE POINT ENERGY       -95.864125618338

DIPOLE MOMENT
-------------

Method             : SCF
Type of density    : Electron Density
Multiplicity       :   1
Irrep              :   0
Energy             :   -95.8688103423375537 Eh
Relativity type    :
Basis              : AO
                                X                 Y                 Z
Electronic contribution:     -0.993085321      -0.000001857      -0.122989314
Nuclear contribution   :      1.183474913       0.000039207       0.872461423
                        -----------------------------------------
Total Dipole Moment    :      0.190389592       0.000037350       0.749472109
                        -----------------------------------------
Magnitude (a.u.)       :      0.773276561
Magnitude (Debye)      :      1.965512817

Rotational constants in cm-1:             3.417772             0.752721             0.726557
Rotational constants in MHz :        102462.241375         22566.004788         21781.639524

                             ****ORCA TERMINATED NORMALLY****
TOTAL RUN TIME: 0 days 0 hours 0 minutes 14 seconds 770 msec
