                         Program Version 6.0.0  -   RELEASE  -
|  1> ! r2scan-3c def2/J RI DEFGRID2 scfconv6 printgap
|  2> %output
|  3>     printlevel normal
|  4> end
|  5> * xyz 0 1
|  6> C -2.4017317431 -0.0914149707 0.4397970659
|  7> C -1.2518453242 -0.6660875123 -0.3849018197
|  8> C 0.0125553767 0.1278851135 -0.1781048904
|  9> O 0.0869684631 1.3381668406 -0.2182309815
| 10> O 1.0508324442 -0.66862945 0.0470452123
| 11> C 2.3455940955 -0.0915161134 0.2472402491
| 12> H -2.5162039219 0.9681505125 0.2253791512
| 13> H -3.3266835873 -0.6047520333 0.1974809903
| 14> H -2.2044301424 -0.2073971158 1.5022704858
| 15> H -1.5000113183 -0.6020639118 -1.4464392778
| 16> H -1.0553672156 -1.7063113758 -0.1294718341
| 17> H 2.6627480528 -0.3242290338 1.2622840129
| 18> H 2.2951713767 0.9881991362 0.1026021117
| 19> H 3.0205166381 -0.5462951507 -0.4747752534
| 20> *
| 21>
| 22>                          ****END OF INPUT****

CARTESIAN COORDINATES (ANGSTROEM)
---------------------------------
  C     -2.401732   -0.091415    0.439797
  C     -1.251845   -0.666088   -0.384902
  C      0.012555    0.127885   -0.178105
  O      0.086968    1.338167   -0.218231
  O      1.050832   -0.668629    0.047045
  C      2.345594   -0.091516    0.247240
  H     -2.516204    0.968151    0.225379
  H     -3.326684   -0.604752    0.197481
  H     -2.204430   -0.207397    1.502270
  H     -1.500011   -0.602064   -1.446439
  H     -1.055367   -1.706311   -0.129472
  H      2.662748   -0.324229    1.262284
  H      2.295171    0.988199    0.102602
  H      3.020517   -0.546295   -0.474775

 Total Charge           Charge          ....    0
 Multiplicity           Mult            ....    1
 Number of Electrons    NEL             ....   48
 Basis Dimension        Dim             ....  164

ORBITAL ENERGIES
----------------

  NO   OCC          E(Eh)            E(eV)
   0   2.0000     -19.000398      -517.0271
   1   2.0000     -18.929251      -515.0911
   2   2.0000     -10.153852      -276.3004
   3   2.0000     -10.085356      -274.4365
   4   2.0000     -10.044751      -273.3316
   5   2.0000     -10.026354      -272.8310
   6   2.0000      -1.073187       -29.2029
   7   2.0000      -0.977427       -26.5971
   8   2.0000      -0.759110       -20.6564
   9   2.0000      -0.698557       -19.0087
  10   2.0000      -0.610756       -16.6195
  11   2.0000      -0.530874       -14.4458
  12   2.0000      -0.471232       -12.8229
  13   2.0000      -0.456774       -12.4295
  14   2.0000      -0.444698       -12.1008
  15   2.0000      -0.417597       -11.3634
  16   2.0000      -0.397997       -10.8300
  17   2.0000      -0.374467       -10.1898
  18   2.0000      -0.344678        -9.3792
  19   2.0000      -0.337453        -9.1826
  20   2.0000      -0.321924        -8.7600
  21   2.0000      -0.313152        -8.5213
  22   2.0000      -0.272928        -7.4267
  23   2.0000      -0.239564        -6.5189
  24   0.0000      -0.015200        -0.4136
  25   0.0000       0.067777         1.8443
  26   0.0000       0.095757         2.6057
  27   0.0000       0.119694         3.2570
  28   0.0000       0.132601         3.6083

MULLIKEN ATOMIC CHARGES
-----------------------
   0 C :   -0.460195
   1 C :   -0.287074
   2 C :    0.409476
   3 O :   -0.440944
   4 O :   -0.193447
   5 C :   -0.304212
   6 H :    0.171953
   7 H :    0.148642
   8 H :    0.144236
   9 H :    0.163749
  10 H :    0.162044
  11 H :    0.148230
  12 H :    0.189858
  13 H :    0.147685
Sum of atomic charges:    0.0000000

LOEWDIN ATOMIC CHARGES
----------------------
   0 C :   -0.396720
   1 C :   -0.236930
   2 C :    0.359413
   3 O :   -0.443334
   4 O :   -0.603547
   5 C :   -0.046569
   6 H :    0.166612
   7 H :    0.151434
   8 H :    0.154808
   9 H :    0.179357
  10 H :    0.175099
  11 H :    0.173282
  12 H :    0.193334
  13 H :    0.173760

  Mayer bond orders larger than 0.100000
B(  0-C ,  1-C ) :   0.9070 B(  0-C ,  6-H ) :   0.9702 B(  0-C ,  7-H ) :   0.9738
B(  0-C ,  8-H ) :   0.9758 B(  1-C ,  2-C ) :   0.9754 B(  1-C ,  9-H ) :   0.9394
B(  1-C , 10-H ) :   0.9774 B(  2-C ,  3-O ) :   1.8305 B(  2-C ,  4-O ) :   1.0694
B(  4-O ,  5-C ) :   0.8400 B(  5-C , 11-H ) :   0.9638 B(  5-C , 12-H ) :   0.9669
B(  5-C , 13-H ) :   0.9650

Dispersion correction           -0.002950771
FINAL SINGLE POINT ENERGY      -307.630698904753

DIPOLE MOMENT
-------------

Method             : SCF
Type of density    : Electron Density
Multiplicity       :   1
Irrep              :   0
Energy             :  -307.6372903686113887 Eh
Relativity type    :
Basis              : AO
                                X                 Y                 Z
Electronic contribution:      2.653809113       1.181846647      -1.082725367
Nuclear contribution   :     -2.445109718      -1.898954819       1.160163814
                        -----------------------------------------
Total Dipole Moment    :      0.208699395      -0.717108172       0.077438447
                        -----------------------------------------
Magnitude (a.u.)       :      0.750863690
Magnitude (Debye)      :      1.908543826

Rotational constants in cm-1:             0.281593             0.072750             0.063094
Rotational constants in MHz :          8441.941160          2180.997911          1891.502662

                             ****ORCA TERMINATED NORMALLY****
TOTAL RUN TIME: 0 days 0 hours 0 minutes 16 seconds 649 msec
