                         Program Version 6.0.0  -   RELEASE  -
|  1> ! r2scan-3c def2/J RI DEFGRID2 scfconv6 printgap
|  2> %output
|  3>     printlevel normal
|  4> end
|  5> %cpcm
|  6>     smd true
|  7>     smdsolvent "water"
|  8> end
|  9> * xyz 0 1
| 10> C -2.4017317431 -0.0914149707 0.4397970659
| 11> C -1.2518453242 -0.6660875123 -0.3849018197
| 12> C 0.0125553767 0.1278851135 -0.1781048904
| 13> O 0.0869684631 1.3381668406 -0.2182309815
| 14> O 1.0508324442 -0.66862945 0.0470452123
| 15> C 2.3455940955 -0.0915161134 0.2472402491
| 16> H -2.5162039219 0.9681505125 0.2253791512
| 17> H -3.3266835873 -0.6047520333 0.1974809903
| 18> H -2.2044301424 -0.2073971158 1.5022704858
| 19> H -1.5000113183 -0.6020639118 -1.4464392778
| 20> H -1.0553672156 -1.7063113758 -0.1294718341
| 21> H 2.6627480528 -0.3242290338 1.2622840129
| 22> H 2.2951713767 0.9881991362 0.1026021117
| 23> H 3.0205166381 -0.5462951507 -0.4747752534
| 24> *
| 25>
| 26>                          ****END OF INPUT****

CARTESIAN COORDINATES (ANGSTROEM)
---------------------------------
  C     -2.401732   -0.091415    0.439797
  C     -1.251845   -0.666088   -0.384902
  C      0.012555    0.127885   -0.178105
  O      0.086968    1.338167   -0.218231
  O      1.050832   -0.668629    0.047045
  C      2.345594   -0.091516    0.247240
  H     -2.516204    0.968151    0.225379
  H     -3.326684   -0.604752    0.197481
  H     -2.204430   -0.207397    1.502270
  H     -1.500011   -0.602064   -1.446439
  H     -1.055367   -1.706311   -0.129472
  H      2.662748   -0.324229    1.262284
  H      2.295171    0.988199    0.102602
  H      3.020517   -0.546295   -0.474775

 Total Charge           Charge          ....    0
 Multiplicity           Mult            ....    1
 Number of Electrons    NEL             ....   48
 Basis Dimension        Dim             ....  164

ORBITAL ENERGIES
----------------

  NO   OCC          E(Eh)            E(eV)
   0   2.0000     -19.005012      -517.1527
   1   2.0000     -18.943438      -515.4771
   2   2.0000     -10.162995      -276.5491
   3   2.0000     -10.074796      -274.1491
   4   2.0000     -10.037986      -273.1475
   5   2.0000     -10.019260      -272.6379
   6   2.0000      -1.079135       -29.3648
   7   2.0000      -0.989683       -26.9307
   8   2.0000      -0.754768       -20.5383
   9   2.0000      -0.692779       -18.8515
  10   2.0000      -0.604307       -16.4440
  11   2.0000      -0.528933       -14.3930
  12   2.0000      -0.471773       -12.8376
  13   2.0000      -0.458837       -12.4856
  14   2.0000      -0.449726       -12.2377
  15   2.0000      -0.411784       -11.2052
  16   2.0000      -0.398340       -10.8394
  17   2.0000      -0.371797       -10.1171
  18   2.0000      -0.339434        -9.2365
  19   2.0000      -0.333594        -9.0776
  20   2.0000      -0.319784        -8.7018
  21   2.0000      -0.310724        -8.4552
  22   2.0000      -0.279427        -7.6036
  23   2.0000      -0.254445        -6.9238
  24   0.0000      -0.021752        -0.5919
  25   0.0000       0.073024         1.9871
  26   0.0000       0.103301         2.8110
  27   0.0000       0.130578         3.5532
  28   0.0000       0.141959         3.8629

MULLIKEN ATOMIC CHARGES
-----------------------
   0 C :   -0.496990
   1 C :   -0.296166
   2 C :    0.444975
   3 O :   -0.524076
   4 O :   -0.211298
   5 C :   -0.317760
   6 H :    0.164317
   7 H :    0.168850
   8 H :    0.163492
   9 H :    0.193345
  10 H :    0.176358
  11 H :    0.175615
  12 H :    0.184639
  13 H :    0.174698
Sum of atomic charges:    0.0000000

LOEWDIN ATOMIC CHARGES
----------------------
   0 C :   -0.401307
   1 C :   -0.233166
   2 C :    0.369583
   3 O :   -0.503460
   4 O :   -0.605736
   5 C :   -0.040985
   6 H :    0.161947
   7 H :    0.159348
   8 H :    0.159720
   9 H :    0.190108
  10 H :    0.182426
  11 H :    0.184462
  12 H :    0.191885
  13 H :    0.185173

  Mayer bond orders larger than 0.100000
B(  0-C ,  1-C ) :   0.8869 B(  0-C ,  6-H ) :   0.9724 B(  0-C ,  7-H ) :   0.9678
B(  0-C ,  8-H ) :   0.9739 B(  1-C ,  2-C ) :   0.9790 B(  1-C ,  9-H ) :   0.9311
B(  1-C , 10-H ) :   0.9686 B(  2-C ,  3-O ) :   1.7675 B(  2-C ,  4-O ) :   1.0940
B(  4-O ,  5-C ) :   0.8279 B(  5-C , 11-H ) :   0.9547 B(  5-C , 12-H ) :   0.9634
B(  5-C , 13-H ) :   0.9556

Dispersion correction           -0.002950771
FINAL SINGLE POINT ENERGY      -307.634943629752

DIPOLE MOMENT
-------------

Method             : SCF
Type of density    : Electron Density
Multiplicity       :   1
Irrep              :   0
Energy             :  -307.6415350936105710 Eh
Relativity type    :
Basis              : AO
                                X                 Y                 Z
Electronic contribution:      2.723785985       0.838291651      -1.066801153
Nuclear contribution   :     -2.445109718      -1.898954819       1.160163814
                        -----------------------------------------
Total Dipole Moment    :      0.278676267      -1.060663168       0.093362661
                        -----------------------------------------
Magnitude (a.u.)       :      1.100628640
Magnitude (Debye)      :      2.797575676

Rotational constants in cm-1:             0.281593             0.072750             0.063094
Rotational constants in MHz :          8441.941160          2180.997911          1891.502662

                             ****ORCA TERMINATED NORMALLY****
TOTAL RUN TIME: 0 days 0 hours 0 minutes 21 seconds 129 msec
