                         Program Version 6.0.0  -   RELEASE  -
|  1> ! pbe def2-sv(p) def2/J RI DEFGRID1 loosescf d4 GCP(DFT/SV(P)) printgap
|  2> %output
|  3>     printlevel normal
|  4> end
|  5> * xyz 0 1
|  6> C -2.4845652755 0.430754683 -1.3677309552
|  7> C -2.0523662931 0.4505280635 0.106254222
|  8> H -2.9591743071 0.4777348745 0.7188337557
|  9> C -1.1550161515 1.6630271435 0.4272726519
| 10> C 0.26985651 1.2529964296 0.7906111845
| 11> C 0.7993463212 0.2852697878 -0.266536662
| 12> H 0.5866126356 0.7164116299 -1.2497871876
| 13> C 0.0338448645 -1.0395590784 -0.1146599399
| 14> C -1.3733130478 -0.86876935 0.3876215602
| 15> O -1.9579173415 -1.7750020614 0.9540361361
| 16> C 2.2856884875 0.0180492789 -0.1963701369
| 17> C 2.9929031903 0.1128887759 0.9181558316
| 18> C 2.9053609653 -0.3985476463 -1.4964559747
| 19> H -1.6209557816 0.4065415601 -2.0256535117
| 20> H -3.1005389027 -0.4438168045 -1.5673143856
| 21> H -3.0684757419 1.3208043584 -1.5862817264
| 22> H -1.124073901 2.3238466027 -0.4401359505
| 23> H -1.5880155799 2.2258248409 1.2546048735
| 24> H 0.9036003207 2.138568909 0.8458313297
| 25> H 0.2736571256 0.7661235788 1.7680884265
| 26> H -0.029093253 -1.5703498866 -1.067784389
| 27> H 0.5536024915 -1.703485859 0.5811212758
| 28> H 4.0478682978 -0.103191986 0.9329513957
| 29> H 2.5611613122 0.4072520059 1.8580690227
| 30> H 2.3927779628 -1.271560224 -1.8968655694
| 31> H 2.8182494677 0.4039610235 -2.2275818896
| 32> H 3.9566164129 -0.6394231177 -1.3679009204
| 33> *
| 34>
| 35>                          ****END OF INPUT****

CARTESIAN COORDINATES (ANGSTROEM)
---------------------------------
  C     -2.484565    0.430755   -1.367731
  C     -2.052366    0.450528    0.106254
  H     -2.959174    0.477735    0.718834
  C     -1.155016    1.663027    0.427273
  C      0.269857    1.252996    0.790611
  C      0.799346    0.285270   -0.266537
  H      0.586613    0.716412   -1.249787
  C      0.033845   -1.039559   -0.114660
  C     -1.373313   -0.868769    0.387622
  O     -1.957917   -1.775002    0.954036
  C      2.285688    0.018049   -0.196370
  C      2.992903    0.112889    0.918156
  C      2.905361   -0.398548   -1.496456
  H     -1.620956    0.406542   -2.025654
  H     -3.100539   -0.443817   -1.567314
  H     -3.068476    1.320804   -1.586282
  H     -1.124074    2.323847   -0.440136
  H     -1.588016    2.225825    1.254605
  H      0.903600    2.138569    0.845831
  H      0.273657    0.766124    1.768088
  H     -0.029093   -1.570350   -1.067784
  H      0.553602   -1.703486    0.581121
  H      4.047868   -0.103192    0.932951
  H      2.561161    0.407252    1.858069
  H      2.392778   -1.271560   -1.896866
  H      2.818249    0.403961   -2.227582
  H      3.956616   -0.639423   -1.367901

 Total Charge           Charge          ....    0
 Multiplicity           Mult            ....    1
 Number of Electrons    NEL             ....   84
 Basis Dimension        Dim             ....  186

ORBITAL ENERGIES
----------------

  NO   OCC          E(Eh)            E(eV)
   0   2.0000     -18.731111      -509.6994
   1   2.0000      -9.968609      -271.2596
   2   2.0000      -9.908682      -269.6289
   3   2.0000      -9.903424      -269.4859
   4   2.0000      -9.901687      -269.4386
   5   2.0000      -9.895732      -269.2766
   6   2.0000      -9.894859      -269.2528
   7   2.0000      -9.892850      -269.1981
   8   2.0000      -9.891186      -269.1528
   9   2.0000      -9.884969      -268.9837
  10   2.0000      -9.871458      -268.6160
  11   2.0000      -0.929228       -25.2856
  12   2.0000      -0.774509       -21.0755
  13   2.0000      -0.730283       -19.8720
  14   2.0000      -0.684105       -18.6154
  15   2.0000      -0.665851       -18.1187
  16   2.0000      -0.618445       -16.8288
  17   2.0000      -0.602120       -16.3845
  18   2.0000      -0.556498       -15.1431
  19   2.0000      -0.543075       -14.7778
  20   2.0000      -0.478335       -13.0162
  21   2.0000      -0.461370       -12.5545
  22   2.0000      -0.439608       -11.9623
  23   2.0000      -0.418868       -11.3980
  24   2.0000      -0.416102       -11.3227
  25   2.0000      -0.402459       -10.9515
  26   2.0000      -0.390158       -10.6167
  27   2.0000      -0.379777       -10.3343
  28   2.0000      -0.369688       -10.0597
  29   2.0000      -0.364128        -9.9084
  30   2.0000      -0.356365        -9.6972
  31   2.0000      -0.350940        -9.5496
  32   2.0000      -0.344798        -9.3824
  33   2.0000      -0.327213        -8.9039
  34   2.0000      -0.318128        -8.6567
  35   2.0000      -0.312826        -8.5124
  36   2.0000      -0.302520        -8.2320
  37   2.0000      -0.294717        -8.0197
  38   2.0000      -0.278518        -7.5789
  39   2.0000      -0.275489        -7.4964
  40   2.0000      -0.222595        -6.0571
  41   2.0000      -0.187086        -5.0909
  42   0.0000      -0.050886        -1.3847
  43   0.0000      -0.014288        -0.3888
  44   0.0000       0.023626         0.6429
  45   0.0000       0.044028         1.1981
  46   0.0000       0.055564         1.5120

MULLIKEN ATOMIC CHARGES
-----------------------
   0 C :   -0.278459
   1 C :   -0.135555
   2 H :    0.073892
   3 C :   -0.074813
   4 C :   -0.142521
   5 C :   -0.157664
   6 H :    0.061346
   7 C :   -0.109409
   8 C :   -0.007951
   9 O :   -0.160203
  10 C :   -0.036265
  11 C :   -0.234128
  12 C :   -0.214785
  13 H :    0.110438
  14 H :    0.118162
  15 H :    0.117855
  16 H :    0.073019
  17 H :    0.089375
  18 H :    0.094405
  19 H :    0.097549
  20 H :    0.116608
  21 H :    0.105496
  22 H :    0.082760
  23 H :    0.092837
  24 H :    0.109643
  25 H :    0.109582
  26 H :    0.098786
Sum of atomic charges:   -0.0000000

LOEWDIN ATOMIC CHARGES
----------------------
   0 C :   -0.320134
   1 C :   -0.169999
   2 H :    0.129730
   3 C :   -0.211919
   4 C :   -0.215715
   5 C :   -0.135128
   6 H :    0.117642
   7 C :   -0.232748
   8 C :    0.048668
   9 O :   -0.133447
  10 C :   -0.049921
  11 C :   -0.267309
  12 C :   -0.322498
  13 H :    0.117226
  14 H :    0.126181
  15 H :    0.125797
  16 H :    0.116833
  17 H :    0.124241
  18 H :    0.123182
  19 H :    0.121859
  20 H :    0.144597
  21 H :    0.143425
  22 H :    0.119456
  23 H :    0.119046
  24 H :    0.126892
  25 H :    0.128934
  26 H :    0.125110

  Mayer bond orders larger than 0.100000
B(  0-C ,  1-C ) :   1.0829 B(  0-C , 13-H ) :   0.9455 B(  0-C , 14-H ) :   0.9447
B(  0-C , 15-H ) :   0.9430 B(  1-C ,  2-H ) :   0.8734 B(  1-C ,  3-C ) :   1.0253
B(  1-C ,  8-C ) :   1.0171 B(  3-C ,  4-C ) :   1.1818 B(  3-C , 16-H ) :   0.9060
B(  3-C , 17-H ) :   0.9091 B(  4-C ,  5-C ) :   1.1356 B(  4-C , 18-H ) :   0.9176
B(  4-C , 19-H ) :   0.8792 B(  5-C ,  6-H ) :   0.8625 B(  5-C ,  7-C ) :   1.0405
B(  5-C , 10-C ) :   1.0008 B(  7-C ,  8-C ) :   1.0076 B(  7-C , 20-H ) :   0.8765
B(  7-C , 21-H ) :   0.8854 B(  8-C ,  9-O ) :   2.1898 B( 10-C , 11-C ) :   2.0474
B( 10-C , 12-C ) :   1.1238 B( 11-C , 22-H ) :   0.8996 B( 11-C , 23-H ) :   0.9030
B( 12-C , 24-H ) :   0.9329 B( 12-C , 25-H ) :   0.9280 B( 12-C , 26-H ) :   0.9383

Dispersion correction           -0.028594365
FINAL SINGLE POINT ENERGY      -464.821714083590

DIPOLE MOMENT
-------------

Method             : SCF
Type of density    : Electron Density
Multiplicity       :   1
Irrep              :   0
Energy             :  -464.9072507652307422 Eh
Relativity type    :
Basis              : AO
                                X                 Y                 Z
Electronic contribution:     -3.889256789      -4.315549304       4.446990353
Nuclear contribution   :      4.290115038       5.091603973      -5.117441300
                        -----------------------------------------
Total Dipole Moment    :      0.400858249       0.776054669      -0.670450946
                        -----------------------------------------
Magnitude (a.u.)       :      1.101114280
Magnitude (Debye)      :      2.798810073

Rotational constants in cm-1:             0.060764             0.023604             0.022363
Rotational constants in MHz :          1821.651638           707.635373           670.423319

                             ****ORCA TERMINATED NORMALLY****
TOTAL RUN TIME: 0 days 0 hours 0 minutes 14 seconds 755 msec
