                         Program Version 6.0.0  -   RELEASE  -
|  1> ! wb97x-v def2-tzvp def2/J RIJCOSX DEFGRID2 scfconv7 GCP(DFT/TZ) printgap
|  2> %output
|  3>     printlevel normal
|  4> end
|  5> * xyz 0 1
|  6> C 1.8294169165756924 -1.4673292675622853 -0.000874383379750165
|  7> C 0.5352204700398535 -0.7033480236297773 0.0016380140347057282
|  8> C -0.6727965795109145 -1.3995352542390096 0.001831479846933638
|  9> C -1.877239995465865 -0.7089477378805216 0.0005822382558601898
| 10> C -1.8317920377315227 0.6770695468078998 -6.463849680355489e-05
| 11> N -0.6883778458138325 1.3750350126570963 6.23068334155957e-06
| 12> C 0.47890522352335246 0.7029863199822372 0.0005206711194044704
| 13> C 1.7290295510861458 1.5339519375613138 -0.0005504046078783026
| 14> H 2.7031494423945595 -0.8171780815539357 0.038701823061207466
| 15> H 1.8732278774706643 -2.1476072229856613 0.8563437018695245
| 16> H 1.907656213522164 -2.0838158295115385 -0.9031811360899974
| 17> H -0.6623159624392202 -2.4864972674508223 0.0029486319393187375
| 18> H -2.8279184569630953 -1.2313392583140894 0.0005799379343154756
| 19> H -2.7512394732475403 1.2590567014696896 -0.0008751238141290679
| 20> H 1.4743353529020813 2.5945961094990637 -0.0007301523265312933
| 21> H 2.3465501911286286 1.3242526429110197 0.8796475552465903
| 22> H 2.3451147412560327 1.3232593778186479 -0.8815845111165914
| 23> *
| 24>
| 25>                          ****END OF INPUT****

CARTESIAN COORDINATES (ANGSTROEM)
---------------------------------
  C      1.829417   -1.467329   -0.000874
  C      0.535220   -0.703348    0.001638
  C     -0.672797   -1.399535    0.001831
  C     -1.877240   -0.708948    0.000582
  C     -1.831792    0.677070   -0.000065
  N     -0.688378    1.375035    0.000006
  C      0.478905    0.702986    0.000521
  C      1.729030    1.533952   -0.000550
  H      2.703149   -0.817178    0.038702
  H      1.873228   -2.147607    0.856344
  H      1.907656   -2.083816   -0.903181
  H     -0.662316   -2.486497    0.002949
  H     -2.827918   -1.231339    0.000580
  H     -2.751239    1.259057   -0.000875
  H      1.474335    2.594596   -0.000730
  H      2.346550    1.324253    0.879648
  H      2.345115    1.323259   -0.881585

 Total Charge           Charge          ....    0
 Multiplicity           Mult            ....    1
 Number of Electrons    NEL             ....   58
 Basis Dimension        Dim             ....  302

ORBITAL ENERGIES
----------------

  NO   OCC          E(Eh)            E(eV)
   0   2.0000     -16.517778      -449.4716
   1   2.0000     -12.088428      -328.9429
   2   2.0000     -12.077002      -328.6319
   3   2.0000     -12.064496      -328.2916
   4   2.0000     -12.062527      -328.2381
   5   2.0000     -12.052626      -327.9686
   6   2.0000     -12.049767      -327.8908
   7   2.0000     -12.039601      -327.6142
   8   2.0000      -1.511182       -41.1213
   9   2.0000      -1.349001       -36.7082
  10   2.0000      -1.315349       -35.7925
  11   2.0000      -1.231422       -33.5087
  12   2.0000      -1.194936       -32.5159
  13   2.0000      -1.121394       -30.5147
  14   2.0000      -1.114473       -30.3263
  15   2.0000      -0.998233       -27.1633
  16   2.0000      -0.959482       -26.1088
  17   2.0000      -0.912256       -24.8238
  18   2.0000      -0.875615       -23.8267
  19   2.0000      -0.868980       -23.6461
  20   2.0000      -0.860823       -23.4242
  21   2.0000      -0.842591       -22.9281
  22   2.0000      -0.833914       -22.6920
  23   2.0000      -0.825432       -22.4611
  24   2.0000      -0.813610       -22.1395
  25   2.0000      -0.800643       -21.7866
  26   2.0000      -0.756211       -20.5775
  27   2.0000      -0.690186       -18.7809
  28   2.0000      -0.637942       -17.3593
  29   0.0000      -0.286150        -7.7865
  30   0.0000      -0.243929        -6.6377
  31   0.0000      -0.096996        -2.6394
  32   0.0000      -0.051949        -1.4136
  33   0.0000      -0.041422        -1.1271

MULLIKEN ATOMIC CHARGES
-----------------------
   0 C :   -0.370857
   1 C :    0.061694
   2 C :   -0.179722
   3 C :   -0.101263
   4 C :   -0.054562
   5 N :   -0.231475
   6 C :    0.141503
   7 C :   -0.409266
   8 H :    0.129937
   9 H :    0.128377
  10 H :    0.129341
  11 H :    0.124531
  12 H :    0.121813
  13 H :    0.117922
  14 H :    0.138674
  15 H :    0.126312
  16 H :    0.127042
Sum of atomic charges:    0.0000000

LOEWDIN ATOMIC CHARGES
----------------------
   0 C :   -0.250011
   1 C :   -0.153643
   2 C :   -0.095296
   3 C :   -0.159316
   4 C :   -0.206331
   5 N :    0.141810
   6 C :   -0.209620
   7 C :   -0.258307
   8 H :    0.125872
   9 H :    0.129417
  10 H :    0.129760
  11 H :    0.146597
  12 H :    0.142412
  13 H :    0.133762
  14 H :    0.129908
  15 H :    0.126389
  16 H :    0.126598

  Mayer bond orders larger than 0.100000
B(  0-C ,  1-C ) :   0.9001 B(  0-C ,  8-H ) :   0.9949 B(  0-C ,  9-H ) :   0.9786
B(  0-C , 10-H ) :   0.9762 B(  1-C ,  2-C ) :   1.4171 B(  1-C ,  6-C ) :   1.3625
B(  2-C ,  3-C ) :   1.4525 B(  2-C , 11-H ) :   0.9698 B(  3-C ,  4-C ) :   1.4071
B(  3-C , 12-H ) :   0.9655 B(  4-C ,  5-N ) :   1.5039 B(  4-C , 13-H ) :   0.9871
B(  5-N ,  6-C ) :   1.5159 B(  6-C ,  7-C ) :   0.9120 B(  7-C , 14-H ) :   0.9881
B(  7-C , 15-H ) :   0.9801 B(  7-C , 16-H ) :   0.9795

FINAL SINGLE POINT ENERGY      -326.930234344227

DIPOLE MOMENT
-------------

Method             : SCF
Type of density    : Electron Density
Multiplicity       :   1
Irrep              :   0
Energy             :  -326.9401199089270449 Eh
Relativity type    :
Basis              : AO
                                X                 Y                 Z
Electronic contribution:     -5.792326756       1.328570839       0.008056848
Nuclear contribution   :      6.078843625      -2.163375921      -0.009924337
                        -----------------------------------------
Total Dipole Moment    :      0.286516869      -0.834805082      -0.001867489
                        -----------------------------------------
Magnitude (a.u.)       :      0.882606894
Magnitude (Debye)      :      2.243408437

Rotational constants in cm-1:             0.105327             0.075219             0.044607
Rotational constants in MHz :          3157.620303          2255.018022          1337.296884

                             ****ORCA TERMINATED NORMALLY****
TOTAL RUN TIME: 0 days 0 hours 2 minutes 40 seconds 8 msec
