                         Program Version 6.0.0  -   RELEASE  -
|  1> ! wb97x-v def2-tzvp def2/J RIJCOSX DEFGRID2 scfconv7 GCP(DFT/TZ) printgap
|  2> %output
|  3>     printlevel normal
|  4> end
|  5> %cpcm
|  6>     smd true
|  7>     smdsolvent "water"
|  8> end
|  9> * xyz 0 1
| 10> C 1.8294169165756924 -1.4673292675622853 -0.000874383379750165
| 11> C 0.5352204700398535 -0.7033480236297773 0.0016380140347057282
| 12> C -0.6727965795109145 -1.3995352542390096 0.001831479846933638
| 13> C -1.877239995465865 -0.7089477378805216 0.0005822382558601898
| 14> C -1.8317920377315227 0.6770695468078998 -6.463849680355489e-05
| 15> N -0.6883778458138325 1.3750350126570963 6.23068334155957e-06
| 16> C 0.47890522352335246 0.7029863199822372 0.0005206711194044704
| 17> C 1.7290295510861458 1.5339519375613138 -0.0005504046078783026
| 18> H 2.7031494423945595 -0.8171780815539357 0.038701823061207466
| 19> H 1.8732278774706643 -2.1476072229856613 0.8563437018695245
| 20> H 1.907656213522164 -2.0838158295115385 -0.9031811360899974
| 21> H -0.6623159624392202 -2.4864972674508223 0.0029486319393187375
| 22> H -2.8279184569630953 -1.2313392583140894 0.0005799379343154756
| 23> H -2.7512394732475403 1.2590567014696896 -0.0008751238141290679
| 24> H 1.4743353529020813 2.5945961094990637 -0.0007301523265312933
| 25> H 2.3465501911286286 1.3242526429110197 0.8796475552465903
| 26> H 2.3451147412560327 1.3232593778186479 -0.8815845111165914
| 27> *
| 28>
| 29>                          ****END OF INPUT****

CARTESIAN COORDINATES (ANGSTROEM)
---------------------------------
  C      1.829417   -1.467329   -0.000874
  C      0.535220   -0.703348    0.001638
  C     -0.672797   -1.399535    0.001831
  C     -1.877240   -0.708948    0.000582
  C     -1.831792    0.677070   -0.000065
  N     -0.688378    1.375035    0.000006
  C      0.478905    0.702986    0.000521
  C      1.729030    1.533952   -0.000550
  H      2.703149   -0.817178    0.038702
  H      1.873228   -2.147607    0.856344
  H      1.907656   -2.083816   -0.903181
  H     -0.662316   -2.486497    0.002949
  H     -2.827918   -1.231339    0.000580
  H     -2.751239    1.259057   -0.000875
  H      1.474335    2.594596   -0.000730
  H      2.346550    1.324253    0.879648
  H      2.345115    1.323259   -0.881585

 Total Charge           Charge          ....    0
 Multiplicity           Mult            ....    1
 Number of Electrons    NEL             ....   58
 Basis Dimension        Dim             ....  302

ORBITAL ENERGIES
----------------

  NO   OCC          E(Eh)            E(eV)
   0   2.0000     -16.522512      -449.6004
   1   2.0000     -12.087857      -328.9273
   2   2.0000     -12.076157      -328.6090
   3   2.0000     -12.060108      -328.1722
   4   2.0000     -12.057745      -328.1079
   5   2.0000     -12.048234      -327.8491
   6   2.0000     -12.034894      -327.4861
   7   2.0000     -12.032652      -327.4251
   8   2.0000      -1.515073       -41.2272
   9   2.0000      -1.345249       -36.6061
  10   2.0000      -1.313327       -35.7374
  11   2.0000      -1.224476       -33.3197
  12   2.0000      -1.188949       -32.3529
  13   2.0000      -1.117151       -30.3992
  14   2.0000      -1.111672       -30.2501
  15   2.0000      -0.995359       -27.0851
  16   2.0000      -0.955325       -25.9957
  17   2.0000      -0.904936       -24.6246
  18   2.0000      -0.870130       -23.6774
  19   2.0000      -0.864757       -23.5312
  20   2.0000      -0.856584       -23.3088
  21   2.0000      -0.834240       -22.7008
  22   2.0000      -0.822233       -22.3741
  23   2.0000      -0.817963       -22.2579
  24   2.0000      -0.804664       -21.8960
  25   2.0000      -0.799711       -21.7612
  26   2.0000      -0.759232       -20.6598
  27   2.0000      -0.689026       -18.7493
  28   2.0000      -0.635913       -17.3041
  29   0.0000      -0.286083        -7.7847
  30   0.0000      -0.242262        -6.5923
  31   0.0000      -0.094123        -2.5612
  32   0.0000      -0.043994        -1.1971
  33   0.0000      -0.037202        -1.0123

MULLIKEN ATOMIC CHARGES
-----------------------
   0 C :   -0.398242
   1 C :    0.047896
   2 C :   -0.202101
   3 C :   -0.156395
   4 C :   -0.069137
   5 N :   -0.310946
   6 C :    0.148039
   7 C :   -0.430925
   8 H :    0.150615
   9 H :    0.146155
  10 H :    0.146433
  11 H :    0.168266
  12 H :    0.166988
  13 H :    0.156411
  14 H :    0.133669
  15 H :    0.151548
  16 H :    0.151726
Sum of atomic charges:    0.0000000

LOEWDIN ATOMIC CHARGES
----------------------
   0 C :   -0.247840
   1 C :   -0.152178
   2 C :   -0.089103
   3 C :   -0.162128
   4 C :   -0.220679
   5 N :    0.099857
   6 C :   -0.215465
   7 C :   -0.261280
   8 H :    0.130787
   9 H :    0.134869
  10 H :    0.135156
  11 H :    0.158764
  12 H :    0.153377
  13 H :    0.140970
  14 H :    0.125901
  15 H :    0.134461
  16 H :    0.134531

  Mayer bond orders larger than 0.100000
B(  0-C ,  1-C ) :   0.9160 B(  0-C ,  8-H ) :   0.9898 B(  0-C ,  9-H ) :   0.9710
B(  0-C , 10-H ) :   0.9688 B(  1-C ,  2-C ) :   1.3996 B(  1-C ,  6-C ) :   1.3681
B(  2-C ,  3-C ) :   1.4373 B(  2-C , 11-H ) :   0.9700 B(  3-C ,  4-C ) :   1.4261
B(  3-C , 12-H ) :   0.9629 B(  4-C ,  5-N ) :   1.4895 B(  4-C , 13-H ) :   0.9695
B(  5-N ,  6-C ) :   1.4938 B(  6-C ,  7-C ) :   0.9283 B(  7-C , 14-H ) :   0.9853
B(  7-C , 15-H ) :   0.9716 B(  7-C , 16-H ) :   0.9712

FINAL SINGLE POINT ENERGY      -326.936670758497

DIPOLE MOMENT
-------------

Method             : SCF
Type of density    : Electron Density
Multiplicity       :   1
Irrep              :   0
Energy             :  -326.9465563231967167 Eh
Relativity type    :
Basis              : AO
                                X                 Y                 Z
Electronic contribution:     -5.642877333       0.886145444       0.007749908
Nuclear contribution   :      6.078843625      -2.163375921      -0.009924337
                        -----------------------------------------
Total Dipole Moment    :      0.435966293      -1.277230477      -0.002174429
                        -----------------------------------------
Magnitude (a.u.)       :      1.349588466
Magnitude (Debye)      :      3.430381264

Rotational constants in cm-1:             0.105327             0.075219             0.044607
Rotational constants in MHz :          3157.620303          2255.018022          1337.296884

                             ****ORCA TERMINATED NORMALLY****
TOTAL RUN TIME: 0 days 0 hours 2 minutes 47 seconds 938 msec
