                         Program Version 6.0.0  -   RELEASE  -
|  1> ! pbe def2-sv(p) def2/J RI DEFGRID1 loosescf d4 GCP(DFT/SV(P)) printgap
|  2> %output
|  3>     printlevel normal
|  4> end
|  5> * xyz 0 1
|  6> C -2.4954892003 -0.4354726252 -0.2882142831
|  7> C -1.0730817224 -0.1953725501 0.2318480023
|  8> H -1.0399521076 -0.4013758362 1.3145827216
|  9> C -0.6234949995 1.2675072703 0.0235919701
| 10> H -1.2596268957 1.743319114 -0.7337379147
| 11> C 0.8337933249 1.3034578281 -0.5034178794
| 12> H 1.2429541163 2.3086807788 -0.3502552575
| 13> C 1.6892587517 0.3050936348 0.2954712551
| 14> H 2.6996418663 0.2633531404 -0.1258200697
| 15> C 1.087421214 -1.1184638413 0.1552684137
| 16> H 1.0117617816 -1.5580727104 1.1723042347
| 17> O -0.2018034277 -1.0921032381 -0.4292284523
| 18> O 1.9053310479 -1.868116599 -0.6632922537
| 19> O 1.8245383241 0.6923384764 1.6370731482
| 20> O 0.8889481883 1.079155373 -1.8854231656
| 21> O -0.7409398529 1.9159676787 1.2708348392
| 22> O -3.0092941898 -1.6933891755 0.0577338593
| 23> H -2.4813441422 -0.4117125983 -1.3793450107
| 24> H -3.1385014027 0.3701183274 0.0869182136
| 25> H 1.4991640774 -2.7332369861 -0.8329215055
| 26> H 0.9773863093 1.054617046 1.9548032203
| 27> H 0.6518990081 0.1561563896 -2.0659061028
| 28> H -0.7206339823 2.876684866 1.153413611
| 29> H -3.0964566069 -1.7592258305 1.0195716107
| 30> *
| 31>
| 32>                          ****END OF INPUT****

CARTESIAN COORDINATES (ANGSTROEM)
---------------------------------
  C     -2.495489   -0.435473   -0.288214
  C     -1.073082   -0.195373    0.231848
  H     -1.039952   -0.401376    1.314583
  C     -0.623495    1.267507    0.023592
  H     -1.259627    1.743319   -0.733738
  C      0.833793    1.303458   -0.503418
  H      1.242954    2.308681   -0.350255
  C      1.689259    0.305094    0.295471
  H      2.699642    0.263353   -0.125820
  C      1.087421   -1.118464    0.155268
  H      1.011762   -1.558073    1.172304
  O     -0.201803   -1.092103   -0.429228
  O      1.905331   -1.868117   -0.663292
  O      1.824538    0.692338    1.637073
  O      0.888948    1.079155   -1.885423
  O     -0.740940    1.915968    1.270835
  O     -3.009294   -1.693389    0.057734
  H     -2.481344   -0.411713   -1.379345
  H     -3.138501    0.370118    0.086918
  H      1.499164   -2.733237   -0.832922
  H      0.977386    1.054617    1.954803
  H      0.651899    0.156156   -2.065906
  H     -0.720634    2.876685    1.153414
  H     -3.096457   -1.759226    1.019572

 Total Charge           Charge          ....    0
 Multiplicity           Mult            ....    1
 Number of Electrons    NEL             ....   96
 Basis Dimension        Dim             ....  192

ORBITAL ENERGIES
----------------

  NO   OCC          E(Eh)            E(eV)
   0   2.0000     -18.786193      -511.1983
   1   2.0000     -18.779286      -511.0104
   2   2.0000     -18.767283      -510.6837
   3   2.0000     -18.753715      -510.3145
   4   2.0000     -18.747218      -510.1377
   5   2.0000     -18.741914      -509.9934
   6   2.0000      -9.986235      -271.7393
   7   2.0000      -9.955928      -270.9146
   8   2.0000      -9.955351      -270.8989
   9   2.0000      -9.944163      -270.5944
  10   2.0000      -9.943695      -270.5817
  11   2.0000      -9.935359      -270.3549
  12   2.0000      -0.992523       -27.0079
  13   2.0000      -0.960451       -26.1352
  14   2.0000      -0.934838       -25.4382
  15   2.0000      -0.928991       -25.2791
  16   2.0000      -0.919692       -25.0261
  17   2.0000      -0.916476       -24.9386
  18   2.0000      -0.710982       -19.3468
  19   2.0000      -0.683328       -18.5943
  20   2.0000      -0.626613       -17.0510
  21   2.0000      -0.593438       -16.1483
  22   2.0000      -0.570986       -15.5373
  23   2.0000      -0.524620       -14.2756
  24   2.0000      -0.513485       -13.9726
  25   2.0000      -0.496060       -13.4985
  26   2.0000      -0.488341       -13.2884
  27   2.0000      -0.483654       -13.1609
  28   2.0000      -0.444938       -12.1074
  29   2.0000      -0.435002       -11.8370
  30   2.0000      -0.412372       -11.2212
  31   2.0000      -0.406898       -11.0723
  32   2.0000      -0.387456       -10.5432
  33   2.0000      -0.375267       -10.2115
  34   2.0000      -0.360057        -9.7976
  35   2.0000      -0.353497        -9.6191
  36   2.0000      -0.335484        -9.1290
  37   2.0000      -0.320276        -8.7152
  38   2.0000      -0.315917        -8.5965
  39   2.0000      -0.307744        -8.3741
  40   2.0000      -0.284455        -7.7404
  41   2.0000      -0.272988        -7.4284
  42   2.0000      -0.265443        -7.2231
  43   2.0000      -0.253455        -6.8969
  44   2.0000      -0.240193        -6.5360
  45   2.0000      -0.226737        -6.1698
  46   2.0000      -0.210746        -5.7347
  47   2.0000      -0.202303        -5.5049
  48   0.0000       0.002103         0.0572
  49   0.0000       0.018607         0.5063
  50   0.0000       0.029602         0.8055
  51   0.0000       0.045891         1.2488
  52   0.0000       0.054188         1.4745

MULLIKEN ATOMIC CHARGES
-----------------------
   0 C :    0.068805
   1 C :    0.022127
   2 H :    0.047313
   3 C :   -0.005932
   4 H :    0.071527
   5 C :    0.032403
   6 H :    0.066481
   7 C :    0.045973
   8 H :    0.090911
   9 C :    0.181841
  10 H :    0.052184
  11 O :   -0.308617
  12 O :   -0.378280
  13 O :   -0.428185
  14 O :   -0.417752
  15 O :   -0.414618
  16 O :   -0.425107
  17 H :    0.091553
  18 H :    0.085772
  19 H :    0.308164
  20 H :    0.298376
  21 H :    0.303915
  22 H :    0.314670
  23 H :    0.296477
Sum of atomic charges:   -0.0000000

LOEWDIN ATOMIC CHARGES
----------------------
   0 C :   -0.125689
   1 C :   -0.072899
   2 H :    0.100905
   3 C :   -0.083565
   4 H :    0.108858
   5 C :   -0.081407
   6 H :    0.113171
   7 C :   -0.083779
   8 H :    0.125836
   9 C :   -0.006259
  10 H :    0.084804
  11 O :   -0.157059
  12 O :   -0.289745
  13 O :   -0.320546
  14 O :   -0.312890
  15 O :   -0.308440
  16 O :   -0.329271
  17 H :    0.121193
  18 H :    0.102850
  19 H :    0.290942
  20 H :    0.268218
  21 H :    0.275445
  22 H :    0.295120
  23 H :    0.284206

  Mayer bond orders larger than 0.100000
B(  0-C ,  1-C ) :   1.0355 B(  0-C , 16-O ) :   1.0908 B(  0-C , 17-H ) :   0.9047
B(  0-C , 18-H ) :   0.9223 B(  1-C ,  2-H ) :   0.8602 B(  1-C ,  3-C ) :   0.9751
B(  1-C , 11-O ) :   1.0340 B(  3-C ,  4-H ) :   0.8899 B(  3-C ,  5-C ) :   0.9660
B(  3-C , 15-O ) :   1.0224 B(  5-C ,  6-H ) :   0.8948 B(  5-C ,  7-C ) :   1.0029
B(  5-C , 14-O ) :   1.0601 B(  7-C ,  8-H ) :   0.8884 B(  7-C ,  9-C ) :   0.9336
B(  7-C , 13-O ) :   1.0718 B(  9-C , 10-H ) :   0.8943 B(  9-C , 11-O ) :   0.9871
B(  9-C , 12-O ) :   1.1655 B( 12-O , 19-H ) :   0.8386 B( 13-O , 20-H ) :   0.8101
B( 14-O , 21-H ) :   0.8293 B( 15-O , 20-H ) :   0.1044 B( 15-O , 22-H ) :   0.8392
B( 16-O , 23-H ) :   0.8524

Dispersion correction           -0.024749652
FINAL SINGLE POINT ENERGY      -685.692596350410

DIPOLE MOMENT
-------------

Method             : SCF
Type of density    : Electron Density
Multiplicity       :   1
Irrep              :   0
Energy             :  -685.8239969400799509 Eh
Relativity type    :
Basis              : AO
                                X                 Y                 Z
Electronic contribution:      2.410493544      -1.452885572      -0.600427309
Nuclear contribution   :     -3.417921637       1.776940571       1.138388279
                        -----------------------------------------
Total Dipole Moment    :     -1.007428093       0.324054999       0.537960969
                        -----------------------------------------
Magnitude (a.u.)       :      1.187149952
Magnitude (Debye)      :      3.017495375

Rotational constants in cm-1:             0.038295             0.026790             0.021562
Rotational constants in MHz :          1148.044889           803.156511           646.400448

                             ****ORCA TERMINATED NORMALLY****
TOTAL RUN TIME: 0 days 0 hours 0 minutes 12 seconds 103 msec
