                         Program Version 6.0.0  -   RELEASE  -
|  1> ! wb97x-v def2-tzvp def2/J RIJCOSX DEFGRID2 scfconv7 GCP(DFT/TZ) printgap
|  2> %output
|  3>     printlevel normal
|  4> end
|  5> * xyz 0 1
|  6> C -2.7385499641968725 0.7256224352056092 0.7647443674588392
|  7> C -1.7691457436714515 -0.1193638795648665 -0.00482942969966558
|  8> O -2.1412352344459293 -0.8592510407088385 -0.9128670651395656
|  9> C -0.3130704010577763 -0.0008900705128593704 0.3750353792770676
| 10> C 0.309455577330891 1.1484126767988796 -0.4540696295461143
| 11> C 1.7816986167767186 1.3378926827366135 -0.08574939692869596
| 12> C 2.572617145170226 0.041055426744806035 -0.2642203470800048
| 13> C 1.9445104977308965 -1.1023057877220823 0.5347864476966945
| 14> C 0.47479206741109475 -1.2948485905728069 0.15797482956109032
| 15> H -2.3374312744699175 1.7310020940556603 0.927211069376292
| 16> H -3.7092665572696855 0.7713778753006769 0.2682478717134466
| 17> H -2.8607955352604373 0.27360438186537017 1.757697398572593
| 18> H -0.2625868249139808 0.29036971505442916 1.433284798259262
| 19> H 0.2229928181063685 0.8933034204997884 -1.5189825205939285
| 20> H -0.24789471309408756 2.0776626349840233 -0.2917556249851211
| 21> H 2.212519715987663 2.1360469999529363 -0.7014248898619148
| 22> H 1.850089231002692 1.6652364196669704 0.9605680970458378
| 23> H 2.5861042016802984 -0.22896560871686267 -1.3292948425262743
| 24> H 3.6143671318503205 0.19024226301833644 0.04243362949428594
| 25> H 2.497025475848359 -2.03360017080237 0.36526711866273764
| 26> H 2.0176464932351057 -0.8778135072355854 1.608014137072813
| 27> H 0.40231658895422645 -1.5843002786007643 -0.897726104174067
| 28> H 0.02868968127363697 -2.104364871247802 0.7475621481837242
| 29> *
| 30>
| 31>                          ****END OF INPUT****

CARTESIAN COORDINATES (ANGSTROEM)
---------------------------------
  C     -2.738550    0.725622    0.764744
  C     -1.769146   -0.119364   -0.004829
  O     -2.141235   -0.859251   -0.912867
  C     -0.313070   -0.000890    0.375035
  C      0.309456    1.148413   -0.454070
  C      1.781699    1.337893   -0.085749
  C      2.572617    0.041055   -0.264220
  C      1.944510   -1.102306    0.534786
  C      0.474792   -1.294849    0.157975
  H     -2.337431    1.731002    0.927211
  H     -3.709267    0.771378    0.268248
  H     -2.860796    0.273604    1.757697
  H     -0.262587    0.290370    1.433285
  H      0.222993    0.893303   -1.518983
  H     -0.247895    2.077663   -0.291756
  H      2.212520    2.136047   -0.701425
  H      1.850089    1.665236    0.960568
  H      2.586104   -0.228966   -1.329295
  H      3.614367    0.190242    0.042434
  H      2.497025   -2.033600    0.365267
  H      2.017646   -0.877814    1.608014
  H      0.402317   -1.584300   -0.897726
  H      0.028690   -2.104365    0.747562

 Total Charge           Charge          ....    0
 Multiplicity           Mult            ....    1
 Number of Electrons    NEL             ....   70
 Basis Dimension        Dim             ....  363

ORBITAL ENERGIES
----------------

  NO   OCC          E(Eh)            E(eV)
   0   2.0000     -21.655064      -589.2643
   1   2.0000     -12.133324      -330.1645
   2   2.0000     -12.056962      -328.0866
   3   2.0000     -12.052740      -327.9717
   4   2.0000     -12.051365      -327.9343
   5   2.0000     -12.045818      -327.7834
   6   2.0000     -12.042321      -327.6882
   7   2.0000     -12.041361      -327.6621
   8   2.0000     -12.040226      -327.6312
   9   2.0000      -1.697423       -46.1892
  10   2.0000      -1.352754       -36.8103
  11   2.0000      -1.287881       -35.0450
  12   2.0000      -1.253964       -34.1221
  13   2.0000      -1.240664       -33.7602
  14   2.0000      -1.132359       -30.8131
  15   2.0000      -1.102109       -29.9899
  16   2.0000      -1.071806       -29.1653
  17   2.0000      -1.024501       -27.8781
  18   2.0000      -0.968856       -26.3639
  19   2.0000      -0.956440       -26.0261
  20   2.0000      -0.910079       -24.7645
  21   2.0000      -0.900274       -24.4977
  22   2.0000      -0.877204       -23.8699
  23   2.0000      -0.875128       -23.8134
  24   2.0000      -0.860185       -23.4068
  25   2.0000      -0.844026       -22.9671
  26   2.0000      -0.834089       -22.6967
  27   2.0000      -0.829534       -22.5728
  28   2.0000      -0.824924       -22.4473
  29   2.0000      -0.805076       -21.9072
  30   2.0000      -0.784979       -21.3604
  31   2.0000      -0.780193       -21.2301
  32   2.0000      -0.758512       -20.6401
  33   2.0000      -0.754278       -20.5250
  34   2.0000      -0.740600       -20.1527
  35   0.0000      -0.308897        -8.4055
  36   0.0000      -0.061432        -1.6717
  37   0.0000      -0.047797        -1.3006
  38   0.0000      -0.035687        -0.9711
  39   0.0000      -0.027011        -0.7350

MULLIKEN ATOMIC CHARGES
-----------------------
   0 C :   -0.367608
   1 C :    0.219314
   2 O :   -0.322408
   3 C :   -0.035745
   4 C :   -0.241805
   5 C :   -0.173333
   6 C :   -0.184737
   7 C :   -0.168413
   8 C :   -0.214948
   9 H :    0.123040
  10 H :    0.139147
  11 H :    0.132105
  12 H :    0.079848
  13 H :    0.117936
  14 H :    0.098233
  15 H :    0.103900
  16 H :    0.090024
  17 H :    0.091497
  18 H :    0.103289
  19 H :    0.104025
  20 H :    0.086428
  21 H :    0.117701
  22 H :    0.102508
Sum of atomic charges:   -0.0000000

LOEWDIN ATOMIC CHARGES
----------------------
   0 C :   -0.258953
   1 C :   -0.316179
   2 O :    0.107358
   3 C :   -0.225030
   4 C :   -0.219242
   5 C :   -0.257467
   6 C :   -0.259189
   7 C :   -0.257901
   8 C :   -0.224777
   9 H :    0.129965
  10 H :    0.130115
  11 H :    0.138848
  12 H :    0.157083
  13 H :    0.143590
  14 H :    0.132561
  15 H :    0.132869
  16 H :    0.133597
  17 H :    0.135149
  18 H :    0.131481
  19 H :    0.132537
  20 H :    0.132445
  21 H :    0.144599
  22 H :    0.136540

  Mayer bond orders larger than 0.100000
B(  0-C ,  1-C ) :   0.9806 B(  0-C ,  9-H ) :   0.9593 B(  0-C , 10-H ) :   0.9843
B(  0-C , 11-H ) :   0.9534 B(  1-C ,  2-O ) :   2.1342 B(  1-C ,  3-C ) :   0.8954
B(  3-C ,  4-C ) :   0.9525 B(  3-C ,  8-C ) :   0.9739 B(  3-C , 12-H ) :   0.9555
B(  4-C ,  5-C ) :   0.9872 B(  4-C , 13-H ) :   0.9748 B(  4-C , 14-H ) :   0.9655
B(  5-C ,  6-C ) :   0.9919 B(  5-C , 15-H ) :   0.9767 B(  5-C , 16-H ) :   0.9752
B(  6-C ,  7-C ) :   0.9880 B(  6-C , 17-H ) :   0.9732 B(  6-C , 18-H ) :   0.9763
B(  7-C ,  8-C ) :   0.9835 B(  7-C , 19-H ) :   0.9775 B(  7-C , 20-H ) :   0.9730
B(  8-C , 21-H ) :   0.9718 B(  8-C , 22-H ) :   0.9779

FINAL SINGLE POINT ENERGY      -388.543297194823

DIPOLE MOMENT
-------------

Method             : SCF
Type of density    : Electron Density
Multiplicity       :   1
Irrep              :   0
Energy             :  -388.5590307213234951 Eh
Relativity type    :
Basis              : AO
                                X                 Y                 Z
Electronic contribution:     -5.214269621      -2.462843871      -2.224994360
Nuclear contribution   :      5.716923324       3.165022598       3.035778598
                        -----------------------------------------
Total Dipole Moment    :      0.502653703       0.702178727       0.810784238
                        -----------------------------------------
Magnitude (a.u.)       :      1.184519646
Magnitude (Debye)      :      3.010809666

Rotational constants in cm-1:             0.102941             0.035063             0.030402
Rotational constants in MHz :          3086.087786          1051.174496           911.425543

                             ****ORCA TERMINATED NORMALLY****
TOTAL RUN TIME: 0 days 0 hours 3 minutes 39 seconds 778 msec
