                         Program Version 6.0.0  -   RELEASE  -
|  1> ! wb97x-v def2-tzvp def2/J RIJCOSX DEFGRID2 scfconv7 GCP(DFT/TZ) printgap
|  2> %output
|  3>     printlevel normal
|  4> end
|  5> %cpcm
|  6>     smd true
|  7>     smdsolvent "water"
|  8> end
|  9> * xyz 0 1
| 10> C -2.7385499641968725 0.7256224352056092 0.7647443674588392
| 11> C -1.7691457436714515 -0.1193638795648665 -0.00482942969966558
| 12> O -2.1412352344459293 -0.8592510407088385 -0.9128670651395656
| 13> C -0.3130704010577763 -0.0008900705128593704 0.3750353792770676
| 14> C 0.309455577330891 1.1484126767988796 -0.4540696295461143
| 15> C 1.7816986167767186 1.3378926827366135 -0.08574939692869596
| 16> C 2.572617145170226 0.041055426744806035 -0.2642203470800048
| 17> C 1.9445104977308965 -1.1023057877220823 0.5347864476966945
| 18> C 0.47479206741109475 -1.2948485905728069 0.15797482956109032
| 19> H -2.3374312744699175 1.7310020940556603 0.927211069376292
| 20> H -3.7092665572696855 0.7713778753006769 0.2682478717134466
| 21> H -2.8607955352604373 0.27360438186537017 1.757697398572593
| 22> H -0.2625868249139808 0.29036971505442916 1.433284798259262
| 23> H 0.2229928181063685 0.8933034204997884 -1.5189825205939285
| 24> H -0.24789471309408756 2.0776626349840233 -0.2917556249851211
| 25> H 2.212519715987663 2.1360469999529363 -0.7014248898619148
| 26> H 1.850089231002692 1.6652364196669704 0.9605680970458378
| 27> H 2.5861042016802984 -0.22896560871686267 -1.3292948425262743
| 28> H 3.6143671318503205 0.19024226301833644 0.04243362949428594
| 29> H 2.497025475848359 -2.03360017080237 0.36526711866273764
| 30> H 2.0176464932351057 -0.8778135072355854 1.608014137072813
| 31> H 0.40231658895422645 -1.5843002786007643 -0.897726104174067
| 32> H 0.02868968127363697 -2.104364871247802 0.7475621481837242
| 33> *
| 34>
| 35>                          ****END OF INPUT****

CARTESIAN COORDINATES (ANGSTROEM)
---------------------------------
  C     -2.738550    0.725622    0.764744
  C     -1.769146   -0.119364   -0.004829
  O     -2.141235   -0.859251   -0.912867
  C     -0.313070   -0.000890    0.375035
  C      0.309456    1.148413   -0.454070
  C      1.781699    1.337893   -0.085749
  C      2.572617    0.041055   -0.264220
  C      1.944510   -1.102306    0.534786
  C      0.474792   -1.294849    0.157975
  H     -2.337431    1.731002    0.927211
  H     -3.709267    0.771378    0.268248
  H     -2.860796    0.273604    1.757697
  H     -0.262587    0.290370    1.433285
  H      0.222993    0.893303   -1.518983
  H     -0.247895    2.077663   -0.291756
  H      2.212520    2.136047   -0.701425
  H      1.850089    1.665236    0.960568
  H      2.586104   -0.228966   -1.329295
  H      3.614367    0.190242    0.042434
  H      2.497025   -2.033600    0.365267
  H      2.017646   -0.877814    1.608014
  H      0.402317   -1.584300   -0.897726
  H      0.028690   -2.104365    0.747562

 Total Charge           Charge          ....    0
 Multiplicity           Mult            ....    1
 Number of Electrons    NEL             ....   70
 Basis Dimension        Dim             ....  363

ORBITAL ENERGIES
----------------

  NO   OCC          E(Eh)            E(eV)
   0   2.0000     -21.666254      -589.5688
   1   2.0000     -12.140860      -330.3696
   2   2.0000     -12.047192      -327.8208
   3   2.0000     -12.039629      -327.6150
   4   2.0000     -12.038828      -327.5932
   5   2.0000     -12.033014      -327.4350
   6   2.0000     -12.031762      -327.4009
   7   2.0000     -12.030427      -327.3646
   8   2.0000     -12.028789      -327.3200
   9   2.0000      -1.712143       -46.5898
  10   2.0000      -1.342575       -36.5333
  11   2.0000      -1.279486       -34.8166
  12   2.0000      -1.242587       -33.8125
  13   2.0000      -1.231049       -33.4985
  14   2.0000      -1.126550       -30.6550
  15   2.0000      -1.090957       -29.6865
  16   2.0000      -1.079960       -29.3872
  17   2.0000      -1.014938       -27.6179
  18   2.0000      -0.970428       -26.4067
  19   2.0000      -0.953703       -25.9516
  20   2.0000      -0.919898       -25.0317
  21   2.0000      -0.890554       -24.2332
  22   2.0000      -0.865860       -23.5613
  23   2.0000      -0.864080       -23.5128
  24   2.0000      -0.851389       -23.1675
  25   2.0000      -0.835156       -22.7258
  26   2.0000      -0.825015       -22.4498
  27   2.0000      -0.819791       -22.3076
  28   2.0000      -0.813279       -22.1305
  29   2.0000      -0.799811       -21.7640
  30   2.0000      -0.774841       -21.0845
  31   2.0000      -0.768588       -20.9144
  32   2.0000      -0.749292       -20.3893
  33   2.0000      -0.743058       -20.2196
  34   2.0000      -0.728559       -19.8251
  35   0.0000      -0.307187        -8.3590
  36   0.0000      -0.053642        -1.4597
  37   0.0000      -0.038163        -1.0385
  38   0.0000      -0.022847        -0.6217
  39   0.0000      -0.013675        -0.3721

MULLIKEN ATOMIC CHARGES
-----------------------
   0 C :   -0.409932
   1 C :    0.303308
   2 O :   -0.465897
   3 C :   -0.037107
   4 C :   -0.254082
   5 C :   -0.194956
   6 C :   -0.206555
   7 C :   -0.195752
   8 C :   -0.226545
   9 H :    0.159654
  10 H :    0.143072
  11 H :    0.165922
  12 H :    0.110242
  13 H :    0.114608
  14 H :    0.125635
  15 H :    0.114782
  16 H :    0.104217
  17 H :    0.098209
  18 H :    0.114437
  19 H :    0.114004
  20 H :    0.101565
  21 H :    0.102512
  22 H :    0.118660
Sum of atomic charges:   -0.0000000

LOEWDIN ATOMIC CHARGES
----------------------
   0 C :   -0.252502
   1 C :   -0.294467
   2 O :    0.026333
   3 C :   -0.217823
   4 C :   -0.216941
   5 C :   -0.257669
   6 C :   -0.261916
   7 C :   -0.258583
   8 C :   -0.230845
   9 H :    0.142958
  10 H :    0.130079
  11 H :    0.151078
  12 H :    0.168923
  13 H :    0.142353
  14 H :    0.139767
  15 H :    0.134894
  16 H :    0.137470
  17 H :    0.136069
  18 H :    0.133030
  19 H :    0.133728
  20 H :    0.136646
  21 H :    0.139074
  22 H :    0.138343

  Mayer bond orders larger than 0.100000
B(  0-C ,  1-C ) :   1.0097 B(  0-C ,  9-H ) :   0.9490 B(  0-C , 10-H ) :   0.9741
B(  0-C , 11-H ) :   0.9414 B(  1-C ,  2-O ) :   1.9718 B(  1-C ,  3-C ) :   0.9085
B(  3-C ,  4-C ) :   0.9535 B(  3-C ,  8-C ) :   0.9805 B(  3-C , 12-H ) :   0.9493
B(  4-C ,  5-C ) :   0.9871 B(  4-C , 13-H ) :   0.9705 B(  4-C , 14-H ) :   0.9619
B(  5-C ,  6-C ) :   0.9909 B(  5-C , 15-H ) :   0.9737 B(  5-C , 16-H ) :   0.9738
B(  6-C ,  7-C ) :   0.9891 B(  6-C , 17-H ) :   0.9722 B(  6-C , 18-H ) :   0.9734
B(  7-C ,  8-C ) :   0.9959 B(  7-C , 19-H ) :   0.9746 B(  7-C , 20-H ) :   0.9723
B(  8-C , 21-H ) :   0.9617 B(  8-C , 22-H ) :   0.9748

FINAL SINGLE POINT ENERGY      -388.551027892655

DIPOLE MOMENT
-------------

Method             : SCF
Type of density    : Electron Density
Multiplicity       :   1
Irrep              :   0
Energy             :  -388.5667614191550001 Eh
Relativity type    :
Basis              : AO
                                X                 Y                 Z
Electronic contribution:     -5.037833135      -2.065659171      -1.745175959
Nuclear contribution   :      5.716923324       3.165022598       3.035778598
                        -----------------------------------------
Total Dipole Moment    :      0.679090188       1.099363427       1.290602640
                        -----------------------------------------
Magnitude (a.u.)       :      1.826312843
Magnitude (Debye)      :      4.642118333

Rotational constants in cm-1:             0.102941             0.035063             0.030402
Rotational constants in MHz :          3086.087786          1051.174496           911.425543

                             ****ORCA TERMINATED NORMALLY****
TOTAL RUN TIME: 0 days 0 hours 3 minutes 45 seconds 629 msec
