                         Program Version 6.0.0  -   RELEASE  -
|  1> ! pbe def2-sv(p) def2/J RI DEFGRID1 loosescf d4 GCP(DFT/SV(P)) printgap
|  2> %output
|  3>     printlevel normal
|  4> end
|  5> * xyz 0 1
|  6> C -2.6062989726 -0.7402473016 1.3022907857
|  7> C -2.357059895 -0.0616640052 -0.0433524092
|  8> H -3.3366947993 0.1747941701 -0.4716733225
|  9> C -1.6221946427 -0.972656691 -1.0295479542
| 10> C -0.2181178197 -1.3517303836 -0.5512370216
| 11> C 0.5022426119 -0.1902141694 0.1734857106
| 12> H 0.2791228636 -0.2525855167 1.2426526641
| 13> C -0.1205504456 1.0926661436 -0.3200796097
| 14> O 0.4592370997 1.9217183057 -0.9940450913
| 15> C -1.5644651713 1.2552125095 0.0803826896
| 16> C 2.0290652408 -0.2267713061 0.0025671905
| 17> C 2.6816737294 0.8674064089 0.8486733902
| 18> C 2.6016503281 -1.5848165321 0.4058269879
| 19> H -3.1648090734 -1.6610405445 1.1522486564
| 20> H -1.6799916286 -0.9830124875 1.8123829556
| 21> H -3.1926201039 -0.0891698055 1.9463352754
| 22> H -2.2013343164 -1.8806026546 -1.2025800445
| 23> H -1.5449947411 -0.4408571154 -1.9819562685
| 24> H -0.2721948326 -2.2089565022 0.1186487448
| 25> H 0.3727725239 -1.6418658912 -1.4211110123
| 26> H -1.5757720379 1.6095301816 1.1132203429
| 27> H -1.9997025935 2.0398062863 -0.5411025428
| 28> H 2.2598764398 -0.0327883575 -1.0509125709
| 29> H 2.3212712257 1.849698237 0.5538266036
| 30> H 3.7607919484 0.8498528717 0.718024591
| 31> H 2.4607284789 0.7154818395 1.9034033798
| 32> H 2.3350580568 -1.8141057334 1.4352037778
| 33> H 3.6860289358 -1.5633780967 0.3313054633
| 34> H 2.2351533956 -2.3814020959 -0.234314342
| 35> *
| 36>
| 37>                          ****END OF INPUT****

CARTESIAN COORDINATES (ANGSTROEM)
---------------------------------
  C     -2.606299   -0.740247    1.302291
  C     -2.357060   -0.061664   -0.043352
  H     -3.336695    0.174794   -0.471673
  C     -1.622195   -0.972657   -1.029548
  C     -0.218118   -1.351730   -0.551237
  C      0.502243   -0.190214    0.173486
  H      0.279123   -0.252586    1.242653
  C     -0.120550    1.092666   -0.320080
  O      0.459237    1.921718   -0.994045
  C     -1.564465    1.255213    0.080383
  C      2.029065   -0.226771    0.002567
  C      2.681674    0.867406    0.848673
  C      2.601650   -1.584817    0.405827
  H     -3.164809   -1.661041    1.152249
  H     -1.679992   -0.983012    1.812383
  H     -3.192620   -0.089170    1.946335
  H     -2.201334   -1.880603   -1.202580
  H     -1.544995   -0.440857   -1.981956
  H     -0.272195   -2.208957    0.118649
  H      0.372773   -1.641866   -1.421111
  H     -1.575772    1.609530    1.113220
  H     -1.999703    2.039806   -0.541103
  H      2.259876   -0.032788   -1.050913
  H      2.321271    1.849698    0.553827
  H      3.760792    0.849853    0.718025
  H      2.460728    0.715482    1.903403
  H      2.335058   -1.814106    1.435204
  H      3.686029   -1.563378    0.331305
  H      2.235153   -2.381402   -0.234314

 Total Charge           Charge          ....    0
 Multiplicity           Mult            ....    1
 Number of Electrons    NEL             ....   86
 Basis Dimension        Dim             ....  190

ORBITAL ENERGIES
----------------

  NO   OCC          E(Eh)            E(eV)
   0   2.0000     -18.740325      -509.9502
   1   2.0000      -9.969145      -271.2742
   2   2.0000      -9.905746      -269.5490
   3   2.0000      -9.899001      -269.3655
   4   2.0000      -9.896240      -269.2904
   5   2.0000      -9.892654      -269.1928
   6   2.0000      -9.891833      -269.1705
   7   2.0000      -9.890943      -269.1463
   8   2.0000      -9.884217      -268.9632
   9   2.0000      -9.873746      -268.6783
  10   2.0000      -9.866287      -268.4753
  11   2.0000      -0.935304       -25.4509
  12   2.0000      -0.769435       -20.9374
  13   2.0000      -0.728088       -19.8123
  14   2.0000      -0.675199       -18.3731
  15   2.0000      -0.656039       -17.8517
  16   2.0000      -0.620568       -16.8865
  17   2.0000      -0.607728       -16.5371
  18   2.0000      -0.554171       -15.0798
  19   2.0000      -0.522866       -14.2279
  20   2.0000      -0.499457       -13.5909
  21   2.0000      -0.463175       -12.6036
  22   2.0000      -0.436017       -11.8646
  23   2.0000      -0.424800       -11.5594
  24   2.0000      -0.423499       -11.5240
  25   2.0000      -0.393594       -10.7102
  26   2.0000      -0.386014       -10.5040
  27   2.0000      -0.375913       -10.2291
  28   2.0000      -0.369319       -10.0497
  29   2.0000      -0.363043        -9.8789
  30   2.0000      -0.350508        -9.5378
  31   2.0000      -0.342501        -9.3199
  32   2.0000      -0.338454        -9.2098
  33   2.0000      -0.330760        -9.0004
  34   2.0000      -0.321523        -8.7491
  35   2.0000      -0.314848        -8.5674
  36   2.0000      -0.302102        -8.2206
  37   2.0000      -0.294454        -8.0125
  38   2.0000      -0.286424        -7.7940
  39   2.0000      -0.281015        -7.6468
  40   2.0000      -0.272465        -7.4142
  41   2.0000      -0.268105        -7.2955
  42   2.0000      -0.190914        -5.1950
  43   0.0000      -0.051357        -1.3975
  44   0.0000       0.026706         0.7267
  45   0.0000       0.037117         1.0100
  46   0.0000       0.051766         1.4086
  47   0.0000       0.063496         1.7278

MULLIKEN ATOMIC CHARGES
-----------------------
   0 C :   -0.262954
   1 C :   -0.192094
   2 H :    0.077853
   3 C :   -0.086854
   4 C :   -0.143207
   5 C :   -0.144289
   6 H :    0.074526
   7 C :   -0.035297
   8 O :   -0.161557
   9 C :   -0.041408
  10 C :   -0.138137
  11 C :   -0.253667
  12 C :   -0.226438
  13 H :    0.101238
  14 H :    0.109356
  15 H :    0.105766
  16 H :    0.084733
  17 H :    0.090357
  18 H :    0.093715
  19 H :    0.097095
  20 H :    0.102600
  21 H :    0.087277
  22 H :    0.073631
  23 H :    0.120122
  24 H :    0.096183
  25 H :    0.082905
  26 H :    0.085844
  27 H :    0.099837
  28 H :    0.102860
Sum of atomic charges:   -0.0000000

LOEWDIN ATOMIC CHARGES
----------------------
   0 C :   -0.333333
   1 C :   -0.148532
   2 H :    0.121821
   3 C :   -0.220816
   4 C :   -0.209345
   5 C :   -0.162733
   6 H :    0.127729
   7 C :    0.056096
   8 O :   -0.127550
   9 C :   -0.235922
  10 C :   -0.145019
  11 C :   -0.333956
  12 C :   -0.328502
  13 H :    0.120371
  14 H :    0.116241
  15 H :    0.121004
  16 H :    0.119275
  17 H :    0.122257
  18 H :    0.120984
  19 H :    0.126641
  20 H :    0.140307
  21 H :    0.130859
  22 H :    0.120039
  23 H :    0.123559
  24 H :    0.117576
  25 H :    0.111075
  26 H :    0.114593
  27 H :    0.119459
  28 H :    0.115822

  Mayer bond orders larger than 0.100000
B(  0-C ,  1-C ) :   1.0953 B(  0-C , 13-H ) :   0.9465 B(  0-C , 14-H ) :   0.9417
B(  0-C , 15-H ) :   0.9470 B(  1-C ,  2-H ) :   0.8991 B(  1-C ,  3-C ) :   1.1473
B(  1-C ,  9-C ) :   1.0320 B(  3-C ,  4-C ) :   1.1522 B(  3-C , 16-H ) :   0.9147
B(  3-C , 17-H ) :   0.8919 B(  4-C ,  5-C ) :   1.0727 B(  4-C , 18-H ) :   0.9043
B(  4-C , 19-H ) :   0.9032 B(  5-C ,  6-H ) :   0.8411 B(  5-C ,  7-C ) :   0.9656
B(  5-C , 10-C ) :   1.0512 B(  7-C ,  8-O ) :   2.1713 B(  7-C ,  9-C ) :   1.0578
B(  9-C , 20-H ) :   0.8802 B(  9-C , 21-H ) :   0.8880 B( 10-C , 11-C ) :   1.1150
B( 10-C , 12-C ) :   1.1188 B( 10-C , 22-H ) :   0.8833 B( 11-C , 23-H ) :   0.9406
B( 11-C , 24-H ) :   0.9503 B( 11-C , 25-H ) :   0.9461 B( 12-C , 26-H ) :   0.9462
B( 12-C , 27-H ) :   0.9509 B( 12-C , 28-H ) :   0.9391

Dispersion correction           -0.030513048
FINAL SINGLE POINT ENERGY      -466.027607813608

DIPOLE MOMENT
-------------

Method             : SCF
Type of density    : Electron Density
Multiplicity       :   1
Irrep              :   0
Energy             :  -466.1240164009892624 Eh
Relativity type    :
Basis              : AO
                                X                 Y                 Z
Electronic contribution:     -1.292568837       6.461105175      -4.627323690
Nuclear contribution   :      0.703577785      -7.205314637       5.073491592
                        -----------------------------------------
Total Dipole Moment    :     -0.588991052      -0.744209462       0.446167902
                        -----------------------------------------
Magnitude (a.u.)       :      1.048724930
Magnitude (Debye)      :      2.665646930

Rotational constants in cm-1:             0.055840             0.026945             0.022398
Rotational constants in MHz :          1674.035224           807.790638           671.460733

                             ****ORCA TERMINATED NORMALLY****
TOTAL RUN TIME: 0 days 0 hours 0 minutes 15 seconds 249 msec
