                         Program Version 6.0.0  -   RELEASE  -
|  1> ! pbe def2-sv(p) def2/J RI DEFGRID1 loosescf d4 GCP(DFT/SV(P)) printgap
|  2> %output
|  3>     printlevel normal
|  4> end
|  5> * xyz 0 1
|  6> C -2.6396284271 -1.3241507992 0.3956385148
|  7> C -1.950129763 -0.167184184 -0.3267130462
|  8> C -0.4503047547 -0.1515494815 -0.1657276673
|  9> C 0.2689300097 -1.3390302295 -0.230285281
| 10> C 1.6449560521 -1.3609146535 -0.0935454396
| 11> C 2.3307619146 -0.17761419 0.1093140496
| 12> C 1.6285155202 1.0124169246 0.1614537379
| 13> C 0.246425441 1.047584974 0.0228064247
| 14> C -0.4571727447 2.3727989462 0.0729797621
| 15> H -2.4112239481 -2.2809622509 -0.0654300852
| 16> H -3.7179721572 -1.1866837265 0.3633599451
| 17> H -2.3264422634 -1.3594118972 1.436690267
| 18> H -2.3657694665 0.7655329203 0.0518304404
| 19> H -2.1856216892 -0.2203915555 -1.3943354343
| 20> H -0.2525038335 -2.2692952274 -0.3950010798
| 21> H 2.177943974 -2.2988920827 -0.1465090432
| 22> H 3.4050024593 -0.1790705804 0.2209346784
| 23> H 2.1658158948 1.9384172827 0.3115771238
| 24> H -1.1320781482 2.4208731687 0.926793074
| 25> H 0.2660092269 3.178822451 0.166610897
| 26> H -1.0396546045 2.5354869221 -0.8320697381
| 27> *
| 28>
| 29>                          ****END OF INPUT****

CARTESIAN COORDINATES (ANGSTROEM)
---------------------------------
  C     -2.639628   -1.324151    0.395639
  C     -1.950130   -0.167184   -0.326713
  C     -0.450305   -0.151549   -0.165728
  C      0.268930   -1.339030   -0.230285
  C      1.644956   -1.360915   -0.093545
  C      2.330762   -0.177614    0.109314
  C      1.628516    1.012417    0.161454
  C      0.246425    1.047585    0.022806
  C     -0.457173    2.372799    0.072980
  H     -2.411224   -2.280962   -0.065430
  H     -3.717972   -1.186684    0.363360
  H     -2.326442   -1.359412    1.436690
  H     -2.365769    0.765533    0.051830
  H     -2.185622   -0.220392   -1.394335
  H     -0.252504   -2.269295   -0.395001
  H      2.177944   -2.298892   -0.146509
  H      3.405002   -0.179071    0.220935
  H      2.165816    1.938417    0.311577
  H     -1.132078    2.420873    0.926793
  H      0.266009    3.178822    0.166611
  H     -1.039655    2.535487   -0.832070

 Total Charge           Charge          ....    0
 Multiplicity           Mult            ....    1
 Number of Electrons    NEL             ....   66
 Basis Dimension        Dim             ....  150

ORBITAL ENERGIES
----------------

  NO   OCC          E(Eh)            E(eV)
   0   2.0000      -9.896323      -269.2926
   1   2.0000      -9.894847      -269.2525
   2   2.0000      -9.889605      -269.1098
   3   2.0000      -9.881880      -268.8996
   4   2.0000      -9.881640      -268.8931
   5   2.0000      -9.881481      -268.8888
   6   2.0000      -9.881233      -268.8820
   7   2.0000      -9.880982      -268.8752
   8   2.0000      -9.877569      -268.7823
   9   2.0000      -0.775712       -21.1082
  10   2.0000      -0.707359       -19.2482
  11   2.0000      -0.689471       -18.7614
  12   2.0000      -0.644935       -17.5496
  13   2.0000      -0.608924       -16.5697
  14   2.0000      -0.566893       -15.4259
  15   2.0000      -0.522893       -14.2286
  16   2.0000      -0.503853       -13.7105
  17   2.0000      -0.448345       -12.2001
  18   2.0000      -0.422836       -11.5060
  19   2.0000      -0.402928       -10.9642
  20   2.0000      -0.386146       -10.5076
  21   2.0000      -0.379600       -10.3294
  22   2.0000      -0.372809       -10.1446
  23   2.0000      -0.356461        -9.6998
  24   2.0000      -0.339611        -9.2413
  25   2.0000      -0.334634        -9.1058
  26   2.0000      -0.322048        -8.7634
  27   2.0000      -0.316156        -8.6030
  28   2.0000      -0.304263        -8.2794
  29   2.0000      -0.283444        -7.7129
  30   2.0000      -0.281088        -7.6488
  31   2.0000      -0.217387        -5.9154
  32   2.0000      -0.209704        -5.7063
  33   0.0000      -0.027996        -0.7618
  34   0.0000      -0.024691        -0.6719
  35   0.0000       0.041347         1.1251
  36   0.0000       0.053653         1.4600
  37   0.0000       0.059322         1.6142

MULLIKEN ATOMIC CHARGES
-----------------------
   0 C :   -0.288207
   1 C :   -0.139321
   2 C :    0.025998
   3 C :   -0.139955
   4 C :   -0.041398
   5 C :   -0.040171
   6 C :   -0.134745
   7 C :   -0.013533
   8 C :   -0.230640
   9 H :    0.113095
  10 H :    0.101685
  11 H :    0.109759
  12 H :    0.082040
  13 H :    0.102334
  14 H :    0.033284
  15 H :    0.045600
  16 H :    0.045702
  17 H :    0.032136
  18 H :    0.121019
  19 H :    0.099329
  20 H :    0.115989
Sum of atomic charges:    0.0000000

LOEWDIN ATOMIC CHARGES
----------------------
   0 C :   -0.336320
   1 C :   -0.221360
   2 C :   -0.040511
   3 C :   -0.123244
   4 C :   -0.128223
   5 C :   -0.128768
   6 C :   -0.125964
   7 C :   -0.048351
   8 C :   -0.324993
   9 H :    0.117491
  10 H :    0.120177
  11 H :    0.122215
  12 H :    0.121157
  13 H :    0.130467
  14 H :    0.120060
  15 H :    0.120872
  16 H :    0.121284
  17 H :    0.118799
  18 H :    0.130984
  19 H :    0.124202
  20 H :    0.130024

  Mayer bond orders larger than 0.100000
B(  0-C ,  1-C ) :   1.1555 B(  0-C ,  9-H ) :   0.9441 B(  0-C , 10-H ) :   0.9493
B(  0-C , 11-H ) :   0.9577 B(  1-C ,  2-C ) :   1.0907 B(  1-C , 12-H ) :   0.8993
B(  1-C , 13-H ) :   0.8985 B(  2-C ,  3-C ) :   1.3816 B(  2-C ,  7-C ) :   1.4137
B(  3-C ,  4-C ) :   1.3718 B(  3-C , 14-H ) :   0.9599 B(  4-C ,  5-C ) :   1.3687
B(  4-C , 15-H ) :   0.9646 B(  5-C ,  6-C ) :   1.3688 B(  5-C , 16-H ) :   0.9644
B(  6-C ,  7-C ) :   1.3997 B(  6-C , 17-H ) :   0.9554 B(  7-C ,  8-C ) :   1.1299
B(  8-C , 18-H ) :   0.9226 B(  8-C , 19-H ) :   0.9355 B(  8-C , 20-H ) :   0.9266

Dispersion correction           -0.021256111
FINAL SINGLE POINT ENERGY      -349.369509652616

DIPOLE MOMENT
-------------

Method             : SCF
Type of density    : Electron Density
Multiplicity       :   1
Irrep              :   0
Energy             :  -349.4289240983122227 Eh
Relativity type    :
Basis              : AO
                                X                 Y                 Z
Electronic contribution:      6.713238908      -0.871954556      -0.629848368
Nuclear contribution   :     -6.957910817       0.979845519       0.604602736
                        -----------------------------------------
Total Dipole Moment    :     -0.244671909       0.107890963      -0.025245633
                        -----------------------------------------
Magnitude (a.u.)       :      0.268592898
Magnitude (Debye)      :      0.682708891

Rotational constants in cm-1:             0.080215             0.049378             0.031802
Rotational constants in MHz :          2404.774983          1480.306897           953.405016

                             ****ORCA TERMINATED NORMALLY****
TOTAL RUN TIME: 0 days 0 hours 0 minutes 9 seconds 923 msec
