                         Program Version 6.0.0  -   RELEASE  -
|  1> ! pbe def2-sv(p) def2/J RI DEFGRID1 loosescf d4 GCP(DFT/SV(P)) printgap
|  2> %output
|  3>     printlevel normal
|  4> end
|  5> * xyz 0 1
|  6> C -2.9603400681 -0.3521355081 -0.0021727484
|  7> C -1.959624543 0.520478297 0.0016611089
|  8> C -0.5330192466 0.2164100822 0.0006951091
|  9> C 0.379575273 1.2733306482 -0.0001356378
| 10> C 1.7414721112 1.039783557 -0.0008816054
| 11> C 2.2229972293 -0.2588875013 -0.0007411978
| 12> C 1.3303332453 -1.318943858 0.0005085003
| 13> C -0.0313849073 -1.0861249485 0.0013277842
| 14> H -3.985463404 -0.0247900046 -0.0023744116
| 15> H -2.8060019606 -1.4172128765 -0.0053020631
| 16> H -2.1897962506 1.5791264194 0.0077210608
| 17> H 0.0108839705 2.289394875 -0.0003801454
| 18> H 2.4299798324 1.871875589 -0.001915097
| 19> H 3.2864900122 -0.4443871617 -0.0015313928
| 20> H 1.7001139344 -2.3337524915 0.0001113363
| 21> H -0.7103759722 -1.9243388992 0.0005568758
| 22> *
| 23>
| 24>                          ****END OF INPUT****

CARTESIAN COORDINATES (ANGSTROEM)
---------------------------------
  C     -2.960340   -0.352136   -0.002173
  C     -1.959625    0.520478    0.001661
  C     -0.533019    0.216410    0.000695
  C      0.379575    1.273331   -0.000136
  C      1.741472    1.039784   -0.000882
  C      2.222997   -0.258888   -0.000741
  C      1.330333   -1.318944    0.000509
  C     -0.031385   -1.086125    0.001328
  H     -3.985463   -0.024790   -0.002374
  H     -2.806002   -1.417213   -0.005302
  H     -2.189796    1.579126    0.007721
  H      0.010884    2.289395   -0.000380
  H      2.429980    1.871876   -0.001915
  H      3.286490   -0.444387   -0.001531
  H      1.700114   -2.333752    0.000111
  H     -0.710376   -1.924339    0.000557

 Total Charge           Charge          ....    0
 Multiplicity           Mult            ....    1
 Number of Electrons    NEL             ....   56
 Basis Dimension        Dim             ....  128

ORBITAL ENERGIES
----------------

  NO   OCC          E(Eh)            E(eV)
   0   2.0000      -9.905360      -269.5386
   1   2.0000      -9.898007      -269.3385
   2   2.0000      -9.894299      -269.2376
   3   2.0000      -9.894132      -269.2330
   4   2.0000      -9.894013      -269.2298
   5   2.0000      -9.893440      -269.2142
   6   2.0000      -9.893212      -269.2080
   7   2.0000      -9.882824      -268.9253
   8   2.0000      -0.781750       -21.2725
   9   2.0000      -0.713622       -19.4186
  10   2.0000      -0.672735       -18.3060
  11   2.0000      -0.650988       -17.7143
  12   2.0000      -0.561715       -15.2850
  13   2.0000      -0.542907       -14.7732
  14   2.0000      -0.502109       -13.6631
  15   2.0000      -0.464617       -12.6429
  16   2.0000      -0.425956       -11.5909
  17   2.0000      -0.405570       -11.0361
  18   2.0000      -0.392935       -10.6923
  19   2.0000      -0.375795       -10.2259
  20   2.0000      -0.366311        -9.9678
  21   2.0000      -0.342628        -9.3234
  22   2.0000      -0.327400        -8.9090
  23   2.0000      -0.303083        -8.2473
  24   2.0000      -0.297068        -8.0836
  25   2.0000      -0.274520        -7.4701
  26   2.0000      -0.232089        -6.3155
  27   2.0000      -0.205296        -5.5864
  28   0.0000      -0.065813        -1.7909
  29   0.0000      -0.035356        -0.9621
  30   0.0000       0.020529         0.5586
  31   0.0000       0.042855         1.1661
  32   0.0000       0.058336         1.5874

MULLIKEN ATOMIC CHARGES
-----------------------
   0 C :   -0.193089
   1 C :   -0.089645
   2 C :    0.171728
   3 C :   -0.134495
   4 C :   -0.039604
   5 C :   -0.049993
   6 C :   -0.042518
   7 C :   -0.127350
   8 H :    0.101655
   9 H :    0.102313
  10 H :    0.055245
  11 H :    0.044667
  12 H :    0.052852
  13 H :    0.054578
  14 H :    0.051842
  15 H :    0.041814
Sum of atomic charges:   -0.0000000

LOEWDIN ATOMIC CHARGES
----------------------
   0 C :   -0.240028
   1 C :   -0.121228
   2 C :   -0.041594
   3 C :   -0.114067
   4 C :   -0.121354
   5 C :   -0.122825
   6 C :   -0.119491
   7 C :   -0.107580
   8 H :    0.125907
   9 H :    0.120713
  10 H :    0.123233
  11 H :    0.122812
  12 H :    0.124241
  13 H :    0.123938
  14 H :    0.124050
  15 H :    0.123271

  Mayer bond orders larger than 0.100000
B(  0-C ,  1-C ) :   1.9704 B(  0-C ,  8-H ) :   0.9182 B(  0-C ,  9-H ) :   0.9029
B(  1-C ,  2-C ) :   1.1113 B(  1-C , 10-H ) :   0.9321 B(  2-C ,  3-C ) :   1.3355
B(  2-C ,  7-C ) :   1.3496 B(  3-C ,  4-C ) :   1.3735 B(  3-C , 11-H ) :   0.9638
B(  4-C ,  5-C ) :   1.3787 B(  4-C , 12-H ) :   0.9631 B(  5-C ,  6-C ) :   1.3631
B(  5-C , 13-H ) :   0.9650 B(  6-C ,  7-C ) :   1.3998 B(  6-C , 14-H ) :   0.9617
B(  7-C , 15-H ) :   0.9539

Dispersion correction           -0.016105619
FINAL SINGLE POINT ENERGY      -308.949520500451

DIPOLE MOMENT
-------------

Method             : SCF
Type of density    : Electron Density
Multiplicity       :   1
Irrep              :   0
Energy             :  -308.9908509334806581 Eh
Relativity type    :
Basis              : AO
                                X                 Y                 Z
Electronic contribution:      2.192433142       0.375481700       0.002708096
Nuclear contribution   :     -2.124184693      -0.379101515      -0.002921320
                        -----------------------------------------
Total Dipole Moment    :      0.068248448      -0.003619815      -0.000213224
                        -----------------------------------------
Magnitude (a.u.)       :      0.068344709
Magnitude (Debye)      :      0.173718444

Rotational constants in cm-1:             0.174854             0.052252             0.040230
Rotational constants in MHz :          5241.979869          1566.487947          1206.072759

                             ****ORCA TERMINATED NORMALLY****
TOTAL RUN TIME: 0 days 0 hours 0 minutes 7 seconds 79 msec
