                         Program Version 6.0.0  -   RELEASE  -
|  1> ! pbe def2-sv(p) def2/J RI DEFGRID1 loosescf d4 GCP(DFT/SV(P)) printgap
|  2> %output
|  3>     printlevel normal
|  4> end
|  5> * xyz 0 1
|  6> C -2.4827851559 -0.8094158436 -0.2525857027
|  7> C -1.1577239243 -0.5961254 0.4959059367
|  8> H -1.2558951667 -0.9920919712 1.5203179176
|  9> C -0.7583264747 0.8870960223 0.6388325355
| 10> H -1.6304494622 1.5074998243 0.3875968162
| 11> C 0.3745897389 1.2516789964 -0.342652199
| 12> H 0.7215196556 2.2665524074 -0.0986587307
| 13> C 1.5919076939 0.3193869627 -0.1704712794
| 14> H 2.0587149013 0.1671817986 -1.1559388647
| 15> C 1.1288860084 -1.0669176999 0.3157754463
| 16> H 1.098056651 -1.0633116714 1.4254048747
| 17> O -0.1600473959 -1.3487880606 -0.1753441427
| 18> O 2.009937673 -2.0192136154 -0.1643023693
| 19> O 2.4883856836 0.932844369 0.7165513688
| 20> O -0.1529510641 1.200492103 -1.6421536309
| 21> O -0.371380651 1.0814859487 1.9768205576
| 22> O -2.7391602693 0.1222676895 -1.2687304487
| 23> H -3.3137071586 -0.7187765582 0.4496993506
| 24> H -2.4615729881 -1.8297854076 -0.6579300003
| 25> H 1.6135232211 -2.9001230188 -0.0798617958
| 26> H 3.2675073785 0.3703156632 0.8306136009
| 27> H 0.4694085834 1.5953540618 -2.2695666274
| 28> H -0.1607649152 2.0136608153 2.131028809
| 29> H -1.9344044104 0.2445889613 -1.799091257
| 30> *
| 31>
| 32>                          ****END OF INPUT****

CARTESIAN COORDINATES (ANGSTROEM)
---------------------------------
  C     -2.482785   -0.809416   -0.252586
  C     -1.157724   -0.596125    0.495906
  H     -1.255895   -0.992092    1.520318
  C     -0.758326    0.887096    0.638833
  H     -1.630449    1.507500    0.387597
  C      0.374590    1.251679   -0.342652
  H      0.721520    2.266552   -0.098659
  C      1.591908    0.319387   -0.170471
  H      2.058715    0.167182   -1.155939
  C      1.128886   -1.066918    0.315775
  H      1.098057   -1.063312    1.425405
  O     -0.160047   -1.348788   -0.175344
  O      2.009938   -2.019214   -0.164302
  O      2.488386    0.932844    0.716551
  O     -0.152951    1.200492   -1.642154
  O     -0.371381    1.081486    1.976821
  O     -2.739160    0.122268   -1.268730
  H     -3.313707   -0.718777    0.449699
  H     -2.461573   -1.829785   -0.657930
  H      1.613523   -2.900123   -0.079862
  H      3.267507    0.370316    0.830614
  H      0.469409    1.595354   -2.269567
  H     -0.160765    2.013661    2.131029
  H     -1.934404    0.244589   -1.799091

 Total Charge           Charge          ....    0
 Multiplicity           Mult            ....    1
 Number of Electrons    NEL             ....   96
 Basis Dimension        Dim             ....  192

ORBITAL ENERGIES
----------------

  NO   OCC          E(Eh)            E(eV)
   0   2.0000     -18.773805      -510.8612
   1   2.0000     -18.764310      -510.6028
   2   2.0000     -18.760531      -510.5000
   3   2.0000     -18.755271      -510.3569
   4   2.0000     -18.754316      -510.3309
   5   2.0000     -18.727008      -509.5878
   6   2.0000      -9.980134      -271.5732
   7   2.0000      -9.951043      -270.7817
   8   2.0000      -9.942372      -270.5457
   9   2.0000      -9.939707      -270.4732
  10   2.0000      -9.938588      -270.4427
  11   2.0000      -9.922413      -270.0026
  12   2.0000      -0.982083       -26.7238
  13   2.0000      -0.951124       -25.8814
  14   2.0000      -0.931933       -25.3592
  15   2.0000      -0.931024       -25.3345
  16   2.0000      -0.914685       -24.8898
  17   2.0000      -0.902248       -24.5514
  18   2.0000      -0.697366       -18.9763
  19   2.0000      -0.686344       -18.6764
  20   2.0000      -0.615584       -16.7509
  21   2.0000      -0.592004       -16.1093
  22   2.0000      -0.557773       -15.1778
  23   2.0000      -0.523819       -14.2538
  24   2.0000      -0.496669       -13.5150
  25   2.0000      -0.485121       -13.2008
  26   2.0000      -0.468751       -12.7554
  27   2.0000      -0.464238       -12.6326
  28   2.0000      -0.449605       -12.2344
  29   2.0000      -0.435825       -11.8594
  30   2.0000      -0.421571       -11.4715
  31   2.0000      -0.393854       -10.7173
  32   2.0000      -0.378776       -10.3070
  33   2.0000      -0.365915        -9.9571
  34   2.0000      -0.358281        -9.7493
  35   2.0000      -0.346310        -9.4236
  36   2.0000      -0.329879        -8.9765
  37   2.0000      -0.316646        -8.6164
  38   2.0000      -0.306815        -8.3488
  39   2.0000      -0.295420        -8.0388
  40   2.0000      -0.280083        -7.6215
  41   2.0000      -0.261093        -7.1047
  42   2.0000      -0.248684        -6.7670
  43   2.0000      -0.245610        -6.6834
  44   2.0000      -0.235176        -6.3995
  45   2.0000      -0.218502        -5.9457
  46   2.0000      -0.203946        -5.5497
  47   2.0000      -0.198556        -5.4030
  48   0.0000       0.011750         0.3197
  49   0.0000       0.024433         0.6648
  50   0.0000       0.028957         0.7880
  51   0.0000       0.040462         1.1010
  52   0.0000       0.066256         1.8029

MULLIKEN ATOMIC CHARGES
-----------------------
   0 C :    0.091149
   1 C :   -0.012211
   2 H :    0.076350
   3 C :    0.001795
   4 H :    0.088719
   5 C :    0.046966
   6 H :    0.063645
   7 C :    0.085877
   8 H :    0.046342
   9 C :    0.157464
  10 H :    0.051525
  11 O :   -0.309633
  12 O :   -0.388238
  13 O :   -0.416314
  14 O :   -0.418226
  15 O :   -0.406434
  16 O :   -0.447520
  17 H :    0.081844
  18 H :    0.077334
  19 H :    0.305927
  20 H :    0.307739
  21 H :    0.312017
  22 H :    0.301885
  23 H :    0.301999
Sum of atomic charges:   -0.0000000

LOEWDIN ATOMIC CHARGES
----------------------
   0 C :   -0.120298
   1 C :   -0.070041
   2 H :    0.111942
   3 C :   -0.073477
   4 H :    0.111516
   5 C :   -0.067910
   6 H :    0.103680
   7 C :   -0.083525
   8 H :    0.101291
   9 C :   -0.007436
  10 H :    0.084781
  11 O :   -0.157940
  12 O :   -0.305134
  13 O :   -0.318132
  14 O :   -0.302254
  15 O :   -0.309839
  16 O :   -0.343492
  17 H :    0.113629
  18 H :    0.102200
  19 H :    0.289075
  20 H :    0.290922
  21 H :    0.292945
  22 H :    0.286454
  23 H :    0.271042

  Mayer bond orders larger than 0.100000
B(  0-C ,  1-C ) :   1.0477 B(  0-C , 16-O ) :   1.0995 B(  0-C , 17-H ) :   0.9204
B(  0-C , 18-H ) :   0.9134 B(  1-C ,  2-H ) :   0.8906 B(  1-C ,  3-C ) :   0.9673
B(  1-C , 11-O ) :   0.9936 B(  3-C ,  4-H ) :   0.8938 B(  3-C ,  5-C ) :   1.0324
B(  3-C , 15-O ) :   1.0695 B(  5-C ,  6-H ) :   0.8933 B(  5-C ,  7-C ) :   0.9476
B(  5-C , 14-O ) :   1.0248 B(  7-C ,  8-H ) :   0.8802 B(  7-C ,  9-C ) :   1.0098
B(  7-C , 13-O ) :   1.0789 B(  9-C , 10-H ) :   0.8706 B(  9-C , 11-O ) :   1.0542
B(  9-C , 12-O ) :   1.1561 B( 12-O , 19-H ) :   0.8386 B( 13-O , 20-H ) :   0.8444
B( 14-O , 21-H ) :   0.8377 B( 15-O , 22-H ) :   0.8443 B( 16-O , 23-H ) :   0.8084

Dispersion correction           -0.025091537
FINAL SINGLE POINT ENERGY      -685.689630707084

DIPOLE MOMENT
-------------

Method             : SCF
Type of density    : Electron Density
Multiplicity       :   1
Irrep              :   0
Energy             :  -685.8205232407921130 Eh
Relativity type    :
Basis              : AO
                                X                 Y                 Z
Electronic contribution:      2.352212821      -0.427386733      -0.609079034
Nuclear contribution   :     -1.417661334       0.619733401       0.633092292
                        -----------------------------------------
Total Dipole Moment    :      0.934551488       0.192346667       0.024013258
                        -----------------------------------------
Magnitude (a.u.)       :      0.954442434
Magnitude (Debye)      :      2.425999871

Rotational constants in cm-1:             0.042991             0.026128             0.023141
Rotational constants in MHz :          1288.840042           783.293922           693.754913

                             ****ORCA TERMINATED NORMALLY****
TOTAL RUN TIME: 0 days 0 hours 0 minutes 12 seconds 40 msec
