                         Program Version 6.0.0  -   RELEASE  -
|  1> ! pbe def2-sv(p) def2/J RI DEFGRID1 loosescf d4 GCP(DFT/SV(P)) printgap
|  2> %output
|  3>     printlevel normal
|  4> end
|  5> * xyz 0 1
|  6> C -2.1611462752 -1.2049297927 -0.0393487078
|  7> C -1.2012420396 -0.3457668477 0.7979464931
|  8> H -1.7114600173 -0.1256214924 1.742047825
|  9> C -0.8763736638 0.9902768132 0.0855441095
| 10> H -1.0956597313 0.8911699968 -0.9844477563
| 11> C 0.6170729063 1.2875711263 0.2539553367
| 12> H 0.8712848832 1.3492720062 1.3192307307
| 13> C 1.4108568473 0.1271117013 -0.3671987242
| 14> H 1.166302358 0.0555292801 -1.4404609411
| 15> C 1.0206742666 -1.2060795675 0.3141846128
| 16> H 1.867412575 -1.5327592639 0.9296113872
| 17> O -0.0361013755 -1.0431328047 1.2304589113
| 18> O 0.792548354 -2.2257213014 -0.5955016526
| 19> O 2.7939744761 0.316755546 -0.2097167649
| 20> O 1.0037478234 2.5194656618 -0.2998287113
| 21> O -1.6995518186 2.0369804227 0.5260698191
| 22> O -1.6765480867 -1.345982944 -1.3635134832
| 23> H -3.1307388784 -0.6969198007 -0.0465070551
| 24> H -2.2567444089 -2.1838207578 0.4429774322
| 25> H -0.0262003688 -2.0224355612 -1.1013361883
| 26> H 2.9932490874 1.2521620621 -0.3836028048
| 27> H 0.5863225878 2.6384392977 -1.1656458071
| 28> H -1.4536988508 2.3002137972 1.4246762641
| 29> H -2.327795085 -1.8339600727 -1.8878581663
| 30> *
| 31>
| 32>                          ****END OF INPUT****

CARTESIAN COORDINATES (ANGSTROEM)
---------------------------------
  C     -2.161146   -1.204930   -0.039349
  C     -1.201242   -0.345767    0.797946
  H     -1.711460   -0.125621    1.742048
  C     -0.876374    0.990277    0.085544
  H     -1.095660    0.891170   -0.984448
  C      0.617073    1.287571    0.253955
  H      0.871285    1.349272    1.319231
  C      1.410857    0.127112   -0.367199
  H      1.166302    0.055529   -1.440461
  C      1.020674   -1.206080    0.314185
  H      1.867413   -1.532759    0.929611
  O     -0.036101   -1.043133    1.230459
  O      0.792548   -2.225721   -0.595502
  O      2.793974    0.316756   -0.209717
  O      1.003748    2.519466   -0.299829
  O     -1.699552    2.036980    0.526070
  O     -1.676548   -1.345983   -1.363513
  H     -3.130739   -0.696920   -0.046507
  H     -2.256744   -2.183821    0.442977
  H     -0.026200   -2.022436   -1.101336
  H      2.993249    1.252162   -0.383603
  H      0.586323    2.638439   -1.165646
  H     -1.453699    2.300214    1.424676
  H     -2.327795   -1.833960   -1.887858

 Total Charge           Charge          ....    0
 Multiplicity           Mult            ....    1
 Number of Electrons    NEL             ....   96
 Basis Dimension        Dim             ....  192

ORBITAL ENERGIES
----------------

  NO   OCC          E(Eh)            E(eV)
   0   2.0000     -18.797583      -511.5082
   1   2.0000     -18.762037      -510.5410
   2   2.0000     -18.761769      -510.5337
   3   2.0000     -18.758957      -510.4572
   4   2.0000     -18.739852      -509.9373
   5   2.0000     -18.727429      -509.5993
   6   2.0000      -9.969048      -271.2716
   7   2.0000      -9.955137      -270.8931
   8   2.0000      -9.954430      -270.8738
   9   2.0000      -9.948952      -270.7248
  10   2.0000      -9.942168      -270.5401
  11   2.0000      -9.931022      -270.2368
  12   2.0000      -0.975283       -26.5388
  13   2.0000      -0.958183       -26.0735
  14   2.0000      -0.947788       -25.7906
  15   2.0000      -0.931487       -25.3470
  16   2.0000      -0.910778       -24.7835
  17   2.0000      -0.891410       -24.2565
  18   2.0000      -0.711043       -19.3485
  19   2.0000      -0.689803       -18.7705
  20   2.0000      -0.627249       -17.0683
  21   2.0000      -0.587256       -15.9801
  22   2.0000      -0.570693       -15.5293
  23   2.0000      -0.533297       -14.5118
  24   2.0000      -0.502533       -13.6746
  25   2.0000      -0.488958       -13.3052
  26   2.0000      -0.471628       -12.8336
  27   2.0000      -0.467948       -12.7335
  28   2.0000      -0.434118       -11.8129
  29   2.0000      -0.433112       -11.7856
  30   2.0000      -0.420956       -11.4548
  31   2.0000      -0.409538       -11.1441
  32   2.0000      -0.401296       -10.9198
  33   2.0000      -0.389885       -10.6093
  34   2.0000      -0.359287        -9.7767
  35   2.0000      -0.341476        -9.2920
  36   2.0000      -0.332015        -9.0346
  37   2.0000      -0.316232        -8.6051
  38   2.0000      -0.300631        -8.1806
  39   2.0000      -0.292342        -7.9550
  40   2.0000      -0.287179        -7.8145
  41   2.0000      -0.271233        -7.3806
  42   2.0000      -0.259347        -7.0572
  43   2.0000      -0.254268        -6.9190
  44   2.0000      -0.234352        -6.3770
  45   2.0000      -0.217852        -5.9280
  46   2.0000      -0.209026        -5.6879
  47   2.0000      -0.198154        -5.3921
  48   0.0000      -0.001889        -0.0514
  49   0.0000       0.020590         0.5603
  50   0.0000       0.025002         0.6803
  51   0.0000       0.050803         1.3824
  52   0.0000       0.062056         1.6886

MULLIKEN ATOMIC CHARGES
-----------------------
   0 C :    0.012917
   1 C :    0.058734
   2 H :    0.069261
   3 C :    0.007220
   4 H :    0.065822
   5 C :    0.045463
   6 H :    0.057890
   7 C :    0.030639
   8 H :    0.035956
   9 C :    0.225218
  10 H :    0.074660
  11 O :   -0.307707
  12 O :   -0.418336
  13 O :   -0.413227
  14 O :   -0.412143
  15 O :   -0.407920
  16 O :   -0.441688
  17 H :    0.095604
  18 H :    0.102175
  19 H :    0.290648
  20 H :    0.299055
  21 H :    0.301651
  22 H :    0.302638
  23 H :    0.325470
Sum of atomic charges:   -0.0000000

LOEWDIN ATOMIC CHARGES
----------------------
   0 C :   -0.136359
   1 C :   -0.067069
   2 H :    0.123598
   3 C :   -0.085813
   4 H :    0.111361
   5 C :   -0.093503
   6 H :    0.115101
   7 C :   -0.090000
   8 H :    0.094842
   9 C :    0.001867
  10 H :    0.116784
  11 O :   -0.147437
  12 O :   -0.323674
  13 O :   -0.319129
  14 O :   -0.310207
  15 O :   -0.311693
  16 O :   -0.322425
  17 H :    0.115632
  18 H :    0.113299
  19 H :    0.260654
  20 H :    0.279212
  21 H :    0.287498
  22 H :    0.286355
  23 H :    0.301103

  Mayer bond orders larger than 0.100000
B(  0-C ,  1-C ) :   1.0692 B(  0-C , 16-O ) :   1.0091 B(  0-C , 17-H ) :   0.9113
B(  0-C , 18-H ) :   0.9094 B(  1-C ,  2-H ) :   0.8884 B(  1-C ,  3-C ) :   0.9582
B(  1-C , 11-O ) :   1.0467 B(  3-C ,  4-H ) :   0.8646 B(  3-C ,  5-C ) :   1.0153
B(  3-C , 15-O ) :   1.0556 B(  5-C ,  6-H ) :   0.8556 B(  5-C ,  7-C ) :   1.0059
B(  5-C , 14-O ) :   1.0524 B(  7-C ,  8-H ) :   0.8754 B(  7-C ,  9-C ) :   0.9694
B(  7-C , 13-O ) :   1.0876 B(  9-C , 10-H ) :   0.8867 B(  9-C , 11-O ) :   1.0297
B(  9-C , 12-O ) :   1.1407 B( 12-O , 19-H ) :   0.7842 B( 13-O , 20-H ) :   0.8307
B( 14-O , 21-H ) :   0.8462 B( 15-O , 22-H ) :   0.8472 B( 16-O , 19-H ) :   0.1338
B( 16-O , 23-H ) :   0.8364

Dispersion correction           -0.025095277
FINAL SINGLE POINT ENERGY      -685.693066524963

DIPOLE MOMENT
-------------

Method             : SCF
Type of density    : Electron Density
Multiplicity       :   1
Irrep              :   0
Energy             :  -685.8253617617441478 Eh
Relativity type    :
Basis              : AO
                                X                 Y                 Z
Electronic contribution:      2.590123936       0.275164798       0.622451439
Nuclear contribution   :     -4.220942894       0.089453849      -1.090677794
                        -----------------------------------------
Total Dipole Moment    :     -1.630818959       0.364618647      -0.468226356
                        -----------------------------------------
Magnitude (a.u.)       :      1.735440335
Magnitude (Debye)      :      4.411138771

Rotational constants in cm-1:             0.037146             0.031577             0.020866
Rotational constants in MHz :          1113.622871           946.660089           625.554727

                             ****ORCA TERMINATED NORMALLY****
TOTAL RUN TIME: 0 days 0 hours 0 minutes 12 seconds 366 msec
