                         Program Version 6.0.0  -   RELEASE  -
|  1> ! pbe def2-sv(p) def2/J RI DEFGRID1 loosescf d4 GCP(DFT/SV(P)) printgap
|  2> %output
|  3>     printlevel normal
|  4> end
|  5> * xyz 0 1
|  6> C -2.5242148342 -0.9652536483 0.3802544221
|  7> C -1.0957536224 -0.4604540037 0.6317988766
|  8> H -0.9294303944 -0.3631323708 1.7159375432
|  9> C -0.8268681473 0.8995159857 -0.0358261413
| 10> H -0.9942099308 0.8019445474 -1.1167180605
| 11> C 0.6374674186 1.2824471499 0.2035307714
| 12> H 0.7812907873 1.4320903149 1.2861322071
| 13> C 1.5824319025 0.169774308 -0.2643367387
| 14> H 1.5439604062 0.1033005744 -1.3612772079
| 15> C 1.1485150037 -1.186889249 0.3079876702
| 16> H 1.3557902493 -1.1755343382 1.3982495844
| 17> O -0.2221787439 -1.4386952705 0.0956069819
| 18> O 1.8564615703 -2.1773512067 -0.3349280225
| 19> O 2.892699186 0.4083961636 0.1746781925
| 20> O 0.9893297275 2.4518932035 -0.4940455081
| 21> O -1.6152211155 1.9315948587 0.5063658569
| 22> O -2.8527268826 -0.9898522309 -0.9839413831
| 23> H -3.237810045 -0.2961362563 0.8627096568
| 24> H -2.6161505244 -1.9633195381 0.8235917432
| 25> H 1.5548155769 -3.0486476499 -0.0310250331
| 26> H 3.1772586712 1.2664701881 -0.1767456171
| 27> H 0.3538435283 3.1465051862 -0.2635909054
| 28> H -2.5171131377 1.8665242095 0.1632752565
| 29> H -2.2625625363 -1.6137733204 -1.430079262
| 30> *
| 31>
| 32>                          ****END OF INPUT****

CARTESIAN COORDINATES (ANGSTROEM)
---------------------------------
  C     -2.524215   -0.965254    0.380254
  C     -1.095754   -0.460454    0.631799
  H     -0.929430   -0.363132    1.715938
  C     -0.826868    0.899516   -0.035826
  H     -0.994210    0.801945   -1.116718
  C      0.637467    1.282447    0.203531
  H      0.781291    1.432090    1.286132
  C      1.582432    0.169774   -0.264337
  H      1.543960    0.103301   -1.361277
  C      1.148515   -1.186889    0.307988
  H      1.355790   -1.175534    1.398250
  O     -0.222179   -1.438695    0.095607
  O      1.856462   -2.177351   -0.334928
  O      2.892699    0.408396    0.174678
  O      0.989330    2.451893   -0.494046
  O     -1.615221    1.931595    0.506366
  O     -2.852727   -0.989852   -0.983941
  H     -3.237810   -0.296136    0.862710
  H     -2.616151   -1.963320    0.823592
  H      1.554816   -3.048648   -0.031025
  H      3.177259    1.266470   -0.176746
  H      0.353844    3.146505   -0.263591
  H     -2.517113    1.866524    0.163275
  H     -2.262563   -1.613773   -1.430079

 Total Charge           Charge          ....    0
 Multiplicity           Mult            ....    1
 Number of Electrons    NEL             ....   96
 Basis Dimension        Dim             ....  192

ORBITAL ENERGIES
----------------

  NO   OCC          E(Eh)            E(eV)
   0   2.0000     -18.776916      -510.9459
   1   2.0000     -18.767906      -510.7007
   2   2.0000     -18.758293      -510.4391
   3   2.0000     -18.758204      -510.4367
   4   2.0000     -18.752139      -510.2717
   5   2.0000     -18.743052      -510.0244
   6   2.0000      -9.987423      -271.7716
   7   2.0000      -9.946756      -270.6650
   8   2.0000      -9.942785      -270.5569
   9   2.0000      -9.942406      -270.5466
  10   2.0000      -9.939346      -270.4634
  11   2.0000      -9.936997      -270.3994
  12   2.0000      -0.986110       -26.8334
  13   2.0000      -0.949953       -25.8495
  14   2.0000      -0.938156       -25.5285
  15   2.0000      -0.929521       -25.2936
  16   2.0000      -0.916359       -24.9354
  17   2.0000      -0.910618       -24.7792
  18   2.0000      -0.704593       -19.1729
  19   2.0000      -0.692470       -18.8431
  20   2.0000      -0.627123       -17.0649
  21   2.0000      -0.579126       -15.7588
  22   2.0000      -0.564865       -15.3708
  23   2.0000      -0.522724       -14.2241
  24   2.0000      -0.499762       -13.5992
  25   2.0000      -0.496932       -13.5222
  26   2.0000      -0.474295       -12.9062
  27   2.0000      -0.464080       -12.6283
  28   2.0000      -0.456627       -12.4254
  29   2.0000      -0.441135       -12.0039
  30   2.0000      -0.415689       -11.3115
  31   2.0000      -0.395946       -10.7742
  32   2.0000      -0.385362       -10.4862
  33   2.0000      -0.381818       -10.3898
  34   2.0000      -0.365646        -9.9497
  35   2.0000      -0.357246        -9.7212
  36   2.0000      -0.327281        -8.9058
  37   2.0000      -0.310474        -8.4484
  38   2.0000      -0.305172        -8.3042
  39   2.0000      -0.293719        -7.9925
  40   2.0000      -0.283463        -7.7134
  41   2.0000      -0.278743        -7.5850
  42   2.0000      -0.254643        -6.9292
  43   2.0000      -0.241421        -6.5694
  44   2.0000      -0.229969        -6.2578
  45   2.0000      -0.228085        -6.2065
  46   2.0000      -0.213676        -5.8144
  47   2.0000      -0.210580        -5.7302
  48   0.0000       0.010763         0.2929
  49   0.0000       0.027871         0.7584
  50   0.0000       0.033019         0.8985
  51   0.0000       0.042714         1.1623
  52   0.0000       0.054825         1.4919

MULLIKEN ATOMIC CHARGES
-----------------------
   0 C :    0.074011
   1 C :   -0.019125
   2 H :    0.052977
   3 C :    0.048156
   4 H :    0.055302
   5 C :    0.068581
   6 H :    0.053197
   7 C :    0.053973
   8 H :    0.061865
   9 C :    0.199034
  10 H :    0.040856
  11 O :   -0.325501
  12 O :   -0.367488
  13 O :   -0.413916
  14 O :   -0.426672
  15 O :   -0.423931
  16 O :   -0.439111
  17 H :    0.078628
  18 H :    0.087369
  19 H :    0.303990
  20 H :    0.308326
  21 H :    0.307936
  22 H :    0.315444
  23 H :    0.306099
Sum of atomic charges:    0.0000000

LOEWDIN ATOMIC CHARGES
----------------------
   0 C :   -0.127759
   1 C :   -0.081356
   2 H :    0.105248
   3 C :   -0.083353
   4 H :    0.105653
   5 C :   -0.076558
   6 H :    0.103492
   7 C :   -0.074285
   8 H :    0.110831
   9 C :    0.009399
  10 H :    0.083510
  11 O :   -0.162255
  12 O :   -0.285459
  13 O :   -0.313949
  14 O :   -0.325481
  15 O :   -0.318784
  16 O :   -0.334296
  17 H :    0.111331
  18 H :    0.105911
  19 H :    0.288794
  20 H :    0.289890
  21 H :    0.287661
  22 H :    0.294001
  23 H :    0.287812

  Mayer bond orders larger than 0.100000
B(  0-C ,  1-C ) :   1.0356 B(  0-C , 16-O ) :   1.0704 B(  0-C , 17-H ) :   0.9154
B(  0-C , 18-H ) :   0.9203 B(  1-C ,  2-H ) :   0.8681 B(  1-C ,  3-C ) :   0.9804
B(  1-C , 11-O ) :   0.9801 B(  3-C ,  4-H ) :   0.8680 B(  3-C ,  5-C ) :   1.0071
B(  3-C , 15-O ) :   1.0672 B(  5-C ,  6-H ) :   0.8729 B(  5-C ,  7-C ) :   1.0214
B(  5-C , 14-O ) :   1.0832 B(  7-C ,  8-H ) :   0.8651 B(  7-C ,  9-C ) :   0.9989
B(  7-C , 13-O ) :   1.0805 B(  9-C , 10-H ) :   0.8859 B(  9-C , 11-O ) :   0.9992
B(  9-C , 12-O ) :   1.2012 B( 12-O , 19-H ) :   0.8417 B( 13-O , 20-H ) :   0.8400
B( 14-O , 21-H ) :   0.8355 B( 15-O , 22-H ) :   0.8405 B( 16-O , 23-H ) :   0.8418

Dispersion correction           -0.023901899
FINAL SINGLE POINT ENERGY      -685.702767739800

DIPOLE MOMENT
-------------

Method             : SCF
Type of density    : Electron Density
Multiplicity       :   1
Irrep              :   0
Energy             :  -685.8322070228863367 Eh
Relativity type    :
Basis              : AO
                                X                 Y                 Z
Electronic contribution:      2.719656031      -0.244421133      -1.438667052
Nuclear contribution   :     -3.540431499       0.149383340       1.739457868
                        -----------------------------------------
Total Dipole Moment    :     -0.820775468      -0.095037793       0.300790816
                        -----------------------------------------
Magnitude (a.u.)       :      0.879306355
Magnitude (Debye)      :      2.235019135

Rotational constants in cm-1:             0.039662             0.026926             0.017648
Rotational constants in MHz :          1189.035422           807.214243           529.086516

                             ****ORCA TERMINATED NORMALLY****
TOTAL RUN TIME: 0 days 0 hours 0 minutes 11 seconds 986 msec
