                         Program Version 6.0.0  -   RELEASE  -
|  1> ! pbe def2-sv(p) def2/J RI DEFGRID1 loosescf d4 GCP(DFT/SV(P)) printgap
|  2> %output
|  3>     printlevel normal
|  4> end
|  5> * xyz 0 1
|  6> C 0.6445830351 -1.4196427372 -2.4243e-06
|  7> C 0.5175893869 0.0741657555 -5.0828e-06
|  8> C 1.5895357807 0.8663448067 8.4136e-06
|  9> C -0.8191120805 0.6555228675 -4.0378e-06
| 10> C -1.9622135499 -0.0209321708 9.1606e-06
| 11> H 0.1626909655 -1.8382973813 0.8816099091
| 12> H 1.690427043 -1.7134588378 -3.01691e-05
| 13> H 0.162643293 -1.8383135301 -0.8815802617
| 14> H 1.5017856974 1.9398714119 -2.32875e-05
| 15> H 2.5904982008 0.4699342116 -1.15239e-05
| 16> H -0.8439008126 1.738219397 3.3001e-06
| 17> H -2.9119440629 0.4859283009 -6.30578e-05
| 18> H -1.999275709 -1.0963448883 2.32454e-05
| 19> *
| 20>
| 21>                          ****END OF INPUT****

CARTESIAN COORDINATES (ANGSTROEM)
---------------------------------
  C      0.644583   -1.419643   -0.000002
  C      0.517589    0.074166   -0.000005
  C      1.589536    0.866345    0.000008
  C     -0.819112    0.655523   -0.000004
  C     -1.962214   -0.020932    0.000009
  H      0.162691   -1.838297    0.881610
  H      1.690427   -1.713459   -0.000030
  H      0.162643   -1.838314   -0.881580
  H      1.501786    1.939871   -0.000023
  H      2.590498    0.469934   -0.000012
  H     -0.843901    1.738219    0.000003
  H     -2.911944    0.485928   -0.000063
  H     -1.999276   -1.096345    0.000023

 Total Charge           Charge          ....    0
 Multiplicity           Mult            ....    1
 Number of Electrons    NEL             ....   38
 Basis Dimension        Dim             ....   86

ORBITAL ENERGIES
----------------

  NO   OCC          E(Eh)            E(eV)
   0   2.0000      -9.905189      -269.5339
   1   2.0000      -9.894207      -269.2351
   2   2.0000      -9.882658      -268.9208
   3   2.0000      -9.881530      -268.8901
   4   2.0000      -9.879366      -268.8312
   5   2.0000      -0.741878       -20.1875
   6   2.0000      -0.664637       -18.0857
   7   2.0000      -0.619412       -16.8551
   8   2.0000      -0.537083       -14.6148
   9   2.0000      -0.465164       -12.6578
  10   2.0000      -0.426996       -11.6191
  11   2.0000      -0.410126       -11.1601
  12   2.0000      -0.377273       -10.2661
  13   2.0000      -0.354853        -9.6561
  14   2.0000      -0.339242        -9.2312
  15   2.0000      -0.326036        -8.8719
  16   2.0000      -0.296347        -8.0640
  17   2.0000      -0.275344        -7.4925
  18   2.0000      -0.207297        -5.6408
  19   0.0000      -0.055674        -1.5150
  20   0.0000       0.042116         1.1460
  21   0.0000       0.052424         1.4265
  22   0.0000       0.066232         1.8023
  23   0.0000       0.081417         2.2155

MULLIKEN ATOMIC CHARGES
-----------------------
   0 C :   -0.225191
   1 C :   -0.023800
   2 C :   -0.239545
   3 C :   -0.073250
   4 C :   -0.204092
   5 H :    0.116871
   6 H :    0.099052
   7 H :    0.116870
   8 H :    0.091207
   9 H :    0.089838
  10 H :    0.054822
  11 H :    0.101421
  12 H :    0.095798
Sum of atomic charges:   -0.0000000

LOEWDIN ATOMIC CHARGES
----------------------
   0 C :   -0.323252
   1 C :   -0.058445
   2 C :   -0.243050
   3 C :   -0.123389
   4 C :   -0.249083
   5 H :    0.131842
   6 H :    0.125514
   7 H :    0.131841
   8 H :    0.119810
   9 H :    0.119707
  10 H :    0.122804
  11 H :    0.124722
  12 H :    0.120979

  Mayer bond orders larger than 0.100000
B(  0-C ,  1-C ) :   1.1330 B(  0-C ,  5-H ) :   0.9242 B(  0-C ,  6-H ) :   0.9388
B(  0-C ,  7-H ) :   0.9242 B(  1-C ,  2-C ) :   1.9177 B(  1-C ,  3-C ) :   1.1355
B(  2-C ,  4-C ) :   0.1429 B(  2-C ,  8-H ) :   0.9153 B(  2-C ,  9-H ) :   0.9089
B(  3-C ,  4-C ) :   1.9518 B(  3-C , 10-H ) :   0.9328 B(  4-C , 11-H ) :   0.9212
B(  4-C , 12-H ) :   0.9038

Dispersion correction           -0.009212498
FINAL SINGLE POINT ENERGY      -194.829192222014

DIPOLE MOMENT
-------------

Method             : SCF
Type of density    : Electron Density
Multiplicity       :   1
Irrep              :   0
Energy             :  -194.8675888940119023 Eh
Relativity type    :
Basis              : AO
                                X                 Y                 Z
Electronic contribution:     -0.318749964       1.633620482       0.000042422
Nuclear contribution   :      0.331104109      -1.737927949      -0.000067403
                        -----------------------------------------
Total Dipole Moment    :      0.012354145      -0.104307468      -0.000024982
                        -----------------------------------------
Magnitude (a.u.)       :      0.105036533
Magnitude (Debye)      :      0.266981650

Rotational constants in cm-1:             0.289132             0.140841             0.096405
Rotational constants in MHz :          8667.954919          4222.316878          2890.143716

                             ****ORCA TERMINATED NORMALLY****
TOTAL RUN TIME: 0 days 0 hours 0 minutes 4 seconds 729 msec
