                         Program Version 6.0.0  -   RELEASE  -
|  1> ! r2scan-3c def2/J RI DEFGRID2 scfconv6 printgap
|  2> %output
|  3>     printlevel normal
|  4> end
|  5> * xyz 0 1
|  6> C -3.4022510435 0.528888439 0.0324120216
|  7> C -1.922135896 0.4839975087 0.3957228691
|  8> H -1.8005745313 0.7196519444 1.4582754527
|  9> C -1.1051803724 1.4993928613 -0.4201114303
| 10> C 0.3734786603 1.4403740089 -0.0576074946
| 11> C 0.9341176512 0.0379357425 -0.3077081699
| 12> H 0.7946660109 -0.2036737047 -1.3668847059
| 13> C 0.1322707284 -0.988440829 0.5144717814
| 14> C -1.3288676408 -0.8878740214 0.1700074936
| 15> O -1.9613100569 -1.8230782586 -0.2801342908
| 16> C 2.4124679242 -0.0376577566 0.0105097023
| 17> C 2.8872361045 0.1442761959 1.2325588474
| 18> C 3.3042102628 -0.3180013337 -1.1590539398
| 19> H -3.8091176632 1.51866404 0.2192084475
| 20> H -3.5384864489 0.2830484939 -1.0183741147
| 21> H -3.9563715698 -0.199328556 0.6197909009
| 22> H -1.2346458646 1.2822895313 -1.4829964361
| 23> H -1.4976359635 2.4997689085 -0.2328921218
| 24> H 0.9277207837 2.162488679 -0.6594388265
| 25> H 0.5093019043 1.7057196877 0.9916399758
| 26> H 0.4855733226 -2.0005961327 0.3107187535
| 27> H 0.2597119509 -0.7784729502 1.5766018483
| 28> H 3.942206303 0.0978369411 1.4400759655
| 29> H 2.2520222337 0.3463193185 2.0775571257
| 30> H 3.1716457015 0.4473306279 -1.9225791932
| 31> H 4.3483556344 -0.3396844345 -0.8605909931
| 32> H 3.0453094827 -1.2783038519 -1.6034931854
| 33> *
| 34>
| 35>                          ****END OF INPUT****

CARTESIAN COORDINATES (ANGSTROEM)
---------------------------------
  C     -3.402251    0.528888    0.032412
  C     -1.922136    0.483998    0.395723
  H     -1.800575    0.719652    1.458275
  C     -1.105180    1.499393   -0.420111
  C      0.373479    1.440374   -0.057607
  C      0.934118    0.037936   -0.307708
  H      0.794666   -0.203674   -1.366885
  C      0.132271   -0.988441    0.514472
  C     -1.328868   -0.887874    0.170007
  O     -1.961310   -1.823078   -0.280134
  C      2.412468   -0.037658    0.010510
  C      2.887236    0.144276    1.232559
  C      3.304210   -0.318001   -1.159054
  H     -3.809118    1.518664    0.219208
  H     -3.538486    0.283048   -1.018374
  H     -3.956372   -0.199329    0.619791
  H     -1.234646    1.282290   -1.482996
  H     -1.497636    2.499769   -0.232892
  H      0.927721    2.162489   -0.659439
  H      0.509302    1.705720    0.991640
  H      0.485573   -2.000596    0.310719
  H      0.259712   -0.778473    1.576602
  H      3.942206    0.097837    1.440076
  H      2.252022    0.346319    2.077557
  H      3.171646    0.447331   -1.922579
  H      4.348356   -0.339684   -0.860591
  H      3.045309   -1.278304   -1.603493

 Total Charge           Charge          ....    0
 Multiplicity           Mult            ....    1
 Number of Electrons    NEL             ....   84
 Basis Dimension        Dim             ....  294

ORBITAL ENERGIES
----------------

  NO   OCC          E(Eh)            E(eV)
   0   2.0000     -18.935350      -515.2571
   1   2.0000     -10.111991      -275.1613
   2   2.0000     -10.053033      -273.5569
   3   2.0000     -10.046905      -273.3902
   4   2.0000     -10.044689      -273.3299
   5   2.0000     -10.041125      -273.2329
   6   2.0000     -10.038302      -273.1561
   7   2.0000     -10.037044      -273.1218
   8   2.0000     -10.031168      -272.9619
   9   2.0000     -10.018307      -272.6120
  10   2.0000     -10.017338      -272.5856
  11   2.0000      -1.001205       -27.2442
  12   2.0000      -0.823255       -22.4019
  13   2.0000      -0.778875       -21.1943
  14   2.0000      -0.729969       -19.8635
  15   2.0000      -0.706089       -19.2136
  16   2.0000      -0.661176       -17.9915
  17   2.0000      -0.644893       -17.5484
  18   2.0000      -0.582549       -15.8520
  19   2.0000      -0.571741       -15.5579
  20   2.0000      -0.508656       -13.8412
  21   2.0000      -0.491324       -13.3696
  22   2.0000      -0.454128       -12.3574
  23   2.0000      -0.445175       -12.1138
  24   2.0000      -0.427538       -11.6339
  25   2.0000      -0.416629       -11.3371
  26   2.0000      -0.411377       -11.1941
  27   2.0000      -0.400254       -10.8915
  28   2.0000      -0.389918       -10.6102
  29   2.0000      -0.384115       -10.4523
  30   2.0000      -0.370907       -10.0929
  31   2.0000      -0.352205        -9.5840
  32   2.0000      -0.349069        -9.4987
  33   2.0000      -0.343290        -9.3414
  34   2.0000      -0.330801        -9.0016
  35   2.0000      -0.326825        -8.8934
  36   2.0000      -0.316965        -8.6251
  37   2.0000      -0.308579        -8.3969
  38   2.0000      -0.296833        -8.0772
  39   2.0000      -0.286918        -7.8074
  40   2.0000      -0.232536        -6.3276
  41   2.0000      -0.206210        -5.6113
  42   0.0000      -0.049338        -1.3426
  43   0.0000      -0.012133        -0.3302
  44   0.0000       0.075405         2.0519
  45   0.0000       0.079210         2.1554
  46   0.0000       0.093951         2.5565

MULLIKEN ATOMIC CHARGES
-----------------------
   0 C :   -0.507781
   1 C :    0.001613
   2 H :    0.161877
   3 C :   -0.324759
   4 C :   -0.359711
   5 C :   -0.035016
   6 H :    0.165915
   7 C :   -0.363476
   8 C :    0.191388
   9 O :   -0.339359
  10 C :    0.081399
  11 C :   -0.374064
  12 C :   -0.509219
  13 H :    0.142893
  14 H :    0.162962
  15 H :    0.161298
  16 H :    0.165327
  17 H :    0.153062
  18 H :    0.154352
  19 H :    0.167882
  20 H :    0.171955
  21 H :    0.177996
  22 H :    0.147746
  23 H :    0.136430
  24 H :    0.157446
  25 H :    0.149486
  26 H :    0.162360
Sum of atomic charges:    0.0000000

LOEWDIN ATOMIC CHARGES
----------------------
   0 C :   -0.394919
   1 C :   -0.207275
   2 H :    0.175183
   3 C :   -0.274508
   4 C :   -0.274299
   5 C :   -0.191854
   6 H :    0.170483
   7 C :   -0.242476
   8 C :    0.230801
   9 O :   -0.456019
  10 C :   -0.120100
  11 C :   -0.320456
  12 C :   -0.389334
  13 H :    0.151727
  14 H :    0.164739
  15 H :    0.164832
  16 H :    0.163851
  17 H :    0.161994
  18 H :    0.164918
  19 H :    0.163048
  20 H :    0.182016
  21 H :    0.177696
  22 H :    0.159651
  23 H :    0.156494
  24 H :    0.161719
  25 H :    0.158802
  26 H :    0.163285

  Mayer bond orders larger than 0.100000
B(  0-C ,  1-C ) :   0.8882 B(  0-C , 13-H ) :   0.9775 B(  0-C , 14-H ) :   0.9884
B(  0-C , 15-H ) :   0.9715 B(  1-C ,  2-H ) :   0.9265 B(  1-C ,  3-C ) :   0.8630
B(  1-C ,  8-C ) :   0.8885 B(  1-C ,  9-O ) :  -0.1135 B(  3-C ,  4-C ) :   0.8781
B(  3-C , 16-H ) :   1.0008 B(  3-C , 17-H ) :   0.9453 B(  4-C ,  5-C ) :   0.9282
B(  4-C , 18-H ) :   0.9487 B(  4-C , 19-H ) :   1.0046 B(  5-C ,  6-H ) :   0.9815
B(  5-C ,  7-C ) :   0.9047 B(  5-C , 10-C ) :   0.8302 B(  7-C ,  8-C ) :   0.9210
B(  7-C , 20-H ) :   0.9485 B(  7-C , 21-H ) :   0.9883 B(  8-C ,  9-O ) :   1.9976
B( 10-C , 11-C ) :   1.8522 B( 10-C , 12-C ) :   0.9019 B( 11-C , 22-H ) :   0.9656
B( 11-C , 23-H ) :   0.9920 B( 12-C , 24-H ) :   0.9693 B( 12-C , 25-H ) :   0.9856
B( 12-C , 26-H ) :   0.9715

Dispersion correction           -0.009531725
FINAL SINGLE POINT ENERGY      -465.781697684652

DIPOLE MOMENT
-------------

Method             : SCF
Type of density    : Electron Density
Multiplicity       :   1
Irrep              :   0
Energy             :  -465.7830754682739780 Eh
Relativity type    :
Basis              : AO
                                X                 Y                 Z
Electronic contribution:     -2.987979752      -4.888836468       0.587773861
Nuclear contribution   :      3.629466695       5.848757981      -0.429501036
                        -----------------------------------------
Total Dipole Moment    :      0.641486943       0.959921513       0.158272825
                        -----------------------------------------
Magnitude (a.u.)       :      1.165334757
Magnitude (Debye)      :      2.962045554

Rotational constants in cm-1:             0.073664             0.021737             0.019481
Rotational constants in MHz :          2208.400438           651.662548           584.035027

                             ****ORCA TERMINATED NORMALLY****
TOTAL RUN TIME: 0 days 0 hours 0 minutes 54 seconds 191 msec
