                         Program Version 6.0.0  -   RELEASE  -
|  1> ! r2scan-3c def2/J RI DEFGRID2 scfconv6 printgap
|  2> %output
|  3>     printlevel normal
|  4> end
|  5> %cpcm
|  6>     smd true
|  7>     smdsolvent "water"
|  8> end
|  9> * xyz 0 1
| 10> C -3.4022510435 0.528888439 0.0324120216
| 11> C -1.922135896 0.4839975087 0.3957228691
| 12> H -1.8005745313 0.7196519444 1.4582754527
| 13> C -1.1051803724 1.4993928613 -0.4201114303
| 14> C 0.3734786603 1.4403740089 -0.0576074946
| 15> C 0.9341176512 0.0379357425 -0.3077081699
| 16> H 0.7946660109 -0.2036737047 -1.3668847059
| 17> C 0.1322707284 -0.988440829 0.5144717814
| 18> C -1.3288676408 -0.8878740214 0.1700074936
| 19> O -1.9613100569 -1.8230782586 -0.2801342908
| 20> C 2.4124679242 -0.0376577566 0.0105097023
| 21> C 2.8872361045 0.1442761959 1.2325588474
| 22> C 3.3042102628 -0.3180013337 -1.1590539398
| 23> H -3.8091176632 1.51866404 0.2192084475
| 24> H -3.5384864489 0.2830484939 -1.0183741147
| 25> H -3.9563715698 -0.199328556 0.6197909009
| 26> H -1.2346458646 1.2822895313 -1.4829964361
| 27> H -1.4976359635 2.4997689085 -0.2328921218
| 28> H 0.9277207837 2.162488679 -0.6594388265
| 29> H 0.5093019043 1.7057196877 0.9916399758
| 30> H 0.4855733226 -2.0005961327 0.3107187535
| 31> H 0.2597119509 -0.7784729502 1.5766018483
| 32> H 3.942206303 0.0978369411 1.4400759655
| 33> H 2.2520222337 0.3463193185 2.0775571257
| 34> H 3.1716457015 0.4473306279 -1.9225791932
| 35> H 4.3483556344 -0.3396844345 -0.8605909931
| 36> H 3.0453094827 -1.2783038519 -1.6034931854
| 37> *
| 38>
| 39>                          ****END OF INPUT****

CARTESIAN COORDINATES (ANGSTROEM)
---------------------------------
  C     -3.402251    0.528888    0.032412
  C     -1.922136    0.483998    0.395723
  H     -1.800575    0.719652    1.458275
  C     -1.105180    1.499393   -0.420111
  C      0.373479    1.440374   -0.057607
  C      0.934118    0.037936   -0.307708
  H      0.794666   -0.203674   -1.366885
  C      0.132271   -0.988441    0.514472
  C     -1.328868   -0.887874    0.170007
  O     -1.961310   -1.823078   -0.280134
  C      2.412468   -0.037658    0.010510
  C      2.887236    0.144276    1.232559
  C      3.304210   -0.318001   -1.159054
  H     -3.809118    1.518664    0.219208
  H     -3.538486    0.283048   -1.018374
  H     -3.956372   -0.199329    0.619791
  H     -1.234646    1.282290   -1.482996
  H     -1.497636    2.499769   -0.232892
  H      0.927721    2.162489   -0.659439
  H      0.509302    1.705720    0.991640
  H      0.485573   -2.000596    0.310719
  H      0.259712   -0.778473    1.576602
  H      3.942206    0.097837    1.440076
  H      2.252022    0.346319    2.077557
  H      3.171646    0.447331   -1.922579
  H      4.348356   -0.339684   -0.860591
  H      3.045309   -1.278304   -1.603493

 Total Charge           Charge          ....    0
 Multiplicity           Mult            ....    1
 Number of Electrons    NEL             ....   84
 Basis Dimension        Dim             ....  294

ORBITAL ENERGIES
----------------

  NO   OCC          E(Eh)            E(eV)
   0   2.0000     -18.947902      -515.5986
   1   2.0000     -10.119234      -275.3583
   2   2.0000     -10.040730      -273.2221
   3   2.0000     -10.039463      -273.1877
   4   2.0000     -10.036283      -273.1011
   5   2.0000     -10.029113      -272.9061
   6   2.0000     -10.027011      -272.8488
   7   2.0000     -10.022736      -272.7325
   8   2.0000     -10.016474      -272.5621
   9   2.0000     -10.011585      -272.4291
  10   2.0000     -10.006700      -272.2962
  11   2.0000      -1.015022       -27.6201
  12   2.0000      -0.812571       -22.1112
  13   2.0000      -0.769417       -20.9369
  14   2.0000      -0.721048       -19.6207
  15   2.0000      -0.696292       -18.9471
  16   2.0000      -0.649340       -17.6695
  17   2.0000      -0.636957       -17.3325
  18   2.0000      -0.574748       -15.6397
  19   2.0000      -0.559359       -15.2209
  20   2.0000      -0.498897       -13.5757
  21   2.0000      -0.485106       -13.2004
  22   2.0000      -0.446209       -12.1420
  23   2.0000      -0.438765       -11.9394
  24   2.0000      -0.422159       -11.4875
  25   2.0000      -0.411454       -11.1962
  26   2.0000      -0.403355       -10.9758
  27   2.0000      -0.395072       -10.7505
  28   2.0000      -0.381650       -10.3852
  29   2.0000      -0.373267       -10.1571
  30   2.0000      -0.361949        -9.8491
  31   2.0000      -0.349934        -9.5222
  32   2.0000      -0.341525        -9.2934
  33   2.0000      -0.331300        -9.0151
  34   2.0000      -0.327946        -8.9239
  35   2.0000      -0.317192        -8.6312
  36   2.0000      -0.307289        -8.3618
  37   2.0000      -0.295196        -8.0327
  38   2.0000      -0.287596        -7.8259
  39   2.0000      -0.278508        -7.5786
  40   2.0000      -0.227289        -6.1848
  41   2.0000      -0.214969        -5.8496
  42   0.0000      -0.052038        -1.4160
  43   0.0000      -0.005704        -0.1552
  44   0.0000       0.085888         2.3371
  45   0.0000       0.089710         2.4411
  46   0.0000       0.109307         2.9744

MULLIKEN ATOMIC CHARGES
-----------------------
   0 C :   -0.576448
   1 C :    0.034811
   2 H :    0.191806
   3 C :   -0.347964
   4 C :   -0.382157
   5 C :    0.028983
   6 H :    0.181118
   7 C :   -0.393243
   8 C :    0.223090
   9 O :   -0.445101
  10 C :    0.043030
  11 C :   -0.450501
  12 C :   -0.543924
  13 H :    0.164658
  14 H :    0.171413
  15 H :    0.167022
  16 H :    0.178557
  17 H :    0.167517
  18 H :    0.165714
  19 H :    0.182168
  20 H :    0.174376
  21 H :    0.209488
  22 H :    0.170443
  23 H :    0.167796
  24 H :    0.175960
  25 H :    0.164342
  26 H :    0.177046
Sum of atomic charges:    0.0000000

LOEWDIN ATOMIC CHARGES
----------------------
   0 C :   -0.405288
   1 C :   -0.200547
   2 H :    0.189571
   3 C :   -0.270631
   4 C :   -0.274892
   5 C :   -0.186004
   6 H :    0.176906
   7 C :   -0.243156
   8 C :    0.248473
   9 O :   -0.531900
  10 C :   -0.119468
  11 C :   -0.346891
  12 C :   -0.396661
  13 H :    0.160188
  14 H :    0.163006
  15 H :    0.162534
  16 H :    0.167916
  17 H :    0.168012
  18 H :    0.168758
  19 H :    0.167875
  20 H :    0.181417
  21 H :    0.191522
  22 H :    0.164511
  23 H :    0.165305
  24 H :    0.168746
  25 H :    0.161976
  26 H :    0.168723

  Mayer bond orders larger than 0.100000
B(  0-C ,  1-C ) :   0.8425 B(  0-C , 13-H ) :   0.9707 B(  0-C , 14-H ) :   0.9919
B(  0-C , 15-H ) :   0.9759 B(  1-C ,  2-H ) :   0.9088 B(  1-C ,  3-C ) :   0.8581
B(  1-C ,  8-C ) :   0.9137 B(  1-C ,  9-O ) :  -0.1059 B(  3-C ,  4-C ) :   0.8886
B(  3-C , 16-H ) :   0.9993 B(  3-C , 17-H ) :   0.9401 B(  4-C ,  5-C ) :   0.9265
B(  4-C , 18-H ) :   0.9454 B(  4-C , 19-H ) :   0.9963 B(  5-C ,  6-H ) :   0.9756
B(  5-C ,  7-C ) :   0.8909 B(  5-C , 10-C ) :   0.8058 B(  7-C ,  8-C ) :   0.9476
B(  7-C , 20-H ) :   0.9552 B(  7-C , 21-H ) :   0.9641 B(  8-C ,  9-O ) :   1.9224
B( 10-C , 11-C ) :   1.8374 B( 10-C , 12-C ) :   0.9055 B( 11-C , 22-H ) :   0.9663
B( 11-C , 23-H ) :   0.9860 B( 12-C , 24-H ) :   0.9622 B( 12-C , 25-H ) :   0.9829
B( 12-C , 26-H ) :   0.9654

Dispersion correction           -0.009531725
FINAL SINGLE POINT ENERGY      -465.788874963818

DIPOLE MOMENT
-------------

Method             : SCF
Type of density    : Electron Density
Multiplicity       :   1
Irrep              :   0
Energy             :  -465.7902527474396948 Eh
Relativity type    :
Basis              : AO
                                X                 Y                 Z
Electronic contribution:     -2.762596243      -4.397313014       0.705367496
Nuclear contribution   :      3.629466695       5.848757981      -0.429501036
                        -----------------------------------------
Total Dipole Moment    :      0.866870451       1.451444967       0.275866460
                        -----------------------------------------
Magnitude (a.u.)       :      1.712967944
Magnitude (Debye)      :      4.354018493

Rotational constants in cm-1:             0.073664             0.021737             0.019481
Rotational constants in MHz :          2208.400438           651.662548           584.035027

                             ****ORCA TERMINATED NORMALLY****
TOTAL RUN TIME: 0 days 0 hours 1 minutes 3 seconds 224 msec
