                         Program Version 6.0.0  -   RELEASE  -
|  1> ! pbe def2-sv(p) def2/J RI DEFGRID1 loosescf d4 GCP(DFT/SV(P)) printgap
|  2> %output
|  3>     printlevel normal
|  4> end
|  5> * xyz 0 1
|  6> C -2.0808976824 -1.1710980494 -0.2651718228
|  7> C -1.2688124047 -0.3487571918 0.7456798133
|  8> H -1.899824189 -0.2279567608 1.6327554751
|  9> C -0.9277594257 1.0641946905 0.2018604347
| 10> H -1.2340321854 1.1475055783 -0.8458076445
| 11> C 0.5875712885 1.2863099265 0.2594624653
| 12> H 0.9148078407 1.3360091743 1.3118907988
| 13> C 1.2770521767 0.087899493 -0.4027794461
| 14> H 0.8673407964 -0.0287153136 -1.4168923649
| 15> C 0.9820461542 -1.1903923164 0.4125255676
| 16> H 1.8154719634 -1.3809658343 1.1004603728
| 17> O -0.1322651088 -1.0339317478 1.2596094509
| 18> O 0.8916247727 -2.3160036378 -0.3962219529
| 19> O 2.6553936149 0.3683820647 -0.4587134337
| 20> O 0.8986034004 2.484274544 -0.4009217136
| 21> O -1.6546935176 2.0592003951 0.870775261
| 22> O -1.3966298757 -1.2693342771 -1.5018651374
| 23> H -3.0396672126 -0.6616440969 -0.3975822606
| 24> H -2.2480939637 -2.1694173875 0.1569264189
| 25> H 0.1410096908 -2.1892706952 -1.014214771
| 26> H 3.1120676072 -0.3325394789 -0.9441653554
| 27> H 1.8586102747 2.507298697 -0.53976894
| 28> H -1.2701795591 2.2204788194 1.7445024198
| 29> H -2.0003841992 -1.6257933726 -2.1695581445
| 30> *
| 31>
| 32>                          ****END OF INPUT****

CARTESIAN COORDINATES (ANGSTROEM)
---------------------------------
  C     -2.080898   -1.171098   -0.265172
  C     -1.268812   -0.348757    0.745680
  H     -1.899824   -0.227957    1.632755
  C     -0.927759    1.064195    0.201860
  H     -1.234032    1.147506   -0.845808
  C      0.587571    1.286310    0.259462
  H      0.914808    1.336009    1.311891
  C      1.277052    0.087899   -0.402779
  H      0.867341   -0.028715   -1.416892
  C      0.982046   -1.190392    0.412526
  H      1.815472   -1.380966    1.100460
  O     -0.132265   -1.033932    1.259609
  O      0.891625   -2.316004   -0.396222
  O      2.655394    0.368382   -0.458713
  O      0.898603    2.484275   -0.400922
  O     -1.654694    2.059200    0.870775
  O     -1.396630   -1.269334   -1.501865
  H     -3.039667   -0.661644   -0.397582
  H     -2.248094   -2.169417    0.156926
  H      0.141010   -2.189271   -1.014215
  H      3.112068   -0.332539   -0.944165
  H      1.858610    2.507299   -0.539769
  H     -1.270180    2.220479    1.744502
  H     -2.000384   -1.625793   -2.169558

 Total Charge           Charge          ....    0
 Multiplicity           Mult            ....    1
 Number of Electrons    NEL             ....   96
 Basis Dimension        Dim             ....  192

ORBITAL ENERGIES
----------------

  NO   OCC          E(Eh)            E(eV)
   0   2.0000     -18.795208      -511.4436
   1   2.0000     -18.760507      -510.4994
   2   2.0000     -18.760169      -510.4901
   3   2.0000     -18.745198      -510.0828
   4   2.0000     -18.737963      -509.8859
   5   2.0000     -18.736861      -509.8559
   6   2.0000      -9.972869      -271.3755
   7   2.0000      -9.952189      -270.8128
   8   2.0000      -9.948133      -270.7025
   9   2.0000      -9.938983      -270.4535
  10   2.0000      -9.936923      -270.3974
  11   2.0000      -9.935669      -270.3633
  12   2.0000      -0.974924       -26.5290
  13   2.0000      -0.956687       -26.0328
  14   2.0000      -0.938850       -25.5474
  15   2.0000      -0.928982       -25.2789
  16   2.0000      -0.907110       -24.6837
  17   2.0000      -0.897087       -24.4110
  18   2.0000      -0.705608       -19.2006
  19   2.0000      -0.689782       -18.7699
  20   2.0000      -0.624902       -17.0045
  21   2.0000      -0.583779       -15.8854
  22   2.0000      -0.561158       -15.2699
  23   2.0000      -0.526468       -14.3259
  24   2.0000      -0.505232       -13.7481
  25   2.0000      -0.486174       -13.2295
  26   2.0000      -0.479348       -13.0437
  27   2.0000      -0.456533       -12.4229
  28   2.0000      -0.444697       -12.1008
  29   2.0000      -0.426507       -11.6058
  30   2.0000      -0.416565       -11.3353
  31   2.0000      -0.408536       -11.1168
  32   2.0000      -0.399301       -10.8655
  33   2.0000      -0.379764       -10.3339
  34   2.0000      -0.354485        -9.6460
  35   2.0000      -0.340556        -9.2670
  36   2.0000      -0.330863        -9.0032
  37   2.0000      -0.307770        -8.3748
  38   2.0000      -0.305074        -8.3015
  39   2.0000      -0.290514        -7.9053
  40   2.0000      -0.283238        -7.7073
  41   2.0000      -0.267841        -7.2883
  42   2.0000      -0.258129        -7.0240
  43   2.0000      -0.251653        -6.8478
  44   2.0000      -0.232319        -6.3217
  45   2.0000      -0.218119        -5.9353
  46   2.0000      -0.207479        -5.6458
  47   2.0000      -0.198218        -5.3938
  48   0.0000      -0.002041        -0.0555
  49   0.0000       0.025321         0.6890
  50   0.0000       0.034831         0.9478
  51   0.0000       0.056657         1.5417
  52   0.0000       0.065536         1.7833

MULLIKEN ATOMIC CHARGES
-----------------------
   0 C :   -0.014164
   1 C :    0.061230
   2 H :    0.071703
   3 C :    0.069819
   4 H :    0.074805
   5 C :    0.057504
   6 H :    0.043750
   7 C :   -0.025809
   8 H :    0.061298
   9 C :    0.213138
  10 H :    0.062066
  11 O :   -0.304371
  12 O :   -0.417856
  13 O :   -0.423572
  14 O :   -0.411559
  15 O :   -0.410893
  16 O :   -0.438918
  17 H :    0.101324
  18 H :    0.098289
  19 H :    0.293677
  20 H :    0.311209
  21 H :    0.304351
  22 H :    0.299679
  23 H :    0.323300
Sum of atomic charges:   -0.0000000

LOEWDIN ATOMIC CHARGES
----------------------
   0 C :   -0.138837
   1 C :   -0.068505
   2 H :    0.124969
   3 C :   -0.065933
   4 H :    0.119347
   5 C :   -0.073949
   6 H :    0.098436
   7 C :   -0.099452
   8 H :    0.105163
   9 C :   -0.013642
  10 H :    0.109226
  11 O :   -0.147836
  12 O :   -0.325654
  13 O :   -0.321222
  14 O :   -0.318750
  15 O :   -0.309232
  16 O :   -0.324244
  17 H :    0.116710
  18 H :    0.109416
  19 H :    0.263031
  20 H :    0.293299
  21 H :    0.283448
  22 H :    0.284570
  23 H :    0.299638

  Mayer bond orders larger than 0.100000
B(  0-C ,  1-C ) :   1.0593 B(  0-C , 16-O ) :   1.0135 B(  0-C , 17-H ) :   0.9141
B(  0-C , 18-H ) :   0.9118 B(  1-C ,  2-H ) :   0.8867 B(  1-C ,  3-C ) :   0.9364
B(  1-C , 11-O ) :   1.0517 B(  3-C ,  4-H ) :   0.8760 B(  3-C ,  5-C ) :   1.0267
B(  3-C , 15-O ) :   1.0550 B(  5-C ,  6-H ) :   0.8630 B(  5-C ,  7-C ) :   1.0091
B(  5-C , 14-O ) :   1.1083 B(  7-C ,  8-H ) :   0.8784 B(  7-C ,  9-C ) :   0.9819
B(  7-C , 13-O ) :   1.0578 B(  9-C , 10-H ) :   0.8879 B(  9-C , 11-O ) :   1.0356
B(  9-C , 12-O ) :   1.1323 B( 12-O , 19-H ) :   0.7926 B( 13-O , 20-H ) :   0.8425
B( 14-O , 21-H ) :   0.8329 B( 15-O , 22-H ) :   0.8485 B( 16-O , 19-H ) :   0.1224
B( 16-O , 23-H ) :   0.8382

Dispersion correction           -0.025235710
FINAL SINGLE POINT ENERGY      -685.695211694449

DIPOLE MOMENT
-------------

Method             : SCF
Type of density    : Electron Density
Multiplicity       :   1
Irrep              :   0
Energy             :  -685.8272282191574050 Eh
Relativity type    :
Basis              : AO
                                X                 Y                 Z
Electronic contribution:      2.265917599       0.670266390       0.730976907
Nuclear contribution   :     -2.779746061      -1.313804494      -1.305332544
                        -----------------------------------------
Total Dipole Moment    :     -0.513828462      -0.643538104      -0.574355637
                        -----------------------------------------
Magnitude (a.u.)       :      1.004014630
Magnitude (Debye)      :      2.552002379

Rotational constants in cm-1:             0.035692             0.032831             0.021616
Rotational constants in MHz :          1070.030394           984.239640           648.025930

                             ****ORCA TERMINATED NORMALLY****
TOTAL RUN TIME: 0 days 0 hours 0 minutes 12 seconds 367 msec
