                         Program Version 6.0.0  -   RELEASE  -
|  1> ! pbe def2-sv(p) def2/J RI DEFGRID1 loosescf d4 GCP(DFT/SV(P)) printgap
|  2> %output
|  3>     printlevel normal
|  4> end
|  5> * xyz 0 1
|  6> C -1.7802300693 -1.0153913967 -0.6812463972
|  7> C -1.0370686433 -0.4710998276 0.5534076184
|  8> H -1.690234911 -0.5521292049 1.4316586352
|  9> C -0.6959513979 1.0163953221 0.3839312186
| 10> H -1.5447296445 1.475761562 -0.139121734
| 11> C 0.5675267601 1.235181777 -0.4724555213
| 12> H 0.8974796013 2.2790726802 -0.3252822366
| 13> C 1.7058884514 0.3356846699 0.0435603165
| 14> H 2.5496300093 0.3614031816 -0.6548288662
| 15> C 1.2538548054 -1.1320628285 0.1551222737
| 16> H 2.0062699727 -1.6699006853 0.7543486039
| 17> O 0.0770509721 -1.2806774922 0.908908488
| 18> O 1.1586510225 -1.6613787635 -1.1288359828
| 19> O 2.1962501751 0.8049506534 1.2719431771
| 20> O 0.2360355866 1.0174355428 -1.8168854226
| 21> O -0.5242855006 1.5684368203 1.6731466274
| 22> O -3.0533291824 -0.4370750683 -0.823641922
| 23> H -1.8483742191 -2.1057716025 -0.5894240814
| 24> H -1.2262027406 -0.7628173893 -1.5867237205
| 25> H 1.0140382879 -2.6182281068 -1.086682384
| 26> H 1.4513504908 0.8748567748 1.8955072144
| 27> H 1.0255739593 1.1008978787 -2.3698105463
| 28> H -0.6119385905 2.5313143006 1.6351593003
| 29> H -3.6245171859 -0.7271475965 -0.0975993504
| 30> *
| 31>
| 32>                          ****END OF INPUT****

CARTESIAN COORDINATES (ANGSTROEM)
---------------------------------
  C     -1.780230   -1.015391   -0.681246
  C     -1.037069   -0.471100    0.553408
  H     -1.690235   -0.552129    1.431659
  C     -0.695951    1.016395    0.383931
  H     -1.544730    1.475762   -0.139122
  C      0.567527    1.235182   -0.472456
  H      0.897480    2.279073   -0.325282
  C      1.705888    0.335685    0.043560
  H      2.549630    0.361403   -0.654829
  C      1.253855   -1.132063    0.155122
  H      2.006270   -1.669901    0.754349
  O      0.077051   -1.280677    0.908908
  O      1.158651   -1.661379   -1.128836
  O      2.196250    0.804951    1.271943
  O      0.236036    1.017436   -1.816885
  O     -0.524286    1.568437    1.673147
  O     -3.053329   -0.437075   -0.823642
  H     -1.848374   -2.105772   -0.589424
  H     -1.226203   -0.762817   -1.586724
  H      1.014038   -2.618228   -1.086682
  H      1.451350    0.874857    1.895507
  H      1.025574    1.100898   -2.369811
  H     -0.611939    2.531314    1.635159
  H     -3.624517   -0.727148   -0.097599

 Total Charge           Charge          ....    0
 Multiplicity           Mult            ....    1
 Number of Electrons    NEL             ....   96
 Basis Dimension        Dim             ....  192

ORBITAL ENERGIES
----------------

  NO   OCC          E(Eh)            E(eV)
   0   2.0000     -18.769869      -510.7541
   1   2.0000     -18.763845      -510.5902
   2   2.0000     -18.759902      -510.4829
   3   2.0000     -18.756091      -510.3792
   4   2.0000     -18.746481      -510.1177
   5   2.0000     -18.739352      -509.9237
   6   2.0000      -9.978794      -271.5368
   7   2.0000      -9.945742      -270.6374
   8   2.0000      -9.943420      -270.5742
   9   2.0000      -9.939765      -270.4748
  10   2.0000      -9.937016      -270.3999
  11   2.0000      -9.919373      -269.9199
  12   2.0000      -0.977152       -26.5897
  13   2.0000      -0.946527       -25.7563
  14   2.0000      -0.932214       -25.3668
  15   2.0000      -0.922282       -25.0966
  16   2.0000      -0.916116       -24.9288
  17   2.0000      -0.907846       -24.7038
  18   2.0000      -0.702394       -19.1131
  19   2.0000      -0.681533       -18.5455
  20   2.0000      -0.615265       -16.7422
  21   2.0000      -0.582475       -15.8500
  22   2.0000      -0.576213       -15.6796
  23   2.0000      -0.520622       -14.1668
  24   2.0000      -0.499419       -13.5899
  25   2.0000      -0.473992       -12.8980
  26   2.0000      -0.466977       -12.7071
  27   2.0000      -0.462679       -12.5901
  28   2.0000      -0.450578       -12.2609
  29   2.0000      -0.435362       -11.8468
  30   2.0000      -0.412773       -11.2321
  31   2.0000      -0.391344       -10.6490
  32   2.0000      -0.374672       -10.1953
  33   2.0000      -0.365413        -9.9434
  34   2.0000      -0.356139        -9.6910
  35   2.0000      -0.349448        -9.5090
  36   2.0000      -0.327680        -8.9166
  37   2.0000      -0.324650        -8.8342
  38   2.0000      -0.303615        -8.2618
  39   2.0000      -0.286134        -7.7861
  40   2.0000      -0.280956        -7.6452
  41   2.0000      -0.259306        -7.0561
  42   2.0000      -0.256628        -6.9832
  43   2.0000      -0.237094        -6.4517
  44   2.0000      -0.230068        -6.2605
  45   2.0000      -0.226068        -6.1516
  46   2.0000      -0.207257        -5.6398
  47   2.0000      -0.200441        -5.4543
  48   0.0000       0.012521         0.3407
  49   0.0000       0.016957         0.4614
  50   0.0000       0.027093         0.7372
  51   0.0000       0.035075         0.9544
  52   0.0000       0.070694         1.9237

MULLIKEN ATOMIC CHARGES
-----------------------
   0 C :    0.016906
   1 C :    0.039291
   2 H :    0.061741
   3 C :    0.008914
   4 H :    0.087863
   5 C :    0.054656
   6 H :    0.053126
   7 C :    0.033827
   8 H :    0.065871
   9 C :    0.193282
  10 H :    0.066692
  11 O :   -0.316889
  12 O :   -0.393473
  13 O :   -0.431378
  14 O :   -0.395198
  15 O :   -0.417589
  16 O :   -0.428932
  17 H :    0.065011
  18 H :    0.121847
  19 H :    0.303074
  20 H :    0.300766
  21 H :    0.306879
  22 H :    0.309741
  23 H :    0.293970
Sum of atomic charges:   -0.0000000

LOEWDIN ATOMIC CHARGES
----------------------
   0 C :   -0.150440
   1 C :   -0.065039
   2 H :    0.112336
   3 C :   -0.072032
   4 H :    0.116869
   5 C :   -0.078978
   6 H :    0.093902
   7 C :   -0.082902
   8 H :    0.113544
   9 C :   -0.011144
  10 H :    0.099083
  11 O :   -0.145630
  12 O :   -0.308184
  13 O :   -0.318431
  14 O :   -0.303150
  15 O :   -0.309226
  16 O :   -0.329363
  17 H :    0.092701
  18 H :    0.124470
  19 H :    0.286023
  20 H :    0.272412
  21 H :    0.289665
  22 H :    0.292110
  23 H :    0.281403

  Mayer bond orders larger than 0.100000
B(  0-C ,  1-C ) :   1.0354 B(  0-C , 16-O ) :   1.0410 B(  0-C , 17-H ) :   0.9158
B(  0-C , 18-H ) :   0.8924 B(  1-C ,  2-H ) :   0.8953 B(  1-C ,  3-C ) :   1.0121
B(  1-C , 11-O ) :   1.0027 B(  3-C ,  4-H ) :   0.8829 B(  3-C ,  5-C ) :   0.9865
B(  3-C , 15-O ) :   1.0335 B(  5-C ,  6-H ) :   0.9023 B(  5-C ,  7-C ) :   0.9687
B(  5-C , 14-O ) :   1.0816 B(  7-C ,  8-H ) :   0.8899 B(  7-C ,  9-C ) :   0.9851
B(  7-C , 13-O ) :   1.0612 B(  9-C , 10-H ) :   0.9035 B(  9-C , 11-O ) :   1.0545
B(  9-C , 12-O ) :   1.1249 B( 12-O , 19-H ) :   0.8373 B( 13-O , 20-H ) :   0.8126
B( 14-O , 21-H ) :   0.8399 B( 15-O , 22-H ) :   0.8422 B( 16-O , 23-H ) :   0.8525

Dispersion correction           -0.025824759
FINAL SINGLE POINT ENERGY      -685.694850238312

DIPOLE MOMENT
-------------

Method             : SCF
Type of density    : Electron Density
Multiplicity       :   1
Irrep              :   0
Energy             :  -685.8256349931655222 Eh
Relativity type    :
Basis              : AO
                                X                 Y                 Z
Electronic contribution:      1.297009655      -0.141521431       1.087789312
Nuclear contribution   :     -1.501286001       0.175903533      -1.061504503
                        -----------------------------------------
Total Dipole Moment    :     -0.204276347       0.034382102       0.026284809
                        -----------------------------------------
Magnitude (a.u.)       :      0.208810551
Magnitude (Debye)      :      0.530754240

Rotational constants in cm-1:             0.040520             0.028711             0.024737
Rotational constants in MHz :          1214.752529           860.745989           741.593443

                             ****ORCA TERMINATED NORMALLY****
TOTAL RUN TIME: 0 days 0 hours 0 minutes 12 seconds 596 msec
