                         Program Version 6.0.0  -   RELEASE  -
|  1> ! r2scan-3c def2/J RI DEFGRID2 scfconv6 printgap
|  2> %output
|  3>     printlevel normal
|  4> end
|  5> * xyz 0 1
|  6> C -4.2156156365 -0.2983528896 -0.1354358288
|  7> C -2.7327936422 -0.1162563887 -0.0343264408
|  8> C -2.0028072294 -0.7479071883 0.965504539
|  9> C -0.635754804 -0.5663555685 1.0706455364
| 10> C 0.030813949 0.2532946325 0.1680411659
| 11> C -0.6926605148 0.8995634811 -0.8268497085
| 12> C -2.0586592079 0.7103327384 -0.9262053817
| 13> C 1.4980805629 0.5110206525 0.3203001559
| 14> O 1.8957143938 1.485021323 0.9688781073
| 15> N 2.3327478345 -0.3532314499 -0.2692779712
| 16> C 3.7649676079 -0.1787679618 -0.1637512378
| 17> C 1.9124081387 -1.4923915872 -1.0510009042
| 18> H -4.7221173881 0.5112660043 0.3893991095
| 19> H -4.5365662131 -0.2776722637 -1.1736852075
| 20> H -4.5220795684 -1.2383080703 0.3152909202
| 21> H -2.5089727268 -1.3892370814 1.6716824459
| 22> H -0.0798485921 -1.0593448807 1.8546187384
| 23> H -0.1799983288 1.5493518877 -1.5209224285
| 24> H -2.6097326766 1.213806953 -1.7066250615
| 25> H 4.2003456505 -0.0585487039 -1.1562698024
| 26> H 4.2114628499 -1.0464033693 0.3232122157
| 27> H 3.9585944029 0.7123477929 0.4300241213
| 28> H 0.8283915852 -1.5490997268 -1.084705698
| 29> H 2.3078724413 -2.4072690269 -0.6065419878
| 30> H 2.2996468556 -1.40073298 -2.0673471103
| 31> *
| 32>
| 33>                          ****END OF INPUT****

CARTESIAN COORDINATES (ANGSTROEM)
---------------------------------
  C     -4.215616   -0.298353   -0.135436
  C     -2.732794   -0.116256   -0.034326
  C     -2.002807   -0.747907    0.965505
  C     -0.635755   -0.566356    1.070646
  C      0.030814    0.253295    0.168041
  C     -0.692661    0.899563   -0.826850
  C     -2.058659    0.710333   -0.926205
  C      1.498081    0.511021    0.320300
  O      1.895714    1.485021    0.968878
  N      2.332748   -0.353231   -0.269278
  C      3.764968   -0.178768   -0.163751
  C      1.912408   -1.492392   -1.051001
  H     -4.722117    0.511266    0.389399
  H     -4.536566   -0.277672   -1.173685
  H     -4.522080   -1.238308    0.315291
  H     -2.508973   -1.389237    1.671682
  H     -0.079849   -1.059345    1.854619
  H     -0.179998    1.549352   -1.520922
  H     -2.609733    1.213807   -1.706625
  H      4.200346   -0.058549   -1.156270
  H      4.211463   -1.046403    0.323212
  H      3.958594    0.712348    0.430024
  H      0.828392   -1.549100   -1.084706
  H      2.307872   -2.407269   -0.606542
  H      2.299647   -1.400733   -2.067347

 Total Charge           Charge          ....    0
 Multiplicity           Mult            ....    1
 Number of Electrons    NEL             ....   88
 Basis Dimension        Dim             ....  303

ORBITAL ENERGIES
----------------

  NO   OCC          E(Eh)            E(eV)
   0   2.0000     -18.903837      -514.3996
   1   2.0000     -14.196667      -386.3110
   2   2.0000     -10.121469      -275.4192
   3   2.0000     -10.068154      -273.9684
   4   2.0000     -10.059606      -273.7358
   5   2.0000     -10.047339      -273.4020
   6   2.0000     -10.044388      -273.3217
   7   2.0000     -10.039406      -273.1861
   8   2.0000     -10.039200      -273.1805
   9   2.0000     -10.036013      -273.0938
  10   2.0000     -10.035810      -273.0883
  11   2.0000     -10.030867      -272.9538
  12   2.0000      -0.992345       -27.0031
  13   2.0000      -0.906261       -24.6606
  14   2.0000      -0.834478       -22.7073
  15   2.0000      -0.755459       -20.5571
  16   2.0000      -0.720553       -19.6072
  17   2.0000      -0.698699       -19.0126
  18   2.0000      -0.683634       -18.6026
  19   2.0000      -0.651889       -17.7388
  20   2.0000      -0.583760       -15.8849
  21   2.0000      -0.568029       -15.4569
  22   2.0000      -0.523395       -14.2423
  23   2.0000      -0.495568       -13.4851
  24   2.0000      -0.456936       -12.4339
  25   2.0000      -0.447294       -12.1715
  26   2.0000      -0.436799       -11.8859
  27   2.0000      -0.434633       -11.8270
  28   2.0000      -0.413153       -11.2425
  29   2.0000      -0.397213       -10.8087
  30   2.0000      -0.393688       -10.7128
  31   2.0000      -0.378070       -10.2878
  32   2.0000      -0.374884       -10.2011
  33   2.0000      -0.366797        -9.9811
  34   2.0000      -0.364508        -9.9188
  35   2.0000      -0.354037        -9.6338
  36   2.0000      -0.335117        -9.1190
  37   2.0000      -0.331989        -9.0339
  38   2.0000      -0.321816        -8.7571
  39   2.0000      -0.309562        -8.4236
  40   2.0000      -0.242034        -6.5861
  41   2.0000      -0.236094        -6.4244
  42   2.0000      -0.216506        -5.8914
  43   2.0000      -0.204344        -5.5605
  44   0.0000      -0.037370        -1.0169
  45   0.0000      -0.033471        -0.9108
  46   0.0000       0.001805         0.0491
  47   0.0000       0.061861         1.6833
  48   0.0000       0.080497         2.1904

MULLIKEN ATOMIC CHARGES
-----------------------
   0 C :   -0.545149
   1 C :    0.242083
   2 C :   -0.219833
   3 C :   -0.200310
   4 C :    0.069750
   5 C :   -0.193402
   6 C :   -0.213667
   7 C :    0.181481
   8 O :   -0.448146
   9 N :    0.091714
  10 C :   -0.410230
  11 C :   -0.377273
  12 H :    0.173322
  13 H :    0.151921
  14 H :    0.150747
  15 H :    0.144679
  16 H :    0.148228
  17 H :    0.148796
  18 H :    0.144872
  19 H :    0.142187
  20 H :    0.142847
  21 H :    0.203551
  22 H :    0.176103
  23 H :    0.148221
  24 H :    0.147507
Sum of atomic charges:    0.0000000

LOEWDIN ATOMIC CHARGES
----------------------
   0 C :   -0.389141
   1 C :   -0.097623
   2 C :   -0.158796
   3 C :   -0.135646
   4 C :   -0.040493
   5 C :   -0.131819
   6 C :   -0.157265
   7 C :    0.345835
   8 O :   -0.470777
   9 N :   -0.832622
  10 C :   -0.110148
  11 C :   -0.102169
  12 H :    0.167595
  13 H :    0.161588
  14 H :    0.160387
  15 H :    0.169127
  16 H :    0.175502
  17 H :    0.176205
  18 H :    0.169552
  19 H :    0.173422
  20 H :    0.173432
  21 H :    0.210433
  22 H :    0.197933
  23 H :    0.172716
  24 H :    0.172773

  Mayer bond orders larger than 0.100000
B(  0-C ,  1-C ) :   0.7829 B(  0-C , 12-H ) :   0.9674 B(  0-C , 13-H ) :   0.9887
B(  0-C , 14-H ) :   0.9914 B(  1-C ,  2-C ) :   1.3971 B(  1-C ,  6-C ) :   1.3875
B(  2-C ,  3-C ) :   1.4365 B(  2-C , 15-H ) :   0.9420 B(  3-C ,  4-C ) :   1.4345
B(  3-C , 16-H ) :   0.9508 B(  4-C ,  5-C ) :   1.4287 B(  4-C ,  7-C ) :   0.8817
B(  4-C ,  8-O ) :  -0.1014 B(  5-C ,  6-C ) :   1.4345 B(  5-C , 17-H ) :   0.9540
B(  6-C , 18-H ) :   0.9450 B(  7-C ,  8-O ) :   1.8810 B(  7-C ,  9-N ) :   1.2323
B(  9-N , 10-C ) :   0.9280 B(  9-N , 11-C ) :   0.9213 B( 10-C , 19-H ) :   0.9543
B( 10-C , 20-H ) :   0.9542 B( 10-C , 21-H ) :   0.9549 B( 11-C , 22-H ) :   0.9528
B( 11-C , 23-H ) :   0.9563 B( 11-C , 24-H ) :   0.9560

Dispersion correction           -0.009194054
FINAL SINGLE POINT ENERGY      -518.739394534467

DIPOLE MOMENT
-------------

Method             : SCF
Type of density    : Electron Density
Multiplicity       :   1
Irrep              :   0
Energy             :  -518.7460231270347322 Eh
Relativity type    :
Basis              : AO
                                X                 Y                 Z
Electronic contribution:      0.984823104       4.727127933       3.169457120
Nuclear contribution   :     -1.228457873      -6.021591372      -4.051144350
                        -----------------------------------------
Total Dipole Moment    :     -0.243634769      -1.294463440      -0.881687230
                        -----------------------------------------
Magnitude (a.u.)       :      1.585044438
Magnitude (Debye)      :      4.028862781

Rotational constants in cm-1:             0.079573             0.016553             0.016070
Rotational constants in MHz :          2385.543574           496.248465           481.757493

                             ****ORCA TERMINATED NORMALLY****
TOTAL RUN TIME: 0 days 0 hours 0 minutes 41 seconds 441 msec
