                         Program Version 6.0.0  -   RELEASE  -
|  1> ! r2scan-3c def2/J RI DEFGRID2 scfconv6 printgap
|  2> %output
|  3>     printlevel normal
|  4> end
|  5> %cpcm
|  6>     smd true
|  7>     smdsolvent "water"
|  8> end
|  9> * xyz 0 1
| 10> C -4.2156156365 -0.2983528896 -0.1354358288
| 11> C -2.7327936422 -0.1162563887 -0.0343264408
| 12> C -2.0028072294 -0.7479071883 0.965504539
| 13> C -0.635754804 -0.5663555685 1.0706455364
| 14> C 0.030813949 0.2532946325 0.1680411659
| 15> C -0.6926605148 0.8995634811 -0.8268497085
| 16> C -2.0586592079 0.7103327384 -0.9262053817
| 17> C 1.4980805629 0.5110206525 0.3203001559
| 18> O 1.8957143938 1.485021323 0.9688781073
| 19> N 2.3327478345 -0.3532314499 -0.2692779712
| 20> C 3.7649676079 -0.1787679618 -0.1637512378
| 21> C 1.9124081387 -1.4923915872 -1.0510009042
| 22> H -4.7221173881 0.5112660043 0.3893991095
| 23> H -4.5365662131 -0.2776722637 -1.1736852075
| 24> H -4.5220795684 -1.2383080703 0.3152909202
| 25> H -2.5089727268 -1.3892370814 1.6716824459
| 26> H -0.0798485921 -1.0593448807 1.8546187384
| 27> H -0.1799983288 1.5493518877 -1.5209224285
| 28> H -2.6097326766 1.213806953 -1.7066250615
| 29> H 4.2003456505 -0.0585487039 -1.1562698024
| 30> H 4.2114628499 -1.0464033693 0.3232122157
| 31> H 3.9585944029 0.7123477929 0.4300241213
| 32> H 0.8283915852 -1.5490997268 -1.084705698
| 33> H 2.3078724413 -2.4072690269 -0.6065419878
| 34> H 2.2996468556 -1.40073298 -2.0673471103
| 35> *
| 36>
| 37>                          ****END OF INPUT****

CARTESIAN COORDINATES (ANGSTROEM)
---------------------------------
  C     -4.215616   -0.298353   -0.135436
  C     -2.732794   -0.116256   -0.034326
  C     -2.002807   -0.747907    0.965505
  C     -0.635755   -0.566356    1.070646
  C      0.030814    0.253295    0.168041
  C     -0.692661    0.899563   -0.826850
  C     -2.058659    0.710333   -0.926205
  C      1.498081    0.511021    0.320300
  O      1.895714    1.485021    0.968878
  N      2.332748   -0.353231   -0.269278
  C      3.764968   -0.178768   -0.163751
  C      1.912408   -1.492392   -1.051001
  H     -4.722117    0.511266    0.389399
  H     -4.536566   -0.277672   -1.173685
  H     -4.522080   -1.238308    0.315291
  H     -2.508973   -1.389237    1.671682
  H     -0.079849   -1.059345    1.854619
  H     -0.179998    1.549352   -1.520922
  H     -2.609733    1.213807   -1.706625
  H      4.200346   -0.058549   -1.156270
  H      4.211463   -1.046403    0.323212
  H      3.958594    0.712348    0.430024
  H      0.828392   -1.549100   -1.084706
  H      2.307872   -2.407269   -0.606542
  H      2.299647   -1.400733   -2.067347

 Total Charge           Charge          ....    0
 Multiplicity           Mult            ....    1
 Number of Electrons    NEL             ....   88
 Basis Dimension        Dim             ....  303

ORBITAL ENERGIES
----------------

  NO   OCC          E(Eh)            E(eV)
   0   2.0000     -18.923066      -514.9228
   1   2.0000     -14.201112      -386.4319
   2   2.0000     -10.133860      -275.7563
   3   2.0000     -10.054159      -273.5876
   4   2.0000     -10.051088      -273.5040
   5   2.0000     -10.045549      -273.3533
   6   2.0000     -10.045288      -273.3462
   7   2.0000     -10.037972      -273.1471
   8   2.0000     -10.037939      -273.1462
   9   2.0000     -10.032495      -272.9981
  10   2.0000     -10.032452      -272.9969
  11   2.0000     -10.018742      -272.6238
  12   2.0000      -1.009578       -27.4720
  13   2.0000      -0.910782       -24.7836
  14   2.0000      -0.834107       -22.6972
  15   2.0000      -0.753289       -20.4980
  16   2.0000      -0.718784       -19.5591
  17   2.0000      -0.691663       -18.8211
  18   2.0000      -0.678247       -18.4560
  19   2.0000      -0.646640       -17.5960
  20   2.0000      -0.580933       -15.8080
  21   2.0000      -0.565233       -15.3808
  22   2.0000      -0.519657       -14.1406
  23   2.0000      -0.493322       -13.4240
  24   2.0000      -0.453035       -12.3277
  25   2.0000      -0.445774       -12.1301
  26   2.0000      -0.436362       -11.8740
  27   2.0000      -0.430405       -11.7119
  28   2.0000      -0.411247       -11.1906
  29   2.0000      -0.389411       -10.5964
  30   2.0000      -0.388946       -10.5838
  31   2.0000      -0.375031       -10.2051
  32   2.0000      -0.366980        -9.9860
  33   2.0000      -0.364479        -9.9180
  34   2.0000      -0.358844        -9.7646
  35   2.0000      -0.350705        -9.5432
  36   2.0000      -0.340253        -9.2587
  37   2.0000      -0.331254        -9.0139
  38   2.0000      -0.319713        -8.6998
  39   2.0000      -0.305869        -8.3231
  40   2.0000      -0.245695        -6.6857
  41   2.0000      -0.242896        -6.6095
  42   2.0000      -0.223011        -6.0684
  43   2.0000      -0.218576        -5.9477
  44   0.0000      -0.037312        -1.0153
  45   0.0000      -0.034455        -0.9376
  46   0.0000      -0.008465        -0.2304
  47   0.0000       0.068711         1.8697
  48   0.0000       0.093541         2.5454

MULLIKEN ATOMIC CHARGES
-----------------------
   0 C :   -0.568862
   1 C :    0.216538
   2 C :   -0.251494
   3 C :   -0.217084
   4 C :    0.030038
   5 C :   -0.217731
   6 C :   -0.244325
   7 C :    0.239734
   8 O :   -0.571654
   9 N :    0.102364
  10 C :   -0.431786
  11 C :   -0.399887
  12 H :    0.187217
  13 H :    0.170980
  14 H :    0.170336
  15 H :    0.177536
  16 H :    0.181510
  17 H :    0.180835
  18 H :    0.177232
  19 H :    0.174223
  20 H :    0.174637
  21 H :    0.188083
  22 H :    0.181886
  23 H :    0.175266
  24 H :    0.174406
Sum of atomic charges:    0.0000000

LOEWDIN ATOMIC CHARGES
----------------------
   0 C :   -0.393124
   1 C :   -0.099111
   2 C :   -0.164272
   3 C :   -0.141049
   4 C :   -0.057079
   5 C :   -0.139992
   6 C :   -0.162684
   7 C :    0.346202
   8 O :   -0.565783
   9 N :   -0.813145
  10 C :   -0.106948
  11 C :   -0.094708
  12 H :    0.173455
  13 H :    0.168408
  14 H :    0.167046
  15 H :    0.181293
  16 H :    0.186326
  17 H :    0.186257
  18 H :    0.181519
  19 H :    0.186966
  20 H :    0.186924
  21 H :    0.203186
  22 H :    0.199528
  23 H :    0.185388
  24 H :    0.185398

  Mayer bond orders larger than 0.100000
B(  0-C ,  1-C ) :   0.8018 B(  0-C , 12-H ) :   0.9599 B(  0-C , 13-H ) :   0.9815
B(  0-C , 14-H ) :   0.9848 B(  1-C ,  2-C ) :   1.3667 B(  1-C ,  6-C ) :   1.3579
B(  2-C ,  3-C ) :   1.4124 B(  2-C , 15-H ) :   0.9546 B(  3-C ,  4-C ) :   1.4011
B(  3-C , 16-H ) :   0.9557 B(  4-C ,  5-C ) :   1.3885 B(  4-C ,  7-C ) :   0.8791
B(  4-C ,  8-O ) :  -0.1049 B(  5-C ,  6-C ) :   1.4137 B(  5-C , 17-H ) :   0.9584
B(  6-C , 18-H ) :   0.9567 B(  7-C ,  8-O ) :   1.7920 B(  7-C ,  9-N ) :   1.3066
B(  9-N , 10-C ) :   0.9162 B(  9-N , 11-C ) :   0.9161 B( 10-C , 19-H ) :   0.9453
B( 10-C , 20-H ) :   0.9450 B( 10-C , 21-H ) :   0.9569 B( 11-C , 22-H ) :   0.9484
B( 11-C , 23-H ) :   0.9470 B( 11-C , 24-H ) :   0.9468

Dispersion correction           -0.009194054
FINAL SINGLE POINT ENERGY      -518.752175050327

DIPOLE MOMENT
-------------

Method             : SCF
Type of density    : Electron Density
Multiplicity       :   1
Irrep              :   0
Energy             :  -518.7588036428950318 Eh
Relativity type    :
Basis              : AO
                                X                 Y                 Z
Electronic contribution:      0.893695317       3.997285072       2.682669412
Nuclear contribution   :     -1.228457873      -6.021591372      -4.051144350
                        -----------------------------------------
Total Dipole Moment    :     -0.334762556      -2.024306300      -1.368474938
                        -----------------------------------------
Magnitude (a.u.)       :      2.466293904
Magnitude (Debye)      :      6.268820913

Rotational constants in cm-1:             0.079573             0.016553             0.016070
Rotational constants in MHz :          2385.543574           496.248465           481.757493

                             ****ORCA TERMINATED NORMALLY****
TOTAL RUN TIME: 0 days 0 hours 0 minutes 52 seconds 104 msec
