                         Program Version 6.0.0  -   RELEASE  -
|  1> ! wb97x-v def2-tzvp def2/J RIJCOSX DEFGRID2 scfconv7 GCP(DFT/TZ) printgap
|  2> %output
|  3>     printlevel normal
|  4> end
|  5> * xyz 0 1
|  6> C 1.1027285919389826 -0.0011308930639471607 0.0894415592125664
|  7> C -0.009411967075800963 1.0455538812116947 -0.08897587547710085
|  8> N -1.0284994017345948 0.0010569186060102296 0.2634130698495064
|  9> C -0.01155999599168769 -1.0455305361043292 -0.08898401361493091
| 10> H 1.5078587484641086 -0.001549419167187855 1.104610549722589
| 11> H 1.9183654418356673 -0.0019596628600257147 -0.6351554840250081
| 12> H -0.0028476454592520745 1.9182183849015877 0.5721344145848334
| 13> H -0.08744693103364613 1.385555844038656 -1.1294800761113795
| 14> H -1.8045590226285102 0.0018583771509107874 -0.39200844198752216
| 15> H -0.006789069334743823 -1.9182079266394914 0.5721247035253932
| 16> H -0.09029215510201602 -1.3853698986816085 -1.1294886074257868
| 17> *
| 18>
| 19>                          ****END OF INPUT****

CARTESIAN COORDINATES (ANGSTROEM)
---------------------------------
  C      1.102729   -0.001131    0.089442
  C     -0.009412    1.045554   -0.088976
  N     -1.028499    0.001057    0.263413
  C     -0.011560   -1.045531   -0.088984
  H      1.507859   -0.001549    1.104611
  H      1.918365   -0.001960   -0.635155
  H     -0.002848    1.918218    0.572134
  H     -0.087447    1.385556   -1.129480
  H     -1.804559    0.001858   -0.392008
  H     -0.006789   -1.918208    0.572125
  H     -0.090292   -1.385370   -1.129489

 Total Charge           Charge          ....    0
 Multiplicity           Mult            ....    1
 Number of Electrons    NEL             ....   32
 Basis Dimension        Dim             ....  166

ORBITAL ENERGIES
----------------

  NO   OCC          E(Eh)            E(eV)
   0   2.0000     -16.508008      -449.2057
   1   2.0000     -12.068346      -328.3964
   2   2.0000     -12.068111      -328.3900
   3   2.0000     -12.043953      -327.7326
   4   2.0000      -1.479129       -40.2492
   5   2.0000      -1.240868       -33.7657
   6   2.0000      -1.167091       -31.7582
   7   2.0000      -1.038440       -28.2574
   8   2.0000      -0.973206       -26.4823
   9   2.0000      -0.916228       -24.9318
  10   2.0000      -0.867726       -23.6120
  11   2.0000      -0.819570       -22.3016
  12   2.0000      -0.816434       -22.2163
  13   2.0000      -0.787885       -21.4394
  14   2.0000      -0.772318       -21.0158
  15   2.0000      -0.706439       -19.2232
  16   0.0000      -0.114911        -3.1269
  17   0.0000      -0.093619        -2.5475
  18   0.0000      -0.032675        -0.8891
  19   0.0000      -0.017193        -0.4678
  20   0.0000      -0.001312        -0.0357

MULLIKEN ATOMIC CHARGES
-----------------------
   0 C :   -0.167043
   1 C :   -0.120957
   2 N :   -0.310732
   3 C :   -0.120964
   4 H :    0.092769
   5 H :    0.095184
   6 H :    0.090668
   7 H :    0.083939
   8 H :    0.182525
   9 H :    0.090667
  10 H :    0.083942
Sum of atomic charges:   -0.0000000

LOEWDIN ATOMIC CHARGES
----------------------
   0 C :   -0.249219
   1 C :   -0.274847
   2 N :   -0.039348
   3 C :   -0.274846
   4 H :    0.129166
   5 H :    0.118146
   6 H :    0.110887
   7 H :    0.112210
   8 H :    0.144754
   9 H :    0.110887
  10 H :    0.112210

  Mayer bond orders larger than 0.100000
B(  0-C ,  1-C ) :   1.0048 B(  0-C ,  3-C ) :   1.0048 B(  0-C ,  4-H ) :   0.9632
B(  0-C ,  5-H ) :   0.9712 B(  1-C ,  2-N ) :   1.0243 B(  1-C ,  6-H ) :   0.9662
B(  1-C ,  7-H ) :   0.9711 B(  2-N ,  3-C ) :   1.0243 B(  2-N ,  8-H ) :   0.9419
B(  3-C ,  9-H ) :   0.9662 B(  3-C , 10-H ) :   0.9711

FINAL SINGLE POINT ENERGY      -173.246543328499

DIPOLE MOMENT
-------------

Method             : SCF
Type of density    : Electron Density
Multiplicity       :   1
Irrep              :   0
Energy             :  -173.2535645948990179 Eh
Relativity type    :
Basis              : AO
                                X                 Y                 Z
Electronic contribution:     -1.119898721       0.001143338       0.602213076
Nuclear contribution   :      1.336205633      -0.001362665      -1.153670957
                        -----------------------------------------
Total Dipole Moment    :      0.216306912      -0.000219327      -0.551457880
                        -----------------------------------------
Magnitude (a.u.)       :      0.592363505
Magnitude (Debye)      :      1.505668372

Rotational constants in cm-1:             0.385416             0.374927             0.220885
Rotational constants in MHz :         11554.467087         11240.038746          6621.961139

                             ****ORCA TERMINATED NORMALLY****
TOTAL RUN TIME: 0 days 0 hours 0 minutes 44 seconds 413 msec
