                         Program Version 6.0.0  -   RELEASE  -
|  1> ! wb97x-v def2-tzvp def2/J RIJCOSX DEFGRID2 scfconv7 GCP(DFT/TZ) printgap
|  2> %output
|  3>     printlevel normal
|  4> end
|  5> %cpcm
|  6>     smd true
|  7>     smdsolvent "water"
|  8> end
|  9> * xyz 0 1
| 10> C 1.1027285919389826 -0.0011308930639471607 0.0894415592125664
| 11> C -0.009411967075800963 1.0455538812116947 -0.08897587547710085
| 12> N -1.0284994017345948 0.0010569186060102296 0.2634130698495064
| 13> C -0.01155999599168769 -1.0455305361043292 -0.08898401361493091
| 14> H 1.5078587484641086 -0.001549419167187855 1.104610549722589
| 15> H 1.9183654418356673 -0.0019596628600257147 -0.6351554840250081
| 16> H -0.0028476454592520745 1.9182183849015877 0.5721344145848334
| 17> H -0.08744693103364613 1.385555844038656 -1.1294800761113795
| 18> H -1.8045590226285102 0.0018583771509107874 -0.39200844198752216
| 19> H -0.006789069334743823 -1.9182079266394914 0.5721247035253932
| 20> H -0.09029215510201602 -1.3853698986816085 -1.1294886074257868
| 21> *
| 22>
| 23>                          ****END OF INPUT****

CARTESIAN COORDINATES (ANGSTROEM)
---------------------------------
  C      1.102729   -0.001131    0.089442
  C     -0.009412    1.045554   -0.088976
  N     -1.028499    0.001057    0.263413
  C     -0.011560   -1.045531   -0.088984
  H      1.507859   -0.001549    1.104611
  H      1.918365   -0.001960   -0.635155
  H     -0.002848    1.918218    0.572134
  H     -0.087447    1.385556   -1.129480
  H     -1.804559    0.001858   -0.392008
  H     -0.006789   -1.918208    0.572125
  H     -0.090292   -1.385370   -1.129489

 Total Charge           Charge          ....    0
 Multiplicity           Mult            ....    1
 Number of Electrons    NEL             ....   32
 Basis Dimension        Dim             ....  166

ORBITAL ENERGIES
----------------

  NO   OCC          E(Eh)            E(eV)
   0   2.0000     -16.505190      -449.1290
   1   2.0000     -12.060593      -328.1854
   2   2.0000     -12.060361      -328.1791
   3   2.0000     -12.034821      -327.4841
   4   2.0000      -1.474490       -40.1229
   5   2.0000      -1.234144       -33.5828
   6   2.0000      -1.160234       -31.5716
   7   2.0000      -1.030872       -28.0515
   8   2.0000      -0.966696       -26.3051
   9   2.0000      -0.909941       -24.7607
  10   2.0000      -0.862996       -23.4833
  11   2.0000      -0.811124       -22.0718
  12   2.0000      -0.809182       -22.0190
  13   2.0000      -0.781142       -21.2560
  14   2.0000      -0.764907       -20.8142
  15   2.0000      -0.703514       -19.1436
  16   0.0000      -0.108680        -2.9573
  17   0.0000      -0.088722        -2.4143
  18   0.0000      -0.018000        -0.4898
  19   0.0000      -0.009737        -0.2649
  20   0.0000       0.006316         0.1719

MULLIKEN ATOMIC CHARGES
-----------------------
   0 C :   -0.182639
   1 C :   -0.147774
   2 N :   -0.400141
   3 C :   -0.147782
   4 H :    0.106206
   5 H :    0.115512
   6 H :    0.105976
   7 H :    0.109290
   8 H :    0.226084
   9 H :    0.105976
  10 H :    0.109293
Sum of atomic charges:   -0.0000000

LOEWDIN ATOMIC CHARGES
----------------------
   0 C :   -0.251890
   1 C :   -0.276551
   2 N :   -0.068837
   3 C :   -0.276550
   4 H :    0.130431
   5 H :    0.123073
   6 H :    0.111821
   7 H :    0.120198
   8 H :    0.156285
   9 H :    0.111821
  10 H :    0.120198

  Mayer bond orders larger than 0.100000
B(  0-C ,  1-C ) :   0.9976 B(  0-C ,  3-C ) :   0.9976 B(  0-C ,  4-H ) :   0.9641
B(  0-C ,  5-H ) :   0.9684 B(  1-C ,  2-N ) :   1.0194 B(  1-C ,  6-H ) :   0.9663
B(  1-C ,  7-H ) :   0.9749 B(  2-N ,  3-C ) :   1.0194 B(  2-N ,  8-H ) :   0.9309
B(  3-C ,  9-H ) :   0.9663 B(  3-C , 10-H ) :   0.9749

FINAL SINGLE POINT ENERGY      -173.255843235149

DIPOLE MOMENT
-------------

Method             : SCF
Type of density    : Electron Density
Multiplicity       :   1
Irrep              :   0
Energy             :  -173.2628645015491315 Eh
Relativity type    :
Basis              : AO
                                X                 Y                 Z
Electronic contribution:     -1.048762639       0.001072681       0.374303240
Nuclear contribution   :      1.336205633      -0.001362665      -1.153670957
                        -----------------------------------------
Total Dipole Moment    :      0.287442994      -0.000289984      -0.779367716
                        -----------------------------------------
Magnitude (a.u.)       :      0.830685016
Magnitude (Debye)      :      2.111433512

Rotational constants in cm-1:             0.385416             0.374927             0.220885
Rotational constants in MHz :         11554.467087         11240.038746          6621.961139

                             ****ORCA TERMINATED NORMALLY****
TOTAL RUN TIME: 0 days 0 hours 0 minutes 46 seconds 787 msec
