                         Program Version 6.0.0  -   RELEASE  -
|  1> ! pbe def2-sv(p) def2/J RI DEFGRID1 loosescf d4 GCP(DFT/SV(P)) printgap
|  2> %output
|  3>     printlevel normal
|  4> end
|  5> * xyz 0 1
|  6> C -2.5348133448 -0.9669026924 0.3243658536
|  7> C -1.1112432524 -0.4707967085 0.6178795114
|  8> H -0.9725648951 -0.3927398387 1.7078715853
|  9> C -0.826701487 0.9011862338 -0.0171176276
| 10> H -0.9990507045 0.8334715442 -1.0990486275
| 11> C 0.6428555051 1.2802045385 0.2200141604
| 12> H 0.7849655679 1.413473042 1.3069809175
| 13> C 1.577649835 0.1670323108 -0.2716940188
| 14> H 1.5137424784 0.0925655024 -1.3615916098
| 15> C 1.1355407284 -1.1814638279 0.3346157846
| 16> H 1.2965673497 -1.1436440022 1.4356870692
| 17> O -0.22685971 -1.4427871757 0.0888158856
| 18> O 1.8731979072 -2.1900523845 -0.2440190946
| 19> O 2.9226175238 0.4348092839 0.0003024064
| 20> O 0.9721022481 2.467947435 -0.4516751889
| 21> O -1.6066901361 1.9233621752 0.556944328
| 22> O -2.8353807821 -0.9605179515 -1.0462184128
| 23> H -3.2572138815 -0.3069745205 0.806341859
| 24> H -2.637881872 -1.9743154626 0.7436015543
| 25> H 1.5066090889 -3.0528775364 0.008763906
| 26> H 3.046766499 0.6065821356 0.9457447871
| 27> H 0.3257319433 3.1462014627 -0.2000447386
| 28> H -2.504549215 1.8880959994 0.1996641016
| 29> H -2.2407405799 -1.5783198965 -1.4947734168
| 30> *
| 31>
| 32>                          ****END OF INPUT****

CARTESIAN COORDINATES (ANGSTROEM)
---------------------------------
  C     -2.534813   -0.966903    0.324366
  C     -1.111243   -0.470797    0.617880
  H     -0.972565   -0.392740    1.707872
  C     -0.826701    0.901186   -0.017118
  H     -0.999051    0.833472   -1.099049
  C      0.642856    1.280205    0.220014
  H      0.784966    1.413473    1.306981
  C      1.577650    0.167032   -0.271694
  H      1.513742    0.092566   -1.361592
  C      1.135541   -1.181464    0.334616
  H      1.296567   -1.143644    1.435687
  O     -0.226860   -1.442787    0.088816
  O      1.873198   -2.190052   -0.244019
  O      2.922618    0.434809    0.000302
  O      0.972102    2.467947   -0.451675
  O     -1.606690    1.923362    0.556944
  O     -2.835381   -0.960518   -1.046218
  H     -3.257214   -0.306975    0.806342
  H     -2.637882   -1.974315    0.743602
  H      1.506609   -3.052878    0.008764
  H      3.046766    0.606582    0.945745
  H      0.325732    3.146201   -0.200045
  H     -2.504549    1.888096    0.199664
  H     -2.240741   -1.578320   -1.494773

 Total Charge           Charge          ....    0
 Multiplicity           Mult            ....    1
 Number of Electrons    NEL             ....   96
 Basis Dimension        Dim             ....  192

ORBITAL ENERGIES
----------------

  NO   OCC          E(Eh)            E(eV)
   0   2.0000     -18.781287      -511.0648
   1   2.0000     -18.769803      -510.7523
   2   2.0000     -18.760993      -510.5126
   3   2.0000     -18.760421      -510.4970
   4   2.0000     -18.744454      -510.0625
   5   2.0000     -18.743588      -510.0390
   6   2.0000      -9.990153      -271.8459
   7   2.0000      -9.949255      -270.7330
   8   2.0000      -9.944802      -270.6118
   9   2.0000      -9.944438      -270.6019
  10   2.0000      -9.942579      -270.5513
  11   2.0000      -9.938721      -270.4464
  12   2.0000      -0.989646       -26.9296
  13   2.0000      -0.950391       -25.8615
  14   2.0000      -0.939354       -25.5611
  15   2.0000      -0.929348       -25.2888
  16   2.0000      -0.918218       -24.9860
  17   2.0000      -0.910706       -24.7816
  18   2.0000      -0.705692       -19.2029
  19   2.0000      -0.693372       -18.8676
  20   2.0000      -0.626827       -17.0568
  21   2.0000      -0.582155       -15.8413
  22   2.0000      -0.566189       -15.4068
  23   2.0000      -0.534962       -14.5571
  24   2.0000      -0.501667       -13.6511
  25   2.0000      -0.496300       -13.5050
  26   2.0000      -0.480380       -13.0718
  27   2.0000      -0.461749       -12.5648
  28   2.0000      -0.460901       -12.5417
  29   2.0000      -0.432004       -11.7554
  30   2.0000      -0.428074       -11.6485
  31   2.0000      -0.392473       -10.6797
  32   2.0000      -0.388210       -10.5637
  33   2.0000      -0.381044       -10.3687
  34   2.0000      -0.369274       -10.0485
  35   2.0000      -0.348734        -9.4895
  36   2.0000      -0.330511        -8.9937
  37   2.0000      -0.315796        -8.5932
  38   2.0000      -0.303459        -8.2575
  39   2.0000      -0.295720        -8.0469
  40   2.0000      -0.288417        -7.8482
  41   2.0000      -0.269577        -7.3356
  42   2.0000      -0.257014        -6.9937
  43   2.0000      -0.246908        -6.7187
  44   2.0000      -0.236313        -6.4304
  45   2.0000      -0.227797        -6.1987
  46   2.0000      -0.218606        -5.9486
  47   2.0000      -0.200836        -5.4650
  48   0.0000       0.009871         0.2686
  49   0.0000       0.022212         0.6044
  50   0.0000       0.028658         0.7798
  51   0.0000       0.039231         1.0675
  52   0.0000       0.047980         1.3056

MULLIKEN ATOMIC CHARGES
-----------------------
   0 C :    0.072951
   1 C :   -0.013322
   2 H :    0.051594
   3 C :    0.035242
   4 H :    0.060164
   5 C :    0.068051
   6 H :    0.033944
   7 C :    0.082584
   8 H :    0.072438
   9 C :    0.185096
  10 H :    0.015175
  11 O :   -0.324397
  12 O :   -0.364348
  13 O :   -0.399170
  14 O :   -0.404264
  15 O :   -0.423183
  16 O :   -0.437650
  17 H :    0.079052
  18 H :    0.087250
  19 H :    0.303687
  20 H :    0.294565
  21 H :    0.302514
  22 H :    0.315770
  23 H :    0.306257
Sum of atomic charges:   -0.0000000

LOEWDIN ATOMIC CHARGES
----------------------
   0 C :   -0.127572
   1 C :   -0.082776
   2 H :    0.103880
   3 C :   -0.083084
   4 H :    0.108087
   5 C :   -0.074579
   6 H :    0.093327
   7 C :   -0.075607
   8 H :    0.127180
   9 C :   -0.003033
  10 H :    0.069941
  11 O :   -0.162004
  12 O :   -0.286988
  13 O :   -0.295846
  14 O :   -0.315158
  15 O :   -0.318242
  16 O :   -0.333171
  17 H :    0.111720
  18 H :    0.105812
  19 H :    0.288490
  20 H :    0.283172
  21 H :    0.283995
  22 H :    0.294362
  23 H :    0.288095

  Mayer bond orders larger than 0.100000
B(  0-C ,  1-C ) :   1.0349 B(  0-C , 16-O ) :   1.0717 B(  0-C , 17-H ) :   0.9158
B(  0-C , 18-H ) :   0.9196 B(  1-C ,  2-H ) :   0.8673 B(  1-C ,  3-C ) :   0.9783
B(  1-C , 11-O ) :   0.9811 B(  3-C ,  4-H ) :   0.8691 B(  3-C ,  5-C ) :   1.0083
B(  3-C , 15-O ) :   1.0645 B(  5-C ,  6-H ) :   0.8684 B(  5-C ,  7-C ) :   1.0012
B(  5-C , 14-O ) :   1.1121 B(  7-C ,  8-H ) :   0.8589 B(  7-C ,  9-C ) :   0.9664
B(  7-C , 13-O ) :   1.0570 B(  9-C , 10-H ) :   0.8774 B(  9-C , 11-O ) :   0.9926
B(  9-C , 12-O ) :   1.1998 B( 12-O , 19-H ) :   0.8407 B( 13-O , 20-H ) :   0.8484
B( 14-O , 21-H ) :   0.8371 B( 15-O , 22-H ) :   0.8406 B( 16-O , 23-H ) :   0.8419

Dispersion correction           -0.023919794
FINAL SINGLE POINT ENERGY      -685.697332635899

DIPOLE MOMENT
-------------

Method             : SCF
Type of density    : Electron Density
Multiplicity       :   1
Irrep              :   0
Energy             :  -685.8263483889563759 Eh
Relativity type    :
Basis              : AO
                                X                 Y                 Z
Electronic contribution:      2.850926998      -0.051860001      -1.830072980
Nuclear contribution   :     -3.865508840      -0.436067169       2.797522905
                        -----------------------------------------
Total Dipole Moment    :     -1.014581842      -0.487927170       0.967449925
                        -----------------------------------------
Magnitude (a.u.)       :      1.484388290
Magnitude (Debye)      :      3.773015186

Rotational constants in cm-1:             0.039487             0.026853             0.017633
Rotational constants in MHz :          1183.799938           805.044129           528.609769

                             ****ORCA TERMINATED NORMALLY****
TOTAL RUN TIME: 0 days 0 hours 0 minutes 11 seconds 751 msec
