                         Program Version 6.0.0  -   RELEASE  -
|  1> ! pbe def2-sv(p) def2/J RI DEFGRID1 loosescf d4 GCP(DFT/SV(P)) printgap
|  2> %output
|  3>     printlevel normal
|  4> end
|  5> * xyz 0 1
|  6> C -3.8062518653 -0.7187831997 0.001120109
|  7> O -2.3821481314 -0.80908186 0.0008516766
|  8> C -1.7015979125 0.3407766515 -0.0003249782
|  9> O -2.258187367 1.4267947665 -0.0014529965
| 10> C -0.2447759573 0.1536217521 -0.0003852443
| 11> C 0.5771976989 1.2810410087 0.0004940809
| 12> C 1.9483777245 1.1492431039 0.0008017125
| 13> C 2.5260336594 -0.1207733134 0.0001469751
| 14> C 1.7049936137 -1.2518568436 -0.0009044982
| 15> C 0.3359645757 -1.1169179503 -0.0011248346
| 16> O 3.858728547 -0.3100167951 0.0004689452
| 17> H -4.1637153936 -1.7435425271 -0.0135463233
| 18> H -4.1467992096 -0.17090766 -0.8787604853
| 19> H -4.1477646177 -0.1964567065 0.8960346077
| 20> H 0.1131735719 2.2556982905 0.0010051204
| 21> H 2.5737361063 2.0291885657 0.0015795876
| 22> H 2.1710634646 -2.2238760075 -0.001492345
| 23> H -0.2980309456 -1.9885641031 -0.0018872711
| 24> H 4.3376707426 0.5342955115 0.0012738672
| 25> *
| 26>
| 27>                          ****END OF INPUT****

CARTESIAN COORDINATES (ANGSTROEM)
---------------------------------
  C     -3.806252   -0.718783    0.001120
  O     -2.382148   -0.809082    0.000852
  C     -1.701598    0.340777   -0.000325
  O     -2.258187    1.426795   -0.001453
  C     -0.244776    0.153622   -0.000385
  C      0.577198    1.281041    0.000494
  C      1.948378    1.149243    0.000802
  C      2.526034   -0.120773    0.000147
  C      1.704994   -1.251857   -0.000904
  C      0.335965   -1.116918   -0.001125
  O      3.858729   -0.310017    0.000469
  H     -4.163715   -1.743543   -0.013546
  H     -4.146799   -0.170908   -0.878760
  H     -4.147765   -0.196457    0.896035
  H      0.113174    2.255698    0.001005
  H      2.573736    2.029189    0.001580
  H      2.171063   -2.223876   -0.001492
  H     -0.298031   -1.988564   -0.001887
  H      4.337671    0.534296    0.001274

 Total Charge           Charge          ....    0
 Multiplicity           Mult            ....    1
 Number of Electrons    NEL             ....   80
 Basis Dimension        Dim             ....  170

ORBITAL ENERGIES
----------------

  NO   OCC          E(Eh)            E(eV)
   0   2.0000     -18.799565      -511.5622
   1   2.0000     -18.795101      -511.4407
   2   2.0000     -18.728070      -509.6167
   3   2.0000      -9.999678      -272.1051
   4   2.0000      -9.966859      -271.2120
   5   2.0000      -9.937674      -270.4179
   6   2.0000      -9.902521      -269.4613
   7   2.0000      -9.902084      -269.4494
   8   2.0000      -9.900967      -269.4190
   9   2.0000      -9.900770      -269.4137
  10   2.0000      -9.895498      -269.2702
  11   2.0000      -0.999536       -27.1988
  12   2.0000      -0.982227       -26.7278
  13   2.0000      -0.901934       -24.5429
  14   2.0000      -0.782679       -21.2978
  15   2.0000      -0.696305       -18.9474
  16   2.0000      -0.683125       -18.5888
  17   2.0000      -0.649384       -17.6706
  18   2.0000      -0.584440       -15.9034
  19   2.0000      -0.555616       -15.1191
  20   2.0000      -0.509800       -13.8724
  21   2.0000      -0.506198       -13.7744
  22   2.0000      -0.479070       -13.0362
  23   2.0000      -0.432159       -11.7596
  24   2.0000      -0.429292       -11.6816
  25   2.0000      -0.411048       -11.1852
  26   2.0000      -0.389066       -10.5870
  27   2.0000      -0.386536       -10.5182
  28   2.0000      -0.382953       -10.4207
  29   2.0000      -0.379587       -10.3291
  30   2.0000      -0.353105        -9.6085
  31   2.0000      -0.351725        -9.5709
  32   2.0000      -0.334533        -9.1031
  33   2.0000      -0.307895        -8.3783
  34   2.0000      -0.300364        -8.1733
  35   2.0000      -0.294346        -8.0096
  36   2.0000      -0.253928        -6.9097
  37   2.0000      -0.238943        -6.5020
  38   2.0000      -0.216596        -5.8939
  39   2.0000      -0.206727        -5.6253
  40   0.0000      -0.063260        -1.7214
  41   0.0000      -0.041816        -1.1379
  42   0.0000       0.013008         0.3540
  43   0.0000       0.031192         0.8488
  44   0.0000       0.050094         1.3631

MULLIKEN ATOMIC CHARGES
-----------------------
   0 C :   -0.101767
   1 O :   -0.249284
   2 C :    0.150679
   3 O :   -0.208669
   4 C :    0.037566
   5 C :   -0.098521
   6 C :   -0.151640
   7 C :    0.246702
   8 C :   -0.112726
   9 C :   -0.082173
  10 O :   -0.316290
  11 H :    0.118532
  12 H :    0.118255
  13 H :    0.117910
  14 H :    0.064256
  15 H :    0.034360
  16 H :    0.050432
  17 H :    0.059935
  18 H :    0.322448
Sum of atomic charges:    0.0000000

LOEWDIN ATOMIC CHARGES
----------------------
   0 C :   -0.201739
   1 O :   -0.076269
   2 C :    0.043926
   3 O :   -0.176437
   4 C :   -0.099449
   5 C :   -0.079771
   6 C :   -0.174112
   7 C :    0.031270
   8 C :   -0.146911
   9 C :   -0.089924
  10 O :   -0.215394
  11 H :    0.118944
  12 H :    0.119307
  13 H :    0.119169
  14 H :    0.136519
  15 H :    0.123253
  16 H :    0.132694
  17 H :    0.132726
  18 H :    0.302197

  Mayer bond orders larger than 0.100000
B(  0-C ,  1-O ) :   0.9420 B(  0-C , 11-H ) :   0.9591 B(  0-C , 12-H ) :   0.9511
B(  0-C , 13-H ) :   0.9519 B(  1-O ,  2-C ) :   1.2303 B(  2-C ,  3-O ) :   2.0487
B(  2-C ,  4-C ) :   0.9658 B(  4-C ,  5-C ) :   1.3772 B(  4-C ,  9-C ) :   1.3285
B(  5-C ,  6-C ) :   1.3584 B(  5-C , 14-H ) :   0.9542 B(  6-C ,  7-C ) :   1.2822
B(  6-C , 15-H ) :   0.9612 B(  7-C ,  8-C ) :   1.3349 B(  7-C , 10-O ) :   1.2143
B(  8-C ,  9-C ) :   1.3670 B(  8-C , 16-H ) :   0.9661 B(  9-C , 17-H ) :   0.9609
B( 10-O , 18-H ) :   0.8380

Dispersion correction           -0.019668662
FINAL SINGLE POINT ENERGY      -534.246243370383

DIPOLE MOMENT
-------------

Method             : SCF
Type of density    : Electron Density
Multiplicity       :   1
Irrep              :   0
Energy             :  -534.3114681847821430 Eh
Relativity type    :
Basis              : AO
                                X                 Y                 Z
Electronic contribution:      3.957465467       1.201420079      -0.002613595
Nuclear contribution   :     -3.352090395      -1.406607608       0.003944700
                        -----------------------------------------
Total Dipole Moment    :      0.605375072      -0.205187529       0.001331105
                        -----------------------------------------
Magnitude (a.u.)       :      0.639204719
Magnitude (Debye)      :      1.624729275

Rotational constants in cm-1:             0.116036             0.019447             0.016708
Rotational constants in MHz :          3478.660700           583.009024           500.896130

                             ****ORCA TERMINATED NORMALLY****
TOTAL RUN TIME: 0 days 0 hours 0 minutes 8 seconds 604 msec
