                         Program Version 6.0.0  -   RELEASE  -
|  1> ! pbe def2-sv(p) def2/J RI DEFGRID1 loosescf d4 GCP(DFT/SV(P)) printgap
|  2> %output
|  3>     printlevel normal
|  4> end
|  5> * xyz 0 1
|  6> C -2.8131741538 1.401047525 -0.0963947854
|  7> C -2.3780633657 -0.0512997043 0.05018049
|  8> C -0.8902315022 -0.2896740332 0.044866764
|  9> C -0.4294404991 -1.6009881742 0.1547202555
| 10> C 0.9230209524 -1.8762828563 0.155490036
| 11> C 1.8489339525 -0.8522739714 0.0464596298
| 12> C 1.4025955605 0.4567544633 -0.0632237786
| 13> C 0.037205193 0.7315388523 -0.0630508567
| 14> O 2.25767322 1.5128189114 -0.1743949678
| 15> H -2.4338947528 2.0039138465 0.7251439251
| 16> H -3.8989987551 1.4597612007 -0.0888263434
| 17> H -2.4556972428 1.8191358205 -1.0342667564
| 18> H -2.8162628283 -0.6390357584 -0.7615573741
| 19> H -2.7805973195 -0.4519922247 0.9851162276
| 20> H -1.1431317676 -2.4071564128 0.2398991659
| 21> H 1.2665323653 -2.8963647113 0.240999975
| 22> H 2.9069195437 -1.0711205199 0.0465920934
| 23> H -0.2610279671 1.7632552085 -0.1499654327
| 24> H 3.1765517445 1.206222118 -0.1643198556
| 25> *
| 26>
| 27>                          ****END OF INPUT****

CARTESIAN COORDINATES (ANGSTROEM)
---------------------------------
  C     -2.813174    1.401048   -0.096395
  C     -2.378063   -0.051300    0.050180
  C     -0.890232   -0.289674    0.044867
  C     -0.429440   -1.600988    0.154720
  C      0.923021   -1.876283    0.155490
  C      1.848934   -0.852274    0.046460
  C      1.402596    0.456754   -0.063224
  C      0.037205    0.731539   -0.063051
  O      2.257673    1.512819   -0.174395
  H     -2.433895    2.003914    0.725144
  H     -3.898999    1.459761   -0.088826
  H     -2.455697    1.819136   -1.034267
  H     -2.816263   -0.639036   -0.761557
  H     -2.780597   -0.451992    0.985116
  H     -1.143132   -2.407156    0.239899
  H      1.266532   -2.896365    0.241000
  H      2.906920   -1.071121    0.046592
  H     -0.261028    1.763255   -0.149965
  H      3.176552    1.206222   -0.164320

 Total Charge           Charge          ....    0
 Multiplicity           Mult            ....    1
 Number of Electrons    NEL             ....   66
 Basis Dimension        Dim             ....  146

ORBITAL ENERGIES
----------------

  NO   OCC          E(Eh)            E(eV)
   0   2.0000     -18.776999      -510.9481
   1   2.0000      -9.947186      -270.6767
   2   2.0000      -9.898346      -269.3477
   3   2.0000      -9.890123      -269.1239
   4   2.0000      -9.889229      -269.0996
   5   2.0000      -9.885027      -268.9853
   6   2.0000      -9.879675      -268.8396
   7   2.0000      -9.877978      -268.7934
   8   2.0000      -9.875910      -268.7372
   9   2.0000      -0.958183       -26.0735
  10   2.0000      -0.771438       -20.9919
  11   2.0000      -0.707114       -19.2416
  12   2.0000      -0.662348       -18.0234
  13   2.0000      -0.646168       -17.5831
  14   2.0000      -0.572778       -15.5861
  15   2.0000      -0.549414       -14.9503
  16   2.0000      -0.523965       -14.2578
  17   2.0000      -0.471710       -12.8359
  18   2.0000      -0.441726       -12.0200
  19   2.0000      -0.418869       -11.3980
  20   2.0000      -0.405805       -11.0425
  21   2.0000      -0.383770       -10.4429
  22   2.0000      -0.378630       -10.3031
  23   2.0000      -0.357647        -9.7321
  24   2.0000      -0.344684        -9.3793
  25   2.0000      -0.329626        -8.9696
  26   2.0000      -0.316948        -8.6246
  27   2.0000      -0.313260        -8.5242
  28   2.0000      -0.299739        -8.1563
  29   2.0000      -0.285003        -7.7553
  30   2.0000      -0.282312        -7.6821
  31   2.0000      -0.219170        -5.9639
  32   2.0000      -0.189598        -5.1592
  33   0.0000      -0.026593        -0.7236
  34   0.0000      -0.016710        -0.4547
  35   0.0000       0.025556         0.6954
  36   0.0000       0.048011         1.3064
  37   0.0000       0.059503         1.6191

MULLIKEN ATOMIC CHARGES
-----------------------
   0 C :   -0.264318
   1 C :   -0.157736
   2 C :    0.079269
   3 C :   -0.116589
   4 C :   -0.048673
   5 C :   -0.171116
   6 C :    0.263082
   7 C :   -0.220255
   8 O :   -0.336700
   9 H :    0.109208
  10 H :    0.103456
  11 H :    0.109008
  12 H :    0.099672
  13 H :    0.100241
  14 H :    0.030435
  15 H :    0.048247
  16 H :    0.023282
  17 H :    0.033919
  18 H :    0.315570
Sum of atomic charges:   -0.0000000

LOEWDIN ATOMIC CHARGES
----------------------
   0 C :   -0.341567
   1 C :   -0.220367
   2 C :   -0.032504
   3 C :   -0.148521
   4 C :   -0.114714
   5 C :   -0.185713
   6 C :    0.026107
   7 C :   -0.155072
   8 O :   -0.238767
   9 H :    0.121459
  10 H :    0.122148
  11 H :    0.121549
  12 H :    0.129679
  13 H :    0.129990
  14 H :    0.118906
  15 H :    0.122709
  16 H :    0.118197
  17 H :    0.129568
  18 H :    0.296913

  Mayer bond orders larger than 0.100000
B(  0-C ,  1-C ) :   1.2054 B(  0-C ,  9-H ) :   0.9428 B(  0-C , 10-H ) :   0.9462
B(  0-C , 11-H ) :   0.9437 B(  1-C ,  2-C ) :   1.0496 B(  1-C , 12-H ) :   0.9050
B(  1-C , 13-H ) :   0.9041 B(  2-C ,  3-C ) :   1.3639 B(  2-C ,  7-C ) :   1.4053
B(  3-C ,  4-C ) :   1.3896 B(  3-C , 14-H ) :   0.9687 B(  4-C ,  5-C ) :   1.3488
B(  4-C , 15-H ) :   0.9592 B(  5-C ,  6-C ) :   1.3354 B(  5-C , 16-H ) :   0.9582
B(  6-C ,  7-C ) :   1.3012 B(  6-C ,  8-O ) :   1.1910 B(  7-C , 17-H ) :   0.9555
B(  8-O , 18-H ) :   0.8429

Dispersion correction           -0.018627528
FINAL SINGLE POINT ENERGY      -385.235245770558

DIPOLE MOMENT
-------------

Method             : SCF
Type of density    : Electron Density
Multiplicity       :   1
Irrep              :   0
Energy             :  -385.2949216230356910 Eh
Relativity type    :
Basis              : AO
                                X                 Y                 Z
Electronic contribution:      8.182830800      -0.985919034      -0.018640849
Nuclear contribution   :     -7.884316456       0.760401011       0.033831061
                        -----------------------------------------
Total Dipole Moment    :      0.298514345      -0.225518023       0.015190211
                        -----------------------------------------
Magnitude (a.u.)       :      0.374432818
Magnitude (Debye)      :      0.951732588

Rotational constants in cm-1:             0.091557             0.041941             0.029076
Rotational constants in MHz :          2744.818498          1257.373131           871.675869

                             ****ORCA TERMINATED NORMALLY****
TOTAL RUN TIME: 0 days 0 hours 0 minutes 8 seconds 921 msec
