                         Program Version 6.0.0  -   RELEASE  -
|  1> ! pbe def2-sv(p) def2/J RI DEFGRID1 loosescf d4 GCP(DFT/SV(P)) printgap
|  2> %output
|  3>     printlevel normal
|  4> end
|  5> * xyz 0 1
|  6> C -2.2620734995 0.221992427 -0.3370424861
|  7> C -0.9695859853 0.2898137428 0.4743305131
|  8> C 0.0004775844 -0.7665731617 0.0419335833
|  9> C 1.297669566 -0.5974177807 -0.16508529
| 10> C 2.044488057 0.6918178316 0.0016334038
| 11> H -2.054023101 0.3790047672 -1.3930905299
| 12> H -2.9602418247 0.9864797829 -0.0047557715
| 13> H -2.7351239346 -0.750843223 -0.2219330351
| 14> H -0.5239257607 1.2786484786 0.3681139312
| 15> H -1.2071336146 0.1393855595 1.5324764848
| 16> H -0.4346941682 -1.7473276675 -0.1035140237
| 17> H 1.8895925181 -1.4442697962 -0.4862830915
| 18> H 3.1160371933 0.5185287187 -0.0384402109
| 19> H 1.8046335533 1.1617071921 0.9532280641
| 20> H 1.7824798876 1.389636782 -0.7937156318
| 21> *
| 22>
| 23>                          ****END OF INPUT****

CARTESIAN COORDINATES (ANGSTROEM)
---------------------------------
  C     -2.262073    0.221992   -0.337042
  C     -0.969586    0.289814    0.474331
  C      0.000478   -0.766573    0.041934
  C      1.297670   -0.597418   -0.165085
  C      2.044488    0.691818    0.001633
  H     -2.054023    0.379005   -1.393091
  H     -2.960242    0.986480   -0.004756
  H     -2.735124   -0.750843   -0.221933
  H     -0.523926    1.278648    0.368114
  H     -1.207134    0.139386    1.532476
  H     -0.434694   -1.747328   -0.103514
  H      1.889593   -1.444270   -0.486283
  H      3.116037    0.518529   -0.038440
  H      1.804634    1.161707    0.953228
  H      1.782480    1.389637   -0.793716

 Total Charge           Charge          ....    0
 Multiplicity           Mult            ....    1
 Number of Electrons    NEL             ....   40
 Basis Dimension        Dim             ....   90

ORBITAL ENERGIES
----------------

  NO   OCC          E(Eh)            E(eV)
   0   2.0000      -9.885108      -268.9875
   1   2.0000      -9.879390      -268.8319
   2   2.0000      -9.877046      -268.7681
   3   2.0000      -9.876419      -268.7510
   4   2.0000      -9.874343      -268.6945
   5   2.0000      -0.722861       -19.6700
   6   2.0000      -0.672360       -18.2958
   7   2.0000      -0.604927       -16.4609
   8   2.0000      -0.546191       -14.8626
   9   2.0000      -0.466415       -12.6918
  10   2.0000      -0.426685       -11.6107
  11   2.0000      -0.390049       -10.6138
  12   2.0000      -0.380677       -10.3587
  13   2.0000      -0.364458        -9.9174
  14   2.0000      -0.334669        -9.1068
  15   2.0000      -0.324723        -8.8362
  16   2.0000      -0.316982        -8.6255
  17   2.0000      -0.298681        -8.1275
  18   2.0000      -0.278750        -7.5852
  19   2.0000      -0.208085        -5.6623
  20   0.0000      -0.008372        -0.2278
  21   0.0000       0.044071         1.1992
  22   0.0000       0.065201         1.7742
  23   0.0000       0.069903         1.9022
  24   0.0000       0.093072         2.5326

MULLIKEN ATOMIC CHARGES
-----------------------
   0 C :   -0.296595
   1 C :   -0.127770
   2 C :   -0.133727
   3 C :   -0.164095
   4 C :   -0.241032
   5 H :    0.107231
   6 H :    0.102025
   7 H :    0.103382
   8 H :    0.087958
   9 H :    0.099235
  10 H :    0.057609
  11 H :    0.065185
  12 H :    0.101952
  13 H :    0.118857
  14 H :    0.119786
Sum of atomic charges:   -0.0000000

LOEWDIN ATOMIC CHARGES
----------------------
   0 C :   -0.336653
   1 C :   -0.231839
   2 C :   -0.149197
   3 C :   -0.158713
   4 C :   -0.343094
   5 H :    0.119661
   6 H :    0.118231
   7 H :    0.117290
   8 H :    0.119459
   9 H :    0.126545
  10 H :    0.116588
  11 H :    0.117605
  12 H :    0.124476
  13 H :    0.128243
  14 H :    0.131397

  Mayer bond orders larger than 0.100000
B(  0-C ,  1-C ) :   1.1313 B(  0-C ,  5-H ) :   0.9589 B(  0-C ,  6-H ) :   0.9519
B(  0-C ,  7-H ) :   0.9567 B(  1-C ,  2-C ) :   1.0837 B(  1-C ,  8-H ) :   0.9124
B(  1-C ,  9-H ) :   0.9084 B(  2-C ,  3-C ) :   2.0045 B(  2-C , 10-H ) :   0.9298
B(  3-C ,  4-C ) :   1.1117 B(  3-C , 11-H ) :   0.9306 B(  4-C , 12-H ) :   0.9465
B(  4-C , 13-H ) :   0.9395 B(  4-C , 14-H ) :   0.9354

Dispersion correction           -0.009755014
FINAL SINGLE POINT ENERGY      -196.028948376908

DIPOLE MOMENT
-------------

Method             : SCF
Type of density    : Electron Density
Multiplicity       :   1
Irrep              :   0
Energy             :  -196.0770461693595053 Eh
Relativity type    :
Basis              : AO
                                X                 Y                 Z
Electronic contribution:      1.227447753      -1.674360591       0.210670886
Nuclear contribution   :     -1.240637231       1.792799300      -0.176295377
                        -----------------------------------------
Total Dipole Moment    :     -0.013189477       0.118438709       0.034375509
                        -----------------------------------------
Magnitude (a.u.)       :      0.124029697
Magnitude (Debye)      :      0.315258435

Rotational constants in cm-1:             0.406005             0.086021             0.077749
Rotational constants in MHz :         12171.716516          2578.837042          2330.842744

                             ****ORCA TERMINATED NORMALLY****
TOTAL RUN TIME: 0 days 0 hours 0 minutes 6 seconds 173 msec
