                         Program Version 6.0.0  -   RELEASE  -
|  1> ! pbe def2-sv(p) def2/J RI DEFGRID1 loosescf d4 GCP(DFT/SV(P)) printgap
|  2> %output
|  3>     printlevel normal
|  4> end
|  5> * xyz 0 1
|  6> C -2.5392785887 0.6223928443 -1.1550466286
|  7> C -2.0306630741 0.4171511269 0.278117751
|  8> H -2.9079470343 0.4082312951 0.9354393663
|  9> C -1.0685384673 1.5139269805 0.7279072184
| 10> C 0.2487408558 1.5028026084 -0.0521278884
| 11> C 0.7756059009 0.0770496946 -0.3153184489
| 12> H 0.5236703173 -0.2103258708 -1.3407504231
| 13> C 0.0928177409 -0.9424856148 0.6112698498
| 14> C -1.3902994146 -0.9487743365 0.3841767879
| 15> O -2.0348462254 -1.9757090707 0.2756496413
| 16> C 2.2810760816 -0.00988865 -0.1656807363
| 17> C 2.891572579 0.2456149338 0.9806642624
| 18> C 3.0286696692 -0.4095765876 -1.3994372555
| 19> H -3.2111198538 -0.1888359807 -1.426192758
| 20> H -3.0771207277 1.5638495517 -1.2245053834
| 21> H -1.7148762058 0.6366545172 -1.8618596026
| 22> H -1.5491537265 2.4857188275 0.6084052504
| 23> H -0.8643836569 1.3805033075 1.791712623
| 24> H 0.1149438881 2.0132982227 -1.0060480842
| 25> H 0.9907106702 2.0680076262 0.5126547972
| 26> H 0.4901095188 -1.9453885849 0.445719057
| 27> H 0.2765850662 -0.6741325758 1.6529321875
| 28> H 3.9612888383 0.1808668376 1.0787624103
| 29> H 2.3542966064 0.5324941438 1.8685646601
| 30> H 2.8432678751 0.308279805 -2.1973464419
| 31> H 4.097544404 -0.4583573842 -1.2122318479
| 32> H 2.6872575095 -1.38506518 -1.7439854349
| 33> *
| 34>
| 35>                          ****END OF INPUT****

CARTESIAN COORDINATES (ANGSTROEM)
---------------------------------
  C     -2.539279    0.622393   -1.155047
  C     -2.030663    0.417151    0.278118
  H     -2.907947    0.408231    0.935439
  C     -1.068538    1.513927    0.727907
  C      0.248741    1.502803   -0.052128
  C      0.775606    0.077050   -0.315318
  H      0.523670   -0.210326   -1.340750
  C      0.092818   -0.942486    0.611270
  C     -1.390299   -0.948774    0.384177
  O     -2.034846   -1.975709    0.275650
  C      2.281076   -0.009889   -0.165681
  C      2.891573    0.245615    0.980664
  C      3.028670   -0.409577   -1.399437
  H     -3.211120   -0.188836   -1.426193
  H     -3.077121    1.563850   -1.224505
  H     -1.714876    0.636655   -1.861860
  H     -1.549154    2.485719    0.608405
  H     -0.864384    1.380503    1.791713
  H      0.114944    2.013298   -1.006048
  H      0.990711    2.068008    0.512655
  H      0.490110   -1.945389    0.445719
  H      0.276585   -0.674133    1.652932
  H      3.961289    0.180867    1.078762
  H      2.354297    0.532494    1.868565
  H      2.843268    0.308280   -2.197346
  H      4.097544   -0.458357   -1.212232
  H      2.687258   -1.385065   -1.743985

 Total Charge           Charge          ....    0
 Multiplicity           Mult            ....    1
 Number of Electrons    NEL             ....   84
 Basis Dimension        Dim             ....  186

ORBITAL ENERGIES
----------------

  NO   OCC          E(Eh)            E(eV)
   0   2.0000     -18.736751      -509.8529
   1   2.0000      -9.967790      -271.2374
   2   2.0000      -9.908860      -269.6338
   3   2.0000      -9.904862      -269.5250
   4   2.0000      -9.901276      -269.4274
   5   2.0000      -9.893492      -269.2156
   6   2.0000      -9.893418      -269.2136
   7   2.0000      -9.892052      -269.1764
   8   2.0000      -9.887374      -269.0491
   9   2.0000      -9.886041      -269.0129
  10   2.0000      -9.876941      -268.7652
  11   2.0000      -0.931474       -25.3467
  12   2.0000      -0.773715       -21.0538
  13   2.0000      -0.730931       -19.8896
  14   2.0000      -0.682910       -18.5829
  15   2.0000      -0.659367       -17.9423
  16   2.0000      -0.619787       -16.8653
  17   2.0000      -0.613600       -16.6969
  18   2.0000      -0.555288       -15.1102
  19   2.0000      -0.533565       -14.5190
  20   2.0000      -0.472966       -12.8701
  21   2.0000      -0.460129       -12.5207
  22   2.0000      -0.445691       -12.1279
  23   2.0000      -0.423818       -11.5327
  24   2.0000      -0.412162       -11.2155
  25   2.0000      -0.406189       -11.0530
  26   2.0000      -0.389656       -10.6031
  27   2.0000      -0.377053       -10.2601
  28   2.0000      -0.370979       -10.0949
  29   2.0000      -0.362264        -9.8577
  30   2.0000      -0.356887        -9.7114
  31   2.0000      -0.344069        -9.3626
  32   2.0000      -0.343426        -9.3451
  33   2.0000      -0.328015        -8.9258
  34   2.0000      -0.318526        -8.6675
  35   2.0000      -0.316088        -8.6012
  36   2.0000      -0.309060        -8.4099
  37   2.0000      -0.290049        -7.8926
  38   2.0000      -0.279262        -7.5991
  39   2.0000      -0.273939        -7.4543
  40   2.0000      -0.222254        -6.0478
  41   2.0000      -0.188776        -5.1368
  42   0.0000      -0.053475        -1.4551
  43   0.0000      -0.017783        -0.4839
  44   0.0000       0.022296         0.6067
  45   0.0000       0.035325         0.9613
  46   0.0000       0.052953         1.4409

MULLIKEN ATOMIC CHARGES
-----------------------
   0 C :   -0.254149
   1 C :   -0.175814
   2 H :    0.091457
   3 C :   -0.088358
   4 C :   -0.119986
   5 C :   -0.193864
   6 H :    0.065167
   7 C :   -0.050876
   8 C :    0.010068
   9 O :   -0.167432
  10 C :   -0.021796
  11 C :   -0.248614
  12 C :   -0.210413
  13 H :    0.120261
  14 H :    0.106157
  15 H :    0.106992
  16 H :    0.085817
  17 H :    0.076735
  18 H :    0.085991
  19 H :    0.092387
  20 H :    0.090738
  21 H :    0.100885
  22 H :    0.087300
  23 H :    0.089804
  24 H :    0.110561
  25 H :    0.097015
  26 H :    0.113969
Sum of atomic charges:    0.0000000

LOEWDIN ATOMIC CHARGES
----------------------
   0 C :   -0.319149
   1 C :   -0.175320
   2 H :    0.138002
   3 C :   -0.219773
   4 C :   -0.215988
   5 C :   -0.129642
   6 H :    0.118218
   7 C :   -0.227655
   8 C :    0.052994
   9 O :   -0.133527
  10 C :   -0.044495
  11 C :   -0.267932
  12 C :   -0.321150
  13 H :    0.128893
  14 H :    0.122010
  15 H :    0.117957
  16 H :    0.122007
  17 H :    0.117267
  18 H :    0.119990
  19 H :    0.125132
  20 H :    0.132734
  21 H :    0.140665
  22 H :    0.120756
  23 H :    0.115029
  24 H :    0.129127
  25 H :    0.123665
  26 H :    0.130185

  Mayer bond orders larger than 0.100000
B(  0-C ,  1-C ) :   1.0945 B(  0-C , 13-H ) :   0.9425 B(  0-C , 14-H ) :   0.9476
B(  0-C , 15-H ) :   0.9449 B(  1-C ,  2-H ) :   0.8702 B(  1-C ,  3-C ) :   1.1000
B(  1-C ,  8-C ) :   0.9235 B(  3-C ,  4-C ) :   1.1554 B(  3-C , 16-H ) :   0.9100
B(  3-C , 17-H ) :   0.8938 B(  4-C ,  5-C ) :   1.0628 B(  4-C , 18-H ) :   0.9138
B(  4-C , 19-H ) :   0.9059 B(  5-C ,  6-H ) :   0.8836 B(  5-C ,  7-C ) :   1.1111
B(  5-C , 10-C ) :   0.9848 B(  7-C ,  8-C ) :   1.0693 B(  7-C , 20-H ) :   0.8973
B(  7-C , 21-H ) :   0.8488 B(  8-C ,  9-O ) :   2.1808 B( 10-C , 11-C ) :   2.0365
B( 10-C , 12-C ) :   1.1407 B( 11-C , 22-H ) :   0.9030 B( 11-C , 23-H ) :   0.9055
B( 12-C , 24-H ) :   0.9277 B( 12-C , 25-H ) :   0.9393 B( 12-C , 26-H ) :   0.9272

Dispersion correction           -0.028715669
FINAL SINGLE POINT ENERGY      -464.822048627433

DIPOLE MOMENT
-------------

Method             : SCF
Type of density    : Electron Density
Multiplicity       :   1
Irrep              :   0
Energy             :  -464.9074183431328038 Eh
Relativity type    :
Basis              : AO
                                X                 Y                 Z
Electronic contribution:     -4.186945978      -5.369072406       2.791849659
Nuclear contribution   :      4.674799894       6.271240190      -2.921800254
                        -----------------------------------------
Total Dipole Moment    :      0.487853915       0.902167784      -0.129950594
                        -----------------------------------------
Magnitude (a.u.)       :      1.033825571
Magnitude (Debye)      :      2.627775768

Rotational constants in cm-1:             0.061899             0.024051             0.021700
Rotational constants in MHz :          1855.699235           721.031375           650.557828

                             ****ORCA TERMINATED NORMALLY****
TOTAL RUN TIME: 0 days 0 hours 0 minutes 17 seconds 58 msec
