                         Program Version 6.0.0  -   RELEASE  -
|  1> ! pbe def2-sv(p) def2/J RI DEFGRID1 loosescf d4 GCP(DFT/SV(P)) printgap
|  2> %output
|  3>     printlevel normal
|  4> end
|  5> * xyz 0 1
|  6> C -2.2444562579 -1.0088141951 -0.3611277049
|  7> C -1.1566635479 -0.221489556 0.3846189457
|  8> H -1.5952520382 0.2177771703 1.2897879417
|  9> C -0.5654662474 0.9092786421 -0.4697977457
| 10> H -0.3848777837 0.5578034572 -1.4942364447
| 11> C 0.7794810523 1.3344730294 0.14071802
| 12> H 0.6017519 1.5946795226 1.1978582348
| 13> C 1.7766081624 0.1708418023 0.0652807689
| 14> H 2.3076945987 0.239642308 -0.8892839273
| 15> C 1.0327986078 -1.1856982642 0.0983847616
| 16> H 1.6610164588 -1.8981510362 0.6495892652
| 17> O -0.1528895659 -1.126735003 0.8553236908
| 18> O 0.8065545738 -1.6048056005 -1.2108609671
| 19> O 2.765531162 0.2322483961 1.0554322389
| 20> O 1.3220264074 2.4365373879 -0.535661879
| 21> O -1.3886276519 2.0510837797 -0.4632331817
| 22> O -2.8849721857 -1.9359031175 0.4797429522
| 23> H -1.7936516141 -1.5141620525 -1.22543187
| 24> H -3.0261255288 -0.3316719086 -0.7090690692
| 25> H 0.6946328912 -2.5668037727 -1.2510782126
| 26> H 2.3559339453 0.2952192187 1.9313173498
| 27> H 0.6273825093 3.1102197432 -0.6148898691
| 28> H -2.1647736917 1.913233891 -1.0216016716
| 29> H -2.2057971434 -2.4332087428 0.9592025606
| 30> *
| 31>
| 32>                          ****END OF INPUT****

CARTESIAN COORDINATES (ANGSTROEM)
---------------------------------
  C     -2.244456   -1.008814   -0.361128
  C     -1.156664   -0.221490    0.384619
  H     -1.595252    0.217777    1.289788
  C     -0.565466    0.909279   -0.469798
  H     -0.384878    0.557803   -1.494236
  C      0.779481    1.334473    0.140718
  H      0.601752    1.594680    1.197858
  C      1.776608    0.170842    0.065281
  H      2.307695    0.239642   -0.889284
  C      1.032799   -1.185698    0.098385
  H      1.661016   -1.898151    0.649589
  O     -0.152890   -1.126735    0.855324
  O      0.806555   -1.604806   -1.210861
  O      2.765531    0.232248    1.055432
  O      1.322026    2.436537   -0.535662
  O     -1.388628    2.051084   -0.463233
  O     -2.884972   -1.935903    0.479743
  H     -1.793652   -1.514162   -1.225432
  H     -3.026126   -0.331672   -0.709069
  H      0.694633   -2.566804   -1.251078
  H      2.355934    0.295219    1.931317
  H      0.627383    3.110220   -0.614890
  H     -2.164774    1.913234   -1.021602
  H     -2.205797   -2.433209    0.959203

 Total Charge           Charge          ....    0
 Multiplicity           Mult            ....    1
 Number of Electrons    NEL             ....   96
 Basis Dimension        Dim             ....  192

ORBITAL ENERGIES
----------------

  NO   OCC          E(Eh)            E(eV)
   0   2.0000     -18.777899      -510.9726
   1   2.0000     -18.775366      -510.9037
   2   2.0000     -18.772164      -510.8165
   3   2.0000     -18.750173      -510.2181
   4   2.0000     -18.745040      -510.0785
   5   2.0000     -18.743845      -510.0460
   6   2.0000      -9.990696      -271.8607
   7   2.0000      -9.948320      -270.7075
   8   2.0000      -9.946058      -270.6460
   9   2.0000      -9.943939      -270.5883
  10   2.0000      -9.940625      -270.4981
  11   2.0000      -9.934850      -270.3410
  12   2.0000      -0.988877       -26.9087
  13   2.0000      -0.952885       -25.9293
  14   2.0000      -0.932703       -25.3801
  15   2.0000      -0.929051       -25.2808
  16   2.0000      -0.915197       -24.9038
  17   2.0000      -0.913923       -24.8691
  18   2.0000      -0.709368       -19.3029
  19   2.0000      -0.692917       -18.8552
  20   2.0000      -0.624396       -16.9907
  21   2.0000      -0.591641       -16.0994
  22   2.0000      -0.567469       -15.4416
  23   2.0000      -0.524998       -14.2859
  24   2.0000      -0.510424       -13.8893
  25   2.0000      -0.498273       -13.5587
  26   2.0000      -0.484246       -13.1770
  27   2.0000      -0.456182       -12.4133
  28   2.0000      -0.449650       -12.2356
  29   2.0000      -0.433477       -11.7955
  30   2.0000      -0.405541       -11.0353
  31   2.0000      -0.396827       -10.7982
  32   2.0000      -0.395942       -10.7741
  33   2.0000      -0.384718       -10.4687
  34   2.0000      -0.364562        -9.9202
  35   2.0000      -0.360138        -9.7998
  36   2.0000      -0.328496        -8.9388
  37   2.0000      -0.317938        -8.6515
  38   2.0000      -0.306834        -8.3494
  39   2.0000      -0.289357        -7.8738
  40   2.0000      -0.288237        -7.8433
  41   2.0000      -0.273318        -7.4374
  42   2.0000      -0.265172        -7.2157
  43   2.0000      -0.242985        -6.6120
  44   2.0000      -0.237948        -6.4749
  45   2.0000      -0.223388        -6.0787
  46   2.0000      -0.216778        -5.8988
  47   2.0000      -0.204624        -5.5681
  48   0.0000       0.003174         0.0864
  49   0.0000       0.009157         0.2492
  50   0.0000       0.029325         0.7980
  51   0.0000       0.048303         1.3144
  52   0.0000       0.059924         1.6306

MULLIKEN ATOMIC CHARGES
-----------------------
   0 C :    0.081886
   1 C :    0.034909
   2 H :    0.072597
   3 C :   -0.009585
   4 H :    0.076035
   5 C :    0.062159
   6 H :    0.038063
   7 C :    0.120570
   8 H :    0.086825
   9 C :    0.123393
  10 H :    0.068742
  11 O :   -0.333145
  12 O :   -0.388534
  13 O :   -0.414630
  14 O :   -0.410556
  15 O :   -0.416723
  16 O :   -0.436375
  17 H :    0.066330
  18 H :    0.060539
  19 H :    0.309848
  20 H :    0.296786
  21 H :    0.302894
  22 H :    0.312500
  23 H :    0.295471
Sum of atomic charges:    0.0000000

LOEWDIN ATOMIC CHARGES
----------------------
   0 C :   -0.134571
   1 C :   -0.078208
   2 H :    0.117061
   3 C :   -0.087308
   4 H :    0.111960
   5 C :   -0.063581
   6 H :    0.099803
   7 C :   -0.070164
   8 H :    0.131490
   9 C :   -0.015260
  10 H :    0.101865
  11 O :   -0.158830
  12 O :   -0.305854
  13 O :   -0.305537
  14 O :   -0.314856
  15 O :   -0.314309
  16 O :   -0.340087
  17 H :    0.096341
  18 H :    0.104836
  19 H :    0.290783
  20 H :    0.282212
  21 H :    0.282237
  22 H :    0.291727
  23 H :    0.278251

  Mayer bond orders larger than 0.100000
B(  0-C ,  1-C ) :   1.0661 B(  0-C , 16-O ) :   1.0776 B(  0-C , 17-H ) :   0.8975
B(  0-C , 18-H ) :   0.9131 B(  1-C ,  2-H ) :   0.8755 B(  1-C ,  3-C ) :   0.9564
B(  1-C , 11-O ) :   0.9539 B(  3-C ,  4-H ) :   0.8798 B(  3-C ,  5-C ) :   1.0443
B(  3-C , 15-O ) :   1.0566 B(  5-C ,  6-H ) :   0.8547 B(  5-C ,  7-C ) :   1.0207
B(  5-C , 14-O ) :   1.1054 B(  7-C ,  8-H ) :   0.8624 B(  7-C ,  9-C ) :   0.9847
B(  7-C , 13-O ) :   1.0498 B(  9-C , 10-H ) :   0.8999 B(  9-C , 11-O ) :   1.0588
B(  9-C , 12-O ) :   1.1024 B( 12-O , 19-H ) :   0.8349 B( 13-O , 20-H ) :   0.8486
B( 14-O , 21-H ) :   0.8320 B( 15-O , 22-H ) :   0.8408 B( 16-O , 23-H ) :   0.8411

Dispersion correction           -0.024432365
FINAL SINGLE POINT ENERGY      -685.691495115258

DIPOLE MOMENT
-------------

Method             : SCF
Type of density    : Electron Density
Multiplicity       :   1
Irrep              :   0
Energy             :  -685.8215459452178493 Eh
Relativity type    :
Basis              : AO
                                X                 Y                 Z
Electronic contribution:      2.180722767       0.304276603       0.993535925
Nuclear contribution   :     -2.734466939      -0.764228081      -1.102332656
                        -----------------------------------------
Total Dipole Moment    :     -0.553744171      -0.459951478      -0.108796731
                        -----------------------------------------
Magnitude (a.u.)       :      0.728027951
Magnitude (Debye)      :      1.850499990

Rotational constants in cm-1:             0.042374             0.025754             0.018909
Rotational constants in MHz :          1270.346919           772.097429           566.891549

                             ****ORCA TERMINATED NORMALLY****
TOTAL RUN TIME: 0 days 0 hours 0 minutes 11 seconds 857 msec
