                         Program Version 6.0.0  -   RELEASE  -
|  1> ! pbe def2-sv(p) def2/J RI DEFGRID1 loosescf d4 GCP(DFT/SV(P)) printgap
|  2> %output
|  3>     printlevel normal
|  4> end
|  5> * xyz 0 1
|  6> C -1.5018091362 -0.8561693462 -1.0341405282
|  7> C -1.2238130412 -0.3700557822 0.3970216395
|  8> H -2.141107458 -0.5415828395 0.9714657997
|  9> C -0.8601305092 1.1169400027 0.4866196254
| 10> H -1.5336512922 1.711416824 -0.1370104634
| 11> C 0.5838982758 1.3719248294 -0.0071144394
| 12> H 1.1360573576 1.8657227795 0.8063540374
| 13> C 1.3532670478 0.0914667802 -0.3729240026
| 14> H 1.0516280065 -0.2251338913 -1.380066507
| 15> C 1.0717221524 -1.0778501884 0.5835454415
| 16> H 1.735913357 -0.9879492174 1.4593128608
| 17> O -0.2350373086 -1.1114809255 1.1012597837
| 18> O 1.3582448634 -2.2483972276 -0.1247830766
| 19> O 2.7218753711 0.4210444613 -0.3609678549
| 20> O 0.5100610931 2.220162053 -1.1276103508
| 21> O -1.0385174251 1.5834512765 1.8013073362
| 22> O -2.8989679019 -0.9882074608 -1.1709980365
| 23> H -1.0038015726 -1.8222800741 -1.1839028329
| 24> H -1.1170334432 -0.1305066657 -1.7603085073
| 25> H 1.2447704908 -3.0205248127 0.4505768194
| 26> H 3.2388801571 -0.3299211722 -0.6868137501
| 27> H 1.4073129515 2.4738442743 -1.3908459988
| 28> H -0.6644838957 0.9358980009 2.4180752622
| 29> H -3.1099767035 -1.2617972273 -2.0749524188
| 30> *
| 31>
| 32>                          ****END OF INPUT****

CARTESIAN COORDINATES (ANGSTROEM)
---------------------------------
  C     -1.501809   -0.856169   -1.034141
  C     -1.223813   -0.370056    0.397022
  H     -2.141107   -0.541583    0.971466
  C     -0.860131    1.116940    0.486620
  H     -1.533651    1.711417   -0.137010
  C      0.583898    1.371925   -0.007114
  H      1.136057    1.865723    0.806354
  C      1.353267    0.091467   -0.372924
  H      1.051628   -0.225134   -1.380067
  C      1.071722   -1.077850    0.583545
  H      1.735913   -0.987949    1.459313
  O     -0.235037   -1.111481    1.101260
  O      1.358245   -2.248397   -0.124783
  O      2.721875    0.421044   -0.360968
  O      0.510061    2.220162   -1.127610
  O     -1.038517    1.583451    1.801307
  O     -2.898968   -0.988207   -1.170998
  H     -1.003802   -1.822280   -1.183903
  H     -1.117033   -0.130507   -1.760309
  H      1.244770   -3.020525    0.450577
  H      3.238880   -0.329921   -0.686814
  H      1.407313    2.473844   -1.390846
  H     -0.664484    0.935898    2.418075
  H     -3.109977   -1.261797   -2.074952

 Total Charge           Charge          ....    0
 Multiplicity           Mult            ....    1
 Number of Electrons    NEL             ....   96
 Basis Dimension        Dim             ....  192

ORBITAL ENERGIES
----------------

  NO   OCC          E(Eh)            E(eV)
   0   2.0000     -18.774008      -510.8667
   1   2.0000     -18.769971      -510.7569
   2   2.0000     -18.762361      -510.5498
   3   2.0000     -18.749665      -510.2043
   4   2.0000     -18.748140      -510.1628
   5   2.0000     -18.740083      -509.9436
   6   2.0000      -9.989039      -271.8156
   7   2.0000      -9.944124      -270.5934
   8   2.0000      -9.940715      -270.5006
   9   2.0000      -9.938956      -270.4528
  10   2.0000      -9.935474      -270.3580
  11   2.0000      -9.930579      -270.2248
  12   2.0000      -0.985400       -26.8141
  13   2.0000      -0.942989       -25.6600
  14   2.0000      -0.933560       -25.4035
  15   2.0000      -0.922626       -25.1059
  16   2.0000      -0.917478       -24.9658
  17   2.0000      -0.909750       -24.7556
  18   2.0000      -0.701905       -19.0998
  19   2.0000      -0.688895       -18.7458
  20   2.0000      -0.622423       -16.9370
  21   2.0000      -0.587539       -15.9877
  22   2.0000      -0.567340       -15.4381
  23   2.0000      -0.517354       -14.0779
  24   2.0000      -0.505208       -13.7474
  25   2.0000      -0.490984       -13.3604
  26   2.0000      -0.474128       -12.9017
  27   2.0000      -0.458757       -12.4834
  28   2.0000      -0.449994       -12.2450
  29   2.0000      -0.423546       -11.5253
  30   2.0000      -0.415660       -11.3107
  31   2.0000      -0.389701       -10.6043
  32   2.0000      -0.387516       -10.5448
  33   2.0000      -0.376953       -10.2574
  34   2.0000      -0.366983        -9.9861
  35   2.0000      -0.345072        -9.3899
  36   2.0000      -0.337491        -9.1836
  37   2.0000      -0.313441        -8.5292
  38   2.0000      -0.300664        -8.1815
  39   2.0000      -0.289040        -7.8652
  40   2.0000      -0.279272        -7.5994
  41   2.0000      -0.269801        -7.3417
  42   2.0000      -0.254067        -6.9135
  43   2.0000      -0.238354        -6.4859
  44   2.0000      -0.236303        -6.4301
  45   2.0000      -0.217557        -5.9200
  46   2.0000      -0.213880        -5.8200
  47   2.0000      -0.206532        -5.6200
  48   0.0000       0.017091         0.4651
  49   0.0000       0.021469         0.5842
  50   0.0000       0.032202         0.8762
  51   0.0000       0.045725         1.2442
  52   0.0000       0.047044         1.2801

MULLIKEN ATOMIC CHARGES
-----------------------
   0 C :    0.007816
   1 C :   -0.014025
   2 H :    0.096306
   3 C :    0.075186
   4 H :    0.089844
   5 C :    0.099981
   6 H :    0.062847
   7 C :   -0.005995
   8 H :    0.071934
   9 C :    0.178993
  10 H :    0.058482
  11 O :   -0.314193
  12 O :   -0.396136
  13 O :   -0.420289
  14 O :   -0.419851
  15 O :   -0.421243
  16 O :   -0.437043
  17 H :    0.083886
  18 H :    0.093471
  19 H :    0.304129
  20 H :    0.306708
  21 H :    0.303095
  22 H :    0.295404
  23 H :    0.300693
Sum of atomic charges:    0.0000000

LOEWDIN ATOMIC CHARGES
----------------------
   0 C :   -0.142717
   1 C :   -0.069362
   2 H :    0.127526
   3 C :   -0.061643
   4 H :    0.128446
   5 C :   -0.061712
   6 H :    0.110941
   7 C :   -0.095865
   8 H :    0.112045
   9 C :   -0.015338
  10 H :    0.094678
  11 O :   -0.148612
  12 O :   -0.315777
  13 O :   -0.319168
  14 O :   -0.318366
  15 O :   -0.315376
  16 O :   -0.341107
  17 H :    0.101378
  18 H :    0.101821
  19 H :    0.286688
  20 H :    0.289904
  21 H :    0.286846
  22 H :    0.278007
  23 H :    0.286762

  Mayer bond orders larger than 0.100000
B(  0-C ,  1-C ) :   1.0089 B(  0-C , 16-O ) :   1.0776 B(  0-C , 17-H ) :   0.9036
B(  0-C , 18-H ) :   0.9125 B(  1-C ,  2-H ) :   0.8938 B(  1-C ,  3-C ) :   1.0504
B(  1-C , 11-O ) :   0.9818 B(  3-C ,  4-H ) :   0.8818 B(  3-C ,  5-C ) :   0.9558
B(  3-C , 15-O ) :   1.0467 B(  5-C ,  6-H ) :   0.8730 B(  5-C ,  7-C ) :   1.0404
B(  5-C , 14-O ) :   1.0512 B(  7-C ,  8-H ) :   0.8720 B(  7-C ,  9-C ) :   0.9837
B(  7-C , 13-O ) :   1.0605 B(  9-C , 10-H ) :   0.8898 B(  9-C , 11-O ) :   1.0544
B(  9-C , 12-O ) :   1.1141 B( 12-O , 19-H ) :   0.8397 B( 13-O , 20-H ) :   0.8428
B( 14-O , 21-H ) :   0.8426 B( 15-O , 22-H ) :   0.8433 B( 16-O , 23-H ) :   0.8501

Dispersion correction           -0.024631465
FINAL SINGLE POINT ENERGY      -685.684980130851

DIPOLE MOMENT
-------------

Method             : SCF
Type of density    : Electron Density
Multiplicity       :   1
Irrep              :   0
Energy             :  -685.8144876360679518 Eh
Relativity type    :
Basis              : AO
                                X                 Y                 Z
Electronic contribution:      0.688207663       0.121695432       1.848944928
Nuclear contribution   :      0.235577458      -1.252234808      -2.351288013
                        -----------------------------------------
Total Dipole Moment    :      0.923785122      -1.130539376      -0.502343085
                        -----------------------------------------
Magnitude (a.u.)       :      1.543971116
Magnitude (Debye)      :      3.924462694

Rotational constants in cm-1:             0.034573             0.027980             0.021932
Rotational constants in MHz :          1036.462498           838.807127           657.512932

                             ****ORCA TERMINATED NORMALLY****
TOTAL RUN TIME: 0 days 0 hours 0 minutes 11 seconds 988 msec
