                         Program Version 6.0.0  -   RELEASE  -
|  1> ! wb97x-v def2-tzvp def2/J RIJCOSX DEFGRID2 scfconv7 GCP(DFT/TZ) printgap
|  2> %output
|  3>     printlevel normal
|  4> end
|  5> * xyz 0 1
|  6> C -1.0110984849396578 -1.8062783320405886 -6.497099544530795e-05
|  7> C 0.36654275603622 -1.6101312112136072 8.298079750683929e-05
|  8> C 0.8733733433752339 -0.30630463376475 0.00019899123457315607
|  9> C 0.01302808279758813 0.798771619722678 -4.477503212244617e-05
| 10> C -1.3584634984854576 0.5846698114185153 -9.452324353441672e-05
| 11> C -1.8738059967863485 -0.7178354284988332 -0.00010427720012192717
| 12> O -2.266359816631972 1.612606506795112 -6.82542120005624e-05
| 13> C 2.327454114675732 -0.12342868475639075 0.000992834479935791
| 14> O 2.8937487341592 0.9639721919128817 -0.0002045008809498116
| 15> H -1.4203644019286323 -2.8110272815404254 -0.0001021799806959959
| 16> H 1.0493250118982609 -2.4541972338062314 0.0001117323239677632
| 17> H 0.4169732899064556 1.8071224642638088 5.1509063138140025e-05
| 18> H -2.94978706345483 -0.8597625808316782 -0.00014392498934421362
| 19> H -1.792564554468544 2.4566006854634868 -3.253391718077934e-05
| 20> H 2.9162338477109406 -1.0613268440202173 -0.0009067586432213083
| 21> *
| 22>
| 23>                          ****END OF INPUT****

CARTESIAN COORDINATES (ANGSTROEM)
---------------------------------
  C     -1.011098   -1.806278   -0.000065
  C      0.366543   -1.610131    0.000083
  C      0.873373   -0.306305    0.000199
  C      0.013028    0.798772   -0.000045
  C     -1.358463    0.584670   -0.000095
  C     -1.873806   -0.717835   -0.000104
  O     -2.266360    1.612607   -0.000068
  C      2.327454   -0.123429    0.000993
  O      2.893749    0.963972   -0.000205
  H     -1.420364   -2.811027   -0.000102
  H      1.049325   -2.454197    0.000112
  H      0.416973    1.807122    0.000052
  H     -2.949787   -0.859763   -0.000144
  H     -1.792565    2.456601   -0.000033
  H      2.916234   -1.061327   -0.000907

 Total Charge           Charge          ....    0
 Multiplicity           Mult            ....    1
 Number of Electrons    NEL             ....   64
 Basis Dimension        Dim             ....  315

ORBITAL ENERGIES
----------------

  NO   OCC          E(Eh)            E(eV)
   0   2.0000     -21.716677      -590.9408
   1   2.0000     -21.673747      -589.7726
   2   2.0000     -12.143314      -330.4364
   3   2.0000     -12.131745      -330.1216
   4   2.0000     -12.076494      -328.6181
   5   2.0000     -12.073645      -328.5406
   6   2.0000     -12.070492      -328.4548
   7   2.0000     -12.070128      -328.4449
   8   2.0000     -12.069299      -328.4223
   9   2.0000      -1.731875       -47.1267
  10   2.0000      -1.712818       -46.6081
  11   2.0000      -1.408106       -38.3165
  12   2.0000      -1.316193       -35.8154
  13   2.0000      -1.299275       -35.3551
  14   2.0000      -1.195311       -32.5261
  15   2.0000      -1.170389       -31.8479
  16   2.0000      -1.110737       -30.2247
  17   2.0000      -1.080869       -29.4119
  18   2.0000      -1.038034       -28.2464
  19   2.0000      -0.996169       -27.1071
  20   2.0000      -0.988487       -26.8981
  21   2.0000      -0.965058       -26.2606
  22   2.0000      -0.962138       -26.1811
  23   2.0000      -0.949957       -25.8496
  24   2.0000      -0.906476       -24.6665
  25   2.0000      -0.904048       -24.6004
  26   2.0000      -0.860233       -23.4081
  27   2.0000      -0.842024       -22.9126
  28   2.0000      -0.804600       -21.8943
  29   2.0000      -0.789870       -21.4935
  30   2.0000      -0.669440       -18.2164
  31   2.0000      -0.657361       -17.8877
  32   0.0000      -0.354717        -9.6523
  33   0.0000      -0.260766        -7.0958
  34   0.0000      -0.219318        -5.9679
  35   0.0000      -0.158368        -4.3094
  36   0.0000      -0.079159        -2.1540

MULLIKEN ATOMIC CHARGES
-----------------------
   0 C :   -0.080978
   1 C :   -0.209122
   2 C :    0.137230
   3 C :   -0.284343
   4 C :    0.308836
   5 C :   -0.198384
   6 O :   -0.386424
   7 C :    0.090249
   8 O :   -0.305788
   9 H :    0.127593
  10 H :    0.127302
  11 H :    0.142572
  12 H :    0.133228
  13 H :    0.318794
  14 H :    0.079236
Sum of atomic charges:   -0.0000000

LOEWDIN ATOMIC CHARGES
----------------------
   0 C :   -0.128308
   1 C :   -0.109006
   2 C :   -0.162656
   3 C :   -0.079450
   4 C :   -0.257532
   5 C :   -0.097381
   6 O :    0.074307
   7 C :   -0.235628
   8 O :    0.090451
   9 H :    0.146108
  10 H :    0.146891
  11 H :    0.153091
  12 H :    0.151121
  13 H :    0.189175
  14 H :    0.118817

  Mayer bond orders larger than 0.100000
B(  0-C ,  1-C ) :   1.4160 B(  0-C ,  5-C ) :   1.4608 B(  0-C ,  9-H ) :   0.9717
B(  1-C ,  2-C ) :   1.3741 B(  1-C , 10-H ) :   0.9593 B(  2-C ,  3-C ) :   1.3745
B(  2-C ,  7-C ) :   0.8946 B(  2-C ,  8-O ) :  -0.1274 B(  3-C ,  4-C ) :   1.3697
B(  3-C , 11-H ) :   0.9367 B(  4-C ,  5-C ) :   1.3690 B(  4-C ,  6-O ) :   1.1629
B(  5-C , 12-H ) :   0.9698 B(  6-O , 13-H ) :   0.8863 B(  7-C ,  8-O ) :   2.1176
B(  7-C , 14-H ) :   1.0188

FINAL SINGLE POINT ENERGY      -420.820528105927

DIPOLE MOMENT
-------------

Method             : SCF
Type of density    : Electron Density
Multiplicity       :   1
Irrep              :   0
Energy             :  -420.8280659714270087 Eh
Relativity type    :
Basis              : AO
                                X                 Y                 Z
Electronic contribution:      1.031963947       2.138024577       0.001629354
Nuclear contribution   :     -1.673833009      -2.707288238      -0.001250815
                        -----------------------------------------
Total Dipole Moment    :     -0.641869062      -0.569263661       0.000378539
                        -----------------------------------------
Magnitude (a.u.)       :      0.857937732
Magnitude (Debye)      :      2.180704410

Rotational constants in cm-1:             0.098384             0.042947             0.029896
Rotational constants in MHz :          2949.480238          1287.520006           896.274429

                             ****ORCA TERMINATED NORMALLY****
TOTAL RUN TIME: 0 days 0 hours 2 minutes 31 seconds 464 msec
