                         Program Version 6.0.0  -   RELEASE  -
|  1> ! wb97x-v def2-tzvp def2/J RIJCOSX DEFGRID2 scfconv7 GCP(DFT/TZ) printgap
|  2> %output
|  3>     printlevel normal
|  4> end
|  5> %cpcm
|  6>     smd true
|  7>     smdsolvent "water"
|  8> end
|  9> * xyz 0 1
| 10> C -1.0110984849396578 -1.8062783320405886 -6.497099544530795e-05
| 11> C 0.36654275603622 -1.6101312112136072 8.298079750683929e-05
| 12> C 0.8733733433752339 -0.30630463376475 0.00019899123457315607
| 13> C 0.01302808279758813 0.798771619722678 -4.477503212244617e-05
| 14> C -1.3584634984854576 0.5846698114185153 -9.452324353441672e-05
| 15> C -1.8738059967863485 -0.7178354284988332 -0.00010427720012192717
| 16> O -2.266359816631972 1.612606506795112 -6.82542120005624e-05
| 17> C 2.327454114675732 -0.12342868475639075 0.000992834479935791
| 18> O 2.8937487341592 0.9639721919128817 -0.0002045008809498116
| 19> H -1.4203644019286323 -2.8110272815404254 -0.0001021799806959959
| 20> H 1.0493250118982609 -2.4541972338062314 0.0001117323239677632
| 21> H 0.4169732899064556 1.8071224642638088 5.1509063138140025e-05
| 22> H -2.94978706345483 -0.8597625808316782 -0.00014392498934421362
| 23> H -1.792564554468544 2.4566006854634868 -3.253391718077934e-05
| 24> H 2.9162338477109406 -1.0613268440202173 -0.0009067586432213083
| 25> *
| 26>
| 27>                          ****END OF INPUT****

CARTESIAN COORDINATES (ANGSTROEM)
---------------------------------
  C     -1.011098   -1.806278   -0.000065
  C      0.366543   -1.610131    0.000083
  C      0.873373   -0.306305    0.000199
  C      0.013028    0.798772   -0.000045
  C     -1.358463    0.584670   -0.000095
  C     -1.873806   -0.717835   -0.000104
  O     -2.266360    1.612607   -0.000068
  C      2.327454   -0.123429    0.000993
  O      2.893749    0.963972   -0.000205
  H     -1.420364   -2.811027   -0.000102
  H      1.049325   -2.454197    0.000112
  H      0.416973    1.807122    0.000052
  H     -2.949787   -0.859763   -0.000144
  H     -1.792565    2.456601   -0.000033
  H      2.916234   -1.061327   -0.000907

 Total Charge           Charge          ....    0
 Multiplicity           Mult            ....    1
 Number of Electrons    NEL             ....   64
 Basis Dimension        Dim             ....  315

ORBITAL ENERGIES
----------------

  NO   OCC          E(Eh)            E(eV)
   0   2.0000     -21.705489      -590.6364
   1   2.0000     -21.680130      -589.9463
   2   2.0000     -12.146159      -330.5138
   3   2.0000     -12.122337      -329.8656
   4   2.0000     -12.068380      -328.3973
   5   2.0000     -12.061746      -328.2168
   6   2.0000     -12.060825      -328.1917
   7   2.0000     -12.060161      -328.1737
   8   2.0000     -12.058673      -328.1332
   9   2.0000      -1.722617       -46.8748
  10   2.0000      -1.720804       -46.8255
  11   2.0000      -1.399600       -38.0851
  12   2.0000      -1.308558       -35.6077
  13   2.0000      -1.289060       -35.0771
  14   2.0000      -1.190352       -32.3911
  15   2.0000      -1.160705       -31.5844
  16   2.0000      -1.109477       -30.1904
  17   2.0000      -1.072363       -29.1805
  18   2.0000      -1.036609       -28.2076
  19   2.0000      -0.996768       -27.1234
  20   2.0000      -0.983243       -26.7554
  21   2.0000      -0.953449       -25.9447
  22   2.0000      -0.953338       -25.9416
  23   2.0000      -0.943459       -25.6728
  24   2.0000      -0.917887       -24.9770
  25   2.0000      -0.893382       -24.3102
  26   2.0000      -0.849253       -23.1094
  27   2.0000      -0.830311       -22.5939
  28   2.0000      -0.805906       -21.9298
  29   2.0000      -0.782533       -21.2938
  30   2.0000      -0.662592       -18.0300
  31   2.0000      -0.648182       -17.6379
  32   0.0000      -0.349505        -9.5105
  33   0.0000      -0.251314        -6.8386
  34   0.0000      -0.212500        -5.7824
  35   0.0000      -0.147448        -4.0123
  36   0.0000      -0.070119        -1.9080

MULLIKEN ATOMIC CHARGES
-----------------------
   0 C :   -0.121463
   1 C :   -0.239643
   2 C :    0.151063
   3 C :   -0.316000
   4 C :    0.297334
   5 C :   -0.230444
   6 O :   -0.462508
   7 C :    0.153919
   8 O :   -0.427471
   9 H :    0.169383
  10 H :    0.172982
  11 H :    0.172242
  12 H :    0.164876
  13 H :    0.380980
  14 H :    0.134750
Sum of atomic charges:   -0.0000000

LOEWDIN ATOMIC CHARGES
----------------------
   0 C :   -0.130802
   1 C :   -0.102551
   2 C :   -0.170544
   3 C :   -0.075958
   4 C :   -0.263659
   5 C :   -0.100485
   6 O :    0.050672
   7 C :   -0.212327
   8 O :    0.016988
   9 H :    0.156658
  10 H :    0.159906
  11 H :    0.161844
  12 H :    0.159055
  13 H :    0.213462
  14 H :    0.137741

  Mayer bond orders larger than 0.100000
B(  0-C ,  1-C ) :   1.3957 B(  0-C ,  5-C ) :   1.4463 B(  0-C ,  9-H ) :   0.9730
B(  1-C ,  2-C ) :   1.3530 B(  1-C , 10-H ) :   0.9675 B(  2-C ,  3-C ) :   1.2721
B(  2-C ,  7-C ) :   0.9379 B(  2-C ,  8-O ) :  -0.1166 B(  3-C ,  4-C ) :   1.4187
B(  3-C , 11-H ) :   0.9498 B(  4-C ,  5-C ) :   1.3418 B(  4-C ,  6-O ) :   1.1219
B(  5-C , 12-H ) :   0.9733 B(  6-O , 13-H ) :   0.8465 B(  7-C ,  8-O ) :   1.9999
B(  7-C , 14-H ) :   0.9987

FINAL SINGLE POINT ENERGY      -420.834577657240

DIPOLE MOMENT
-------------

Method             : SCF
Type of density    : Electron Density
Multiplicity       :   1
Irrep              :   0
Energy             :  -420.8421155227400732 Eh
Relativity type    :
Basis              : AO
                                X                 Y                 Z
Electronic contribution:      0.860647662       1.807635069       0.001824292
Nuclear contribution   :     -1.673833009      -2.707288238      -0.001250815
                        -----------------------------------------
Total Dipole Moment    :     -0.813185347      -0.899653168       0.000573477
                        -----------------------------------------
Magnitude (a.u.)       :      1.212702173
Magnitude (Debye)      :      3.082443958

Rotational constants in cm-1:             0.098384             0.042947             0.029896
Rotational constants in MHz :          2949.480238          1287.520006           896.274429

                             ****ORCA TERMINATED NORMALLY****
TOTAL RUN TIME: 0 days 0 hours 2 minutes 35 seconds 246 msec
