                         Program Version 6.0.0  -   RELEASE  -
|  1> ! wb97x-v def2-tzvp def2/J RIJCOSX DEFGRID2 scfconv7 GCP(DFT/TZ) printgap
|  2> %output
|  3>     printlevel normal
|  4> end
|  5> * xyz 0 1
|  6> C -2.6440034226371933 -0.47217695828077955 1.0464226311040328
|  7> C -1.7796263612352645 0.1215837674137386 -0.03101928493620656
|  8> O -2.25993526473484 0.41707407716604 -1.122773401168893
|  9> C -0.31176813328244257 0.30268383560941287 0.2707237508664516
| 10> C 0.4439370047829778 1.0301127362673705 -0.8391855392246257
| 11> C 1.9236774808103771 1.187229850485129 -0.48517213371756424
| 12> C 2.5687020646347025 -0.17037162988689647 -0.2036794044222042
| 13> C 1.8179762058245872 -0.9103974483030361 0.90332360004486
| 14> C 0.33394411617582465 -1.0711516937719092 0.5687362727682915
| 15> H -2.250090594121217 -0.280607873135484 2.0467810788927236
| 16> H -3.66463084699637 -0.09565152785637021 0.9546406824989513
| 17> H -2.672758495601433 -1.5589839861346593 0.9006302113543126
| 18> H -0.25977553824175315 0.8905069312641645 1.2009916339102271
| 19> H 0.3521523584279043 0.45426074604294664 -1.7692624518272255
| 20> H -0.013838433656016887 2.008672535788689 -1.0222529298316356
| 21> H 2.448701641150093 1.6973954378942424 -1.3008888860813874
| 22> H 2.0192958549382545 1.8250708372401536 0.4046723728167909
| 23> H 2.5510188394053035 -0.7759464502594734 -1.1207629068759122
| 24> H 3.6212043061535177 -0.04220024158078967 0.07462717416090311
| 25> H 2.262310424813829 -1.8979202207020387 1.0737257751951215
| 26> H 1.9114545461273773 -0.3477150043699673 1.8423346173743442
| 27> H 0.22014618542765865 -1.7096598215784202 -0.3182578427739906
| 28> H -0.1854693403372496 -1.564813448442469 1.3963493099328252
| 29> *
| 30>
| 31>                          ****END OF INPUT****

CARTESIAN COORDINATES (ANGSTROEM)
---------------------------------
  C     -2.644003   -0.472177    1.046423
  C     -1.779626    0.121584   -0.031019
  O     -2.259935    0.417074   -1.122773
  C     -0.311768    0.302684    0.270724
  C      0.443937    1.030113   -0.839186
  C      1.923677    1.187230   -0.485172
  C      2.568702   -0.170372   -0.203679
  C      1.817976   -0.910397    0.903324
  C      0.333944   -1.071152    0.568736
  H     -2.250091   -0.280608    2.046781
  H     -3.664631   -0.095652    0.954641
  H     -2.672758   -1.558984    0.900630
  H     -0.259776    0.890507    1.200992
  H      0.352152    0.454261   -1.769262
  H     -0.013838    2.008673   -1.022253
  H      2.448702    1.697395   -1.300889
  H      2.019296    1.825071    0.404672
  H      2.551019   -0.775946   -1.120763
  H      3.621204   -0.042200    0.074627
  H      2.262310   -1.897920    1.073726
  H      1.911455   -0.347715    1.842335
  H      0.220146   -1.709660   -0.318258
  H     -0.185469   -1.564813    1.396349

 Total Charge           Charge          ....    0
 Multiplicity           Mult            ....    1
 Number of Electrons    NEL             ....   70
 Basis Dimension        Dim             ....  363

ORBITAL ENERGIES
----------------

  NO   OCC          E(Eh)            E(eV)
   0   2.0000     -21.655191      -589.2677
   1   2.0000     -12.133776      -330.1768
   2   2.0000     -12.057983      -328.1144
   3   2.0000     -12.054109      -328.0090
   4   2.0000     -12.050408      -327.9083
   5   2.0000     -12.046619      -327.8052
   6   2.0000     -12.042085      -327.6818
   7   2.0000     -12.040461      -327.6376
   8   2.0000     -12.038053      -327.5721
   9   2.0000      -1.697914       -46.2026
  10   2.0000      -1.352941       -36.8154
  11   2.0000      -1.287175       -35.0258
  12   2.0000      -1.254328       -34.1320
  13   2.0000      -1.239186       -33.7200
  14   2.0000      -1.134251       -30.8645
  15   2.0000      -1.102385       -29.9974
  16   2.0000      -1.071618       -29.1602
  17   2.0000      -1.024102       -27.8672
  18   2.0000      -0.969332       -26.3769
  19   2.0000      -0.956081       -26.0163
  20   2.0000      -0.914396       -24.8820
  21   2.0000      -0.897117       -24.4118
  22   2.0000      -0.877354       -23.8740
  23   2.0000      -0.874424       -23.7943
  24   2.0000      -0.859755       -23.3951
  25   2.0000      -0.846662       -23.0388
  26   2.0000      -0.833731       -22.6870
  27   2.0000      -0.829079       -22.5604
  28   2.0000      -0.823762       -22.4157
  29   2.0000      -0.805553       -21.9202
  30   2.0000      -0.783375       -21.3167
  31   2.0000      -0.780115       -21.2280
  32   2.0000      -0.760045       -20.6819
  33   2.0000      -0.754859       -20.5407
  34   2.0000      -0.739873       -20.1330
  35   0.0000      -0.307200        -8.3593
  36   0.0000      -0.063477        -1.7273
  37   0.0000      -0.051894        -1.4121
  38   0.0000      -0.036220        -0.9856
  39   0.0000      -0.030807        -0.8383

MULLIKEN ATOMIC CHARGES
-----------------------
   0 C :   -0.377170
   1 C :    0.210583
   2 O :   -0.317131
   3 C :   -0.047833
   4 C :   -0.210724
   5 C :   -0.166889
   6 C :   -0.184535
   7 C :   -0.172704
   8 C :   -0.249397
   9 H :    0.125265
  10 H :    0.144554
  11 H :    0.138851
  12 H :    0.087893
  13 H :    0.107705
  14 H :    0.111305
  15 H :    0.104242
  16 H :    0.086728
  17 H :    0.090228
  18 H :    0.103529
  19 H :    0.104093
  20 H :    0.089628
  21 H :    0.110486
  22 H :    0.111295
Sum of atomic charges:   -0.0000000

LOEWDIN ATOMIC CHARGES
----------------------
   0 C :   -0.262447
   1 C :   -0.313329
   2 O :    0.108496
   3 C :   -0.227116
   4 C :   -0.225880
   5 C :   -0.257906
   6 C :   -0.260012
   7 C :   -0.257282
   8 C :   -0.222078
   9 H :    0.125380
  10 H :    0.133591
  11 H :    0.139807
  12 H :    0.162318
  13 H :    0.143295
  14 H :    0.139570
  15 H :    0.132447
  16 H :    0.132595
  17 H :    0.134604
  18 H :    0.131430
  19 H :    0.132608
  20 H :    0.134305
  21 H :    0.140796
  22 H :    0.134807

  Mayer bond orders larger than 0.100000
B(  0-C ,  1-C ) :   0.9689 B(  0-C ,  9-H ) :   0.9771 B(  0-C , 10-H ) :   0.9750
B(  0-C , 11-H ) :   0.9496 B(  1-C ,  2-O ) :   2.1353 B(  1-C ,  3-C ) :   0.9301
B(  3-C ,  4-C ) :   0.9956 B(  3-C ,  8-C ) :   0.9302 B(  3-C , 12-H ) :   0.9446
B(  4-C ,  5-C ) :   0.9761 B(  4-C , 13-H ) :   0.9717 B(  4-C , 14-H ) :   0.9758
B(  5-C ,  6-C ) :   0.9852 B(  5-C , 15-H ) :   0.9791 B(  5-C , 16-H ) :   0.9740
B(  6-C ,  7-C ) :   0.9927 B(  6-C , 17-H ) :   0.9743 B(  6-C , 18-H ) :   0.9762
B(  7-C ,  8-C ) :   0.9876 B(  7-C , 19-H ) :   0.9765 B(  7-C , 20-H ) :   0.9743
B(  8-C , 21-H ) :   0.9679 B(  8-C , 22-H ) :   0.9728

FINAL SINGLE POINT ENERGY      -388.543102986250

DIPOLE MOMENT
-------------

Method             : SCF
Type of density    : Electron Density
Multiplicity       :   1
Irrep              :   0
Energy             :  -388.5588859319500443 Eh
Relativity type    :
Basis              : AO
                                X                 Y                 Z
Electronic contribution:     -5.488963332       1.545678720      -2.956521763
Nuclear contribution   :      6.071303934      -1.875416315       3.950858102
                        -----------------------------------------
Total Dipole Moment    :      0.582340602      -0.329737595       0.994336339
                        -----------------------------------------
Magnitude (a.u.)       :      1.198562561
Magnitude (Debye)      :      3.046503921

Rotational constants in cm-1:             0.102261             0.036330             0.029325
Rotational constants in MHz :          3065.692767          1089.140050           879.149706

                             ****ORCA TERMINATED NORMALLY****
TOTAL RUN TIME: 0 days 0 hours 3 minutes 39 seconds 234 msec
