                         Program Version 6.0.0  -   RELEASE  -
|  1> ! wb97x-v def2-tzvp def2/J RIJCOSX DEFGRID2 scfconv7 GCP(DFT/TZ) printgap
|  2> %output
|  3>     printlevel normal
|  4> end
|  5> %cpcm
|  6>     smd true
|  7>     smdsolvent "water"
|  8> end
|  9> * xyz 0 1
| 10> C -2.6440034226371933 -0.47217695828077955 1.0464226311040328
| 11> C -1.7796263612352645 0.1215837674137386 -0.03101928493620656
| 12> O -2.25993526473484 0.41707407716604 -1.122773401168893
| 13> C -0.31176813328244257 0.30268383560941287 0.2707237508664516
| 14> C 0.4439370047829778 1.0301127362673705 -0.8391855392246257
| 15> C 1.9236774808103771 1.187229850485129 -0.48517213371756424
| 16> C 2.5687020646347025 -0.17037162988689647 -0.2036794044222042
| 17> C 1.8179762058245872 -0.9103974483030361 0.90332360004486
| 18> C 0.33394411617582465 -1.0711516937719092 0.5687362727682915
| 19> H -2.250090594121217 -0.280607873135484 2.0467810788927236
| 20> H -3.66463084699637 -0.09565152785637021 0.9546406824989513
| 21> H -2.672758495601433 -1.5589839861346593 0.9006302113543126
| 22> H -0.25977553824175315 0.8905069312641645 1.2009916339102271
| 23> H 0.3521523584279043 0.45426074604294664 -1.7692624518272255
| 24> H -0.013838433656016887 2.008672535788689 -1.0222529298316356
| 25> H 2.448701641150093 1.6973954378942424 -1.3008888860813874
| 26> H 2.0192958549382545 1.8250708372401536 0.4046723728167909
| 27> H 2.5510188394053035 -0.7759464502594734 -1.1207629068759122
| 28> H 3.6212043061535177 -0.04220024158078967 0.07462717416090311
| 29> H 2.262310424813829 -1.8979202207020387 1.0737257751951215
| 30> H 1.9114545461273773 -0.3477150043699673 1.8423346173743442
| 31> H 0.22014618542765865 -1.7096598215784202 -0.3182578427739906
| 32> H -0.1854693403372496 -1.564813448442469 1.3963493099328252
| 33> *
| 34>
| 35>                          ****END OF INPUT****

CARTESIAN COORDINATES (ANGSTROEM)
---------------------------------
  C     -2.644003   -0.472177    1.046423
  C     -1.779626    0.121584   -0.031019
  O     -2.259935    0.417074   -1.122773
  C     -0.311768    0.302684    0.270724
  C      0.443937    1.030113   -0.839186
  C      1.923677    1.187230   -0.485172
  C      2.568702   -0.170372   -0.203679
  C      1.817976   -0.910397    0.903324
  C      0.333944   -1.071152    0.568736
  H     -2.250091   -0.280608    2.046781
  H     -3.664631   -0.095652    0.954641
  H     -2.672758   -1.558984    0.900630
  H     -0.259776    0.890507    1.200992
  H      0.352152    0.454261   -1.769262
  H     -0.013838    2.008673   -1.022253
  H      2.448702    1.697395   -1.300889
  H      2.019296    1.825071    0.404672
  H      2.551019   -0.775946   -1.120763
  H      3.621204   -0.042200    0.074627
  H      2.262310   -1.897920    1.073726
  H      1.911455   -0.347715    1.842335
  H      0.220146   -1.709660   -0.318258
  H     -0.185469   -1.564813    1.396349

 Total Charge           Charge          ....    0
 Multiplicity           Mult            ....    1
 Number of Electrons    NEL             ....   70
 Basis Dimension        Dim             ....  363

ORBITAL ENERGIES
----------------

  NO   OCC          E(Eh)            E(eV)
   0   2.0000     -21.666015      -589.5622
   1   2.0000     -12.141077      -330.3755
   2   2.0000     -12.048016      -327.8432
   3   2.0000     -12.039069      -327.5997
   4   2.0000     -12.038055      -327.5721
   5   2.0000     -12.031659      -327.3981
   6   2.0000     -12.031469      -327.3929
   7   2.0000     -12.029967      -327.3520
   8   2.0000     -12.028477      -327.3115
   9   2.0000      -1.712202       -46.5914
  10   2.0000      -1.342289       -36.5255
  11   2.0000      -1.278551       -34.7912
  12   2.0000      -1.242810       -33.8186
  13   2.0000      -1.229499       -33.4564
  14   2.0000      -1.128219       -30.7004
  15   2.0000      -1.091144       -29.6915
  16   2.0000      -1.078975       -29.3604
  17   2.0000      -1.014415       -27.6036
  18   2.0000      -0.969900       -26.3923
  19   2.0000      -0.954161       -25.9641
  20   2.0000      -0.920958       -25.0605
  21   2.0000      -0.889527       -24.2052
  22   2.0000      -0.865451       -23.5501
  23   2.0000      -0.863501       -23.4971
  24   2.0000      -0.850993       -23.1567
  25   2.0000      -0.836022       -22.7493
  26   2.0000      -0.824330       -22.4312
  27   2.0000      -0.820588       -22.3293
  28   2.0000      -0.812252       -22.1025
  29   2.0000      -0.799846       -21.7649
  30   2.0000      -0.772943       -21.0329
  31   2.0000      -0.767850       -20.8942
  32   2.0000      -0.750701       -20.4276
  33   2.0000      -0.743412       -20.2293
  34   2.0000      -0.727584       -19.7986
  35   0.0000      -0.305133        -8.3031
  36   0.0000      -0.055468        -1.5094
  37   0.0000      -0.044598        -1.2136
  38   0.0000      -0.021188        -0.5765
  39   0.0000      -0.016844        -0.4584

MULLIKEN ATOMIC CHARGES
-----------------------
   0 C :   -0.418722
   1 C :    0.291861
   2 O :   -0.460052
   3 C :   -0.040361
   4 C :   -0.232419
   5 C :   -0.195573
   6 C :   -0.207300
   7 C :   -0.193166
   8 C :   -0.259602
   9 H :    0.158025
  10 H :    0.153576
  11 H :    0.169306
  12 H :    0.119686
  13 H :    0.104625
  14 H :    0.116243
  15 H :    0.113644
  16 H :    0.101048
  17 H :    0.098283
  18 H :    0.114442
  19 H :    0.115265
  20 H :    0.102561
  21 H :    0.116228
  22 H :    0.132401
Sum of atomic charges:   -0.0000000

LOEWDIN ATOMIC CHARGES
----------------------
   0 C :   -0.256365
   1 C :   -0.290712
   2 O :    0.027615
   3 C :   -0.219826
   4 C :   -0.234134
   5 C :   -0.258810
   6 C :   -0.262631
   7 C :   -0.257847
   8 C :   -0.217660
   9 H :    0.137445
  10 H :    0.135063
  11 H :    0.150166
  12 H :    0.175121
  13 H :    0.140098
  14 H :    0.137360
  15 H :    0.133367
  16 H :    0.136526
  17 H :    0.135954
  18 H :    0.132880
  19 H :    0.134708
  20 H :    0.137711
  21 H :    0.142833
  22 H :    0.141136

  Mayer bond orders larger than 0.100000
B(  0-C ,  1-C ) :   0.9971 B(  0-C ,  9-H ) :   0.9685 B(  0-C , 10-H ) :   0.9653
B(  0-C , 11-H ) :   0.9379 B(  1-C ,  2-O ) :   1.9701 B(  1-C ,  3-C ) :   0.9443
B(  3-C ,  4-C ) :   0.9875 B(  3-C ,  8-C ) :   0.9349 B(  3-C , 12-H ) :   0.9349
B(  4-C ,  5-C ) :   0.9917 B(  4-C , 13-H ) :   0.9648 B(  4-C , 14-H ) :   0.9727
B(  5-C ,  6-C ) :   0.9888 B(  5-C , 15-H ) :   0.9760 B(  5-C , 16-H ) :   0.9729
B(  6-C ,  7-C ) :   0.9926 B(  6-C , 17-H ) :   0.9729 B(  6-C , 18-H ) :   0.9736
B(  7-C ,  8-C ) :   0.9872 B(  7-C , 19-H ) :   0.9739 B(  7-C , 20-H ) :   0.9725
B(  8-C , 21-H ) :   0.9655 B(  8-C , 22-H ) :   0.9677

FINAL SINGLE POINT ENERGY      -388.550799428608

DIPOLE MOMENT
-------------

Method             : SCF
Type of density    : Electron Density
Multiplicity       :   1
Irrep              :   0
Energy             :  -388.5665823743076430 Eh
Relativity type    :
Basis              : AO
                                X                 Y                 Z
Electronic contribution:     -5.271197987       1.370900235      -2.391402513
Nuclear contribution   :      6.071303934      -1.875416315       3.950858102
                        -----------------------------------------
Total Dipole Moment    :      0.800105946      -0.504516080       1.559455589
                        -----------------------------------------
Magnitude (a.u.)       :      1.823899047
Magnitude (Debye)      :      4.635982951

Rotational constants in cm-1:             0.102261             0.036330             0.029325
Rotational constants in MHz :          3065.692767          1089.140050           879.149706

                             ****ORCA TERMINATED NORMALLY****
TOTAL RUN TIME: 0 days 0 hours 3 minutes 45 seconds 97 msec
