                         Program Version 6.0.0  -   RELEASE  -
|  1> ! wb97x-v def2-tzvp def2/J RIJCOSX DEFGRID2 scfconv7 GCP(DFT/TZ) printgap
|  2> %output
|  3>     printlevel normal
|  4> end
|  5> * xyz 0 1
|  6> C 0.40747426001306236 1.7251992913713647 -0.1449946376345077
|  7> C 0.4304841866029302 0.29288718489237586 0.3293901688763793
|  8> H 0.31185539957097425 0.21772331307856058 1.4124008056848412
|  9> C -0.5285018557032422 -0.6389710004532276 -0.3837970324082792
| 10> Cl -2.2550083445300433 -0.15496819795415126 0.0068560016200290026
| 11> Cl 2.1086301660137283 -0.43084288932385795 -0.009093720096199992
| 12> H 0.5574473157791132 1.782116540725925 -1.2272147312009494
| 13> H -0.5644027068650704 2.167006050655702 0.09756983827465462
| 14> H 1.179138357450563 2.3118538882154143 0.358071726591754
| 15> H -0.42223260927525147 -0.5751002974323716 -1.4683894563388755
| 16> H -0.42166548699549233 -1.6696049736196443 -0.04572668919844405
| 17> *
| 18>
| 19>                          ****END OF INPUT****

CARTESIAN COORDINATES (ANGSTROEM)
---------------------------------
  C      0.407474    1.725199   -0.144995
  C      0.430484    0.292887    0.329390
  H      0.311855    0.217723    1.412401
  C     -0.528502   -0.638971   -0.383797
  Cl    -2.255008   -0.154968    0.006856
  Cl     2.108630   -0.430843   -0.009094
  H      0.557447    1.782117   -1.227215
  H     -0.564403    2.167006    0.097570
  H      1.179138    2.311854    0.358072
  H     -0.422233   -0.575100   -1.468389
  H     -0.421665   -1.669605   -0.045727

 Total Charge           Charge          ....    0
 Multiplicity           Mult            ....    1
 Number of Electrons    NEL             ....   58
 Basis Dimension        Dim             ....  203

ORBITAL ENERGIES
----------------

  NO   OCC          E(Eh)            E(eV)
   0   2.0000    -107.140234     -2915.4340
   1   2.0000    -107.136003     -2915.3188
   2   2.0000     -12.136795      -330.2590
   3   2.0000     -12.127591      -330.0085
   4   2.0000     -12.059436      -328.1539
   5   2.0000     -11.293395      -307.3089
   6   2.0000     -11.289243      -307.1959
   7   2.0000      -9.084905      -247.2128
   8   2.0000      -9.082166      -247.1383
   9   2.0000      -9.082131      -247.1373
  10   2.0000      -9.080440      -247.0913
  11   2.0000      -9.078016      -247.0254
  12   2.0000      -9.077910      -247.0225
  13   2.0000      -1.419567       -38.6284
  14   2.0000      -1.390706       -37.8430
  15   2.0000      -1.291140       -35.1337
  16   2.0000      -1.206366       -32.8269
  17   2.0000      -1.082271       -29.4501
  18   2.0000      -0.941848       -25.6290
  19   2.0000      -0.922916       -25.1138
  20   2.0000      -0.910309       -24.7708
  21   2.0000      -0.868545       -23.6343
  22   2.0000      -0.853345       -23.2207
  23   2.0000      -0.825815       -22.4716
  24   2.0000      -0.815814       -22.1994
  25   2.0000      -0.788438       -21.4545
  26   2.0000      -0.777682       -21.1618
  27   2.0000      -0.774809       -21.0836
  28   2.0000      -0.769192       -20.9308
  29   0.0000      -0.317592        -8.6421
  30   0.0000      -0.235542        -6.4094
  31   0.0000      -0.055365        -1.5066
  32   0.0000      -0.029953        -0.8151
  33   0.0000      -0.019831        -0.5396

MULLIKEN ATOMIC CHARGES
-----------------------
   0 C :   -0.339553
   1 C :    0.006083
   2 H :    0.128275
   3 C :   -0.125602
   4 Cl:   -0.164102
   5 Cl:   -0.177921
   6 H :    0.117916
   7 H :    0.132486
   8 H :    0.133254
   9 H :    0.138264
  10 H :    0.150900
Sum of atomic charges:    0.0000000

LOEWDIN ATOMIC CHARGES
----------------------
   0 C :   -0.308567
   1 C :   -0.483763
   2 H :    0.141147
   3 C :   -0.461835
   4 Cl:    0.234743
   5 Cl:    0.244699
   6 H :    0.125294
   7 H :    0.128140
   8 H :    0.126020
   9 H :    0.127502
  10 H :    0.126618

  Mayer bond orders larger than 0.100000
B(  0-C ,  1-C ) :   0.9975 B(  0-C ,  6-H ) :   0.9665 B(  0-C ,  7-H ) :   0.9573
B(  0-C ,  8-H ) :   0.9736 B(  1-C ,  2-H ) :   0.9639 B(  1-C ,  3-C ) :   0.9995
B(  1-C ,  5-Cl) :   1.0127 B(  3-C ,  4-Cl) :   1.0305 B(  3-C ,  9-H ) :   0.9595
B(  3-C , 10-H ) :   0.9659

FINAL SINGLE POINT ENERGY     -1038.234852110174

DIPOLE MOMENT
-------------

Method             : SCF
Type of density    : Electron Density
Multiplicity       :   1
Irrep              :   0
Energy             : -1038.2421378903736695 Eh
Relativity type    :
Basis              : AO
                                X                 Y                 Z
Electronic contribution:     -0.822190560      -4.526511254       0.710738642
Nuclear contribution   :      0.818597939       4.756854666      -0.728867791
                        -----------------------------------------
Total Dipole Moment    :     -0.003592621       0.230343412      -0.018129149
                        -----------------------------------------
Magnitude (a.u.)       :      0.231083665
Magnitude (Debye)      :      0.587367998

Rotational constants in cm-1:             0.225798             0.047215             0.040752
Rotational constants in MHz :          6769.262527          1415.474249          1221.721298

                             ****ORCA TERMINATED NORMALLY****
TOTAL RUN TIME: 0 days 0 hours 1 minutes 2 seconds 870 msec
