                         Program Version 6.0.0  -   RELEASE  -
|  1> ! wb97x-v def2-tzvp def2/J RIJCOSX DEFGRID2 scfconv7 GCP(DFT/TZ) printgap
|  2> %output
|  3>     printlevel normal
|  4> end
|  5> %cpcm
|  6>     smd true
|  7>     smdsolvent "water"
|  8> end
|  9> * xyz 0 1
| 10> C 0.40747426001306236 1.7251992913713647 -0.1449946376345077
| 11> C 0.4304841866029302 0.29288718489237586 0.3293901688763793
| 12> H 0.31185539957097425 0.21772331307856058 1.4124008056848412
| 13> C -0.5285018557032422 -0.6389710004532276 -0.3837970324082792
| 14> Cl -2.2550083445300433 -0.15496819795415126 0.0068560016200290026
| 15> Cl 2.1086301660137283 -0.43084288932385795 -0.009093720096199992
| 16> H 0.5574473157791132 1.782116540725925 -1.2272147312009494
| 17> H -0.5644027068650704 2.167006050655702 0.09756983827465462
| 18> H 1.179138357450563 2.3118538882154143 0.358071726591754
| 19> H -0.42223260927525147 -0.5751002974323716 -1.4683894563388755
| 20> H -0.42166548699549233 -1.6696049736196443 -0.04572668919844405
| 21> *
| 22>
| 23>                          ****END OF INPUT****

CARTESIAN COORDINATES (ANGSTROEM)
---------------------------------
  C      0.407474    1.725199   -0.144995
  C      0.430484    0.292887    0.329390
  H      0.311855    0.217723    1.412401
  C     -0.528502   -0.638971   -0.383797
  Cl    -2.255008   -0.154968    0.006856
  Cl     2.108630   -0.430843   -0.009094
  H      0.557447    1.782117   -1.227215
  H     -0.564403    2.167006    0.097570
  H      1.179138    2.311854    0.358072
  H     -0.422233   -0.575100   -1.468389
  H     -0.421665   -1.669605   -0.045727

 Total Charge           Charge          ....    0
 Multiplicity           Mult            ....    1
 Number of Electrons    NEL             ....   58
 Basis Dimension        Dim             ....  203

ORBITAL ENERGIES
----------------

  NO   OCC          E(Eh)            E(eV)
   0   2.0000    -107.134377     -2915.2746
   1   2.0000    -107.130677     -2915.1739
   2   2.0000     -12.122086      -329.8587
   3   2.0000     -12.111399      -329.5679
   4   2.0000     -12.040850      -327.6482
   5   2.0000     -11.287628      -307.1520
   6   2.0000     -11.284039      -307.0543
   7   2.0000      -9.079118      -247.0554
   8   2.0000      -9.076499      -246.9841
   9   2.0000      -9.076450      -246.9828
  10   2.0000      -9.075176      -246.9481
  11   2.0000      -9.072899      -246.8861
  12   2.0000      -9.072795      -246.8833
  13   2.0000      -1.410608       -38.3846
  14   2.0000      -1.384491       -37.6739
  15   2.0000      -1.278463       -34.7887
  16   2.0000      -1.190356       -32.3912
  17   2.0000      -1.066409       -29.0185
  18   2.0000      -0.925937       -25.1960
  19   2.0000      -0.911044       -24.7908
  20   2.0000      -0.896093       -24.3839
  21   2.0000      -0.855463       -23.2783
  22   2.0000      -0.840049       -22.8589
  23   2.0000      -0.809390       -22.0246
  24   2.0000      -0.800943       -21.7948
  25   2.0000      -0.783060       -21.3081
  26   2.0000      -0.771959       -21.0061
  27   2.0000      -0.767756       -20.8917
  28   2.0000      -0.760620       -20.6975
  29   0.0000      -0.307653        -8.3717
  30   0.0000      -0.223653        -6.0859
  31   0.0000      -0.039646        -1.0788
  32   0.0000      -0.012573        -0.3421
  33   0.0000      -0.000609        -0.0166

MULLIKEN ATOMIC CHARGES
-----------------------
   0 C :   -0.379073
   1 C :    0.020670
   2 H :    0.158674
   3 C :   -0.145419
   4 Cl:   -0.204305
   5 Cl:   -0.222692
   6 H :    0.138587
   7 H :    0.138462
   8 H :    0.147482
   9 H :    0.171064
  10 H :    0.176550
Sum of atomic charges:    0.0000000

LOEWDIN ATOMIC CHARGES
----------------------
   0 C :   -0.310066
   1 C :   -0.474391
   2 H :    0.149697
   3 C :   -0.452672
   4 Cl:    0.210892
   5 Cl:    0.218216
   6 H :    0.129237
   7 H :    0.130373
   8 H :    0.128917
   9 H :    0.136237
  10 H :    0.133559

  Mayer bond orders larger than 0.100000
B(  0-C ,  1-C ) :   0.9972 B(  0-C ,  6-H ) :   0.9634 B(  0-C ,  7-H ) :   0.9553
B(  0-C ,  8-H ) :   0.9702 B(  1-C ,  2-H ) :   0.9609 B(  1-C ,  3-C ) :   0.9966
B(  1-C ,  5-Cl) :   0.9642 B(  3-C ,  4-Cl) :   0.9963 B(  3-C ,  9-H ) :   0.9536
B(  3-C , 10-H ) :   0.9604

FINAL SINGLE POINT ENERGY     -1038.238783801927

DIPOLE MOMENT
-------------

Method             : SCF
Type of density    : Electron Density
Multiplicity       :   1
Irrep              :   0
Energy             : -1038.2460695821266654 Eh
Relativity type    :
Basis              : AO
                                X                 Y                 Z
Electronic contribution:     -0.832184112      -4.494160984       0.709159933
Nuclear contribution   :      0.818597939       4.756854666      -0.728867791
                        -----------------------------------------
Total Dipole Moment    :     -0.013586173       0.262693681      -0.019707858
                        -----------------------------------------
Magnitude (a.u.)       :      0.263782020
Magnitude (Debye)      :      0.670480610

Rotational constants in cm-1:             0.225798             0.047215             0.040752
Rotational constants in MHz :          6769.262527          1415.474249          1221.721298

                             ****ORCA TERMINATED NORMALLY****
TOTAL RUN TIME: 0 days 0 hours 1 minutes 5 seconds 50 msec
