                         Program Version 6.0.0  -   RELEASE  -
|  1> ! wb97x-v def2-tzvp def2/J RIJCOSX DEFGRID2 scfconv7 GCP(DFT/TZ) printgap
|  2> %output
|  3>     printlevel normal
|  4> end
|  5> * xyz 0 1
|  6> C -2.8202748055606044 1.0359139256263334 0.00011565639150331865
|  7> O -2.2260102749825506 -0.2711069261244931 -9.46196430959965e-05
|  8> C -0.8575893938929068 -0.3434422957767875 -1.662553030661433e-05
|  9> C -0.31753466117483753 -1.63469837342862 8.266416011058429e-07
| 10> C 1.0619381876538034 -1.7898976465217173 6.684337877235899e-05
| 11> C 1.9162212899311375 -0.6894508985170907 0.00011379376882875131
| 12> C 1.3575018211545535 0.5856393938213442 9.308760860644918e-05
| 13> C -0.026431559738435053 0.7774634192002638 3.1782066819576444e-05
| 14> O 2.223533632304043 1.656311316046744 0.0001315965914900771
| 15> H -3.8980106511620836 0.869278569507965 4.9796824742104684e-05
| 16> H -2.5363790980154253 1.5971013635713547 -0.8973109060661294
| 17> H -2.5364280867253988 1.5967698952916118 0.8977656857236853
| 18> H -0.9831524930159152 -2.490894231007268 -2.889070341702188e-05
| 19> H 1.483987000135334 -2.7900605942686862 8.863128853628041e-05
| 20> H 2.9940805196448803 -0.8080241845004411 0.00016762707784613796
| 21> H -0.42239030629826735 1.7864421150037424 1.5248707424743209e-05
| 22> H 1.7129981755506085 2.4779890023497066 0.00014519887102874436
| 23> *
| 24>
| 25>                          ****END OF INPUT****

CARTESIAN COORDINATES (ANGSTROEM)
---------------------------------
  C     -2.820275    1.035914    0.000116
  O     -2.226010   -0.271107   -0.000095
  C     -0.857589   -0.343442   -0.000017
  C     -0.317535   -1.634698    0.000001
  C      1.061938   -1.789898    0.000067
  C      1.916221   -0.689451    0.000114
  C      1.357502    0.585639    0.000093
  C     -0.026432    0.777463    0.000032
  O      2.223534    1.656311    0.000132
  H     -3.898011    0.869279    0.000050
  H     -2.536379    1.597101   -0.897311
  H     -2.536428    1.596770    0.897766
  H     -0.983152   -2.490894   -0.000029
  H      1.483987   -2.790061    0.000089
  H      2.994081   -0.808024    0.000168
  H     -0.422390    1.786442    0.000015
  H      1.712998    2.477989    0.000145

 Total Charge           Charge          ....    0
 Multiplicity           Mult            ....    1
 Number of Electrons    NEL             ....   66
 Basis Dimension        Dim             ....  327

ORBITAL ENERGIES
----------------

  NO   OCC          E(Eh)            E(eV)
   0   2.0000     -21.706351      -590.6598
   1   2.0000     -21.704323      -590.6047
   2   2.0000     -12.117272      -329.7277
   3   2.0000     -12.116868      -329.7167
   4   2.0000     -12.106309      -329.4294
   5   2.0000     -12.055287      -328.0410
   6   2.0000     -12.051117      -327.9276
   7   2.0000     -12.038605      -327.5871
   8   2.0000     -12.038042      -327.5718
   9   2.0000      -1.719574       -46.7920
  10   2.0000      -1.717319       -46.7306
  11   2.0000      -1.386882       -37.7390
  12   2.0000      -1.300733       -35.3948
  13   2.0000      -1.280395       -34.8413
  14   2.0000      -1.232891       -33.5487
  15   2.0000      -1.155663       -31.4472
  16   2.0000      -1.119430       -30.4612
  17   2.0000      -1.076210       -29.2852
  18   2.0000      -1.046405       -28.4741
  19   2.0000      -0.987959       -26.8837
  20   2.0000      -0.981664       -26.7124
  21   2.0000      -0.980441       -26.6792
  22   2.0000      -0.948870       -25.8201
  23   2.0000      -0.948079       -25.7985
  24   2.0000      -0.925833       -25.1932
  25   2.0000      -0.891469       -24.2581
  26   2.0000      -0.841513       -22.8987
  27   2.0000      -0.835778       -22.7427
  28   2.0000      -0.829269       -22.5656
  29   2.0000      -0.824733       -22.4421
  30   2.0000      -0.763637       -20.7796
  31   2.0000      -0.644392       -17.5348
  32   2.0000      -0.632759       -17.2182
  33   0.0000      -0.248493        -6.7618
  34   0.0000      -0.245323        -6.6756
  35   0.0000      -0.188814        -5.1379
  36   0.0000      -0.153613        -4.1800
  37   0.0000      -0.092896        -2.5278

MULLIKEN ATOMIC CHARGES
-----------------------
   0 C :   -0.210998
   1 O :   -0.245355
   2 C :    0.281153
   3 C :   -0.251272
   4 C :   -0.039085
   5 C :   -0.261433
   6 C :    0.251473
   7 C :   -0.297039
   8 O :   -0.388405
   9 H :    0.139776
  10 H :    0.121161
  11 H :    0.121179
  12 H :    0.115912
  13 H :    0.118401
  14 H :    0.120650
  15 H :    0.114360
  16 H :    0.309522
Sum of atomic charges:    0.0000000

LOEWDIN ATOMIC CHARGES
----------------------
   0 C :   -0.311615
   1 O :    0.218459
   2 C :   -0.238149
   3 C :   -0.138588
   4 C :   -0.130120
   5 C :   -0.143227
   6 C :   -0.257693
   7 C :   -0.151238
   8 O :    0.066402
   9 H :    0.113397
  10 H :    0.105538
  11 H :    0.105542
  12 H :    0.145775
  13 H :    0.144491
  14 H :    0.145738
  15 H :    0.141969
  16 H :    0.183317

  Mayer bond orders larger than 0.100000
B(  0-C ,  1-O ) :   0.9513 B(  0-C ,  9-H ) :   0.9784 B(  0-C , 10-H ) :   0.9712
B(  0-C , 11-H ) :   0.9712 B(  1-O ,  2-C ) :   1.1472 B(  2-C ,  3-C ) :   1.3788
B(  2-C ,  7-C ) :   1.3493 B(  3-C ,  4-C ) :   1.4553 B(  3-C , 12-H ) :   0.9761
B(  4-C ,  5-C ) :   1.4105 B(  4-C , 13-H ) :   0.9764 B(  5-C ,  6-C ) :   1.4435
B(  5-C , 14-H ) :   0.9745 B(  6-C ,  7-C ) :   1.3237 B(  6-C ,  8-O ) :   1.1385
B(  7-C , 15-H ) :   0.9272 B(  8-O , 16-H ) :   0.8921

FINAL SINGLE POINT ENERGY      -422.017491611023

DIPOLE MOMENT
-------------

Method             : SCF
Type of density    : Electron Density
Multiplicity       :   1
Irrep              :   0
Energy             :  -422.0273430303231521 Eh
Relativity type    :
Basis              : AO
                                X                 Y                 Z
Electronic contribution:      3.304803644      -1.349311368      -0.000349810
Nuclear contribution   :     -3.896901620       2.139258302       0.000451731
                        -----------------------------------------
Total Dipole Moment    :     -0.592097976       0.789946934       0.000101921
                        -----------------------------------------
Magnitude (a.u.)       :      0.987216381
Magnitude (Debye)      :      2.509304622

Rotational constants in cm-1:             0.094326             0.043332             0.029863
Rotational constants in MHz :          2827.823203          1299.053558           895.260687

                             ****ORCA TERMINATED NORMALLY****
TOTAL RUN TIME: 0 days 0 hours 2 minutes 47 seconds 835 msec
