                         Program Version 6.0.0  -   RELEASE  -
|  1> ! wb97x-v def2-tzvp def2/J RIJCOSX DEFGRID2 scfconv7 GCP(DFT/TZ) printgap
|  2> %output
|  3>     printlevel normal
|  4> end
|  5> %cpcm
|  6>     smd true
|  7>     smdsolvent "water"
|  8> end
|  9> * xyz 0 1
| 10> C -2.8202748055606044 1.0359139256263334 0.00011565639150331865
| 11> O -2.2260102749825506 -0.2711069261244931 -9.46196430959965e-05
| 12> C -0.8575893938929068 -0.3434422957767875 -1.662553030661433e-05
| 13> C -0.31753466117483753 -1.63469837342862 8.266416011058429e-07
| 14> C 1.0619381876538034 -1.7898976465217173 6.684337877235899e-05
| 15> C 1.9162212899311375 -0.6894508985170907 0.00011379376882875131
| 16> C 1.3575018211545535 0.5856393938213442 9.308760860644918e-05
| 17> C -0.026431559738435053 0.7774634192002638 3.1782066819576444e-05
| 18> O 2.223533632304043 1.656311316046744 0.0001315965914900771
| 19> H -3.8980106511620836 0.869278569507965 4.9796824742104684e-05
| 20> H -2.5363790980154253 1.5971013635713547 -0.8973109060661294
| 21> H -2.5364280867253988 1.5967698952916118 0.8977656857236853
| 22> H -0.9831524930159152 -2.490894231007268 -2.889070341702188e-05
| 23> H 1.483987000135334 -2.7900605942686862 8.863128853628041e-05
| 24> H 2.9940805196448803 -0.8080241845004411 0.00016762707784613796
| 25> H -0.42239030629826735 1.7864421150037424 1.5248707424743209e-05
| 26> H 1.7129981755506085 2.4779890023497066 0.00014519887102874436
| 27> *
| 28>
| 29>                          ****END OF INPUT****

CARTESIAN COORDINATES (ANGSTROEM)
---------------------------------
  C     -2.820275    1.035914    0.000116
  O     -2.226010   -0.271107   -0.000095
  C     -0.857589   -0.343442   -0.000017
  C     -0.317535   -1.634698    0.000001
  C      1.061938   -1.789898    0.000067
  C      1.916221   -0.689451    0.000114
  C      1.357502    0.585639    0.000093
  C     -0.026432    0.777463    0.000032
  O      2.223534    1.656311    0.000132
  H     -3.898011    0.869279    0.000050
  H     -2.536379    1.597101   -0.897311
  H     -2.536428    1.596770    0.897766
  H     -0.983152   -2.490894   -0.000029
  H      1.483987   -2.790061    0.000089
  H      2.994081   -0.808024    0.000168
  H     -0.422390    1.786442    0.000015
  H      1.712998    2.477989    0.000145

 Total Charge           Charge          ....    0
 Multiplicity           Mult            ....    1
 Number of Electrons    NEL             ....   66
 Basis Dimension        Dim             ....  327

ORBITAL ENERGIES
----------------

  NO   OCC          E(Eh)            E(eV)
   0   2.0000     -21.706431      -590.6620
   1   2.0000     -21.702415      -590.5527
   2   2.0000     -12.117948      -329.7461
   3   2.0000     -12.117430      -329.7320
   4   2.0000     -12.088461      -328.9437
   5   2.0000     -12.055826      -328.0557
   6   2.0000     -12.046952      -327.8142
   7   2.0000     -12.040309      -327.6335
   8   2.0000     -12.039681      -327.6164
   9   2.0000      -1.719857       -46.7997
  10   2.0000      -1.715785       -46.6889
  11   2.0000      -1.388338       -37.7786
  12   2.0000      -1.300286       -35.3826
  13   2.0000      -1.280406       -34.8416
  14   2.0000      -1.227741       -33.4085
  15   2.0000      -1.154956       -31.4280
  16   2.0000      -1.116031       -30.3688
  17   2.0000      -1.076033       -29.2803
  18   2.0000      -1.042434       -28.3661
  19   2.0000      -0.988862       -26.9083
  20   2.0000      -0.980882       -26.6911
  21   2.0000      -0.979488       -26.6532
  22   2.0000      -0.949016       -25.8240
  23   2.0000      -0.946585       -25.7579
  24   2.0000      -0.925972       -25.1970
  25   2.0000      -0.887336       -24.1456
  26   2.0000      -0.838858       -22.8265
  27   2.0000      -0.825738       -22.4695
  28   2.0000      -0.820435       -22.3252
  29   2.0000      -0.814872       -22.1738
  30   2.0000      -0.765990       -20.8437
  31   2.0000      -0.645395       -17.5621
  32   2.0000      -0.636725       -17.3262
  33   0.0000      -0.251912        -6.8549
  34   0.0000      -0.246369        -6.7040
  35   0.0000      -0.183220        -4.9857
  36   0.0000      -0.147362        -4.0099
  37   0.0000      -0.084840        -2.3086

MULLIKEN ATOMIC CHARGES
-----------------------
   0 C :   -0.225843
   1 O :   -0.302519
   2 C :    0.327794
   3 C :   -0.316684
   4 C :   -0.093870
   5 C :   -0.323727
   6 C :    0.259371
   7 C :   -0.340575
   8 O :   -0.466238
   9 H :    0.159429
  10 H :    0.145326
  11 H :    0.145335
  12 H :    0.151663
  13 H :    0.163144
  14 H :    0.156136
  15 H :    0.183594
  16 H :    0.377667
Sum of atomic charges:    0.0000000

LOEWDIN ATOMIC CHARGES
----------------------
   0 C :   -0.305279
   1 O :    0.194008
   2 C :   -0.249411
   3 C :   -0.155202
   4 C :   -0.141762
   5 C :   -0.160337
   6 C :   -0.267664
   7 C :   -0.136010
   8 O :    0.042324
   9 H :    0.118232
  10 H :    0.114662
  11 H :    0.114664
  12 H :    0.152086
  13 H :    0.154486
  14 H :    0.152022
  15 H :    0.162848
  16 H :    0.210332

  Mayer bond orders larger than 0.100000
B(  0-C ,  1-O ) :   0.9106 B(  0-C ,  9-H ) :   0.9698 B(  0-C , 10-H ) :   0.9689
B(  0-C , 11-H ) :   0.9689 B(  1-O ,  2-C ) :   1.1177 B(  2-C ,  3-C ) :   1.3270
B(  2-C ,  7-C ) :   1.3029 B(  3-C ,  4-C ) :   1.4520 B(  3-C , 12-H ) :   0.9857
B(  4-C ,  5-C ) :   1.4054 B(  4-C , 13-H ) :   0.9750 B(  5-C ,  6-C ) :   1.3981
B(  5-C , 14-H ) :   0.9813 B(  6-C ,  7-C ) :   1.3260 B(  6-C ,  8-O ) :   1.1058
B(  7-C , 15-H ) :   0.9444 B(  8-O , 16-H ) :   0.8489

FINAL SINGLE POINT ENERGY      -422.029467871926

DIPOLE MOMENT
-------------

Method             : SCF
Type of density    : Electron Density
Multiplicity       :   1
Irrep              :   0
Energy             :  -422.0393192912256950 Eh
Relativity type    :
Basis              : AO
                                X                 Y                 Z
Electronic contribution:      3.137298901      -0.922043070      -0.000310916
Nuclear contribution   :     -3.896901620       2.139258302       0.000451731
                        -----------------------------------------
Total Dipole Moment    :     -0.759602719       1.217215232       0.000140815
                        -----------------------------------------
Magnitude (a.u.)       :      1.434785430
Magnitude (Debye)      :      3.646934738

Rotational constants in cm-1:             0.094326             0.043332             0.029863
Rotational constants in MHz :          2827.823203          1299.053558           895.260687

                             ****ORCA TERMINATED NORMALLY****
TOTAL RUN TIME: 0 days 0 hours 2 minutes 51 seconds 479 msec
