                         Program Version 6.0.0  -   RELEASE  -
|  1> ! wb97x-v def2-tzvp def2/J RIJCOSX DEFGRID2 scfconv7 GCP(DFT/TZ) printgap
|  2> %output
|  3>     printlevel normal
|  4> end
|  5> * xyz 0 1
|  6> C -1.9191152617382716 -2.1953516291892066 0.0015173960813952834
|  7> C -0.9207923096542073 -1.0715992047110963 -0.0017286471734090975
|  8> C 0.4500518492051982 -1.327016798824398 -0.0027783535457223947
|  9> C 1.384784395286585 -0.2825414100417777 -0.0014867743105204268
| 10> C 0.9308691003697331 1.0339418449662605 -5.7811924383239434e-05
| 11> C -0.44088540522316705 1.292314526690624 0.0005469496401493581
| 12> C -1.3668956799551557 0.25549116365614566 -0.0004302604209607435
| 13> O -0.828493599894589 2.6176993891003404 0.0012144831468020136
| 14> C 2.8567865656998435 -0.5869527818365142 0.001584544275580966
| 15> H -2.538517331423936 -2.1663550781316907 0.904748449563934
| 16> H -2.5982260085853968 -2.1207131933000913 -0.8545438562146171
| 17> H -1.4206315614971905 -3.166754847734346 -0.039215113193487874
| 18> H 0.8013381336309275 -2.3556731760824583 -0.004829797710268086
| 19> H 1.6308182930327142 1.8639756948879824 -0.0001503766676724932
| 20> H -2.4311568162776065 0.47909986691455864 -0.0006910808295427486
| 21> H -1.7951065002697517 2.6604582568821433 0.0017255384420850931
| 22> H 3.1287151997910576 -1.2133312749077927 -0.8546567604075718
| 23> H 3.4526594098275885 0.327946050070852 -0.0388394243357239
| 24> H 3.139331438028315 -1.1394650236976909 0.9044266022436865
| 25> *
| 26>
| 27>                          ****END OF INPUT****

CARTESIAN COORDINATES (ANGSTROEM)
---------------------------------
  C     -1.919115   -2.195352    0.001517
  C     -0.920792   -1.071599   -0.001729
  C      0.450052   -1.327017   -0.002778
  C      1.384784   -0.282541   -0.001487
  C      0.930869    1.033942   -0.000058
  C     -0.440885    1.292315    0.000547
  C     -1.366896    0.255491   -0.000430
  O     -0.828494    2.617699    0.001214
  C      2.856787   -0.586953    0.001585
  H     -2.538517   -2.166355    0.904748
  H     -2.598226   -2.120713   -0.854544
  H     -1.420632   -3.166755   -0.039215
  H      0.801338   -2.355673   -0.004830
  H      1.630818    1.863976   -0.000150
  H     -2.431157    0.479100   -0.000691
  H     -1.795107    2.660458    0.001726
  H      3.128715   -1.213331   -0.854657
  H      3.452659    0.327946   -0.038839
  H      3.139331   -1.139465    0.904427

 Total Charge           Charge          ....    0
 Multiplicity           Mult            ....    1
 Number of Electrons    NEL             ....   66
 Basis Dimension        Dim             ....  339

ORBITAL ENERGIES
----------------

  NO   OCC          E(Eh)            E(eV)
   0   2.0000     -21.699580      -590.4756
   1   2.0000     -12.110309      -329.5383
   2   2.0000     -12.062032      -328.2246
   3   2.0000     -12.060083      -328.1715
   4   2.0000     -12.044134      -327.7375
   5   2.0000     -12.042495      -327.6929
   6   2.0000     -12.041635      -327.6696
   7   2.0000     -12.037750      -327.5638
   8   2.0000     -12.035314      -327.4975
   9   2.0000      -1.711105       -46.5615
  10   2.0000      -1.385525       -37.7020
  11   2.0000      -1.303381       -35.4668
  12   2.0000      -1.286067       -34.9957
  13   2.0000      -1.197476       -32.5850
  14   2.0000      -1.194123       -32.4937
  15   2.0000      -1.145808       -31.1790
  16   2.0000      -1.082553       -29.4578
  17   2.0000      -1.043061       -28.3831
  18   2.0000      -0.997128       -27.1332
  19   2.0000      -0.945145       -25.7187
  20   2.0000      -0.942794       -25.6547
  21   2.0000      -0.942095       -25.6357
  22   2.0000      -0.884962       -24.0810
  23   2.0000      -0.868545       -23.6343
  24   2.0000      -0.841379       -22.8951
  25   2.0000      -0.835538       -22.7362
  26   2.0000      -0.833049       -22.6684
  27   2.0000      -0.821684       -22.3591
  28   2.0000      -0.810140       -22.0450
  29   2.0000      -0.803858       -21.8741
  30   2.0000      -0.750067       -20.4104
  31   2.0000      -0.631942       -17.1960
  32   2.0000      -0.629101       -17.1187
  33   0.0000      -0.241747        -6.5783
  34   0.0000      -0.237781        -6.4704
  35   0.0000      -0.146429        -3.9845
  36   0.0000      -0.073804        -2.0083
  37   0.0000      -0.067074        -1.8252

MULLIKEN ATOMIC CHARGES
-----------------------
   0 C :   -0.369359
   1 C :    0.198038
   2 C :   -0.347225
   3 C :    0.240379
   4 C :   -0.323191
   5 C :    0.311059
   6 C :   -0.315168
   7 O :   -0.393926
   8 C :   -0.366887
   9 H :    0.123025
  10 H :    0.122221
  11 H :    0.117443
  12 H :    0.107815
  13 H :    0.114793
  14 H :    0.104615
  15 H :    0.310951
  16 H :    0.123253
  17 H :    0.118363
  18 H :    0.123800
Sum of atomic charges:   -0.0000000

LOEWDIN ATOMIC CHARGES
----------------------
   0 C :   -0.249934
   1 C :   -0.165158
   2 C :   -0.115103
   3 C :   -0.162030
   4 C :   -0.107094
   5 C :   -0.254230
   6 C :   -0.130874
   7 O :    0.059862
   8 C :   -0.248970
   9 H :    0.127267
  10 H :    0.126817
  11 H :    0.124409
  12 H :    0.143556
  13 H :    0.147795
  14 H :    0.140466
  15 H :    0.183549
  16 H :    0.127532
  17 H :    0.124223
  18 H :    0.127917

  Mayer bond orders larger than 0.100000
B(  0-C ,  1-C ) :   0.8982 B(  0-C ,  9-H ) :   0.9746 B(  0-C , 10-H ) :   0.9779
B(  0-C , 11-H ) :   0.9977 B(  1-C ,  2-C ) :   1.4372 B(  1-C ,  6-C ) :   1.3653
B(  2-C ,  3-C ) :   1.3591 B(  2-C , 12-H ) :   0.9687 B(  3-C ,  4-C ) :   1.4260
B(  3-C ,  8-C ) :   0.9109 B(  4-C ,  5-C ) :   1.3977 B(  4-C , 13-H ) :   0.9678
B(  5-C ,  6-C ) :   1.3807 B(  5-C ,  7-O ) :   1.1398 B(  6-C , 14-H ) :   0.9528
B(  7-O , 15-H ) :   0.8922 B(  8-C , 16-H ) :   0.9773 B(  8-C , 17-H ) :   0.9978
B(  8-C , 18-H ) :   0.9738

FINAL SINGLE POINT ENERGY      -386.122783673549

DIPOLE MOMENT
-------------

Method             : SCF
Type of density    : Electron Density
Multiplicity       :   1
Irrep              :   0
Energy             :  -386.1338686068489210 Eh
Relativity type    :
Basis              : AO
                                X                 Y                 Z
Electronic contribution:     -1.714467795       6.039481471      -0.012094626
Nuclear contribution   :      1.285129766      -6.399240081       0.016610029
                        -----------------------------------------
Total Dipole Moment    :     -0.429338029      -0.359758609       0.004515404
                        -----------------------------------------
Magnitude (a.u.)       :      0.560158718
Magnitude (Debye)      :      1.423810309

Rotational constants in cm-1:             0.059579             0.058729             0.029903
Rotational constants in MHz :          1786.128108          1760.642974           896.478056

                             ****ORCA TERMINATED NORMALLY****
TOTAL RUN TIME: 0 days 0 hours 4 minutes 10 seconds 578 msec
