                         Program Version 6.0.0  -   RELEASE  -
|  1> ! wb97x-v def2-tzvp def2/J RIJCOSX DEFGRID2 scfconv7 GCP(DFT/TZ) printgap
|  2> %output
|  3>     printlevel normal
|  4> end
|  5> %cpcm
|  6>     smd true
|  7>     smdsolvent "water"
|  8> end
|  9> * xyz 0 1
| 10> C -1.9191152617382716 -2.1953516291892066 0.0015173960813952834
| 11> C -0.9207923096542073 -1.0715992047110963 -0.0017286471734090975
| 12> C 0.4500518492051982 -1.327016798824398 -0.0027783535457223947
| 13> C 1.384784395286585 -0.2825414100417777 -0.0014867743105204268
| 14> C 0.9308691003697331 1.0339418449662605 -5.7811924383239434e-05
| 15> C -0.44088540522316705 1.292314526690624 0.0005469496401493581
| 16> C -1.3668956799551557 0.25549116365614566 -0.0004302604209607435
| 17> O -0.828493599894589 2.6176993891003404 0.0012144831468020136
| 18> C 2.8567865656998435 -0.5869527818365142 0.001584544275580966
| 19> H -2.538517331423936 -2.1663550781316907 0.904748449563934
| 20> H -2.5982260085853968 -2.1207131933000913 -0.8545438562146171
| 21> H -1.4206315614971905 -3.166754847734346 -0.039215113193487874
| 22> H 0.8013381336309275 -2.3556731760824583 -0.004829797710268086
| 23> H 1.6308182930327142 1.8639756948879824 -0.0001503766676724932
| 24> H -2.4311568162776065 0.47909986691455864 -0.0006910808295427486
| 25> H -1.7951065002697517 2.6604582568821433 0.0017255384420850931
| 26> H 3.1287151997910576 -1.2133312749077927 -0.8546567604075718
| 27> H 3.4526594098275885 0.327946050070852 -0.0388394243357239
| 28> H 3.139331438028315 -1.1394650236976909 0.9044266022436865
| 29> *
| 30>
| 31>                          ****END OF INPUT****

CARTESIAN COORDINATES (ANGSTROEM)
---------------------------------
  C     -1.919115   -2.195352    0.001517
  C     -0.920792   -1.071599   -0.001729
  C      0.450052   -1.327017   -0.002778
  C      1.384784   -0.282541   -0.001487
  C      0.930869    1.033942   -0.000058
  C     -0.440885    1.292315    0.000547
  C     -1.366896    0.255491   -0.000430
  O     -0.828494    2.617699    0.001214
  C      2.856787   -0.586953    0.001585
  H     -2.538517   -2.166355    0.904748
  H     -2.598226   -2.120713   -0.854544
  H     -1.420632   -3.166755   -0.039215
  H      0.801338   -2.355673   -0.004830
  H      1.630818    1.863976   -0.000150
  H     -2.431157    0.479100   -0.000691
  H     -1.795107    2.660458    0.001726
  H      3.128715   -1.213331   -0.854657
  H      3.452659    0.327946   -0.038839
  H      3.139331   -1.139465    0.904427

 Total Charge           Charge          ....    0
 Multiplicity           Mult            ....    1
 Number of Electrons    NEL             ....   66
 Basis Dimension        Dim             ....  339

ORBITAL ENERGIES
----------------

  NO   OCC          E(Eh)            E(eV)
   0   2.0000     -21.699679      -590.4783
   1   2.0000     -12.111043      -329.5582
   2   2.0000     -12.060711      -328.1886
   3   2.0000     -12.060170      -328.1739
   4   2.0000     -12.039023      -327.5985
   5   2.0000     -12.038071      -327.5726
   6   2.0000     -12.033970      -327.4610
   7   2.0000     -12.033625      -327.4516
   8   2.0000     -12.033306      -327.4429
   9   2.0000      -1.711676       -46.5771
  10   2.0000      -1.385945       -37.7135
  11   2.0000      -1.301309       -35.4104
  12   2.0000      -1.285577       -34.9823
  13   2.0000      -1.192956       -32.4620
  14   2.0000      -1.188952       -32.3530
  15   2.0000      -1.145483       -31.1702
  16   2.0000      -1.080234       -29.3947
  17   2.0000      -1.041923       -28.3522
  18   2.0000      -0.999126       -27.1876
  19   2.0000      -0.945966       -25.7410
  20   2.0000      -0.945255       -25.7217
  21   2.0000      -0.939004       -25.5516
  22   2.0000      -0.879912       -23.9436
  23   2.0000      -0.864575       -23.5263
  24   2.0000      -0.834666       -22.7124
  25   2.0000      -0.829780       -22.5794
  26   2.0000      -0.825064       -22.4511
  27   2.0000      -0.816122       -22.2078
  28   2.0000      -0.803513       -21.8647
  29   2.0000      -0.797359       -21.6972
  30   2.0000      -0.750246       -20.4152
  31   2.0000      -0.632066       -17.1994
  32   2.0000      -0.631300       -17.1786
  33   0.0000      -0.242779        -6.6064
  34   0.0000      -0.238544        -6.4911
  35   0.0000      -0.145680        -3.9642
  36   0.0000      -0.073450        -1.9987
  37   0.0000      -0.041042        -1.1168

MULLIKEN ATOMIC CHARGES
-----------------------
   0 C :   -0.395583
   1 C :    0.192582
   2 C :   -0.400402
   3 C :    0.206116
   4 C :   -0.380317
   5 C :    0.327121
   6 C :   -0.372941
   7 O :   -0.473572
   8 C :   -0.395379
   9 H :    0.141360
  10 H :    0.141302
  11 H :    0.141196
  12 H :    0.152455
  13 H :    0.150015
  14 H :    0.164390
  15 H :    0.376586
  16 H :    0.141657
  17 H :    0.141773
  18 H :    0.141642
Sum of atomic charges:   -0.0000000

LOEWDIN ATOMIC CHARGES
----------------------
   0 C :   -0.251274
   1 C :   -0.173684
   2 C :   -0.124709
   3 C :   -0.172616
   4 C :   -0.125168
   5 C :   -0.268612
   6 C :   -0.127587
   7 O :    0.033405
   8 C :   -0.251218
   9 H :    0.132569
  10 H :    0.132206
  11 H :    0.129343
  12 H :    0.153050
  13 H :    0.154197
  14 H :    0.156911
  15 H :    0.208850
  16 H :    0.132366
  17 H :    0.129278
  18 H :    0.132691

  Mayer bond orders larger than 0.100000
B(  0-C ,  1-C ) :   0.9150 B(  0-C ,  9-H ) :   0.9678 B(  0-C , 10-H ) :   0.9709
B(  0-C , 11-H ) :   0.9932 B(  1-C ,  2-C ) :   1.4094 B(  1-C ,  6-C ) :   1.3090
B(  2-C ,  3-C ) :   1.3403 B(  2-C , 12-H ) :   0.9804 B(  3-C ,  4-C ) :   1.4250
B(  3-C ,  8-C ) :   0.9247 B(  4-C ,  5-C ) :   1.3603 B(  4-C , 13-H ) :   0.9767
B(  5-C ,  6-C ) :   1.3859 B(  5-C ,  7-O ) :   1.1015 B(  6-C , 14-H ) :   0.9725
B(  7-O , 15-H ) :   0.8508 B(  8-C , 16-H ) :   0.9708 B(  8-C , 17-H ) :   0.9930
B(  8-C , 18-H ) :   0.9675

FINAL SINGLE POINT ENERGY      -386.131265749714

DIPOLE MOMENT
-------------

Method             : SCF
Type of density    : Electron Density
Multiplicity       :   1
Irrep              :   0
Energy             :  -386.1423506830141719 Eh
Relativity type    :
Basis              : AO
                                X                 Y                 Z
Electronic contribution:     -1.940298971       5.870037334      -0.010180267
Nuclear contribution   :      1.285129766      -6.399240081       0.016610029
                        -----------------------------------------
Total Dipole Moment    :     -0.655169205      -0.529202747       0.006429762
                        -----------------------------------------
Magnitude (a.u.)       :      0.842225371
Magnitude (Debye)      :      2.140766765

Rotational constants in cm-1:             0.059579             0.058729             0.029903
Rotational constants in MHz :          1786.128108          1760.642974           896.478056

                             ****ORCA TERMINATED NORMALLY****
TOTAL RUN TIME: 0 days 0 hours 3 minutes 39 seconds 764 msec
