                         Program Version 6.0.0  -   RELEASE  -
|  1> ! pbe def2-sv(p) def2/J RI DEFGRID1 loosescf d4 GCP(DFT/SV(P)) printgap
|  2> %output
|  3>     printlevel normal
|  4> end
|  5> * xyz 0 1
|  6> C 3.059279624 -0.0718925096 0.2580155399
|  7> C 1.9489858541 0.1570367651 -0.766963421
|  8> H 2.429725866 0.3028965266 -1.742869726
|  9> C 1.1293399929 1.4110530011 -0.4509039121
| 10> C 0.221302557 1.2028113318 0.7559670255
| 11> C -0.7803380458 0.0635841724 0.5359138798
| 12> H -1.3093440998 -0.0969463953 1.4833786525
| 13> C 0.0233804924 -1.2218282514 0.2670698295
| 14> H -0.6711253616 -2.0306728595 -0.0094307557
| 15> C 1.0210965849 -1.0576825075 -0.888171663
| 16> O 0.6461648375 -1.5838906189 1.4909192569
| 17> C -1.8420642485 0.3418553419 -0.5477560252
| 18> C -2.9624162486 -0.6998300221 -0.500994417
| 19> C -2.4683503024 1.7280029741 -0.383294369
| 20> H 3.6782174093 -0.9155859598 -0.0403479466
| 21> H 3.6943505079 0.8086904521 0.3262924124
| 22> H 2.6457958349 -0.2786361937 1.2401020295
| 23> H 1.8062336107 2.2458962273 -0.2572711145
| 24> H 0.5243106416 1.6714777127 -1.3215178296
| 25> H 0.8276628394 0.9413589707 1.6241769818
| 26> H -0.302598317 2.1272478487 0.9948702588
| 27> H 1.6239497713 -1.966233091 -0.9664412911
| 28> H 0.4421072919 -0.9716262032 -1.809264797
| 29> H 1.1172116986 -2.4179541171 1.3661806307
| 30> H -1.3712076809 0.2938570449 -1.5340299043
| 31> H -2.5927520691 -1.7025019643 -0.6957547431
| 32> H -3.7148333502 -0.4710028305 -1.252200297
| 33> H -3.4405207121 -0.6938389828 0.4761407363
| 34> H -3.3046024915 1.8370735774 -1.0702477684
| 35> H -1.7558364006 2.518417831 -0.5988260599
| 36> H -2.8405828697 1.8575047723 0.6305262788
| 37> *
| 38>
| 39>                          ****END OF INPUT****

CARTESIAN COORDINATES (ANGSTROEM)
---------------------------------
  C      3.059280   -0.071893    0.258016
  C      1.948986    0.157037   -0.766963
  H      2.429726    0.302897   -1.742870
  C      1.129340    1.411053   -0.450904
  C      0.221303    1.202811    0.755967
  C     -0.780338    0.063584    0.535914
  H     -1.309344   -0.096946    1.483379
  C      0.023380   -1.221828    0.267070
  H     -0.671125   -2.030673   -0.009431
  C      1.021097   -1.057683   -0.888172
  O      0.646165   -1.583891    1.490919
  C     -1.842064    0.341855   -0.547756
  C     -2.962416   -0.699830   -0.500994
  C     -2.468350    1.728003   -0.383294
  H      3.678217   -0.915586   -0.040348
  H      3.694351    0.808690    0.326292
  H      2.645796   -0.278636    1.240102
  H      1.806234    2.245896   -0.257271
  H      0.524311    1.671478   -1.321518
  H      0.827663    0.941359    1.624177
  H     -0.302598    2.127248    0.994870
  H      1.623950   -1.966233   -0.966441
  H      0.442107   -0.971626   -1.809265
  H      1.117212   -2.417954    1.366181
  H     -1.371208    0.293857   -1.534030
  H     -2.592752   -1.702502   -0.695755
  H     -3.714833   -0.471003   -1.252200
  H     -3.440521   -0.693839    0.476141
  H     -3.304602    1.837074   -1.070248
  H     -1.755836    2.518418   -0.598826
  H     -2.840583    1.857505    0.630526

 Total Charge           Charge          ....    0
 Multiplicity           Mult            ....    1
 Number of Electrons    NEL             ....   88
 Basis Dimension        Dim             ....  194

ORBITAL ENERGIES
----------------

  NO   OCC          E(Eh)            E(eV)
   0   2.0000     -18.740827      -509.9638
   1   2.0000      -9.932509      -270.2773
   2   2.0000      -9.893066      -269.2040
   3   2.0000      -9.888552      -269.0812
   4   2.0000      -9.884967      -268.9836
   5   2.0000      -9.881096      -268.8783
   6   2.0000      -9.874930      -268.7105
   7   2.0000      -9.870451      -268.5886
   8   2.0000      -9.870316      -268.5849
   9   2.0000      -9.870273      -268.5838
  10   2.0000      -9.862450      -268.3709
  11   2.0000      -0.918530       -24.9945
  12   2.0000      -0.755086       -20.5469
  13   2.0000      -0.717580       -19.5263
  14   2.0000      -0.663715       -18.0606
  15   2.0000      -0.656032       -17.8515
  16   2.0000      -0.607544       -16.5321
  17   2.0000      -0.600818       -16.3491
  18   2.0000      -0.542528       -14.7629
  19   2.0000      -0.538183       -14.6447
  20   2.0000      -0.508253       -13.8303
  21   2.0000      -0.464206       -12.6317
  22   2.0000      -0.439498       -11.9594
  23   2.0000      -0.430738       -11.7210
  24   2.0000      -0.416435       -11.3318
  25   2.0000      -0.401863       -10.9352
  26   2.0000      -0.381753       -10.3880
  27   2.0000      -0.376437       -10.2434
  28   2.0000      -0.371313       -10.1039
  29   2.0000      -0.354010        -9.6331
  30   2.0000      -0.342256        -9.3133
  31   2.0000      -0.338267        -9.2047
  32   2.0000      -0.334679        -9.1071
  33   2.0000      -0.325652        -8.8614
  34   2.0000      -0.311689        -8.4815
  35   2.0000      -0.304135        -8.2759
  36   2.0000      -0.296882        -8.0786
  37   2.0000      -0.290496        -7.9048
  38   2.0000      -0.286187        -7.7875
  39   2.0000      -0.275185        -7.4882
  40   2.0000      -0.264448        -7.1960
  41   2.0000      -0.255271        -6.9463
  42   2.0000      -0.242560        -6.6004
  43   2.0000      -0.206718        -5.6251
  44   0.0000       0.017688         0.4813
  45   0.0000       0.041389         1.1262
  46   0.0000       0.053190         1.4474
  47   0.0000       0.058177         1.5831
  48   0.0000       0.073424         1.9980

MULLIKEN ATOMIC CHARGES
-----------------------
   0 C :   -0.274585
   1 C :   -0.135974
   2 H :    0.061885
   3 C :   -0.127277
   4 C :   -0.114764
   5 C :   -0.103215
   6 H :    0.060965
   7 C :    0.053856
   8 H :    0.053737
   9 C :   -0.130407
  10 O :   -0.414967
  11 C :   -0.183673
  12 C :   -0.244010
  13 C :   -0.242016
  14 H :    0.086036
  15 H :    0.091604
  16 H :    0.121571
  17 H :    0.077073
  18 H :    0.077142
  19 H :    0.092815
  20 H :    0.079988
  21 H :    0.063629
  22 H :    0.082492
  23 H :    0.295542
  24 H :    0.076556
  25 H :    0.104679
  26 H :    0.095968
  27 H :    0.093409
  28 H :    0.095038
  29 H :    0.111276
  30 H :    0.095625
Sum of atomic charges:   -0.0000000

LOEWDIN ATOMIC CHARGES
----------------------
   0 C :   -0.342614
   1 C :   -0.146954
   2 H :    0.112979
   3 C :   -0.216565
   4 C :   -0.221172
   5 C :   -0.135638
   6 H :    0.119493
   7 C :   -0.043642
   8 H :    0.094909
   9 C :   -0.228675
  10 O :   -0.322399
  11 C :   -0.151483
  12 C :   -0.328730
  13 C :   -0.327874
  14 H :    0.112904
  15 H :    0.114862
  16 H :    0.120138
  17 H :    0.115126
  18 H :    0.111646
  19 H :    0.123498
  20 H :    0.115101
  21 H :    0.109790
  22 H :    0.119863
  23 H :    0.282167
  24 H :    0.111593
  25 H :    0.113349
  26 H :    0.116891
  27 H :    0.117936
  28 H :    0.117209
  29 H :    0.117704
  30 H :    0.118587

  Mayer bond orders larger than 0.100000
B(  0-C ,  1-C ) :   1.1084 B(  0-C , 14-H ) :   0.9481 B(  0-C , 15-H ) :   0.9463
B(  0-C , 16-H ) :   0.9300 B(  1-C ,  2-H ) :   0.8983 B(  1-C ,  3-C ) :   1.0950
B(  1-C ,  9-C ) :   1.0786 B(  3-C ,  4-C ) :   1.1312 B(  3-C , 17-H ) :   0.9148
B(  3-C , 18-H ) :   0.9055 B(  4-C ,  5-C ) :   1.0885 B(  4-C , 19-H ) :   0.9023
B(  4-C , 20-H ) :   0.9014 B(  5-C ,  6-H ) :   0.8711 B(  5-C ,  7-C ) :   1.0399
B(  5-C , 11-C ) :   1.0257 B(  7-C ,  8-H ) :   0.8995 B(  7-C ,  9-C ) :   1.0703
B(  7-C , 10-O ) :   1.0459 B(  9-C , 21-H ) :   0.9079 B(  9-C , 22-H ) :   0.8953
B( 10-O , 23-H ) :   0.8460 B( 11-C , 12-C ) :   1.1130 B( 11-C , 13-C ) :   1.1242
B( 11-C , 24-H ) :   0.8856 B( 12-C , 25-H ) :   0.9403 B( 12-C , 26-H ) :   0.9466
B( 12-C , 27-H ) :   0.9479 B( 13-C , 28-H ) :   0.9472 B( 13-C , 29-H ) :   0.9360
B( 13-C , 30-H ) :   0.9465

Dispersion correction           -0.033228287
FINAL SINGLE POINT ENERGY      -467.193123203306

DIPOLE MOMENT
-------------

Method             : SCF
Type of density    : Electron Density
Multiplicity       :   1
Irrep              :   0
Energy             :  -467.3049066396561102 Eh
Relativity type    :
Basis              : AO
                                X                 Y                 Z
Electronic contribution:      2.378511181      -3.184873373       2.526209503
Nuclear contribution   :     -2.348805823       2.846740386      -2.939226750
                        -----------------------------------------
Total Dipole Moment    :      0.029705357      -0.338132987      -0.413017247
                        -----------------------------------------
Magnitude (a.u.)       :      0.534602255
Magnitude (Debye)      :      1.358850944

Rotational constants in cm-1:             0.057633             0.026899             0.022699
Rotational constants in MHz :          1727.787342           806.414162           680.495349

                             ****ORCA TERMINATED NORMALLY****
TOTAL RUN TIME: 0 days 0 hours 0 minutes 14 seconds 757 msec
