                         Program Version 6.0.0  -   RELEASE  -
|  1> ! wb97x-v def2-tzvp def2/J RIJCOSX DEFGRID2 scfconv7 GCP(DFT/TZ) printgap
|  2> %output
|  3>     printlevel normal
|  4> end
|  5> * xyz 0 1
|  6> C -1.7123951530540953 1.2400311292547954 0.743905830704716
|  7> C -1.4963401902956353 0.08272042843807234 -0.23244551447799341
|  8> C -2.7108063083328733 -0.8508492244030532 -0.19657401465097113
|  9> C -0.23017894513727358 -0.748765416554827 0.03329240716818042
| 10> C 1.1686421856347373 -0.0907358398205288 -0.07320937871798364
| 11> C 1.2563127084531176 0.8312063596933129 -1.2941643037411652
| 12> C 1.542181008180953 0.6925349478763902 1.1941873874804305
| 13> C 2.1923532412862574 -1.2251624301072919 -0.23662568441835777
| 14> H -1.6619177765534978 0.8894152769931889 1.782116884267945
| 15> H -0.9726006453379249 2.034041854264987 0.6178463792963294
| 16> H -2.701107723451337 1.6873327113204681 0.5903389465834348
| 17> H -1.4275627027236615 0.4995559917605728 -1.2463863103483312
| 18> H -3.6314049331046903 -0.310391770450019 -0.4416195788732688
| 19> H -2.602283261751933 -1.6760082290797595 -0.9088811184545478
| 20> H -2.8334941064200807 -1.2849625822464819 0.8035066827724001
| 21> H -0.31794571429917945 -1.2082851157190533 1.029440361969369
| 22> H -0.24868582305760556 -1.5794533117518295 -0.6861033864809921
| 23> H 2.2829453570958878 1.1932379133256794 -1.4237666141509844
| 24> H 0.605974996938055 1.7055199442566444 -1.1869740809847247
| 25> H 0.967482555883112 0.30211147010483586 -2.2098289159221465
| 26> H 1.4739165247802613 0.05175320684266665 2.0806855630483723
| 27> H 0.8986945241291472 1.5600903076829966 1.3538311554278892
| 28> H 2.5741167699598675 1.0556359769626564 1.121582528717138
| 29> H 3.21345970239263 -0.8278344361219719 -0.2640001104314062
| 30> H 2.0183072414408794 -1.7809350725770845 -1.1649339902477616
| 31> H 2.1281055661274317 -1.9333520862960483 0.5981141697673077
| 32> *
| 33>
| 34>                          ****END OF INPUT****

CARTESIAN COORDINATES (ANGSTROEM)
---------------------------------
  C     -1.712395    1.240031    0.743906
  C     -1.496340    0.082720   -0.232446
  C     -2.710806   -0.850849   -0.196574
  C     -0.230179   -0.748765    0.033292
  C      1.168642   -0.090736   -0.073209
  C      1.256313    0.831206   -1.294164
  C      1.542181    0.692535    1.194187
  C      2.192353   -1.225162   -0.236626
  H     -1.661918    0.889415    1.782117
  H     -0.972601    2.034042    0.617846
  H     -2.701108    1.687333    0.590339
  H     -1.427563    0.499556   -1.246386
  H     -3.631405   -0.310392   -0.441620
  H     -2.602283   -1.676008   -0.908881
  H     -2.833494   -1.284963    0.803507
  H     -0.317946   -1.208285    1.029440
  H     -0.248686   -1.579453   -0.686103
  H      2.282945    1.193238   -1.423767
  H      0.605975    1.705520   -1.186974
  H      0.967483    0.302111   -2.209829
  H      1.473917    0.051753    2.080686
  H      0.898695    1.560090    1.353831
  H      2.574117    1.055636    1.121583
  H      3.213460   -0.827834   -0.264000
  H      2.018307   -1.780935   -1.164934
  H      2.128106   -1.933352    0.598114

 Total Charge           Charge          ....    0
 Multiplicity           Mult            ....    1
 Number of Electrons    NEL             ....   66
 Basis Dimension        Dim             ....  356

ORBITAL ENERGIES
----------------

  NO   OCC          E(Eh)            E(eV)
   0   2.0000     -12.054185      -328.0111
   1   2.0000     -12.045660      -327.7791
   2   2.0000     -12.034130      -327.4653
   3   2.0000     -12.030288      -327.3608
   4   2.0000     -12.029941      -327.3513
   5   2.0000     -12.029901      -327.3502
   6   2.0000     -12.028943      -327.3242
   7   2.0000     -12.027615      -327.2880
   8   2.0000      -1.335485       -36.3404
   9   2.0000      -1.293007       -35.1845
  10   2.0000      -1.178612       -32.0717
  11   2.0000      -1.174561       -31.9614
  12   2.0000      -1.169497       -31.8236
  13   2.0000      -1.167617       -31.7725
  14   2.0000      -1.046131       -28.4667
  15   2.0000      -0.993219       -27.0269
  16   2.0000      -0.901602       -24.5338
  17   2.0000      -0.886985       -24.1361
  18   2.0000      -0.882507       -24.0142
  19   2.0000      -0.865561       -23.5531
  20   2.0000      -0.844647       -22.9840
  21   2.0000      -0.833293       -22.6751
  22   2.0000      -0.816428       -22.2161
  23   2.0000      -0.810767       -22.0621
  24   2.0000      -0.804243       -21.8846
  25   2.0000      -0.791665       -21.5423
  26   2.0000      -0.790928       -21.5223
  27   2.0000      -0.784075       -21.3358
  28   2.0000      -0.773674       -21.0527
  29   2.0000      -0.764259       -20.7966
  30   2.0000      -0.750860       -20.4319
  31   2.0000      -0.749084       -20.3836
  32   2.0000      -0.738441       -20.0940
  33   0.0000      -0.055040        -1.4977
  34   0.0000      -0.035697        -0.9714
  35   0.0000      -0.030162        -0.8207
  36   0.0000      -0.022012        -0.5990
  37   0.0000      -0.019379        -0.5273

MULLIKEN ATOMIC CHARGES
-----------------------
   0 C :   -0.364351
   1 C :    0.003583
   2 C :   -0.343537
   3 C :   -0.262555
   4 C :    0.137246
   5 C :   -0.381525
   6 C :   -0.354632
   7 C :   -0.355649
   8 H :    0.110330
   9 H :    0.104251
  10 H :    0.112253
  11 H :    0.078133
  12 H :    0.111867
  13 H :    0.108330
  14 H :    0.103497
  15 H :    0.098119
  16 H :    0.096036
  17 H :    0.113700
  18 H :    0.113778
  19 H :    0.114746
  20 H :    0.109717
  21 H :    0.106413
  22 H :    0.109241
  23 H :    0.110501
  24 H :    0.109509
  25 H :    0.110998
Sum of atomic charges:    0.0000000

LOEWDIN ATOMIC CHARGES
----------------------
   0 C :   -0.283105
   1 C :   -0.307865
   2 C :   -0.282694
   3 C :   -0.201205
   4 C :   -0.353762
   5 C :   -0.259298
   6 C :   -0.259238
   7 C :   -0.261768
   8 H :    0.119867
   9 H :    0.111409
  10 H :    0.118805
  11 H :    0.146804
  12 H :    0.116575
  13 H :    0.116625
  14 H :    0.118675
  15 H :    0.139846
  16 H :    0.143439
  17 H :    0.121298
  18 H :    0.119183
  19 H :    0.121414
  20 H :    0.120302
  21 H :    0.116313
  22 H :    0.120388
  23 H :    0.118745
  24 H :    0.118431
  25 H :    0.120815

  Mayer bond orders larger than 0.100000
B(  0-C ,  1-C ) :   0.9741 B(  0-C ,  8-H ) :   0.9734 B(  0-C ,  9-H ) :   0.9830
B(  0-C , 10-H ) :   0.9824 B(  1-C ,  2-C ) :   0.9769 B(  1-C ,  3-C ) :   0.9750
B(  1-C , 11-H ) :   0.9681 B(  2-C , 12-H ) :   0.9865 B(  2-C , 13-H ) :   0.9837
B(  2-C , 14-H ) :   0.9770 B(  3-C ,  4-C ) :   0.9331 B(  3-C , 15-H ) :   0.9726
B(  3-C , 16-H ) :   0.9783 B(  4-C ,  5-C ) :   0.9541 B(  4-C ,  6-C ) :   0.9859
B(  4-C ,  7-C ) :   0.9749 B(  5-C , 17-H ) :   0.9777 B(  5-C , 18-H ) :   0.9777
B(  5-C , 19-H ) :   0.9820 B(  6-C , 20-H ) :   0.9804 B(  6-C , 21-H ) :   0.9729
B(  6-C , 22-H ) :   0.9812 B(  7-C , 23-H ) :   0.9829 B(  7-C , 24-H ) :   0.9759
B(  7-C , 25-H ) :   0.9788

FINAL SINGLE POINT ENERGY      -315.713255350199

DIPOLE MOMENT
-------------

Method             : SCF
Type of density    : Electron Density
Multiplicity       :   1
Irrep              :   0
Energy             :  -315.7326601025994819 Eh
Relativity type    :
Basis              : AO
                                X                 Y                 Z
Electronic contribution:      0.188476263      -0.408187585      -0.503235681
Nuclear contribution   :     -0.202008515       0.420439320       0.460588916
                        -----------------------------------------
Total Dipole Moment    :     -0.013532252       0.012251735      -0.042646765
                        -----------------------------------------
Magnitude (a.u.)       :      0.046389368
Magnitude (Debye)      :      0.117912403

Rotational constants in cm-1:             0.099199             0.040734             0.036919
Rotational constants in MHz :          2973.920506          1221.186398          1106.813740

                             ****ORCA TERMINATED NORMALLY****
TOTAL RUN TIME: 0 days 0 hours 4 minutes 10 seconds 786 msec
