                         Program Version 6.0.0  -   RELEASE  -
|  1> ! wb97x-v def2-tzvp def2/J RIJCOSX DEFGRID2 scfconv7 GCP(DFT/TZ) printgap
|  2> %output
|  3>     printlevel normal
|  4> end
|  5> %cpcm
|  6>     smd true
|  7>     smdsolvent "water"
|  8> end
|  9> * xyz 0 1
| 10> C -1.7123951530540953 1.2400311292547954 0.743905830704716
| 11> C -1.4963401902956353 0.08272042843807234 -0.23244551447799341
| 12> C -2.7108063083328733 -0.8508492244030532 -0.19657401465097113
| 13> C -0.23017894513727358 -0.748765416554827 0.03329240716818042
| 14> C 1.1686421856347373 -0.0907358398205288 -0.07320937871798364
| 15> C 1.2563127084531176 0.8312063596933129 -1.2941643037411652
| 16> C 1.542181008180953 0.6925349478763902 1.1941873874804305
| 17> C 2.1923532412862574 -1.2251624301072919 -0.23662568441835777
| 18> H -1.6619177765534978 0.8894152769931889 1.782116884267945
| 19> H -0.9726006453379249 2.034041854264987 0.6178463792963294
| 20> H -2.701107723451337 1.6873327113204681 0.5903389465834348
| 21> H -1.4275627027236615 0.4995559917605728 -1.2463863103483312
| 22> H -3.6314049331046903 -0.310391770450019 -0.4416195788732688
| 23> H -2.602283261751933 -1.6760082290797595 -0.9088811184545478
| 24> H -2.8334941064200807 -1.2849625822464819 0.8035066827724001
| 25> H -0.31794571429917945 -1.2082851157190533 1.029440361969369
| 26> H -0.24868582305760556 -1.5794533117518295 -0.6861033864809921
| 27> H 2.2829453570958878 1.1932379133256794 -1.4237666141509844
| 28> H 0.605974996938055 1.7055199442566444 -1.1869740809847247
| 29> H 0.967482555883112 0.30211147010483586 -2.2098289159221465
| 30> H 1.4739165247802613 0.05175320684266665 2.0806855630483723
| 31> H 0.8986945241291472 1.5600903076829966 1.3538311554278892
| 32> H 2.5741167699598675 1.0556359769626564 1.121582528717138
| 33> H 3.21345970239263 -0.8278344361219719 -0.2640001104314062
| 34> H 2.0183072414408794 -1.7809350725770845 -1.1649339902477616
| 35> H 2.1281055661274317 -1.9333520862960483 0.5981141697673077
| 36> *
| 37>
| 38>                          ****END OF INPUT****

CARTESIAN COORDINATES (ANGSTROEM)
---------------------------------
  C     -1.712395    1.240031    0.743906
  C     -1.496340    0.082720   -0.232446
  C     -2.710806   -0.850849   -0.196574
  C     -0.230179   -0.748765    0.033292
  C      1.168642   -0.090736   -0.073209
  C      1.256313    0.831206   -1.294164
  C      1.542181    0.692535    1.194187
  C      2.192353   -1.225162   -0.236626
  H     -1.661918    0.889415    1.782117
  H     -0.972601    2.034042    0.617846
  H     -2.701108    1.687333    0.590339
  H     -1.427563    0.499556   -1.246386
  H     -3.631405   -0.310392   -0.441620
  H     -2.602283   -1.676008   -0.908881
  H     -2.833494   -1.284963    0.803507
  H     -0.317946   -1.208285    1.029440
  H     -0.248686   -1.579453   -0.686103
  H      2.282945    1.193238   -1.423767
  H      0.605975    1.705520   -1.186974
  H      0.967483    0.302111   -2.209829
  H      1.473917    0.051753    2.080686
  H      0.898695    1.560090    1.353831
  H      2.574117    1.055636    1.121583
  H      3.213460   -0.827834   -0.264000
  H      2.018307   -1.780935   -1.164934
  H      2.128106   -1.933352    0.598114

 Total Charge           Charge          ....    0
 Multiplicity           Mult            ....    1
 Number of Electrons    NEL             ....   66
 Basis Dimension        Dim             ....  356

ORBITAL ENERGIES
----------------

  NO   OCC          E(Eh)            E(eV)
   0   2.0000     -12.045688      -327.7798
   1   2.0000     -12.036470      -327.5290
   2   2.0000     -12.024320      -327.1984
   3   2.0000     -12.021362      -327.1179
   4   2.0000     -12.020232      -327.0871
   5   2.0000     -12.020148      -327.0849
   6   2.0000     -12.019927      -327.0788
   7   2.0000     -12.018534      -327.0409
   8   2.0000      -1.326316       -36.0909
   9   2.0000      -1.283981       -34.9389
  10   2.0000      -1.169591       -31.8262
  11   2.0000      -1.165695       -31.7202
  12   2.0000      -1.161041       -31.5935
  13   2.0000      -1.159066       -31.5398
  14   2.0000      -1.037412       -28.2294
  15   2.0000      -0.984442       -26.7880
  16   2.0000      -0.892390       -24.2832
  17   2.0000      -0.877878       -23.8883
  18   2.0000      -0.873443       -23.7676
  19   2.0000      -0.856645       -23.3105
  20   2.0000      -0.835630       -22.7386
  21   2.0000      -0.824385       -22.4326
  22   2.0000      -0.807537       -21.9742
  23   2.0000      -0.802048       -21.8248
  24   2.0000      -0.795516       -21.6471
  25   2.0000      -0.782725       -21.2990
  26   2.0000      -0.782005       -21.2794
  27   2.0000      -0.774732       -21.0815
  28   2.0000      -0.764798       -20.8112
  29   2.0000      -0.755468       -20.5573
  30   2.0000      -0.741776       -20.1848
  31   2.0000      -0.740157       -20.1407
  32   2.0000      -0.729104       -19.8399
  33   0.0000      -0.045632        -1.2417
  34   0.0000      -0.025195        -0.6856
  35   0.0000      -0.020921        -0.5693
  36   0.0000      -0.012286        -0.3343
  37   0.0000      -0.009661        -0.2629

MULLIKEN ATOMIC CHARGES
-----------------------
   0 C :   -0.424777
   1 C :    0.025147
   2 C :   -0.402686
   3 C :   -0.302445
   4 C :    0.198466
   5 C :   -0.443912
   6 C :   -0.423431
   7 C :   -0.422541
   8 H :    0.121859
   9 H :    0.128096
  10 H :    0.127337
  11 H :    0.084449
  12 H :    0.128023
  13 H :    0.124273
  14 H :    0.117324
  15 H :    0.112060
  16 H :    0.109217
  17 H :    0.129308
  18 H :    0.131314
  19 H :    0.129300
  20 H :    0.125593
  21 H :    0.123926
  22 H :    0.125566
  23 H :    0.127206
  24 H :    0.125957
  25 H :    0.125370
Sum of atomic charges:    0.0000000

LOEWDIN ATOMIC CHARGES
----------------------
   0 C :   -0.289793
   1 C :   -0.307034
   2 C :   -0.290751
   3 C :   -0.203063
   4 C :   -0.351349
   5 C :   -0.265621
   6 C :   -0.266600
   7 C :   -0.269368
   8 H :    0.120925
   9 H :    0.115686
  10 H :    0.120033
  11 H :    0.148341
  12 H :    0.118514
  13 H :    0.118493
  14 H :    0.120188
  15 H :    0.141646
  16 H :    0.145256
  17 H :    0.122685
  18 H :    0.122061
  19 H :    0.123394
  20 H :    0.122072
  21 H :    0.118549
  22 H :    0.122115
  23 H :    0.120757
  24 H :    0.120591
  25 H :    0.122271

  Mayer bond orders larger than 0.100000
B(  0-C ,  1-C ) :   0.9640 B(  0-C ,  8-H ) :   0.9726 B(  0-C ,  9-H ) :   0.9804
B(  0-C , 10-H ) :   0.9805 B(  1-C ,  2-C ) :   0.9624 B(  1-C ,  3-C ) :   0.9769
B(  1-C , 11-H ) :   0.9684 B(  2-C , 12-H ) :   0.9844 B(  2-C , 13-H ) :   0.9821
B(  2-C , 14-H ) :   0.9766 B(  3-C ,  4-C ) :   0.9320 B(  3-C , 15-H ) :   0.9731
B(  3-C , 16-H ) :   0.9777 B(  4-C ,  5-C ) :   0.9402 B(  4-C ,  6-C ) :   0.9668
B(  4-C ,  7-C ) :   0.9541 B(  5-C , 17-H ) :   0.9772 B(  5-C , 18-H ) :   0.9766
B(  5-C , 19-H ) :   0.9802 B(  6-C , 20-H ) :   0.9797 B(  6-C , 21-H ) :   0.9728
B(  6-C , 22-H ) :   0.9809 B(  7-C , 23-H ) :   0.9819 B(  7-C , 24-H ) :   0.9761
B(  7-C , 25-H ) :   0.9786

FINAL SINGLE POINT ENERGY      -315.709280609568

DIPOLE MOMENT
-------------

Method             : SCF
Type of density    : Electron Density
Multiplicity       :   1
Irrep              :   0
Energy             :  -315.7286853619675639 Eh
Relativity type    :
Basis              : AO
                                X                 Y                 Z
Electronic contribution:      0.190101557      -0.391207841      -0.525155551
Nuclear contribution   :     -0.202008515       0.420439320       0.460588916
                        -----------------------------------------
Total Dipole Moment    :     -0.011906959       0.029231479      -0.064566636
                        -----------------------------------------
Magnitude (a.u.)       :      0.071868668
Magnitude (Debye)      :      0.182675637

Rotational constants in cm-1:             0.099199             0.040734             0.036919
Rotational constants in MHz :          2973.920506          1221.186398          1106.813740

                             ****ORCA TERMINATED NORMALLY****
TOTAL RUN TIME: 0 days 0 hours 4 minutes 22 seconds 882 msec
