                         Program Version 6.0.0  -   RELEASE  -
|  1> ! pbe def2-sv(p) def2/J RI DEFGRID1 loosescf d4 GCP(DFT/SV(P)) printgap
|  2> %output
|  3>     printlevel normal
|  4> end
|  5> * xyz 0 1
|  6> C 0.7437245605 -1.167351041 0.3230365737
|  7> C -0.7869787964 -1.2222035811 0.090492786
|  8> N -1.3016112334 0.0172367721 -0.4700541647
|  9> C -0.7734630363 1.1546296663 0.2609945398
| 10> C 0.7712996322 1.2283227873 0.1823892268
| 11> N 1.262391806 -0.0144777363 -0.3963755772
| 12> H 1.2244840732 -2.0642778669 -0.0690858802
| 13> H 0.9609470049 -1.1054691233 1.4043796521
| 14> H -1.0447653861 -2.0309172259 -0.5930302756
| 15> H -1.3026979826 -1.3972019651 1.0395300865
| 16> H -0.9848755323 0.0895505251 -1.4328805895
| 17> H -1.2214059053 2.0626456551 -0.1439843802
| 18> H -1.0952925528 1.0493594835 1.3008686426
| 19> H 1.087206932 2.0429751654 -0.4729591995
| 20> H 1.1869686244 1.4141127222 1.18856476
| 21> H 2.2756952626 -0.0204423575 -0.392413923
| 22> *
| 23>
| 24>                          ****END OF INPUT****

CARTESIAN COORDINATES (ANGSTROEM)
---------------------------------
  C      0.743725   -1.167351    0.323037
  C     -0.786979   -1.222204    0.090493
  N     -1.301611    0.017237   -0.470054
  C     -0.773463    1.154630    0.260995
  C      0.771300    1.228323    0.182389
  N      1.262392   -0.014478   -0.396376
  H      1.224484   -2.064278   -0.069086
  H      0.960947   -1.105469    1.404380
  H     -1.044765   -2.030917   -0.593030
  H     -1.302698   -1.397202    1.039530
  H     -0.984876    0.089551   -1.432881
  H     -1.221406    2.062646   -0.143984
  H     -1.095293    1.049359    1.300869
  H      1.087207    2.042975   -0.472959
  H      1.186969    1.414113    1.188565
  H      2.275695   -0.020442   -0.392414

 Total Charge           Charge          ....    0
 Multiplicity           Mult            ....    1
 Number of Electrons    NEL             ....   48
 Basis Dimension        Dim             ....  104

ORBITAL ENERGIES
----------------

  NO   OCC          E(Eh)            E(eV)
   0   2.0000     -13.971796      -380.1919
   1   2.0000     -13.961781      -379.9194
   2   2.0000      -9.904301      -269.5097
   3   2.0000      -9.903779      -269.4955
   4   2.0000      -9.902986      -269.4739
   5   2.0000      -9.901132      -269.4235
   6   2.0000      -0.846313       -23.0293
   7   2.0000      -0.784397       -21.3445
   8   2.0000      -0.675029       -18.3685
   9   2.0000      -0.594810       -16.1856
  10   2.0000      -0.564466       -15.3599
  11   2.0000      -0.498315       -13.5598
  12   2.0000      -0.463951       -12.6247
  13   2.0000      -0.434858       -11.8331
  14   2.0000      -0.414827       -11.2880
  15   2.0000      -0.380965       -10.3666
  16   2.0000      -0.356334        -9.6963
  17   2.0000      -0.336803        -9.1649
  18   2.0000      -0.334083        -9.0909
  19   2.0000      -0.330877        -9.0036
  20   2.0000      -0.303315        -8.2536
  21   2.0000      -0.280339        -7.6284
  22   2.0000      -0.177319        -4.8251
  23   2.0000      -0.169727        -4.6185
  24   0.0000       0.024444         0.6652
  25   0.0000       0.055622         1.5135
  26   0.0000       0.070806         1.9267
  27   0.0000       0.074254         2.0206
  28   0.0000       0.087653         2.3852

MULLIKEN ATOMIC CHARGES
-----------------------
   0 C :   -0.081782
   1 C :   -0.062394
   2 N :   -0.331517
   3 C :   -0.094504
   4 C :   -0.062799
   5 N :   -0.376085
   6 H :    0.080089
   7 H :    0.053108
   8 H :    0.084785
   9 H :    0.078134
  10 H :    0.201399
  11 H :    0.091403
  12 H :    0.080397
  13 H :    0.077568
  14 H :    0.055623
  15 H :    0.206576
Sum of atomic charges:    0.0000000

LOEWDIN ATOMIC CHARGES
----------------------
   0 C :   -0.190425
   1 C :   -0.177538
   2 N :   -0.250879
   3 C :   -0.179338
   4 C :   -0.189979
   5 N :   -0.270645
   6 H :    0.112344
   7 H :    0.084771
   8 H :    0.114060
   9 H :    0.108791
  10 H :    0.206774
  11 H :    0.115149
  12 H :    0.111111
  13 H :    0.108450
  14 H :    0.087107
  15 H :    0.210246

  Mayer bond orders larger than 0.100000
B(  0-C ,  1-C ) :   1.0675 B(  0-C ,  5-N ) :   1.1013 B(  0-C ,  6-H ) :   0.9297
B(  0-C ,  7-H ) :   0.9033 B(  1-C ,  2-N ) :   1.1358 B(  1-C ,  8-H ) :   0.9343
B(  1-C ,  9-H ) :   0.9297 B(  2-N ,  3-C ) :   1.1399 B(  2-N , 10-H ) :   0.8738
B(  3-C ,  4-C ) :   1.0786 B(  3-C , 11-H ) :   0.9382 B(  3-C , 12-H ) :   0.9241
B(  4-C ,  5-N ) :   1.1044 B(  4-C , 13-H ) :   0.9273 B(  4-C , 14-H ) :   0.9069
B(  5-N , 15-H ) :   0.8806

Dispersion correction           -0.013028079
FINAL SINGLE POINT ENERGY      -267.280786794173

DIPOLE MOMENT
-------------

Method             : SCF
Type of density    : Electron Density
Multiplicity       :   1
Irrep              :   0
Energy             :  -267.3457460266624253 Eh
Relativity type    :
Basis              : AO
                                X                 Y                 Z
Electronic contribution:     -0.400135794      -0.019693636      -1.602511193
Nuclear contribution   :      1.018881242       0.037856021       1.711151517
                        -----------------------------------------
Total Dipole Moment    :      0.618745447       0.018162384       0.108640324
                        -----------------------------------------
Magnitude (a.u.)       :      0.628473166
Magnitude (Debye)      :      1.597451837

Rotational constants in cm-1:             0.158111             0.153266             0.092045
Rotational constants in MHz :          4740.048593          4594.789378          2759.427206

                             ****ORCA TERMINATED NORMALLY****
TOTAL RUN TIME: 0 days 0 hours 0 minutes 5 seconds 107 msec
