                         Program Version 6.0.0  -   RELEASE  -
|  1> ! pbe def2-sv(p) def2/J RI DEFGRID1 loosescf d4 GCP(DFT/SV(P)) printgap
|  2> %output
|  3>     printlevel normal
|  4> end
|  5> * xyz 0 1
|  6> C 3.7295685995 -0.2510933836 -0.1508789708
|  7> C 2.2453234851 -0.1779748001 -0.0664360867
|  8> C 1.5548002314 0.9093872563 -0.4398773543
|  9> C 0.10623337 1.0097367684 -0.381481135
| 10> O -0.4626501453 2.0791079227 -0.5807958228
| 11> C -0.6408730125 -0.2802357343 -0.0773939489
| 12> H -0.6141877724 -0.8722943899 -1.0022765132
| 13> C 0.1494673589 -1.043321919 0.990169076
| 14> C 1.5413444346 -1.3831088453 0.4655966481
| 15> C -2.1164358478 -0.0025837537 0.2729830505
| 16> C -2.8937180805 0.339482025 -0.9996653529
| 17> C -2.79734472 -1.1758558928 0.9759994216
| 18> H 4.1519818868 -0.3039914444 0.8516089988
| 19> H 4.140947828 0.615374407 -0.6598657482
| 20> H 4.0275689349 -1.1553980808 -0.6778387958
| 21> H 2.0615017119 1.7983988341 -0.790420405
| 22> H 0.2307908918 -0.4257702099 1.8878089702
| 23> H -0.3665641659 -1.9648620351 1.2525218922
| 24> H 2.1409909753 -1.8457485501 1.2508809325
| 25> H 1.4521216067 -2.1110563403 -0.3476482358
| 26> H -2.1446372549 0.8708570518 0.935243183
| 27> H -2.913594368 -0.5152895026 -1.673089107
| 28> H -2.4339402949 1.1802853784 -1.5124502191
| 29> H -3.918241889 0.6101491231 -0.7557310827
| 30> H -3.8586200528 -0.9639310211 1.0820180655
| 31> H -2.3892905618 -1.3385211562 1.9691936411
| 32> H -2.6900808889 -2.0860388519 0.3903830944
| 33> *
| 34>
| 35>                          ****END OF INPUT****

CARTESIAN COORDINATES (ANGSTROEM)
---------------------------------
  C      3.729569   -0.251093   -0.150879
  C      2.245323   -0.177975   -0.066436
  C      1.554800    0.909387   -0.439877
  C      0.106233    1.009737   -0.381481
  O     -0.462650    2.079108   -0.580796
  C     -0.640873   -0.280236   -0.077394
  H     -0.614188   -0.872294   -1.002277
  C      0.149467   -1.043322    0.990169
  C      1.541344   -1.383109    0.465597
  C     -2.116436   -0.002584    0.272983
  C     -2.893718    0.339482   -0.999665
  C     -2.797345   -1.175856    0.975999
  H      4.151982   -0.303991    0.851609
  H      4.140948    0.615374   -0.659866
  H      4.027569   -1.155398   -0.677839
  H      2.061502    1.798399   -0.790420
  H      0.230791   -0.425770    1.887809
  H     -0.366564   -1.964862    1.252522
  H      2.140991   -1.845749    1.250881
  H      1.452122   -2.111056   -0.347648
  H     -2.144637    0.870857    0.935243
  H     -2.913594   -0.515290   -1.673089
  H     -2.433940    1.180285   -1.512450
  H     -3.918242    0.610149   -0.755731
  H     -3.858620   -0.963931    1.082018
  H     -2.389291   -1.338521    1.969194
  H     -2.690081   -2.086039    0.390383

 Total Charge           Charge          ....    0
 Multiplicity           Mult            ....    1
 Number of Electrons    NEL             ....   84
 Basis Dimension        Dim             ....  186

ORBITAL ENERGIES
----------------

  NO   OCC          E(Eh)            E(eV)
   0   2.0000     -18.727382      -509.5980
   1   2.0000      -9.961528      -271.0670
   2   2.0000      -9.921327      -269.9730
   3   2.0000      -9.902449      -269.4593
   4   2.0000      -9.897053      -269.3125
   5   2.0000      -9.896410      -269.2950
   6   2.0000      -9.894633      -269.2467
   7   2.0000      -9.890372      -269.1307
   8   2.0000      -9.888417      -269.0775
   9   2.0000      -9.870739      -268.5965
  10   2.0000      -9.859235      -268.2834
  11   2.0000      -0.921585       -25.0776
  12   2.0000      -0.774992       -21.0886
  13   2.0000      -0.729638       -19.8545
  14   2.0000      -0.683775       -18.6065
  15   2.0000      -0.657070       -17.8798
  16   2.0000      -0.621020       -16.8988
  17   2.0000      -0.604583       -16.4515
  18   2.0000      -0.553518       -15.0620
  19   2.0000      -0.520487       -14.1632
  20   2.0000      -0.493320       -13.4239
  21   2.0000      -0.472515       -12.8578
  22   2.0000      -0.427289       -11.6271
  23   2.0000      -0.421032       -11.4569
  24   2.0000      -0.407296       -11.0831
  25   2.0000      -0.388177       -10.5628
  26   2.0000      -0.383711       -10.4413
  27   2.0000      -0.378000       -10.2859
  28   2.0000      -0.375966       -10.2305
  29   2.0000      -0.355253        -9.6669
  30   2.0000      -0.351630        -9.5683
  31   2.0000      -0.342688        -9.3250
  32   2.0000      -0.336495        -9.1565
  33   2.0000      -0.330391        -8.9904
  34   2.0000      -0.320436        -8.7195
  35   2.0000      -0.304525        -8.2865
  36   2.0000      -0.298792        -8.1305
  37   2.0000      -0.282170        -7.6782
  38   2.0000      -0.275583        -7.4990
  39   2.0000      -0.270396        -7.3579
  40   2.0000      -0.232667        -6.3312
  41   2.0000      -0.187108        -5.0915
  42   0.0000      -0.078453        -2.1348
  43   0.0000       0.013423         0.3653
  44   0.0000       0.036084         0.9819
  45   0.0000       0.051197         1.3931
  46   0.0000       0.060723         1.6523

MULLIKEN ATOMIC CHARGES
-----------------------
   0 C :   -0.214109
   1 C :   -0.098105
   2 C :   -0.102446
   3 C :    0.081209
   4 O :   -0.177982
   5 C :   -0.188290
   6 H :    0.081504
   7 C :   -0.135904
   8 C :   -0.068414
   9 C :   -0.117619
  10 C :   -0.254078
  11 C :   -0.235310
  12 H :    0.122592
  13 H :    0.112471
  14 H :    0.117146
  15 H :    0.042690
  16 H :    0.095425
  17 H :    0.091263
  18 H :    0.091202
  19 H :    0.098138
  20 H :    0.070465
  21 H :    0.080776
  22 H :    0.120005
  23 H :    0.094215
  24 H :    0.098617
  25 H :    0.105943
  26 H :    0.088596
Sum of atomic charges:   -0.0000000

LOEWDIN ATOMIC CHARGES
----------------------
   0 C :   -0.321481
   1 C :   -0.015380
   2 C :   -0.170489
   3 C :    0.045636
   4 O :   -0.140549
   5 C :   -0.158215
   6 H :    0.132578
   7 C :   -0.208357
   8 C :   -0.213009
   9 C :   -0.145468
  10 C :   -0.334404
  11 C :   -0.331388
  12 H :    0.138522
  13 H :    0.129655
  14 H :    0.135360
  15 H :    0.128590
  16 H :    0.122641
  17 H :    0.121871
  18 H :    0.126463
  19 H :    0.136802
  20 H :    0.120321
  21 H :    0.109655
  22 H :    0.124489
  23 H :    0.115831
  24 H :    0.120138
  25 H :    0.115704
  26 H :    0.114484

  Mayer bond orders larger than 0.100000
B(  0-C ,  1-C ) :   1.1282 B(  0-C , 12-H ) :   0.9220 B(  0-C , 13-H ) :   0.9422
B(  0-C , 14-H ) :   0.9292 B(  1-C ,  2-C ) :   1.7271 B(  1-C ,  8-C ) :   1.0750
B(  2-C ,  3-C ) :   1.0695 B(  2-C , 15-H ) :   0.9358 B(  3-C ,  4-O ) :   2.0754
B(  3-C ,  5-C ) :   0.9478 B(  5-C ,  6-H ) :   0.8548 B(  5-C ,  7-C ) :   1.0728
B(  5-C ,  9-C ) :   1.0452 B(  7-C ,  8-C ) :   1.1272 B(  7-C , 16-H ) :   0.9176
B(  7-C , 17-H ) :   0.8946 B(  8-C , 18-H ) :   0.9052 B(  8-C , 19-H ) :   0.8692
B(  9-C , 10-C ) :   1.1100 B(  9-C , 11-C ) :   1.1274 B(  9-C , 20-H ) :   0.8858
B( 10-C , 21-H ) :   0.9455 B( 10-C , 22-H ) :   0.9390 B( 10-C , 23-H ) :   0.9487
B( 11-C , 24-H ) :   0.9472 B( 11-C , 25-H ) :   0.9371 B( 11-C , 26-H ) :   0.9422

Dispersion correction           -0.027878302
FINAL SINGLE POINT ENERGY      -464.843002950046

DIPOLE MOMENT
-------------

Method             : SCF
Type of density    : Electron Density
Multiplicity       :   1
Irrep              :   0
Energy             :  -464.9292511129428931 Eh
Relativity type    :
Basis              : AO
                                X                 Y                 Z
Electronic contribution:      3.859894277       6.776255330      -1.757442919
Nuclear contribution   :     -2.936992404      -7.950937228       2.055671640
                        -----------------------------------------
Total Dipole Moment    :      0.922901873      -1.174681898       0.298228721
                        -----------------------------------------
Magnitude (a.u.)       :      1.523340342
Magnitude (Debye)      :      3.872023435

Rotational constants in cm-1:             0.068650             0.024150             0.019085
Rotational constants in MHz :          2058.087328           724.006156           572.157569

                             ****ORCA TERMINATED NORMALLY****
TOTAL RUN TIME: 0 days 0 hours 0 minutes 10 seconds 580 msec
