                         Program Version 6.0.0  -   RELEASE  -
|  1> ! pbe def2-sv(p) def2/J RI DEFGRID1 loosescf d4 GCP(DFT/SV(P)) printgap
|  2> %output
|  3>     printlevel normal
|  4> end
|  5> * xyz 0 1
|  6> C -2.266430337 -1.1415744246 -0.0430557285
|  7> C -0.8872580199 -0.5663391431 0.2880189914
|  8> H -0.7624232124 -0.5243234349 1.3790884754
|  9> C -0.7102026916 0.8530671545 -0.2723805757
| 10> H -1.0356294778 0.8434926701 -1.3274528196
| 11> C 0.7794807175 1.2651943028 -0.2414215907
| 12> H 0.8349472025 2.2187133916 0.3002412637
| 13> C 1.6462895952 0.2505228486 0.5201766767
| 14> H 2.6951699435 0.5041347761 0.312465376
| 15> C 1.4186952676 -1.1662765796 -0.0509159994
| 16> H 1.8025769535 -1.9191595583 0.6562158837
| 17> O 0.0523793575 -1.4537579664 -0.2940323085
| 18> O 2.1340642899 -1.3577319581 -1.220687923
| 19> O 1.363133707 0.343248786 1.8915695121
| 20> O 1.3259563154 1.3697122864 -1.5348165338
| 21> O -1.4412395705 1.8088480572 0.4515556864
| 22> O -3.2527797532 -0.3275398542 0.5481142981
| 23> H -2.3061968428 -2.1661472999 0.3423143473
| 24> H -2.3775655965 -1.1720072672 -1.1341269785
| 25> H 1.9063517535 -0.6527988181 -1.8534482736
| 26> H 2.0734690752 -0.0677373696 2.4050911467
| 27> H 0.9682718316 2.1512027152 -1.9796356425
| 28> H -2.322423223 1.4415419079 0.6391964921
| 29> H -4.1264157833 -0.7103003262 0.3844632668
| 30> *
| 31>
| 32>                          ****END OF INPUT****

CARTESIAN COORDINATES (ANGSTROEM)
---------------------------------
  C     -2.266430   -1.141574   -0.043056
  C     -0.887258   -0.566339    0.288019
  H     -0.762423   -0.524323    1.379088
  C     -0.710203    0.853067   -0.272381
  H     -1.035629    0.843493   -1.327453
  C      0.779481    1.265194   -0.241422
  H      0.834947    2.218713    0.300241
  C      1.646290    0.250523    0.520177
  H      2.695170    0.504135    0.312465
  C      1.418695   -1.166277   -0.050916
  H      1.802577   -1.919160    0.656216
  O      0.052379   -1.453758   -0.294032
  O      2.134064   -1.357732   -1.220688
  O      1.363134    0.343249    1.891570
  O      1.325956    1.369712   -1.534817
  O     -1.441240    1.808848    0.451556
  O     -3.252780   -0.327540    0.548114
  H     -2.306197   -2.166147    0.342314
  H     -2.377566   -1.172007   -1.134127
  H      1.906352   -0.652799   -1.853448
  H      2.073469   -0.067737    2.405091
  H      0.968272    2.151203   -1.979636
  H     -2.322423    1.441542    0.639196
  H     -4.126416   -0.710300    0.384463

 Total Charge           Charge          ....    0
 Multiplicity           Mult            ....    1
 Number of Electrons    NEL             ....   96
 Basis Dimension        Dim             ....  192

ORBITAL ENERGIES
----------------

  NO   OCC          E(Eh)            E(eV)
   0   2.0000     -18.773142      -510.8432
   1   2.0000     -18.767403      -510.6870
   2   2.0000     -18.759233      -510.4647
   3   2.0000     -18.756598      -510.3930
   4   2.0000     -18.737877      -509.8835
   5   2.0000     -18.731498      -509.7100
   6   2.0000      -9.975052      -271.4350
   7   2.0000      -9.942013      -270.5359
   8   2.0000      -9.941672      -270.5267
   9   2.0000      -9.938306      -270.4351
  10   2.0000      -9.933885      -270.3148
  11   2.0000      -9.931063      -270.2380
  12   2.0000      -0.969145       -26.3718
  13   2.0000      -0.945831       -25.7374
  14   2.0000      -0.941350       -25.6154
  15   2.0000      -0.932236       -25.3674
  16   2.0000      -0.911043       -24.7907
  17   2.0000      -0.897049       -24.4100
  18   2.0000      -0.696309       -18.9475
  19   2.0000      -0.687233       -18.7006
  20   2.0000      -0.616809       -16.7842
  21   2.0000      -0.579195       -15.7607
  22   2.0000      -0.557936       -15.1822
  23   2.0000      -0.516551       -14.0561
  24   2.0000      -0.500517       -13.6198
  25   2.0000      -0.496407       -13.5079
  26   2.0000      -0.466466       -12.6932
  27   2.0000      -0.461527       -12.5588
  28   2.0000      -0.438731       -11.9385
  29   2.0000      -0.435147       -11.8409
  30   2.0000      -0.416577       -11.3356
  31   2.0000      -0.403479       -10.9792
  32   2.0000      -0.380410       -10.3515
  33   2.0000      -0.366154        -9.9636
  34   2.0000      -0.356154        -9.6915
  35   2.0000      -0.345586        -9.4039
  36   2.0000      -0.321485        -8.7480
  37   2.0000      -0.310450        -8.4478
  38   2.0000      -0.307580        -8.3697
  39   2.0000      -0.300617        -8.1802
  40   2.0000      -0.280501        -7.6328
  41   2.0000      -0.261686        -7.1208
  42   2.0000      -0.244421        -6.6510
  43   2.0000      -0.238810        -6.4983
  44   2.0000      -0.229130        -6.2350
  45   2.0000      -0.220487        -5.9998
  46   2.0000      -0.210028        -5.7151
  47   2.0000      -0.192288        -5.2324
  48   0.0000       0.009099         0.2476
  49   0.0000       0.011759         0.3200
  50   0.0000       0.028176         0.7667
  51   0.0000       0.062875         1.7109
  52   0.0000       0.068299         1.8585

MULLIKEN ATOMIC CHARGES
-----------------------
   0 C :    0.080410
   1 C :   -0.021493
   2 H :    0.082537
   3 C :    0.073449
   4 H :    0.023781
   5 C :    0.096844
   6 H :    0.077387
   7 C :   -0.053008
   8 H :    0.082421
   9 C :    0.223622
  10 H :    0.044149
  11 O :   -0.313977
  12 O :   -0.395160
  13 O :   -0.399335
  14 O :   -0.429983
  15 O :   -0.428022
  16 O :   -0.446382
  17 H :    0.085858
  18 H :    0.072767
  19 H :    0.300545
  20 H :    0.309849
  21 H :    0.314864
  22 H :    0.303521
  23 H :    0.315355
Sum of atomic charges:    0.0000000

LOEWDIN ATOMIC CHARGES
----------------------
   0 C :   -0.122286
   1 C :   -0.076325
   2 H :    0.112498
   3 C :   -0.071931
   4 H :    0.091040
   5 C :   -0.057752
   6 H :    0.117429
   7 C :   -0.095003
   8 H :    0.113216
   9 C :    0.003565
  10 H :    0.092379
  11 O :   -0.153135
  12 O :   -0.303508
  13 O :   -0.306696
  14 O :   -0.313908
  15 O :   -0.329263
  16 O :   -0.333923
  17 H :    0.105042
  18 H :    0.098831
  19 H :    0.273533
  20 H :    0.292261
  21 H :    0.295112
  22 H :    0.273405
  23 H :    0.295420

  Mayer bond orders larger than 0.100000
B(  0-C ,  1-C ) :   1.0522 B(  0-C , 16-O ) :   1.0509 B(  0-C , 17-H ) :   0.9176
B(  0-C , 18-H ) :   0.9069 B(  1-C ,  2-H ) :   0.8577 B(  1-C ,  3-C ) :   1.0561
B(  1-C , 11-O ) :   1.0086 B(  3-C ,  4-H ) :   0.8685 B(  3-C ,  5-C ) :   0.9780
B(  3-C , 15-O ) :   1.1022 B(  5-C ,  6-H ) :   0.8696 B(  5-C ,  7-C ) :   1.0408
B(  5-C , 14-O ) :   1.0322 B(  7-C ,  8-H ) :   0.8964 B(  7-C ,  9-C ) :   0.9556
B(  7-C , 13-O ) :   1.0661 B(  9-C , 10-H ) :   0.9033 B(  9-C , 11-O ) :   1.0271
B(  9-C , 12-O ) :   1.1601 B( 12-O , 19-H ) :   0.8150 B( 13-O , 20-H ) :   0.8449
B( 14-O , 21-H ) :   0.8424 B( 15-O , 22-H ) :   0.8093 B( 16-O , 23-H ) :   0.8425

Dispersion correction           -0.024711939
FINAL SINGLE POINT ENERGY      -685.691535475878

DIPOLE MOMENT
-------------

Method             : SCF
Type of density    : Electron Density
Multiplicity       :   1
Irrep              :   0
Energy             :  -685.8230749022993677 Eh
Relativity type    :
Basis              : AO
                                X                 Y                 Z
Electronic contribution:      1.791568222       0.162908010      -0.132001876
Nuclear contribution   :     -2.483337346      -0.044416920       0.114375031
                        -----------------------------------------
Total Dipole Moment    :     -0.691769125       0.118491090      -0.017626844
                        -----------------------------------------
Magnitude (a.u.)       :      0.702065072
Magnitude (Debye)      :      1.784507596

Rotational constants in cm-1:             0.044276             0.024693             0.021635
Rotational constants in MHz :          1327.373143           740.264514           648.607412

                             ****ORCA TERMINATED NORMALLY****
TOTAL RUN TIME: 0 days 0 hours 0 minutes 12 seconds 93 msec
