                         Program Version 6.0.0  -   RELEASE  -
|  1> ! pbe def2-sv(p) def2/J RI DEFGRID1 loosescf d4 GCP(DFT/SV(P)) printgap
|  2> %output
|  3>     printlevel normal
|  4> end
|  5> * xyz 0 1
|  6> C -2.1263336996 -0.5079469896 0.7071066988
|  7> C -1.3445564676 -0.3594471589 -0.6018992755
|  8> C -0.0068499068 0.2674165312 -0.308580671
|  9> O 0.2270421846 1.4576213726 -0.3535456606
| 10> O 0.8860910874 -0.6462435547 0.049078674
| 11> C 2.2017311836 -0.2231829253 0.4192215101
| 12> H -3.1016409291 -0.9394097461 0.50378532
| 13> H -1.5902444074 -1.1569483778 1.3946545929
| 14> H -2.2635292899 0.4634798354 1.1761875789
| 15> H -1.8867264522 0.2886585371 -1.289293921
| 16> H -1.1848048207 -1.3384150328 -1.0511594419
| 17> H 2.8787232892 -0.4251319771 -0.4101051213
| 18> H 2.4854417895 -0.806394519 1.2916426379
| 19> H 2.1986834422 0.8437443219 0.645129708
| 20> *
| 21>
| 22>                          ****END OF INPUT****

CARTESIAN COORDINATES (ANGSTROEM)
---------------------------------
  C     -2.126334   -0.507947    0.707107
  C     -1.344556   -0.359447   -0.601899
  C     -0.006850    0.267417   -0.308581
  O      0.227042    1.457621   -0.353546
  O      0.886091   -0.646244    0.049079
  C      2.201731   -0.223183    0.419222
  H     -3.101641   -0.939410    0.503785
  H     -1.590244   -1.156948    1.394655
  H     -2.263529    0.463480    1.176188
  H     -1.886726    0.288659   -1.289294
  H     -1.184805   -1.338415   -1.051159
  H      2.878723   -0.425132   -0.410105
  H      2.485442   -0.806395    1.291643
  H      2.198683    0.843744    0.645130

 Total Charge           Charge          ....    0
 Multiplicity           Mult            ....    1
 Number of Electrons    NEL             ....   48
 Basis Dimension        Dim             ....  100

ORBITAL ENERGIES
----------------

  NO   OCC          E(Eh)            E(eV)
   0   2.0000     -18.799379      -511.5571
   1   2.0000     -18.730011      -509.6695
   2   2.0000     -10.004366      -272.2326
   3   2.0000      -9.940279      -270.4887
   4   2.0000      -9.898776      -269.3594
   5   2.0000      -9.888388      -269.0767
   6   2.0000      -1.004509       -27.3341
   7   2.0000      -0.907559       -24.6959
   8   2.0000      -0.716752       -19.5038
   9   2.0000      -0.657289       -17.8858
  10   2.0000      -0.574976       -15.6459
  11   2.0000      -0.506463       -13.7816
  12   2.0000      -0.449527       -12.2323
  13   2.0000      -0.431890       -11.7523
  14   2.0000      -0.422969       -11.5096
  15   2.0000      -0.390339       -10.6217
  16   2.0000      -0.381804       -10.3894
  17   2.0000      -0.363305        -9.8860
  18   2.0000      -0.334798        -9.1103
  19   2.0000      -0.318645        -8.6708
  20   2.0000      -0.315424        -8.5831
  21   2.0000      -0.295618        -8.0442
  22   2.0000      -0.254928        -6.9369
  23   2.0000      -0.216253        -5.8845
  24   0.0000      -0.018330        -0.4988
  25   0.0000       0.045192         1.2297
  26   0.0000       0.063732         1.7342
  27   0.0000       0.088836         2.4174
  28   0.0000       0.090458         2.4615

MULLIKEN ATOMIC CHARGES
-----------------------
   0 C :   -0.303359
   1 C :   -0.135218
   2 C :    0.091760
   3 O :   -0.207961
   4 O :   -0.246088
   5 C :   -0.126719
   6 H :    0.116542
   7 H :    0.112054
   8 H :    0.117505
   9 H :    0.106075
  10 H :    0.101587
  11 H :    0.121430
  12 H :    0.121013
  13 H :    0.131380
Sum of atomic charges:    0.0000000

LOEWDIN ATOMIC CHARGES
----------------------
   0 C :   -0.330294
   1 C :   -0.248707
   2 C :    0.035086
   3 O :   -0.172614
   4 O :   -0.076495
   5 C :   -0.208064
   6 H :    0.124021
   7 H :    0.122219
   8 H :    0.125590
   9 H :    0.134808
  10 H :    0.130988
  11 H :    0.119860
  12 H :    0.120098
  13 H :    0.123505

  Mayer bond orders larger than 0.100000
B(  0-C ,  1-C ) :   1.1405 B(  0-C ,  6-H ) :   0.9525 B(  0-C ,  7-H ) :   0.9542
B(  0-C ,  8-H ) :   0.9532 B(  1-C ,  2-C ) :   1.0206 B(  1-C ,  9-H ) :   0.9125
B(  1-C , 10-H ) :   0.9081 B(  2-C ,  3-O ) :   2.0698 B(  2-C ,  4-O ) :   1.2008
B(  4-O ,  5-C ) :   0.9371 B(  5-C , 11-H ) :   0.9610 B(  5-C , 12-H ) :   0.9608
B(  5-C , 13-H ) :   0.9313

Dispersion correction           -0.009151368
FINAL SINGLE POINT ENERGY      -307.025301514885

DIPOLE MOMENT
-------------

Method             : SCF
Type of density    : Electron Density
Multiplicity       :   1
Irrep              :   0
Energy             :  -307.0796023118757603 Eh
Relativity type    :
Basis              : AO
                                X                 Y                 Z
Electronic contribution:      2.432038068       2.159304517      -1.921192100
Nuclear contribution   :     -2.295215735      -2.868530822       2.116538311
                        -----------------------------------------
Total Dipole Moment    :      0.136822333      -0.709226306       0.195346211
                        -----------------------------------------
Magnitude (a.u.)       :      0.748252929
Magnitude (Debye)      :      1.901907798

Rotational constants in cm-1:             0.222179             0.080546             0.068019
Rotational constants in MHz :          6660.759401          2414.706678          2039.169099

                             ****ORCA TERMINATED NORMALLY****
TOTAL RUN TIME: 0 days 0 hours 0 minutes 6 seconds 984 msec
