                         Program Version 6.0.0  -   RELEASE  -
|  1> ! pbe def2-sv(p) def2/J RI DEFGRID1 loosescf d4 GCP(DFT/SV(P)) printgap
|  2> %output
|  3>     printlevel normal
|  4> end
|  5> * xyz 0 1
|  6> C -2.0992411953 -1.2091851353 -0.1788180472
|  7> C -1.2449032564 -0.3485274727 0.7736355717
|  8> H -1.8302048342 -0.1665992756 1.6804705788
|  9> C -0.91970153 1.0194046565 0.1454840743
| 10> H -1.2198889426 1.0007817174 -0.9164104022
| 11> C 0.5865346385 1.2930066848 0.214932009
| 12> H 0.8851472018 1.4239041711 1.2610278479
| 13> C 1.346244299 0.103172811 -0.3820088963
| 14> H 1.0330154388 -0.0386738202 -1.4295360495
| 15> C 1.0060025733 -1.175389673 0.4016304951
| 16> H 1.8497783943 -1.3919429168 1.070340201
| 17> O -0.0896126694 -1.024430837 1.2658938604
| 18> O 0.8161469749 -2.2173067294 -0.5111093863
| 19> O 2.736158361 0.2932486386 -0.3193148818
| 20> O 0.9309878996 2.4922745812 -0.4337224789
| 21> O -1.6575274293 2.001773107 0.8316441926
| 22> O -1.6025691536 -1.2814127696 -1.4920236766
| 23> H -3.0841454108 -0.7446557036 -0.2564749621
| 24> H -2.2078853845 -2.2089388007 0.2569272562
| 25> H 0.849300263 -3.0734126088 -0.056980553
| 26> H 2.9301367527 1.2217902676 -0.5295948643
| 27> H 0.6570395781 2.4502924928 -1.363356919
| 28> H -1.3152529115 2.8771662536 0.5918232526
| 29> H -0.750943528 -1.7589459474 -1.4703180684
| 30> *
| 31>
| 32>                          ****END OF INPUT****

CARTESIAN COORDINATES (ANGSTROEM)
---------------------------------
  C     -2.099241   -1.209185   -0.178818
  C     -1.244903   -0.348527    0.773636
  H     -1.830205   -0.166599    1.680471
  C     -0.919702    1.019405    0.145484
  H     -1.219889    1.000782   -0.916410
  C      0.586535    1.293007    0.214932
  H      0.885147    1.423904    1.261028
  C      1.346244    0.103173   -0.382009
  H      1.033015   -0.038674   -1.429536
  C      1.006003   -1.175390    0.401630
  H      1.849778   -1.391943    1.070340
  O     -0.089613   -1.024431    1.265894
  O      0.816147   -2.217307   -0.511109
  O      2.736158    0.293249   -0.319315
  O      0.930988    2.492275   -0.433722
  O     -1.657527    2.001773    0.831644
  O     -1.602569   -1.281413   -1.492024
  H     -3.084145   -0.744656   -0.256475
  H     -2.207885   -2.208939    0.256927
  H      0.849300   -3.073413   -0.056981
  H      2.930137    1.221790   -0.529595
  H      0.657040    2.450292   -1.363357
  H     -1.315253    2.877166    0.591823
  H     -0.750944   -1.758946   -1.470318

 Total Charge           Charge          ....    0
 Multiplicity           Mult            ....    1
 Number of Electrons    NEL             ....   96
 Basis Dimension        Dim             ....  192

ORBITAL ENERGIES
----------------

  NO   OCC          E(Eh)            E(eV)
   0   2.0000     -18.788317      -511.2561
   1   2.0000     -18.777939      -510.9737
   2   2.0000     -18.771572      -510.8004
   3   2.0000     -18.754047      -510.3236
   4   2.0000     -18.749489      -510.1995
   5   2.0000     -18.737529      -509.8741
   6   2.0000      -9.996106      -272.0079
   7   2.0000      -9.948590      -270.7149
   8   2.0000      -9.948437      -270.7107
   9   2.0000      -9.942509      -270.5494
  10   2.0000      -9.942180      -270.5405
  11   2.0000      -9.927891      -270.1517
  12   2.0000      -0.991929       -26.9918
  13   2.0000      -0.961321       -26.1589
  14   2.0000      -0.933077       -25.3903
  15   2.0000      -0.926128       -25.2012
  16   2.0000      -0.919206       -25.0129
  17   2.0000      -0.911977       -24.8162
  18   2.0000      -0.706332       -19.2203
  19   2.0000      -0.697661       -18.9843
  20   2.0000      -0.625629       -17.0242
  21   2.0000      -0.585752       -15.9391
  22   2.0000      -0.577021       -15.7015
  23   2.0000      -0.532705       -14.4956
  24   2.0000      -0.517270       -14.0756
  25   2.0000      -0.478926       -13.0322
  26   2.0000      -0.474250       -12.9050
  27   2.0000      -0.463010       -12.5992
  28   2.0000      -0.450679       -12.2636
  29   2.0000      -0.441273       -12.0077
  30   2.0000      -0.415406       -11.3038
  31   2.0000      -0.406173       -11.0525
  32   2.0000      -0.395516       -10.7625
  33   2.0000      -0.370292       -10.0762
  34   2.0000      -0.363135        -9.8814
  35   2.0000      -0.354959        -9.6589
  36   2.0000      -0.341123        -9.2824
  37   2.0000      -0.325375        -8.8539
  38   2.0000      -0.303188        -8.2502
  39   2.0000      -0.291801        -7.9403
  40   2.0000      -0.286010        -7.7827
  41   2.0000      -0.277041        -7.5387
  42   2.0000      -0.260784        -7.0963
  43   2.0000      -0.255589        -6.9549
  44   2.0000      -0.243523        -6.6266
  45   2.0000      -0.232409        -6.3242
  46   2.0000      -0.209603        -5.7036
  47   2.0000      -0.203497        -5.5374
  48   0.0000       0.004457         0.1213
  49   0.0000       0.014103         0.3838
  50   0.0000       0.043445         1.1822
  51   0.0000       0.052188         1.4201
  52   0.0000       0.057313         1.5596

MULLIKEN ATOMIC CHARGES
-----------------------
   0 C :    0.022034
   1 C :    0.046727
   2 H :    0.084554
   3 C :    0.049559
   4 H :    0.058990
   5 C :    0.027526
   6 H :    0.074455
   7 C :    0.019414
   8 H :    0.051133
   9 C :    0.201306
  10 H :    0.082320
  11 O :   -0.308399
  12 O :   -0.402330
  13 O :   -0.412621
  14 O :   -0.421799
  15 O :   -0.413914
  16 O :   -0.449501
  17 H :    0.095088
  18 H :    0.072558
  19 H :    0.315857
  20 H :    0.302267
  21 H :    0.301232
  22 H :    0.299279
  23 H :    0.304265
Sum of atomic charges:   -0.0000000

LOEWDIN ATOMIC CHARGES
----------------------
   0 C :   -0.134835
   1 C :   -0.065952
   2 H :    0.129716
   3 C :   -0.078521
   4 H :    0.101054
   5 C :   -0.090804
   6 H :    0.123665
   7 C :   -0.086569
   8 H :    0.101449
   9 C :    0.000677
  10 H :    0.113289
  11 O :   -0.143636
  12 O :   -0.297056
  13 O :   -0.318505
  14 O :   -0.308869
  15 O :   -0.321806
  16 O :   -0.350719
  17 H :    0.120637
  18 H :    0.098533
  19 H :    0.294490
  20 H :    0.281654
  21 H :    0.286107
  22 H :    0.281111
  23 H :    0.264891

  Mayer bond orders larger than 0.100000
B(  0-C ,  1-C ) :   1.0345 B(  0-C , 16-O ) :   1.0915 B(  0-C , 17-H ) :   0.9198
B(  0-C , 18-H ) :   0.9128 B(  1-C ,  2-H ) :   0.8785 B(  1-C ,  3-C ) :   0.9871
B(  1-C , 11-O ) :   1.0088 B(  3-C ,  4-H ) :   0.8668 B(  3-C ,  5-C ) :   1.0299
B(  3-C , 15-O ) :   1.0721 B(  5-C ,  6-H ) :   0.8542 B(  5-C ,  7-C ) :   1.0196
B(  5-C , 14-O ) :   1.0143 B(  7-C ,  8-H ) :   0.8702 B(  7-C ,  9-C ) :   0.9942
B(  7-C , 13-O ) :   1.0900 B(  9-C , 10-H ) :   0.8874 B(  9-C , 11-O ) :   1.0883
B(  9-C , 12-O ) :   1.0679 B( 12-O , 19-H ) :   0.8339 B( 12-O , 23-H ) :   0.1129
B( 13-O , 20-H ) :   0.8300 B( 14-O , 21-H ) :   0.8436 B( 15-O , 22-H ) :   0.8367
B( 16-O , 23-H ) :   0.7889

Dispersion correction           -0.025219319
FINAL SINGLE POINT ENERGY      -685.701064768261

DIPOLE MOMENT
-------------

Method             : SCF
Type of density    : Electron Density
Multiplicity       :   1
Irrep              :   0
Energy             :  -685.8337264942074398 Eh
Relativity type    :
Basis              : AO
                                X                 Y                 Z
Electronic contribution:      2.394674903       0.348033166       0.920498205
Nuclear contribution   :     -2.050842827      -0.380018082      -1.099988550
                        -----------------------------------------
Total Dipole Moment    :      0.343832076      -0.031984915      -0.179490345
                        -----------------------------------------
Magnitude (a.u.)       :      0.389179028
Magnitude (Debye)      :      0.989214474

Rotational constants in cm-1:             0.036050             0.032472             0.021439
Rotational constants in MHz :          1080.751422           973.475081           642.715368

                             ****ORCA TERMINATED NORMALLY****
TOTAL RUN TIME: 0 days 0 hours 0 minutes 12 seconds 433 msec
