                         Program Version 6.0.0  -   RELEASE  -
|  1> ! pbe def2-sv(p) def2/J RI DEFGRID1 loosescf d4 GCP(DFT/SV(P)) printgap
|  2> %output
|  3>     printlevel normal
|  4> end
|  5> * xyz 0 1
|  6> C -0.7055416228 -2.9687878768 0.226893034
|  7> C 0.6758030872 -2.9827313647 0.3099424669
|  8> C 1.3876497903 -1.7968186967 0.2453770507
|  9> C 0.7275345618 -0.5814251568 0.0966346801
| 10> C -0.6674030979 -0.5677001644 0.0122597038
| 11> C -1.3729149801 -1.7658081531 0.07836558
| 12> C -1.5272221349 0.655598722 -0.1522179303
| 13> F -2.2685158679 0.5803765048 -1.2793258932
| 14> F -2.420689814 0.7606666052 0.8556864274
| 15> F -0.905191402 1.8369706626 -0.2072788157
| 16> C 1.5531816434 0.6754494653 0.0336165757
| 17> F 2.8700617892 0.4314606644 0.1291084409
| 18> F 1.4017276581 1.3527340384 -1.122055632
| 19> F 1.2800956455 1.5397329053 1.031595876
| 20> H -1.2672102516 -3.8868666638 0.2764474173
| 21> H 1.207095967 -3.9129627849 0.4256123259
| 22> H 2.4636561434 -1.808013818 0.3105401375
| 23> H -2.4493490932 -1.7396614155 0.0116695804
| 24> *
| 25>
| 26>                          ****END OF INPUT****

CARTESIAN COORDINATES (ANGSTROEM)
---------------------------------
  C     -0.705542   -2.968788    0.226893
  C      0.675803   -2.982731    0.309942
  C      1.387650   -1.796819    0.245377
  C      0.727535   -0.581425    0.096635
  C     -0.667403   -0.567700    0.012260
  C     -1.372915   -1.765808    0.078366
  C     -1.527222    0.655599   -0.152218
  F     -2.268516    0.580377   -1.279326
  F     -2.420690    0.760667    0.855686
  F     -0.905191    1.836971   -0.207279
  C      1.553182    0.675449    0.033617
  F      2.870062    0.431461    0.129108
  F      1.401728    1.352734   -1.122056
  F      1.280096    1.539733    1.031596
  H     -1.267210   -3.886867    0.276447
  H      1.207096   -3.912963    0.425612
  H      2.463656   -1.808014    0.310540
  H     -2.449349   -1.739661    0.011670

 Total Charge           Charge          ....    0
 Multiplicity           Mult            ....    1
 Number of Electrons    NEL             ....  106
 Basis Dimension        Dim             ....  204

ORBITAL ENERGIES
----------------

  NO   OCC          E(Eh)            E(eV)
   0   2.0000     -24.293251      -661.0530
   1   2.0000     -24.292100      -661.0216
   2   2.0000     -24.286754      -660.8762
   3   2.0000     -24.286506      -660.8694
   4   2.0000     -24.285167      -660.8330
   5   2.0000     -24.284977      -660.8278
   6   2.0000     -10.133650      -275.7506
   7   2.0000     -10.133297      -275.7410
   8   2.0000      -9.947005      -270.6718
   9   2.0000      -9.946439      -270.6564
  10   2.0000      -9.931822      -270.2586
  11   2.0000      -9.931182      -270.2412
  12   2.0000      -9.930877      -270.2329
  13   2.0000      -9.930517      -270.2231
  14   2.0000      -1.195924       -32.5427
  15   2.0000      -1.191334       -32.4178
  16   2.0000      -1.103833       -30.0368
  17   2.0000      -1.097427       -29.8625
  18   2.0000      -1.095844       -29.8194
  19   2.0000      -1.095233       -29.8028
  20   2.0000      -0.822558       -22.3829
  21   2.0000      -0.733986       -19.9728
  22   2.0000      -0.725509       -19.7421
  23   2.0000      -0.648446       -17.6451
  24   2.0000      -0.624715       -16.9994
  25   2.0000      -0.583177       -15.8691
  26   2.0000      -0.578095       -15.7308
  27   2.0000      -0.547674       -14.9030
  28   2.0000      -0.526261       -14.3203
  29   2.0000      -0.525264       -14.2932
  30   2.0000      -0.525210       -14.2917
  31   2.0000      -0.523751       -14.2520
  32   2.0000      -0.494321       -13.4511
  33   2.0000      -0.456942       -12.4340
  34   2.0000      -0.441943       -12.0259
  35   2.0000      -0.422906       -11.5079
  36   2.0000      -0.405473       -11.0335
  37   2.0000      -0.404165       -10.9979
  38   2.0000      -0.399441       -10.8693
  39   2.0000      -0.394978       -10.7479
  40   2.0000      -0.380972       -10.3668
  41   2.0000      -0.376532       -10.2460
  42   2.0000      -0.365014        -9.9325
  43   2.0000      -0.360373        -9.8062
  44   2.0000      -0.357229        -9.7207
  45   2.0000      -0.350174        -9.5287
  46   2.0000      -0.345651        -9.4056
  47   2.0000      -0.341428        -9.2907
  48   2.0000      -0.335242        -9.1224
  49   2.0000      -0.331734        -9.0269
  50   2.0000      -0.321936        -8.7603
  51   2.0000      -0.268759        -7.3133
  52   2.0000      -0.265488        -7.2243
  53   0.0000      -0.087003        -2.3675
  54   0.0000      -0.074822        -2.0360
  55   0.0000       0.028372         0.7720
  56   0.0000       0.051826         1.4102
  57   0.0000       0.063957         1.7404

MULLIKEN ATOMIC CHARGES
-----------------------
   0 C :   -0.024623
   1 C :   -0.030001
   2 C :   -0.115458
   3 C :   -0.057656
   4 C :   -0.037071
   5 C :   -0.106200
   6 C :    0.433379
   7 F :   -0.143047
   8 F :   -0.143209
   9 F :   -0.115200
  10 C :    0.446711
  11 F :   -0.128719
  12 F :   -0.138521
  13 F :   -0.138486
  14 H :    0.072981
  15 H :    0.072503
  16 H :    0.073507
  17 H :    0.079111
Sum of atomic charges:    0.0000000

LOEWDIN ATOMIC CHARGES
----------------------
   0 C :   -0.102927
   1 C :   -0.102947
   2 C :   -0.099827
   3 C :   -0.072661
   4 C :   -0.069324
   5 C :   -0.089362
   6 C :    0.126168
   7 F :   -0.051001
   8 F :   -0.050815
   9 F :   -0.024499
  10 C :    0.122473
  11 F :   -0.038368
  12 F :   -0.045900
  13 F :   -0.046016
  14 H :    0.134298
  15 H :    0.134033
  16 H :    0.138116
  17 H :    0.138558

  Mayer bond orders larger than 0.100000
B(  0-C ,  1-C ) :   1.3607 B(  0-C ,  5-C ) :   1.3685 B(  0-C , 14-H ) :   0.9675
B(  1-C ,  2-C ) :   1.3606 B(  1-C , 15-H ) :   0.9664 B(  2-C ,  3-C ) :   1.3928
B(  2-C , 16-H ) :   0.9592 B(  3-C ,  4-C ) :   1.4290 B(  3-C , 10-C ) :   0.9343
B(  4-C ,  5-C ) :   1.3802 B(  4-C ,  6-C ) :   0.9260 B(  5-C , 17-H ) :   0.9585
B(  6-C ,  7-F ) :   1.1687 B(  6-C ,  8-F ) :   1.1670 B(  6-C ,  9-F ) :   1.1770
B( 10-C , 11-F ) :   1.1695 B( 10-C , 12-F ) :   1.1639 B( 10-C , 13-F ) :   1.1650

Dispersion correction           -0.021514692
FINAL SINGLE POINT ENERGY      -904.617441359742

DIPOLE MOMENT
-------------

Method             : SCF
Type of density    : Electron Density
Multiplicity       :   1
Irrep              :   0
Energy             :  -904.7095573763018592 Eh
Relativity type    :
Basis              : AO
                                X                 Y                 Z
Electronic contribution:      0.042079999      15.099840368      -1.364300870
Nuclear contribution   :     -0.003586366     -16.670261104       1.509706102
                        -----------------------------------------
Total Dipole Moment    :      0.038493633      -1.570420736       0.145405232
                        -----------------------------------------
Magnitude (a.u.)       :      1.577607597
Magnitude (Debye)      :      4.009959834

Rotational constants in cm-1:             0.028048             0.024751             0.015250
Rotational constants in MHz :           840.855688           742.011210           457.189109

                             ****ORCA TERMINATED NORMALLY****
TOTAL RUN TIME: 0 days 0 hours 0 minutes 10 seconds 139 msec
