                         Program Version 6.0.0  -   RELEASE  -
|  1> ! pbe def2-sv(p) def2/J RI DEFGRID1 loosescf d4 GCP(DFT/SV(P)) printgap
|  2> %output
|  3>     printlevel normal
|  4> end
|  5> * xyz 0 1
|  6> C -2.2134756044 -0.6245848598 -0.7149767367
|  7> C -1.384689844 -0.4729673702 0.5786106649
|  8> H -2.0583280912 -0.7038224421 1.4159027959
|  9> C -0.8680320078 0.9541299292 0.8103806134
| 10> H -1.6797311952 1.6458155111 0.5443464372
| 11> C 0.3455245826 1.3156187858 -0.0717750308
| 12> H 1.0155514279 1.9599755541 0.5162907234
| 13> C 1.1618508972 0.0744623604 -0.4570037545
| 14> H 0.789585609 -0.3421669697 -1.4056317258
| 15> C 0.9703608794 -1.0103345613 0.6109287539
| 16> H 1.2530920092 -0.6065651384 1.6047963124
| 17> O -0.3598470354 -1.46143779 0.642223859
| 18> O 1.7793715364 -2.0854916321 0.2759383696
| 19> O 2.5100336818 0.4554503642 -0.572847514
| 20> O -0.1341578697 2.0154663536 -1.196827393
| 21> O -0.5611691845 1.0607634148 2.1817499582
| 22> O -1.5565437876 -0.286297843 -1.9067614394
| 23> H -3.1308631151 -0.0333563014 -0.5970281948
| 24> H -2.4791165033 -1.6792350503 -0.8140927961
| 25> H 1.4672672333 -2.8753646007 0.7422254733
| 26> H 3.0484736218 -0.3434432987 -0.6751152085
| 27> H 0.6170224706 2.2992434219 -1.7382216749
| 28> H -0.4697775358 1.9920968176 2.4311513272
| 29> H -1.3085709193 0.6573376468 -1.8839858002
| 30> *
| 31>
| 32>                          ****END OF INPUT****

CARTESIAN COORDINATES (ANGSTROEM)
---------------------------------
  C     -2.213476   -0.624585   -0.714977
  C     -1.384690   -0.472967    0.578611
  H     -2.058328   -0.703822    1.415903
  C     -0.868032    0.954130    0.810381
  H     -1.679731    1.645816    0.544346
  C      0.345525    1.315619   -0.071775
  H      1.015551    1.959976    0.516291
  C      1.161851    0.074462   -0.457004
  H      0.789586   -0.342167   -1.405632
  C      0.970361   -1.010335    0.610929
  H      1.253092   -0.606565    1.604796
  O     -0.359847   -1.461438    0.642224
  O      1.779372   -2.085492    0.275938
  O      2.510034    0.455450   -0.572848
  O     -0.134158    2.015466   -1.196827
  O     -0.561169    1.060763    2.181750
  O     -1.556544   -0.286298   -1.906761
  H     -3.130863   -0.033356   -0.597028
  H     -2.479117   -1.679235   -0.814093
  H      1.467267   -2.875365    0.742225
  H      3.048474   -0.343443   -0.675115
  H      0.617022    2.299243   -1.738222
  H     -0.469778    1.992097    2.431151
  H     -1.308571    0.657338   -1.883986

 Total Charge           Charge          ....    0
 Multiplicity           Mult            ....    1
 Number of Electrons    NEL             ....   96
 Basis Dimension        Dim             ....  192

ORBITAL ENERGIES
----------------

  NO   OCC          E(Eh)            E(eV)
   0   2.0000     -18.779744      -511.0228
   1   2.0000     -18.764017      -510.5949
   2   2.0000     -18.758814      -510.4533
   3   2.0000     -18.758749      -510.4515
   4   2.0000     -18.749584      -510.2021
   5   2.0000     -18.733921      -509.7759
   6   2.0000      -9.977293      -271.4960
   7   2.0000      -9.956395      -270.9273
   8   2.0000      -9.952330      -270.8167
   9   2.0000      -9.943954      -270.5888
  10   2.0000      -9.932680      -270.2820
  11   2.0000      -9.926697      -270.1192
  12   2.0000      -0.977955       -26.6115
  13   2.0000      -0.956536       -26.0287
  14   2.0000      -0.940623       -25.5957
  15   2.0000      -0.924527       -25.1576
  16   2.0000      -0.913056       -24.8455
  17   2.0000      -0.901739       -24.5376
  18   2.0000      -0.708630       -19.2828
  19   2.0000      -0.688082       -18.7237
  20   2.0000      -0.615409       -16.7461
  21   2.0000      -0.590375       -16.0649
  22   2.0000      -0.567917       -15.4538
  23   2.0000      -0.523604       -14.2480
  24   2.0000      -0.503505       -13.7011
  25   2.0000      -0.483663       -13.1611
  26   2.0000      -0.477849       -13.0029
  27   2.0000      -0.464503       -12.6398
  28   2.0000      -0.445943       -12.1347
  29   2.0000      -0.430175       -11.7057
  30   2.0000      -0.410016       -11.1571
  31   2.0000      -0.396306       -10.7840
  32   2.0000      -0.390065       -10.6142
  33   2.0000      -0.375369       -10.2143
  34   2.0000      -0.368006       -10.0139
  35   2.0000      -0.350188        -9.5291
  36   2.0000      -0.326206        -8.8765
  37   2.0000      -0.319474        -8.6933
  38   2.0000      -0.317300        -8.6342
  39   2.0000      -0.298678        -8.1275
  40   2.0000      -0.277041        -7.5387
  41   2.0000      -0.261818        -7.1244
  42   2.0000      -0.251530        -6.8445
  43   2.0000      -0.239362        -6.5134
  44   2.0000      -0.237887        -6.4732
  45   2.0000      -0.231130        -6.2894
  46   2.0000      -0.205757        -5.5989
  47   2.0000      -0.194112        -5.2821
  48   0.0000       0.013154         0.3580
  49   0.0000       0.019988         0.5439
  50   0.0000       0.036050         0.9810
  51   0.0000       0.046718         1.2713
  52   0.0000       0.060152         1.6368

MULLIKEN ATOMIC CHARGES
-----------------------
   0 C :    0.054153
   1 C :    0.066677
   2 H :    0.071592
   3 C :   -0.020879
   4 H :    0.076521
   5 C :    0.089443
   6 H :    0.058544
   7 C :    0.015646
   8 H :    0.063548
   9 C :    0.203168
  10 H :    0.044586
  11 O :   -0.325697
  12 O :   -0.400373
  13 O :   -0.430211
  14 O :   -0.421988
  15 O :   -0.406811
  16 O :   -0.438983
  17 H :    0.065804
  18 H :    0.089393
  19 H :    0.310731
  20 H :    0.310573
  21 H :    0.322438
  22 H :    0.304211
  23 H :    0.297914
Sum of atomic charges:   -0.0000000

LOEWDIN ATOMIC CHARGES
----------------------
   0 C :   -0.128515
   1 C :   -0.060361
   2 H :    0.120398
   3 C :   -0.070496
   4 H :    0.111677
   5 C :   -0.068563
   6 H :    0.111521
   7 C :   -0.102723
   8 H :    0.112381
   9 C :   -0.003486
  10 H :    0.083112
  11 O :   -0.157135
  12 O :   -0.309833
  13 O :   -0.327217
  14 O :   -0.305869
  15 O :   -0.311377
  16 O :   -0.341223
  17 H :    0.096188
  18 H :    0.118069
  19 H :    0.293043
  20 H :    0.288613
  21 H :    0.299497
  22 H :    0.288599
  23 H :    0.263700

  Mayer bond orders larger than 0.100000
B(  0-C ,  1-C ) :   1.0157 B(  0-C , 16-O ) :   1.1221 B(  0-C , 17-H ) :   0.9112
B(  0-C , 18-H ) :   0.9164 B(  1-C ,  2-H ) :   0.8720 B(  1-C ,  3-C ) :   1.0336
B(  1-C , 11-O ) :   0.9858 B(  3-C ,  4-H ) :   0.8934 B(  3-C ,  5-C ) :   0.9994
B(  3-C , 15-O ) :   1.0446 B(  5-C ,  6-H ) :   0.8598 B(  5-C ,  7-C ) :   1.0313
B(  5-C , 14-O ) :   1.0152 B(  7-C ,  8-H ) :   0.8208 B(  7-C ,  9-C ) :   1.0646
B(  7-C , 13-O ) :   1.0612 B(  9-C , 10-H ) :   0.8827 B(  9-C , 11-O ) :   1.0273
B(  9-C , 12-O ) :   1.1464 B( 12-O , 19-H ) :   0.8375 B( 13-O , 20-H ) :   0.8347
B( 14-O , 21-H ) :   0.8360 B( 14-O , 23-H ) :   0.1257 B( 15-O , 22-H ) :   0.8462
B( 16-O , 23-H ) :   0.7861

Dispersion correction           -0.025439226
FINAL SINGLE POINT ENERGY      -685.693689242899

DIPOLE MOMENT
-------------

Method             : SCF
Type of density    : Electron Density
Multiplicity       :   1
Irrep              :   0
Energy             :  -685.8256216226029665 Eh
Relativity type    :
Basis              : AO
                                X                 Y                 Z
Electronic contribution:      2.816166947      -1.092342342       0.371660342
Nuclear contribution   :     -2.729045778       1.844211163       0.123401147
                        -----------------------------------------
Total Dipole Moment    :      0.087121169       0.751868821       0.495061489
                        -----------------------------------------
Magnitude (a.u.)       :      0.904423960
Magnitude (Debye)      :      2.298863013

Rotational constants in cm-1:             0.035433             0.028982             0.026526
Rotational constants in MHz :          1062.268649           868.856246           795.214544

                             ****ORCA TERMINATED NORMALLY****
TOTAL RUN TIME: 0 days 0 hours 0 minutes 12 seconds 67 msec
