                         Program Version 6.0.0  -   RELEASE  -
|  1> ! r2scan-3c def2/J RI DEFGRID2 scfconv6 printgap
|  2> %output
|  3>     printlevel normal
|  4> end
|  5> * xyz 0 1
|  6> C -1.35133288 -0.8691646649 0.4086666949
|  7> C -0.5928239191 0.0845049328 -0.5111980775
|  8> C -0.6698544329 1.5174947338 0.0100030166
|  9> C 0.8699848575 -0.3554670404 -0.645793912
| 10> O 1.4974934584 -0.3269404128 0.6207039728
| 11> H -1.3373478444 -1.8798351 0.0073360698
| 12> H -2.3849209339 -0.5510640401 0.5156292354
| 13> H -0.8831371037 -0.8789461847 1.3897211483
| 14> H -1.0343589162 0.0432197998 -1.5130126112
| 15> H -0.174217011 2.2010936809 -0.6754089469
| 16> H -0.1792602937 1.5802914387 0.9781007895
| 17> H -1.7060937598 1.8255811762 0.1204635384
| 18> H 0.9042090901 -1.3723168539 -1.0616856563
| 19> H 1.3877951183 0.3214327164 -1.3397738961
| 20> H 2.4190964635 -0.5965735153 0.52390533
| 21> *
| 22>
| 23>                          ****END OF INPUT****

CARTESIAN COORDINATES (ANGSTROEM)
---------------------------------
  C     -1.351333   -0.869165    0.408667
  C     -0.592824    0.084505   -0.511198
  C     -0.669854    1.517495    0.010003
  C      0.869985   -0.355467   -0.645794
  O      1.497493   -0.326940    0.620704
  H     -1.337348   -1.879835    0.007336
  H     -2.384921   -0.551064    0.515629
  H     -0.883137   -0.878946    1.389721
  H     -1.034359    0.043220   -1.513013
  H     -0.174217    2.201094   -0.675409
  H     -0.179260    1.580291    0.978101
  H     -1.706094    1.825581    0.120464
  H      0.904209   -1.372317   -1.061686
  H      1.387795    0.321433   -1.339774
  H      2.419096   -0.596574    0.523905

 Total Charge           Charge          ....    0
 Multiplicity           Mult            ....    1
 Number of Electrons    NEL             ....   42
 Basis Dimension        Dim             ....  150

ORBITAL ENERGIES
----------------

  NO   OCC          E(Eh)            E(eV)
   0   2.0000     -18.947493      -515.5875
   1   2.0000     -10.072025      -274.0737
   2   2.0000     -10.032186      -272.9897
   3   2.0000     -10.008350      -272.3411
   4   2.0000     -10.008323      -272.3403
   5   2.0000      -0.984629       -26.7931
   6   2.0000      -0.762423       -20.7466
   7   2.0000      -0.644141       -17.5280
   8   2.0000      -0.638010       -17.3611
   9   2.0000      -0.523250       -14.2384
  10   2.0000      -0.484727       -13.1901
  11   2.0000      -0.422578       -11.4989
  12   2.0000      -0.409549       -11.1444
  13   2.0000      -0.397876       -10.8268
  14   2.0000      -0.352420        -9.5898
  15   2.0000      -0.338095        -9.2000
  16   2.0000      -0.337882        -9.1942
  17   2.0000      -0.298657        -8.1269
  18   2.0000      -0.296144        -8.0585
  19   2.0000      -0.280340        -7.6284
  20   2.0000      -0.234894        -6.3918
  21   0.0000       0.058320         1.5870
  22   0.0000       0.098364         2.6766
  23   0.0000       0.122120         3.3231
  24   0.0000       0.141879         3.8607
  25   0.0000       0.148130         4.0308

MULLIKEN ATOMIC CHARGES
-----------------------
   0 C :   -0.505030
   1 C :    0.003344
   2 C :   -0.505409
   3 C :   -0.134715
   4 O :   -0.442734
   5 H :    0.139585
   6 H :    0.142082
   7 H :    0.171101
   8 H :    0.138107
   9 H :    0.139551
  10 H :    0.171173
  11 H :    0.142094
  12 H :    0.124238
  13 H :    0.123959
  14 H :    0.292656
Sum of atomic charges:   -0.0000000

LOEWDIN ATOMIC CHARGES
----------------------
   0 C :   -0.412441
   1 C :   -0.227143
   2 C :   -0.412590
   3 C :    0.007830
   4 O :   -0.637228
   5 H :    0.153074
   6 H :    0.151475
   7 H :    0.166208
   8 H :    0.158470
   9 H :    0.153000
  10 H :    0.166152
  11 H :    0.151503
  12 H :    0.157395
  13 H :    0.157451
  14 H :    0.266843

  Mayer bond orders larger than 0.100000
B(  0-C ,  1-C ) :   0.9179 B(  0-C ,  5-H ) :   0.9715 B(  0-C ,  6-H ) :   0.9753
B(  0-C ,  7-H ) :   0.9810 B(  1-C ,  2-C ) :   0.9178 B(  1-C ,  3-C ) :   0.9642
B(  1-C ,  8-H ) :   0.9392 B(  2-C ,  9-H ) :   0.9716 B(  2-C , 10-H ) :   0.9810
B(  2-C , 11-H ) :   0.9753 B(  3-C ,  4-O ) :   0.9180 B(  3-C , 12-H ) :   0.9657
B(  3-C , 13-H ) :   0.9660 B(  4-O , 14-H ) :   0.9017

Dispersion correction           -0.003256412
FINAL SINGLE POINT ENERGY      -233.599616510387

DIPOLE MOMENT
-------------

Method             : SCF
Type of density    : Electron Density
Multiplicity       :   1
Irrep              :   0
Energy             :  -233.6048379370420207 Eh
Relativity type    :
Basis              : AO
                                X                 Y                 Z
Electronic contribution:      3.086869719      -0.801665159       0.524133086
Nuclear contribution   :     -2.781187202       0.645176760      -0.980273841
                        -----------------------------------------
Total Dipole Moment    :      0.305682517      -0.156488398      -0.456140755
                        -----------------------------------------
Magnitude (a.u.)       :      0.570959550
Magnitude (Debye)      :      1.451263843

Rotational constants in cm-1:             0.210893             0.134338             0.107810
Rotational constants in MHz :          6322.410672          4027.337747          3232.062622

                             ****ORCA TERMINATED NORMALLY****
TOTAL RUN TIME: 0 days 0 hours 0 minutes 15 seconds 146 msec
