                         Program Version 6.0.0  -   RELEASE  -
|  1> ! pbe def2-sv(p) def2/J RI DEFGRID1 loosescf d4 GCP(DFT/SV(P)) printgap
|  2> %output
|  3>     printlevel normal
|  4> end
|  5> * xyz 0 1
|  6> C -2.5513152381 -0.9112167554 0.3031823741
|  7> C -1.1189539141 -0.4563392866 0.6269357403
|  8> H -0.9820135352 -0.4303347605 1.7202155279
|  9> C -0.8371065769 0.9405507309 0.0476201193
| 10> H -1.0928002551 0.9372232724 -1.0178497583
| 11> C 0.6492459218 1.2888840996 0.2134688603
| 12> H 0.8704173976 1.4132818492 1.2885558273
| 13> C 1.5425052256 0.1643193494 -0.323879445
| 14> H 1.3984687272 0.0960714227 -1.4135902671
| 15> C 1.1249803818 -1.1717032357 0.3182607856
| 16> H 1.3083824779 -1.1161209934 1.4035043032
| 17> O -0.2438411245 -1.4172190034 0.063844105
| 18> O 1.8472165616 -2.250139273 -0.1304921902
| 19> O 2.8919290043 0.3907682217 -0.0163793464
| 20> O 0.9834409532 2.4699905429 -0.4769446339
| 21> O -1.6451945793 1.933731477 0.6249747988
| 22> O -2.7502523618 -1.0897529435 -1.0731454334
| 23> H -3.2504641857 -0.1338088989 0.6160180146
| 24> H -2.7600245624 -1.8380024052 0.8501363384
| 25> H 1.7456951774 -2.3492245658 -1.0905234439
| 26> H 3.1358696339 1.2690482979 -0.3480999633
| 27> H 0.278967829 3.1215159073 -0.3390898601
| 28> H -1.5226394538 1.9440840639 1.5862186865
| 29> H -2.1373974911 -1.7731241899 -1.3807304225
| 30> *
| 31>
| 32>                          ****END OF INPUT****

CARTESIAN COORDINATES (ANGSTROEM)
---------------------------------
  C     -2.551315   -0.911217    0.303182
  C     -1.118954   -0.456339    0.626936
  H     -0.982014   -0.430335    1.720216
  C     -0.837107    0.940551    0.047620
  H     -1.092800    0.937223   -1.017850
  C      0.649246    1.288884    0.213469
  H      0.870417    1.413282    1.288556
  C      1.542505    0.164319   -0.323879
  H      1.398469    0.096071   -1.413590
  C      1.124980   -1.171703    0.318261
  H      1.308382   -1.116121    1.403504
  O     -0.243841   -1.417219    0.063844
  O      1.847217   -2.250139   -0.130492
  O      2.891929    0.390768   -0.016379
  O      0.983441    2.469991   -0.476945
  O     -1.645195    1.933731    0.624975
  O     -2.750252   -1.089753   -1.073145
  H     -3.250464   -0.133809    0.616018
  H     -2.760025   -1.838002    0.850136
  H      1.745695   -2.349225   -1.090523
  H      3.135870    1.269048   -0.348100
  H      0.278968    3.121516   -0.339090
  H     -1.522639    1.944084    1.586219
  H     -2.137397   -1.773124   -1.380730

 Total Charge           Charge          ....    0
 Multiplicity           Mult            ....    1
 Number of Electrons    NEL             ....   96
 Basis Dimension        Dim             ....  192

ORBITAL ENERGIES
----------------

  NO   OCC          E(Eh)            E(eV)
   0   2.0000     -18.780555      -511.0449
   1   2.0000     -18.773352      -510.8489
   2   2.0000     -18.761502      -510.5264
   3   2.0000     -18.759363      -510.4682
   4   2.0000     -18.751966      -510.2669
   5   2.0000     -18.750762      -510.2342
   6   2.0000      -9.991454      -271.8813
   7   2.0000      -9.952856      -270.8310
   8   2.0000      -9.948235      -270.7052
   9   2.0000      -9.947347      -270.6811
  10   2.0000      -9.944483      -270.6031
  11   2.0000      -9.936344      -270.3817
  12   2.0000      -0.989284       -26.9198
  13   2.0000      -0.957002       -26.0414
  14   2.0000      -0.940645       -25.5962
  15   2.0000      -0.931152       -25.3379
  16   2.0000      -0.920276       -25.0420
  17   2.0000      -0.914906       -24.8959
  18   2.0000      -0.707585       -19.2544
  19   2.0000      -0.695093       -18.9145
  20   2.0000      -0.622624       -16.9425
  21   2.0000      -0.591886       -16.1060
  22   2.0000      -0.564908       -15.3719
  23   2.0000      -0.550235       -14.9727
  24   2.0000      -0.508337       -13.8325
  25   2.0000      -0.491563       -13.3761
  26   2.0000      -0.477906       -13.0045
  27   2.0000      -0.462925       -12.5968
  28   2.0000      -0.450815       -12.2673
  29   2.0000      -0.434638       -11.8271
  30   2.0000      -0.425354       -11.5745
  31   2.0000      -0.415782       -11.3140
  32   2.0000      -0.385372       -10.4865
  33   2.0000      -0.379664       -10.3312
  34   2.0000      -0.368311       -10.0223
  35   2.0000      -0.356263        -9.6944
  36   2.0000      -0.328820        -8.9476
  37   2.0000      -0.317004        -8.6261
  38   2.0000      -0.306782        -8.3480
  39   2.0000      -0.299818        -8.1585
  40   2.0000      -0.288884        -7.8609
  41   2.0000      -0.281821        -7.6687
  42   2.0000      -0.262502        -7.1430
  43   2.0000      -0.242831        -6.6078
  44   2.0000      -0.238870        -6.5000
  45   2.0000      -0.226849        -6.1729
  46   2.0000      -0.220274        -5.9940
  47   2.0000      -0.211101        -5.7444
  48   0.0000       0.003640         0.0991
  49   0.0000       0.020740         0.5644
  50   0.0000       0.030927         0.8416
  51   0.0000       0.045412         1.2357
  52   0.0000       0.050667         1.3787

MULLIKEN ATOMIC CHARGES
-----------------------
   0 C :    0.110270
   1 C :   -0.028059
   2 H :    0.038106
   3 C :    0.039437
   4 H :    0.070651
   5 C :    0.063533
   6 H :    0.035345
   7 C :    0.043401
   8 H :    0.043105
   9 C :    0.204025
  10 H :    0.054890
  11 O :   -0.316939
  12 O :   -0.361587
  13 O :   -0.408068
  14 O :   -0.422611
  15 O :   -0.415241
  16 O :   -0.437021
  17 H :    0.082929
  18 H :    0.084075
  19 H :    0.302374
  20 H :    0.311156
  21 H :    0.306894
  22 H :    0.299971
  23 H :    0.299366
Sum of atomic charges:    0.0000000

LOEWDIN ATOMIC CHARGES
----------------------
   0 C :   -0.122216
   1 C :   -0.081413
   2 H :    0.097470
   3 C :   -0.086382
   4 H :    0.122346
   5 C :   -0.086387
   6 H :    0.094334
   7 C :   -0.088802
   8 H :    0.100723
   9 C :    0.007562
  10 H :    0.101214
  11 O :   -0.159562
  12 O :   -0.274703
  13 O :   -0.315319
  14 O :   -0.328673
  15 O :   -0.304726
  16 O :   -0.328797
  17 H :    0.118786
  18 H :    0.102617
  19 H :    0.288742
  20 H :    0.290705
  21 H :    0.286470
  22 H :    0.284576
  23 H :    0.281435

  Mayer bond orders larger than 0.100000
B(  0-C ,  1-C ) :   1.0315 B(  0-C , 16-O ) :   1.0719 B(  0-C , 17-H ) :   0.9120
B(  0-C , 18-H ) :   0.9180 B(  1-C ,  2-H ) :   0.8667 B(  1-C ,  3-C ) :   0.9927
B(  1-C , 11-O ) :   0.9906 B(  3-C ,  4-H ) :   0.8545 B(  3-C ,  5-C ) :   1.0110
B(  3-C , 15-O ) :   1.0034 B(  5-C ,  6-H ) :   0.8677 B(  5-C ,  7-C ) :   1.0105
B(  5-C , 14-O ) :   1.0883 B(  7-C ,  8-H ) :   0.8611 B(  7-C ,  9-C ) :   0.9860
B(  7-C , 13-O ) :   1.0886 B(  9-C , 10-H ) :   0.8792 B(  9-C , 11-O ) :   0.9862
B(  9-C , 12-O ) :   1.1766 B( 12-O , 19-H ) :   0.8419 B( 13-O , 20-H ) :   0.8383
B( 14-O , 21-H ) :   0.8309 B( 15-O , 22-H ) :   0.8444 B( 16-O , 23-H ) :   0.8419

Dispersion correction           -0.023935852
FINAL SINGLE POINT ENERGY      -685.701069643167

DIPOLE MOMENT
-------------

Method             : SCF
Type of density    : Electron Density
Multiplicity       :   1
Irrep              :   0
Energy             :  -685.8308244020958000 Eh
Relativity type    :
Basis              : AO
                                X                 Y                 Z
Electronic contribution:      2.607951341      -0.641441104      -1.400410379
Nuclear contribution   :     -2.805533990       1.070639031       1.743913364
                        -----------------------------------------
Total Dipole Moment    :     -0.197582650       0.429197927       0.343502985
                        -----------------------------------------
Magnitude (a.u.)       :      0.584160992
Magnitude (Debye)      :      1.484819241

Rotational constants in cm-1:             0.038721             0.027177             0.017758
Rotational constants in MHz :          1160.819922           814.759139           532.375902

                             ****ORCA TERMINATED NORMALLY****
TOTAL RUN TIME: 0 days 0 hours 0 minutes 12 seconds 170 msec
