                         Program Version 6.0.0  -   RELEASE  -
|  1> ! pbe def2-sv(p) def2/J RI DEFGRID1 loosescf d4 GCP(DFT/SV(P)) printgap
|  2> %output
|  3>     printlevel normal
|  4> end
|  5> * xyz 0 1
|  6> C -1.912603512 1.5006283344 0.0072988736
|  7> O -1.6599599968 0.0948054208 -0.0006230885
|  8> C -0.4265343463 -0.4214307503 -0.0010038259
|  9> O -0.3322803462 -1.635921609 -0.0099943552
| 10> C 0.7510096434 0.4704867072 0.0085612435
| 11> C 1.9790327249 -0.0328588125 0.7390699556
| 12> C 1.9748839236 -0.0125618791 -0.7426919855
| 13> H -1.5030704746 1.9755066558 -0.884547805
| 14> H -1.5141470626 1.9632346534 0.9105649524
| 15> H -2.9969648238 1.5829869951 0.0012521155
| 16> H 0.5659497793 1.5325981619 0.023439566
| 17> H 2.5629716952 0.6974106364 1.2756846641
| 18> H 1.8845830603 -0.9901948335 1.2283637642
| 19> H 2.5557102051 0.7322265006 -1.2624725717
| 20> H 1.8775105311 -0.9560540232 -1.2576189209
| 21> *
| 22>
| 23>                          ****END OF INPUT****

CARTESIAN COORDINATES (ANGSTROEM)
---------------------------------
  C     -1.912604    1.500628    0.007299
  O     -1.659960    0.094805   -0.000623
  C     -0.426534   -0.421431   -0.001004
  O     -0.332280   -1.635922   -0.009994
  C      0.751010    0.470487    0.008561
  C      1.979033   -0.032859    0.739070
  C      1.974884   -0.012562   -0.742692
  H     -1.503070    1.975507   -0.884548
  H     -1.514147    1.963235    0.910565
  H     -2.996965    1.582987    0.001252
  H      0.565950    1.532598    0.023440
  H      2.562972    0.697411    1.275685
  H      1.884583   -0.990195    1.228364
  H      2.555710    0.732227   -1.262473
  H      1.877511   -0.956054   -1.257619

 Total Charge           Charge          ....    0
 Multiplicity           Mult            ....    1
 Number of Electrons    NEL             ....   54
 Basis Dimension        Dim             ....  114

ORBITAL ENERGIES
----------------

  NO   OCC          E(Eh)            E(eV)
   0   2.0000     -18.796435      -511.4770
   1   2.0000     -18.720859      -509.4205
   2   2.0000     -10.006125      -272.2805
   3   2.0000      -9.953560      -270.8501
   4   2.0000      -9.920168      -269.9415
   5   2.0000      -9.906531      -269.5704
   6   2.0000      -9.906347      -269.5654
   7   2.0000      -0.997226       -27.1359
   8   2.0000      -0.905597       -24.6425
   9   2.0000      -0.797187       -21.6926
  10   2.0000      -0.665495       -18.1090
  11   2.0000      -0.598526       -16.2867
  12   2.0000      -0.547130       -14.8882
  13   2.0000      -0.505984       -13.7685
  14   2.0000      -0.485035       -13.1985
  15   2.0000      -0.449033       -12.2188
  16   2.0000      -0.436798       -11.8859
  17   2.0000      -0.410985       -11.1835
  18   2.0000      -0.382362       -10.4046
  19   2.0000      -0.364766        -9.9258
  20   2.0000      -0.349844        -9.5197
  21   2.0000      -0.328991        -8.9523
  22   2.0000      -0.301153        -8.1948
  23   2.0000      -0.276624        -7.5273
  24   2.0000      -0.274796        -7.4776
  25   2.0000      -0.244100        -6.6423
  26   2.0000      -0.214418        -5.8346
  27   0.0000      -0.026925        -0.7327
  28   0.0000       0.028530         0.7763
  29   0.0000       0.052822         1.4374
  30   0.0000       0.071669         1.9502
  31   0.0000       0.078629         2.1396

MULLIKEN ATOMIC CHARGES
-----------------------
   0 C :   -0.135201
   1 O :   -0.226068
   2 C :    0.199885
   3 O :   -0.195227
   4 C :   -0.268187
   5 C :   -0.172723
   6 C :   -0.173489
   7 H :    0.123763
   8 H :    0.123745
   9 H :    0.135093
  10 H :    0.085727
  11 H :    0.115855
  12 H :    0.135442
  13 H :    0.115925
  14 H :    0.135459
Sum of atomic charges:    0.0000000

LOEWDIN ATOMIC CHARGES
----------------------
   0 C :   -0.204458
   1 O :   -0.072937
   2 C :    0.046037
   3 O :   -0.169245
   4 C :   -0.199208
   5 C :   -0.211132
   6 C :   -0.210958
   7 H :    0.115148
   8 H :    0.115120
   9 H :    0.128115
  10 H :    0.127584
  11 H :    0.129143
  12 H :    0.138887
  13 H :    0.129121
  14 H :    0.138783

  Mayer bond orders larger than 0.100000
B(  0-C ,  1-O ) :   0.9585 B(  0-C ,  7-H ) :   0.9452 B(  0-C ,  8-H ) :   0.9452
B(  0-C ,  9-H ) :   0.9581 B(  1-O ,  2-C ) :   1.1800 B(  2-C ,  3-O ) :   2.1063
B(  2-C ,  4-C ) :   0.9887 B(  4-C ,  5-C ) :   0.9710 B(  4-C ,  6-C ) :   0.9704
B(  4-C , 10-H ) :   0.9005 B(  5-C ,  6-C ) :   1.0979 B(  5-C , 11-H ) :   0.9282
B(  5-C , 12-H ) :   0.9198 B(  6-C , 13-H ) :   0.9283 B(  6-C , 14-H ) :   0.9202

Dispersion correction           -0.011227594
FINAL SINGLE POINT ENERGY      -345.020598560919

DIPOLE MOMENT
-------------

Method             : SCF
Type of density    : Electron Density
Multiplicity       :   1
Irrep              :   0
Energy             :  -345.0759454587691835 Eh
Relativity type    :
Basis              : AO
                                X                 Y                 Z
Electronic contribution:     -2.917175084      -4.468514543      -0.022006787
Nuclear contribution   :      3.190743926       6.110631747       0.032364877
                        -----------------------------------------
Total Dipole Moment    :      0.273568842       1.642117204       0.010358089
                        -----------------------------------------
Magnitude (a.u.)       :      1.664781100
Magnitude (Debye)      :      4.231537271

Rotational constants in cm-1:             0.161875             0.065949             0.053110
Rotational constants in MHz :          4852.887906          1977.096183          1592.212039

                             ****ORCA TERMINATED NORMALLY****
TOTAL RUN TIME: 0 days 0 hours 0 minutes 7 seconds 620 msec
