                         Program Version 6.0.0  -   RELEASE  -
|  1> ! pbe def2-sv(p) def2/J RI DEFGRID1 loosescf d4 GCP(DFT/SV(P)) printgap
|  2> %output
|  3>     printlevel normal
|  4> end
|  5> * xyz 0 1
|  6> C -2.5344928324 -0.6443068693 -0.136250557
|  7> C -1.1949683441 -0.4807656802 0.6012269196
|  8> H -1.2948790477 -0.8763004227 1.6250563486
|  9> C -0.7181937329 0.9909805691 0.7133327879
| 10> H -1.5700769303 1.6632822853 0.5562242213
| 11> C 0.3388045403 1.3012245799 -0.3581129261
| 12> H 0.726130745 2.3133306029 -0.1769855369
| 13> C 1.544822046 0.3378805505 -0.1971235119
| 14> H 2.0207257887 0.2303977663 -1.1777078533
| 15> C 1.0731128613 -1.0499646882 0.2999281579
| 16> H 1.1312512566 -1.0733960107 1.4001733314
| 17> O -0.2602614673 -1.2786315295 -0.1099752701
| 18> O 1.8533086804 -2.0982893267 -0.1391016982
| 19> O 2.5276538808 0.8758110542 0.6481088852
| 20> O -0.1818937007 1.3009157547 -1.6579768873
| 21> O -0.1096042645 1.2346369976 1.9636180623
| 22> O -2.39934018 -0.4108086022 -1.5183556563
| 23> H -3.2564652961 0.0837848185 0.2370482115
| 24> H -2.9149962272 -1.6529248702 0.045752698
| 25> H 1.8080657136 -2.1644481577 -1.1056269486
| 26> H 2.1179188357 1.0969104144 1.4996332079
| 27> H -0.9681255336 0.7159903566 -1.7151457389
| 28> H -0.7820290456 1.3861837038 2.6424218702
| 29> H -1.9481320774 -1.1711312162 -1.9137197272
| 30> *
| 31>
| 32>                          ****END OF INPUT****

CARTESIAN COORDINATES (ANGSTROEM)
---------------------------------
  C     -2.534493   -0.644307   -0.136251
  C     -1.194968   -0.480766    0.601227
  H     -1.294879   -0.876300    1.625056
  C     -0.718194    0.990981    0.713333
  H     -1.570077    1.663282    0.556224
  C      0.338805    1.301225   -0.358113
  H      0.726131    2.313331   -0.176986
  C      1.544822    0.337881   -0.197124
  H      2.020726    0.230398   -1.177708
  C      1.073113   -1.049965    0.299928
  H      1.131251   -1.073396    1.400173
  O     -0.260261   -1.278632   -0.109975
  O      1.853309   -2.098289   -0.139102
  O      2.527654    0.875811    0.648109
  O     -0.181894    1.300916   -1.657977
  O     -0.109604    1.234637    1.963618
  O     -2.399340   -0.410809   -1.518356
  H     -3.256465    0.083785    0.237048
  H     -2.914996   -1.652925    0.045753
  H      1.808066   -2.164448   -1.105627
  H      2.117919    1.096910    1.499633
  H     -0.968126    0.715990   -1.715146
  H     -0.782029    1.386184    2.642422
  H     -1.948132   -1.171131   -1.913720

 Total Charge           Charge          ....    0
 Multiplicity           Mult            ....    1
 Number of Electrons    NEL             ....   96
 Basis Dimension        Dim             ....  192

ORBITAL ENERGIES
----------------

  NO   OCC          E(Eh)            E(eV)
   0   2.0000     -18.788239      -511.2540
   1   2.0000     -18.779165      -511.0071
   2   2.0000     -18.776051      -510.9223
   3   2.0000     -18.754972      -510.3487
   4   2.0000     -18.734042      -509.7792
   5   2.0000     -18.729925      -509.6672
   6   2.0000      -9.980487      -271.5829
   7   2.0000      -9.958274      -270.9784
   8   2.0000      -9.958095      -270.9736
   9   2.0000      -9.956276      -270.9240
  10   2.0000      -9.933362      -270.3005
  11   2.0000      -9.925585      -270.0889
  12   2.0000      -0.987507       -26.8714
  13   2.0000      -0.960047       -26.1242
  14   2.0000      -0.953564       -25.9478
  15   2.0000      -0.917307       -24.9612
  16   2.0000      -0.915054       -24.8999
  17   2.0000      -0.903597       -24.5881
  18   2.0000      -0.710128       -19.3236
  19   2.0000      -0.680842       -18.5266
  20   2.0000      -0.627120       -17.0648
  21   2.0000      -0.589665       -16.0456
  22   2.0000      -0.575217       -15.6525
  23   2.0000      -0.530104       -14.4249
  24   2.0000      -0.505191       -13.7470
  25   2.0000      -0.493713       -13.4346
  26   2.0000      -0.491031       -13.3616
  27   2.0000      -0.474057       -12.8997
  28   2.0000      -0.442136       -12.0311
  29   2.0000      -0.437706       -11.9106
  30   2.0000      -0.411744       -11.2041
  31   2.0000      -0.400806       -10.9065
  32   2.0000      -0.399024       -10.8580
  33   2.0000      -0.386423       -10.5151
  34   2.0000      -0.362591        -9.8666
  35   2.0000      -0.349979        -9.5234
  36   2.0000      -0.330491        -8.9931
  37   2.0000      -0.317543        -8.6408
  38   2.0000      -0.311702        -8.4819
  39   2.0000      -0.304664        -8.2903
  40   2.0000      -0.283167        -7.7054
  41   2.0000      -0.271439        -7.3862
  42   2.0000      -0.257077        -6.9954
  43   2.0000      -0.246024        -6.6947
  44   2.0000      -0.243973        -6.6388
  45   2.0000      -0.233049        -6.3416
  46   2.0000      -0.217780        -5.9261
  47   2.0000      -0.183567        -4.9951
  48   0.0000      -0.000969        -0.0264
  49   0.0000       0.008318         0.2264
  50   0.0000       0.037906         1.0315
  51   0.0000       0.048701         1.3252
  52   0.0000       0.052356         1.4247

MULLIKEN ATOMIC CHARGES
-----------------------
   0 C :    0.058013
   1 C :    0.031584
   2 H :    0.058560
   3 C :   -0.056559
   4 H :    0.080583
   5 C :    0.085830
   6 H :    0.069750
   7 C :    0.068633
   8 H :    0.053248
   9 C :    0.196262
  10 H :    0.046517
  11 O :   -0.323477
  12 O :   -0.375466
  13 O :   -0.427396
  14 O :   -0.431200
  15 O :   -0.419630
  16 O :   -0.427599
  17 H :    0.096854
  18 H :    0.099359
  19 H :    0.299198
  20 H :    0.302293
  21 H :    0.283363
  22 H :    0.311406
  23 H :    0.319872
Sum of atomic charges:    0.0000000

LOEWDIN ATOMIC CHARGES
----------------------
   0 C :   -0.123938
   1 C :   -0.079964
   2 H :    0.106148
   3 C :   -0.083848
   4 H :    0.109433
   5 C :   -0.069240
   6 H :    0.113460
   7 C :   -0.089904
   8 H :    0.115972
   9 C :   -0.005000
  10 H :    0.096277
  11 O :   -0.171038
  12 O :   -0.285690
  13 O :   -0.313834
  14 O :   -0.333701
  15 O :   -0.315920
  16 O :   -0.307707
  17 H :    0.118725
  18 H :    0.112892
  19 H :    0.284734
  20 H :    0.275924
  21 H :    0.259784
  22 H :    0.292673
  23 H :    0.293763

  Mayer bond orders larger than 0.100000
B(  0-C ,  1-C ) :   1.0241 B(  0-C , 16-O ) :   1.0404 B(  0-C , 17-H ) :   0.9236
B(  0-C , 18-H ) :   0.9226 B(  1-C ,  2-H ) :   0.8854 B(  1-C ,  3-C ) :   0.9330
B(  1-C , 11-O ) :   1.0221 B(  3-C ,  4-H ) :   0.9012 B(  3-C ,  5-C ) :   1.0232
B(  3-C , 15-O ) :   1.0376 B(  5-C ,  6-H ) :   0.8888 B(  5-C ,  7-C ) :   0.9346
B(  5-C , 14-O ) :   1.0984 B(  7-C ,  8-H ) :   0.8788 B(  7-C ,  9-C ) :   0.9732
B(  7-C , 13-O ) :   1.0458 B(  9-C , 10-H ) :   0.8729 B(  9-C , 11-O ) :   0.9980
B(  9-C , 12-O ) :   1.1506 B( 12-O , 19-H ) :   0.8442 B( 13-O , 20-H ) :   0.8332
B( 14-O , 21-H ) :   0.7785 B( 15-O , 22-H ) :   0.8426 B( 16-O , 21-H ) :   0.1606
B( 16-O , 23-H ) :   0.8266

Dispersion correction           -0.025405395
FINAL SINGLE POINT ENERGY      -685.692339970248

DIPOLE MOMENT
-------------

Method             : SCF
Type of density    : Electron Density
Multiplicity       :   1
Irrep              :   0
Energy             :  -685.8252648354058465 Eh
Relativity type    :
Basis              : AO
                                X                 Y                 Z
Electronic contribution:      2.968463264      -0.916788660      -1.034555654
Nuclear contribution   :     -4.604569979       0.511993340       1.786534235
                        -----------------------------------------
Total Dipole Moment    :     -1.636106715      -0.404795319       0.751978581
                        -----------------------------------------
Magnitude (a.u.)       :      1.845582894
Magnitude (Debye)      :      4.691098910

Rotational constants in cm-1:             0.041305             0.027381             0.023841
Rotational constants in MHz :          1238.290159           820.847806           714.743572

                             ****ORCA TERMINATED NORMALLY****
TOTAL RUN TIME: 0 days 0 hours 0 minutes 12 seconds 251 msec
