                         Program Version 6.0.0  -   RELEASE  -
|  1> ! pbe def2-sv(p) def2/J RI DEFGRID1 loosescf d4 GCP(DFT/SV(P)) printgap
|  2> %output
|  3>     printlevel normal
|  4> end
|  5> * xyz 0 1
|  6> C -2.2525545491 -0.9818654666 -0.3690217546
|  7> C -1.157349112 -0.2204757531 0.3868241255
|  8> H -1.6060604593 0.2337622211 1.2786647716
|  9> C -0.5578919843 0.8947051757 -0.4734622221
| 10> H -0.377845705 0.5194733768 -1.494354885
| 11> C 0.7830128473 1.3175505058 0.1518683797
| 12> H 0.6113211396 1.5460981385 1.2110443736
| 13> C 1.7775458961 0.1560171044 0.0284143072
| 14> H 2.2406787305 0.1758193403 -0.9647692617
| 15> C 1.0325599667 -1.2003142941 0.135745263
| 16> H 1.6596416333 -1.8873407641 0.7211102682
| 17> O -0.1587571619 -1.1193526752 0.8785565433
| 18> O 0.8265754843 -1.6760521917 -1.1582722904
| 19> O 2.8431153114 0.2442765401 0.9336807404
| 20> O 1.244633391 2.5191773411 -0.4084856315
| 21> O -1.463281829 1.9662384038 -0.5148690415
| 22> O -2.9626071382 -1.8614968314 0.4663817752
| 23> H -1.8032390484 -1.523705207 -1.2115406885
| 24> H -2.9751708899 -0.2592092565 -0.7522735199
| 25> H 0.630437946 -2.6251024634 -1.1482182107
| 26> H 2.5095087659 0.3226012683 1.8394073071
| 27> H 1.617789341 2.3571402701 -1.2873393015
| 28> H -0.9511785514 2.7867199315 -0.6206711626
| 29> H -2.3242194898 -2.3920002519 0.9658620618
| 30> *
| 31>
| 32>                          ****END OF INPUT****

CARTESIAN COORDINATES (ANGSTROEM)
---------------------------------
  C     -2.252555   -0.981865   -0.369022
  C     -1.157349   -0.220476    0.386824
  H     -1.606060    0.233762    1.278665
  C     -0.557892    0.894705   -0.473462
  H     -0.377846    0.519473   -1.494355
  C      0.783013    1.317551    0.151868
  H      0.611321    1.546098    1.211044
  C      1.777546    0.156017    0.028414
  H      2.240679    0.175819   -0.964769
  C      1.032560   -1.200314    0.135745
  H      1.659642   -1.887341    0.721110
  O     -0.158757   -1.119353    0.878557
  O      0.826575   -1.676052   -1.158272
  O      2.843115    0.244277    0.933681
  O      1.244633    2.519177   -0.408486
  O     -1.463282    1.966238   -0.514869
  O     -2.962607   -1.861497    0.466382
  H     -1.803239   -1.523705   -1.211541
  H     -2.975171   -0.259209   -0.752274
  H      0.630438   -2.625102   -1.148218
  H      2.509509    0.322601    1.839407
  H      1.617789    2.357140   -1.287339
  H     -0.951179    2.786720   -0.620671
  H     -2.324219   -2.392000    0.965862

 Total Charge           Charge          ....    0
 Multiplicity           Mult            ....    1
 Number of Electrons    NEL             ....   96
 Basis Dimension        Dim             ....  192

ORBITAL ENERGIES
----------------

  NO   OCC          E(Eh)            E(eV)
   0   2.0000     -18.778320      -510.9841
   1   2.0000     -18.777713      -510.9676
   2   2.0000     -18.771649      -510.8025
   3   2.0000     -18.760749      -510.5059
   4   2.0000     -18.748902      -510.1836
   5   2.0000     -18.738770      -509.9079
   6   2.0000      -9.995771      -271.9988
   7   2.0000      -9.953577      -270.8506
   8   2.0000      -9.953478      -270.8479
   9   2.0000      -9.943200      -270.5682
  10   2.0000      -9.942482      -270.5487
  11   2.0000      -9.922967      -270.0177
  12   2.0000      -0.990707       -26.9585
  13   2.0000      -0.957598       -26.0576
  14   2.0000      -0.937618       -25.5139
  15   2.0000      -0.928820       -25.2745
  16   2.0000      -0.919203       -25.0128
  17   2.0000      -0.910998       -24.7895
  18   2.0000      -0.710431       -19.3318
  19   2.0000      -0.696613       -18.9558
  20   2.0000      -0.623670       -16.9709
  21   2.0000      -0.588997       -16.0274
  22   2.0000      -0.576854       -15.6970
  23   2.0000      -0.534574       -14.5465
  24   2.0000      -0.516113       -14.0441
  25   2.0000      -0.495913       -13.4945
  26   2.0000      -0.466962       -12.7067
  27   2.0000      -0.463586       -12.6148
  28   2.0000      -0.446401       -12.1472
  29   2.0000      -0.433330       -11.7915
  30   2.0000      -0.423943       -11.5361
  31   2.0000      -0.402776       -10.9601
  32   2.0000      -0.388200       -10.5635
  33   2.0000      -0.381873       -10.3913
  34   2.0000      -0.364708        -9.9242
  35   2.0000      -0.354343        -9.6422
  36   2.0000      -0.333075        -9.0634
  37   2.0000      -0.320020        -8.7082
  38   2.0000      -0.307326        -8.3628
  39   2.0000      -0.299821        -8.1585
  40   2.0000      -0.285310        -7.7637
  41   2.0000      -0.274747        -7.4762
  42   2.0000      -0.268187        -7.2978
  43   2.0000      -0.246873        -6.7177
  44   2.0000      -0.238301        -6.4845
  45   2.0000      -0.229925        -6.2566
  46   2.0000      -0.212728        -5.7886
  47   2.0000      -0.204417        -5.5625
  48   0.0000       0.007971         0.2169
  49   0.0000       0.013016         0.3542
  50   0.0000       0.026040         0.7086
  51   0.0000       0.042325         1.1517
  52   0.0000       0.057563         1.5664

MULLIKEN ATOMIC CHARGES
-----------------------
   0 C :    0.082639
   1 C :    0.044926
   2 H :    0.073341
   3 C :    0.005467
   4 H :    0.059607
   5 C :    0.046474
   6 H :    0.053945
   7 C :    0.085023
   8 H :    0.067486
   9 C :    0.144292
  10 H :    0.067999
  11 O :   -0.331673
  12 O :   -0.391785
  13 O :   -0.410565
  14 O :   -0.411779
  15 O :   -0.413691
  16 O :   -0.435571
  17 H :    0.057036
  18 H :    0.097128
  19 H :    0.309647
  20 H :    0.302354
  21 H :    0.304883
  22 H :    0.300757
  23 H :    0.292062
Sum of atomic charges:    0.0000000

LOEWDIN ATOMIC CHARGES
----------------------
   0 C :   -0.132948
   1 C :   -0.067693
   2 H :    0.119307
   3 C :   -0.084597
   4 H :    0.101907
   5 C :   -0.080650
   6 H :    0.116602
   7 C :   -0.082553
   8 H :    0.120834
   9 C :   -0.012566
  10 H :    0.101299
  11 O :   -0.157445
  12 O :   -0.307376
  13 O :   -0.306838
  14 O :   -0.303951
  15 O :   -0.320965
  16 O :   -0.339841
  17 H :    0.092848
  18 H :    0.123032
  19 H :    0.290138
  20 H :    0.286443
  21 H :    0.288555
  22 H :    0.279679
  23 H :    0.276779

  Mayer bond orders larger than 0.100000
B(  0-C ,  1-C ) :   1.0834 B(  0-C , 16-O ) :   1.0707 B(  0-C , 17-H ) :   0.8986
B(  0-C , 18-H ) :   0.9121 B(  1-C ,  2-H ) :   0.8728 B(  1-C ,  3-C ) :   0.9668
B(  1-C , 11-O ) :   0.9448 B(  3-C ,  4-H ) :   0.8739 B(  3-C ,  5-C ) :   1.0161
B(  3-C , 15-O ) :   1.0882 B(  5-C ,  6-H ) :   0.8484 B(  5-C ,  7-C ) :   1.0126
B(  5-C , 14-O ) :   1.0404 B(  7-C ,  8-H ) :   0.8646 B(  7-C ,  9-C ) :   0.9697
B(  7-C , 13-O ) :   1.0595 B(  9-C , 10-H ) :   0.8999 B(  9-C , 11-O ) :   1.0795
B(  9-C , 12-O ) :   1.0990 B( 12-O , 19-H ) :   0.8336 B( 13-O , 20-H ) :   0.8478
B( 14-O , 21-H ) :   0.8448 B( 15-O , 22-H ) :   0.8200 B( 16-O , 23-H ) :   0.8461

Dispersion correction           -0.024407426
FINAL SINGLE POINT ENERGY      -685.691680837421

DIPOLE MOMENT
-------------

Method             : SCF
Type of density    : Electron Density
Multiplicity       :   1
Irrep              :   0
Energy             :  -685.8221133072062230 Eh
Relativity type    :
Basis              : AO
                                X                 Y                 Z
Electronic contribution:      1.611609655       0.284910335       1.219577473
Nuclear contribution   :     -0.715946414      -0.698555815      -1.369697955
                        -----------------------------------------
Total Dipole Moment    :      0.895663241      -0.413645480      -0.150120482
                        -----------------------------------------
Magnitude (a.u.)       :      0.997923535
Magnitude (Debye)      :      2.536520047

Rotational constants in cm-1:             0.042607             0.025566             0.018655
Rotational constants in MHz :          1277.323698           766.450040           559.265618

                             ****ORCA TERMINATED NORMALLY****
TOTAL RUN TIME: 0 days 0 hours 0 minutes 12 seconds 235 msec
