                         Program Version 6.0.0  -   RELEASE  -
|  1> ! r2scan-3c def2/J RI DEFGRID2 scfconv6 printgap
|  2> %output
|  3>     printlevel normal
|  4> end
|  5> * xyz 0 1
|  6> C -2.4343930173 -1.0920690852 -0.310204334
|  7> C -1.0784468838 -0.5953749596 0.2111229039
|  8> H -1.1185174515 -0.5543692231 1.3116081205
|  9> C -0.7377381666 0.8040485867 -0.3201187582
| 10> H -0.712643032 0.756613442 -1.4225486767
| 11> C 0.6523986042 1.2301879631 0.1861989794
| 12> H 0.6260081489 1.3243381925 1.278389772
| 13> C 1.6829615525 0.1638381817 -0.1905069855
| 14> H 1.7752877469 0.1115303216 -1.2877796963
| 15> C 1.1937201724 -1.2165942146 0.2909761806
| 16> H 1.1675095433 -1.210786533 1.4015822779
| 17> O -0.0914956485 -1.5182543106 -0.2020940744
| 18> O 2.0779814333 -2.1628067445 -0.1863720137
| 19> O 2.9133656936 0.4891875055 0.3968262564
| 20> O 0.9703438465 2.5138619388 -0.28695892
| 21> O -1.7240515399 1.7124408372 0.0971667686
| 22> O -3.5133562002 -0.4805078357 0.3409955936
| 23> H -2.5128409399 -2.1629581322 -0.1116799597
| 24> H -2.4828384734 -0.9318224124 -1.3952620956
| 25> H 1.7036974583 -3.0502437575 -0.0729253062
| 26> H 3.5482737033 -0.2189296116 0.2095514257
| 27> H 1.3146956471 2.4636560669 -1.1903665203
| 28> H -1.3583803099 2.6100889246 0.0365456346
| 29> H -3.3971340183 0.4828033882 0.2893380372
| 30> *
| 31>
| 32>                          ****END OF INPUT****

CARTESIAN COORDINATES (ANGSTROEM)
---------------------------------
  C     -2.434393   -1.092069   -0.310204
  C     -1.078447   -0.595375    0.211123
  H     -1.118517   -0.554369    1.311608
  C     -0.737738    0.804049   -0.320119
  H     -0.712643    0.756613   -1.422549
  C      0.652399    1.230188    0.186199
  H      0.626008    1.324338    1.278390
  C      1.682962    0.163838   -0.190507
  H      1.775288    0.111530   -1.287780
  C      1.193720   -1.216594    0.290976
  H      1.167510   -1.210787    1.401582
  O     -0.091496   -1.518254   -0.202094
  O      2.077981   -2.162807   -0.186372
  O      2.913366    0.489188    0.396826
  O      0.970344    2.513862   -0.286959
  O     -1.724052    1.712441    0.097167
  O     -3.513356   -0.480508    0.340996
  H     -2.512841   -2.162958   -0.111680
  H     -2.482838   -0.931822   -1.395262
  H      1.703697   -3.050244   -0.072925
  H      3.548274   -0.218930    0.209551
  H      1.314696    2.463656   -1.190367
  H     -1.358380    2.610089    0.036546
  H     -3.397134    0.482803    0.289338

 Total Charge           Charge          ....    0
 Multiplicity           Mult            ....    1
 Number of Electrons    NEL             ....   96
 Basis Dimension        Dim             ....  318

ORBITAL ENERGIES
----------------

  NO   OCC          E(Eh)            E(eV)
   0   2.0000     -18.981752      -516.5197
   1   2.0000     -18.980520      -516.4862
   2   2.0000     -18.974288      -516.3166
   3   2.0000     -18.973863      -516.3051
   4   2.0000     -18.966072      -516.0930
   5   2.0000     -18.941657      -515.4287
   6   2.0000     -10.149791      -276.1899
   7   2.0000     -10.102169      -274.8940
   8   2.0000     -10.101964      -274.8884
   9   2.0000     -10.099383      -274.8182
  10   2.0000     -10.097346      -274.7628
  11   2.0000     -10.078764      -274.2571
  12   2.0000      -1.063478       -28.9387
  13   2.0000      -1.026886       -27.9430
  14   2.0000      -1.012232       -27.5442
  15   2.0000      -0.997769       -27.1507
  16   2.0000      -0.994829       -27.0707
  17   2.0000      -0.980702       -26.6862
  18   2.0000      -0.760711       -20.7000
  19   2.0000      -0.742914       -20.2157
  20   2.0000      -0.658426       -17.9167
  21   2.0000      -0.630499       -17.1568
  22   2.0000      -0.598848       -16.2955
  23   2.0000      -0.573030       -15.5929
  24   2.0000      -0.538042       -14.6409
  25   2.0000      -0.524218       -14.2647
  26   2.0000      -0.498224       -13.5574
  27   2.0000      -0.480378       -13.0718
  28   2.0000      -0.472056       -12.8453
  29   2.0000      -0.467645       -12.7253
  30   2.0000      -0.454873       -12.3777
  31   2.0000      -0.432890       -11.7795
  32   2.0000      -0.413394       -11.2490
  33   2.0000      -0.395360       -10.7583
  34   2.0000      -0.388526       -10.5723
  35   2.0000      -0.379084       -10.3154
  36   2.0000      -0.360719        -9.8157
  37   2.0000      -0.347819        -9.4646
  38   2.0000      -0.343855        -9.3568
  39   2.0000      -0.331275        -9.0144
  40   2.0000      -0.308966        -8.4074
  41   2.0000      -0.293376        -7.9832
  42   2.0000      -0.288926        -7.8621
  43   2.0000      -0.273636        -7.4460
  44   2.0000      -0.264285        -7.1916
  45   2.0000      -0.247600        -6.7375
  46   2.0000      -0.240088        -6.5331
  47   2.0000      -0.231313        -6.2943
  48   0.0000       0.020687         0.5629
  49   0.0000       0.042306         1.1512
  50   0.0000       0.057268         1.5583
  51   0.0000       0.068867         1.8740
  52   0.0000       0.084018         2.2862

MULLIKEN ATOMIC CHARGES
-----------------------
   0 C :   -0.241530
   1 C :   -0.095393
   2 H :    0.188677
   3 C :    0.078253
   4 H :    0.167204
   5 C :   -0.160058
   6 H :    0.180118
   7 C :    0.012868
   8 H :    0.166144
   9 C :   -0.033420
  10 H :    0.147262
  11 O :   -0.201816
  12 O :   -0.403647
  13 O :   -0.413290
  14 O :   -0.399047
  15 O :   -0.432882
  16 O :   -0.413262
  17 H :    0.148036
  18 H :    0.135678
  19 H :    0.313957
  20 H :    0.314923
  21 H :    0.304457
  22 H :    0.317428
  23 H :    0.319342
Sum of atomic charges:    0.0000000

LOEWDIN ATOMIC CHARGES
----------------------
   0 C :    0.049446
   1 C :    0.120519
   2 H :    0.188552
   3 C :    0.103762
   4 H :    0.178961
   5 C :    0.102615
   6 H :    0.203753
   7 C :    0.114407
   8 H :    0.182082
   9 C :    0.298876
  10 H :    0.181597
  11 O :   -0.684064
  12 O :   -0.504060
  13 O :   -0.556559
  14 O :   -0.558600
  15 O :   -0.591644
  16 O :   -0.596602
  17 H :    0.186778
  18 H :    0.164464
  19 H :    0.287203
  20 H :    0.283227
  21 H :    0.274850
  22 H :    0.288804
  23 H :    0.281634

  Mayer bond orders larger than 0.100000
B(  0-C ,  1-C ) :   0.9187 B(  0-C , 16-O ) :   1.0149 B(  0-C , 17-H ) :   0.9744
B(  0-C , 18-H ) :   0.9868 B(  1-C ,  2-H ) :   0.9642 B(  1-C ,  3-C ) :   0.8010
B(  1-C , 11-O ) :   0.7950 B(  3-C ,  4-H ) :   0.9454 B(  3-C ,  5-C ) :   0.8608
B(  3-C , 15-O ) :   0.8571 B(  5-C ,  6-H ) :   0.9823 B(  5-C ,  7-C ) :   0.9418
B(  5-C , 14-O ) :   1.0518 B(  7-C ,  8-H ) :   0.9651 B(  7-C ,  9-C ) :   0.8016
B(  7-C , 13-O ) :   0.9090 B(  9-C , 10-H ) :   1.0081 B(  9-C , 11-O ) :   0.9089
B(  9-C , 12-O ) :   1.0476 B( 12-O , 19-H ) :   0.8770 B( 13-O , 20-H ) :   0.8791
B( 14-O , 21-H ) :   0.8889 B( 15-O , 22-H ) :   0.8655 B( 16-O , 23-H ) :   0.8508

Dispersion correction           -0.008011727
FINAL SINGLE POINT ENERGY      -687.075809591283

DIPOLE MOMENT
-------------

Method             : SCF
Type of density    : Electron Density
Multiplicity       :   1
Irrep              :   0
Energy             :  -687.0876117539910410 Eh
Relativity type    :
Basis              : AO
                                X                 Y                 Z
Electronic contribution:      2.091386038       0.140892636       0.365107251
Nuclear contribution   :     -1.348047009      -0.348373010      -0.892225436
                        -----------------------------------------
Total Dipole Moment    :      0.743339028      -0.207480375      -0.527118185
                        -----------------------------------------
Magnitude (a.u.)       :      0.934587930
Magnitude (Debye)      :      2.375533730

Rotational constants in cm-1:             0.043591             0.024515             0.016439
Rotational constants in MHz :          1306.813156           734.942458           492.817393

                             ****ORCA TERMINATED NORMALLY****
TOTAL RUN TIME: 0 days 0 hours 0 minutes 47 seconds 780 msec
