                         Program Version 6.0.0  -   RELEASE  -
|  1> ! r2scan-3c def2/J RI DEFGRID2 scfconv6 printgap
|  2> %output
|  3>     printlevel normal
|  4> end
|  5> %cpcm
|  6>     smd true
|  7>     smdsolvent "water"
|  8> end
|  9> * xyz 0 1
| 10> C -2.4343930173 -1.0920690852 -0.310204334
| 11> C -1.0784468838 -0.5953749596 0.2111229039
| 12> H -1.1185174515 -0.5543692231 1.3116081205
| 13> C -0.7377381666 0.8040485867 -0.3201187582
| 14> H -0.712643032 0.756613442 -1.4225486767
| 15> C 0.6523986042 1.2301879631 0.1861989794
| 16> H 0.6260081489 1.3243381925 1.278389772
| 17> C 1.6829615525 0.1638381817 -0.1905069855
| 18> H 1.7752877469 0.1115303216 -1.2877796963
| 19> C 1.1937201724 -1.2165942146 0.2909761806
| 20> H 1.1675095433 -1.210786533 1.4015822779
| 21> O -0.0914956485 -1.5182543106 -0.2020940744
| 22> O 2.0779814333 -2.1628067445 -0.1863720137
| 23> O 2.9133656936 0.4891875055 0.3968262564
| 24> O 0.9703438465 2.5138619388 -0.28695892
| 25> O -1.7240515399 1.7124408372 0.0971667686
| 26> O -3.5133562002 -0.4805078357 0.3409955936
| 27> H -2.5128409399 -2.1629581322 -0.1116799597
| 28> H -2.4828384734 -0.9318224124 -1.3952620956
| 29> H 1.7036974583 -3.0502437575 -0.0729253062
| 30> H 3.5482737033 -0.2189296116 0.2095514257
| 31> H 1.3146956471 2.4636560669 -1.1903665203
| 32> H -1.3583803099 2.6100889246 0.0365456346
| 33> H -3.3971340183 0.4828033882 0.2893380372
| 34> *
| 35>
| 36>                          ****END OF INPUT****

CARTESIAN COORDINATES (ANGSTROEM)
---------------------------------
  C     -2.434393   -1.092069   -0.310204
  C     -1.078447   -0.595375    0.211123
  H     -1.118517   -0.554369    1.311608
  C     -0.737738    0.804049   -0.320119
  H     -0.712643    0.756613   -1.422549
  C      0.652399    1.230188    0.186199
  H      0.626008    1.324338    1.278390
  C      1.682962    0.163838   -0.190507
  H      1.775288    0.111530   -1.287780
  C      1.193720   -1.216594    0.290976
  H      1.167510   -1.210787    1.401582
  O     -0.091496   -1.518254   -0.202094
  O      2.077981   -2.162807   -0.186372
  O      2.913366    0.489188    0.396826
  O      0.970344    2.513862   -0.286959
  O     -1.724052    1.712441    0.097167
  O     -3.513356   -0.480508    0.340996
  H     -2.512841   -2.162958   -0.111680
  H     -2.482838   -0.931822   -1.395262
  H      1.703697   -3.050244   -0.072925
  H      3.548274   -0.218930    0.209551
  H      1.314696    2.463656   -1.190367
  H     -1.358380    2.610089    0.036546
  H     -3.397134    0.482803    0.289338

 Total Charge           Charge          ....    0
 Multiplicity           Mult            ....    1
 Number of Electrons    NEL             ....   96
 Basis Dimension        Dim             ....  318

ORBITAL ENERGIES
----------------

  NO   OCC          E(Eh)            E(eV)
   0   2.0000     -18.976687      -516.3819
   1   2.0000     -18.970435      -516.2118
   2   2.0000     -18.965067      -516.0657
   3   2.0000     -18.963789      -516.0309
   4   2.0000     -18.963214      -516.0153
   5   2.0000     -18.954345      -515.7740
   6   2.0000     -10.138250      -275.8758
   7   2.0000     -10.089795      -274.5573
   8   2.0000     -10.089733      -274.5556
   9   2.0000     -10.089581      -274.5515
  10   2.0000     -10.086615      -274.4707
  11   2.0000     -10.076731      -274.2018
  12   2.0000      -1.055533       -28.7225
  13   2.0000      -1.017136       -27.6777
  14   2.0000      -1.006968       -27.4010
  15   2.0000      -0.993193       -27.0262
  16   2.0000      -0.988456       -26.8972
  17   2.0000      -0.984509       -26.7899
  18   2.0000      -0.749771       -20.4023
  19   2.0000      -0.735300       -20.0085
  20   2.0000      -0.651972       -17.7411
  21   2.0000      -0.620217       -16.8770
  22   2.0000      -0.591957       -16.1080
  23   2.0000      -0.562322       -15.3016
  24   2.0000      -0.527870       -14.3641
  25   2.0000      -0.514974       -14.0131
  26   2.0000      -0.488235       -13.2856
  27   2.0000      -0.478714       -13.0265
  28   2.0000      -0.462885       -12.5957
  29   2.0000      -0.455546       -12.3960
  30   2.0000      -0.446889       -12.1605
  31   2.0000      -0.427463       -11.6319
  32   2.0000      -0.408326       -11.1111
  33   2.0000      -0.394566       -10.7367
  34   2.0000      -0.385459       -10.4889
  35   2.0000      -0.370591       -10.0843
  36   2.0000      -0.357441        -9.7265
  37   2.0000      -0.344641        -9.3782
  38   2.0000      -0.339327        -9.2335
  39   2.0000      -0.328402        -8.9363
  40   2.0000      -0.304424        -8.2838
  41   2.0000      -0.293246        -7.9796
  42   2.0000      -0.282422        -7.6851
  43   2.0000      -0.268581        -7.3085
  44   2.0000      -0.259631        -7.0649
  45   2.0000      -0.246150        -6.6981
  46   2.0000      -0.239439        -6.5155
  47   2.0000      -0.229649        -6.2491
  48   0.0000       0.033336         0.9071
  49   0.0000       0.062251         1.6939
  50   0.0000       0.079477         2.1627
  51   0.0000       0.089101         2.4246
  52   0.0000       0.097361         2.6493

MULLIKEN ATOMIC CHARGES
-----------------------
   0 C :   -0.249024
   1 C :   -0.091915
   2 H :    0.207829
   3 C :    0.050087
   4 H :    0.190704
   5 C :   -0.109988
   6 H :    0.192722
   7 C :    0.024179
   8 H :    0.191974
   9 C :   -0.049943
  10 H :    0.169577
  11 O :   -0.243854
  12 O :   -0.452902
  13 O :   -0.485237
  14 O :   -0.469424
  15 O :   -0.485734
  16 O :   -0.488909
  17 H :    0.164696
  18 H :    0.157596
  19 H :    0.360239
  20 H :    0.354199
  21 H :    0.357946
  22 H :    0.350720
  23 H :    0.354461
Sum of atomic charges:    0.0000000

LOEWDIN ATOMIC CHARGES
----------------------
   0 C :    0.045296
   1 C :    0.121581
   2 H :    0.195623
   3 C :    0.108925
   4 H :    0.190036
   5 C :    0.103901
   6 H :    0.207581
   7 C :    0.116431
   8 H :    0.194399
   9 C :    0.301469
  10 H :    0.192061
  11 O :   -0.698979
  12 O :   -0.518911
  13 O :   -0.587019
  14 O :   -0.581402
  15 O :   -0.604915
  16 O :   -0.633740
  17 H :    0.191682
  18 H :    0.173869
  19 H :    0.303155
  20 H :    0.296922
  21 H :    0.292985
  22 H :    0.299507
  23 H :    0.289544

  Mayer bond orders larger than 0.100000
B(  0-C ,  1-C ) :   0.9082 B(  0-C , 16-O ) :   0.9924 B(  0-C , 17-H ) :   0.9701
B(  0-C , 18-H ) :   0.9767 B(  1-C ,  2-H ) :   0.9577 B(  1-C ,  3-C ) :   0.8155
B(  1-C , 11-O ) :   0.7979 B(  3-C ,  4-H ) :   0.9467 B(  3-C ,  5-C ) :   0.8765
B(  3-C , 15-O ) :   0.8514 B(  5-C ,  6-H ) :   0.9693 B(  5-C ,  7-C ) :   0.9272
B(  5-C , 14-O ) :   1.0325 B(  7-C ,  8-H ) :   0.9518 B(  7-C ,  9-C ) :   0.8214
B(  7-C , 13-O ) :   0.8850 B(  9-C , 10-H ) :   0.9996 B(  9-C , 11-O ) :   0.9147
B(  9-C , 12-O ) :   1.0483 B( 12-O , 19-H ) :   0.8529 B( 13-O , 20-H ) :   0.8598
B( 14-O , 21-H ) :   0.8614 B( 15-O , 22-H ) :   0.8501 B( 16-O , 23-H ) :   0.8332

Dispersion correction           -0.008011727
FINAL SINGLE POINT ENERGY      -687.108227614788

DIPOLE MOMENT
-------------

Method             : SCF
Type of density    : Electron Density
Multiplicity       :   1
Irrep              :   0
Energy             :  -687.1200297774967112 Eh
Relativity type    :
Basis              : AO
                                X                 Y                 Z
Electronic contribution:      2.258527252       0.046194422       0.114312539
Nuclear contribution   :     -1.348047009      -0.348373010      -0.892225436
                        -----------------------------------------
Total Dipole Moment    :      0.910480243      -0.302178588      -0.777912897
                        -----------------------------------------
Magnitude (a.u.)       :      1.235084874
Magnitude (Debye)      :      3.139336263

Rotational constants in cm-1:             0.043591             0.024515             0.016439
Rotational constants in MHz :          1306.813156           734.942458           492.817393

                             ****ORCA TERMINATED NORMALLY****
TOTAL RUN TIME: 0 days 0 hours 0 minutes 56 seconds 463 msec
