                         Program Version 6.0.0  -   RELEASE  -
|  1> ! pbe def2-sv(p) def2/J RI DEFGRID1 loosescf d4 GCP(DFT/SV(P)) printgap
|  2> %output
|  3>     printlevel normal
|  4> end
|  5> * xyz 0 1
|  6> C -2.4916499775 -0.4471261891 -0.2502065666
|  7> C -1.0700938042 -0.1866452469 0.2547744855
|  8> H -1.0223847381 -0.4364379862 1.3253228619
|  9> C -0.6395711961 1.2887771423 0.0669753788
| 10> H -1.2985176774 1.7816040409 -0.656678045
| 11> C 0.8001995532 1.3310147111 -0.4923851236
| 12> H 1.1947688863 2.3430902936 -0.3520081487
| 13> C 1.678542099 0.3217433976 0.2814384015
| 14> H 2.6842775952 0.31059884 -0.1530145065
| 15> C 1.0887017084 -1.1064308712 0.1273439749
| 16> H 1.0269977486 -1.5527291993 1.1338393889
| 17> O -0.198294505 -1.0596307814 -0.4548750225
| 18> O 1.8786195995 -1.9489351761 -0.6241124125
| 19> O 1.7122992634 0.639492081 1.6557270196
| 20> O 0.8416270514 1.0881297513 -1.8748601978
| 21> O -0.7647597118 2.0240073873 1.2531364076
| 22> O -2.9365816644 -1.7432053097 0.0535277444
| 23> H -2.5263017685 -0.2697180873 -1.3325324534
| 24> H -3.1744808418 0.2412345089 0.2502641249
| 25> H 1.874069227 -1.6740136662 -1.5547257767
| 26> H 2.4497356748 1.2368568755 1.8422625872
| 27> H 0.3317070089 0.2830852281 -2.0588580306
| 28> H -0.1269645725 1.6757217528 1.9003010399
| 29> H -2.3185606632 -2.3791550002 -0.3360824048
| 30> *
| 31>
| 32>                          ****END OF INPUT****

CARTESIAN COORDINATES (ANGSTROEM)
---------------------------------
  C     -2.491650   -0.447126   -0.250207
  C     -1.070094   -0.186645    0.254774
  H     -1.022385   -0.436438    1.325323
  C     -0.639571    1.288777    0.066975
  H     -1.298518    1.781604   -0.656678
  C      0.800200    1.331015   -0.492385
  H      1.194769    2.343090   -0.352008
  C      1.678542    0.321743    0.281438
  H      2.684278    0.310599   -0.153015
  C      1.088702   -1.106431    0.127344
  H      1.026998   -1.552729    1.133839
  O     -0.198295   -1.059631   -0.454875
  O      1.878620   -1.948935   -0.624112
  O      1.712299    0.639492    1.655727
  O      0.841627    1.088130   -1.874860
  O     -0.764760    2.024007    1.253136
  O     -2.936582   -1.743205    0.053528
  H     -2.526302   -0.269718   -1.332532
  H     -3.174481    0.241235    0.250264
  H      1.874069   -1.674014   -1.554726
  H      2.449736    1.236857    1.842263
  H      0.331707    0.283085   -2.058858
  H     -0.126965    1.675722    1.900301
  H     -2.318561   -2.379155   -0.336082

 Total Charge           Charge          ....    0
 Multiplicity           Mult            ....    1
 Number of Electrons    NEL             ....   96
 Basis Dimension        Dim             ....  192

ORBITAL ENERGIES
----------------

  NO   OCC          E(Eh)            E(eV)
   0   2.0000     -18.791480      -511.3422
   1   2.0000     -18.787180      -511.2252
   2   2.0000     -18.771461      -510.7974
   3   2.0000     -18.759298      -510.4665
   4   2.0000     -18.746217      -510.1105
   5   2.0000     -18.745640      -510.0948
   6   2.0000      -9.998907      -272.0841
   7   2.0000      -9.954039      -270.8632
   8   2.0000      -9.947999      -270.6988
   9   2.0000      -9.946241      -270.6510
  10   2.0000      -9.943786      -270.5842
  11   2.0000      -9.937681      -270.4180
  12   2.0000      -1.000541       -27.2261
  13   2.0000      -0.959524       -26.1100
  14   2.0000      -0.942079       -25.6353
  15   2.0000      -0.932736       -25.3810
  16   2.0000      -0.922967       -25.1152
  17   2.0000      -0.918118       -24.9832
  18   2.0000      -0.701563       -19.0905
  19   2.0000      -0.696724       -18.9588
  20   2.0000      -0.626118       -17.0375
  21   2.0000      -0.592605       -16.1256
  22   2.0000      -0.576215       -15.6796
  23   2.0000      -0.541855       -14.7446
  24   2.0000      -0.510967       -13.9041
  25   2.0000      -0.503536       -13.7019
  26   2.0000      -0.489035       -13.3073
  27   2.0000      -0.465123       -12.6566
  28   2.0000      -0.462598       -12.5879
  29   2.0000      -0.433823       -11.8049
  30   2.0000      -0.414636       -11.2828
  31   2.0000      -0.408039       -11.1033
  32   2.0000      -0.384478       -10.4622
  33   2.0000      -0.380469       -10.3531
  34   2.0000      -0.363996        -9.9048
  35   2.0000      -0.356226        -9.6934
  36   2.0000      -0.341831        -9.3017
  37   2.0000      -0.323902        -8.8138
  38   2.0000      -0.318726        -8.6730
  39   2.0000      -0.303572        -8.2606
  40   2.0000      -0.284924        -7.7532
  41   2.0000      -0.282830        -7.6962
  42   2.0000      -0.269857        -7.3432
  43   2.0000      -0.259362        -7.0576
  44   2.0000      -0.256295        -6.9741
  45   2.0000      -0.226905        -6.1744
  46   2.0000      -0.212177        -5.7736
  47   2.0000      -0.201993        -5.4965
  48   0.0000      -0.006158        -0.1676
  49   0.0000       0.012375         0.3367
  50   0.0000       0.033457         0.9104
  51   0.0000       0.051822         1.4102
  52   0.0000       0.058908         1.6030

MULLIKEN ATOMIC CHARGES
-----------------------
   0 C :    0.071358
   1 C :   -0.015669
   2 H :    0.066305
   3 C :    0.068170
   4 H :    0.073071
   5 C :    0.041359
   6 H :    0.069235
   7 C :   -0.014622
   8 H :    0.080825
   9 C :    0.200653
  10 H :    0.077080
  11 O :   -0.323088
  12 O :   -0.375628
  13 O :   -0.417778
  14 O :   -0.424763
  15 O :   -0.429248
  16 O :   -0.432412
  17 H :    0.070075
  18 H :    0.104834
  19 H :    0.298095
  20 H :    0.318030
  21 H :    0.298188
  22 H :    0.296182
  23 H :    0.299749
Sum of atomic charges:    0.0000000

LOEWDIN ATOMIC CHARGES
----------------------
   0 C :   -0.124592
   1 C :   -0.082338
   2 H :    0.111763
   3 C :   -0.074084
   4 H :    0.117057
   5 C :   -0.083611
   6 H :    0.114188
   7 C :   -0.099264
   8 H :    0.112742
   9 C :    0.004114
  10 H :    0.107926
  11 O :   -0.164340
  12 O :   -0.285545
  13 O :   -0.310267
  14 O :   -0.317435
  15 O :   -0.317765
  16 O :   -0.334305
  17 H :    0.098362
  18 H :    0.126011
  19 H :    0.282963
  20 H :    0.298960
  21 H :    0.267710
  22 H :    0.269247
  23 H :    0.282503

  Mayer bond orders larger than 0.100000
B(  0-C ,  1-C ) :   1.0554 B(  0-C , 16-O ) :   1.0805 B(  0-C , 17-H ) :   0.9055
B(  0-C , 18-H ) :   0.9188 B(  1-C ,  2-H ) :   0.8626 B(  1-C ,  3-C ) :   0.9619
B(  1-C , 11-O ) :   0.9787 B(  3-C ,  4-H ) :   0.8946 B(  3-C ,  5-C ) :   0.9825
B(  3-C , 15-O ) :   1.0489 B(  5-C ,  6-H ) :   0.8903 B(  5-C ,  7-C ) :   0.9672
B(  5-C , 14-O ) :   1.0382 B(  7-C ,  8-H ) :   0.9034 B(  7-C ,  9-C ) :   0.9436
B(  7-C , 13-O ) :   1.0367 B(  9-C , 10-H ) :   0.8915 B(  9-C , 11-O ) :   1.0023
B(  9-C , 12-O ) :   1.1551 B( 12-O , 19-H ) :   0.8374 B( 13-O , 20-H ) :   0.8400
B( 14-O , 21-H ) :   0.8244 B( 15-O , 22-H ) :   0.8184 B( 16-O , 23-H ) :   0.8451

Dispersion correction           -0.024868646
FINAL SINGLE POINT ENERGY      -685.693606618694

DIPOLE MOMENT
-------------

Method             : SCF
Type of density    : Electron Density
Multiplicity       :   1
Irrep              :   0
Energy             :  -685.8255702154010578 Eh
Relativity type    :
Basis              : AO
                                X                 Y                 Z
Electronic contribution:      1.869377403      -1.321968196      -0.138710719
Nuclear contribution   :     -0.841762842       1.448857881       0.007716962
                        -----------------------------------------
Total Dipole Moment    :      1.027614561       0.126889685      -0.130993757
                        -----------------------------------------
Magnitude (a.u.)       :      1.043672382
Magnitude (Debye)      :      2.652804374

Rotational constants in cm-1:             0.037671             0.027409             0.021756
Rotational constants in MHz :          1129.344077           821.701861           652.235357

                             ****ORCA TERMINATED NORMALLY****
TOTAL RUN TIME: 0 days 0 hours 0 minutes 11 seconds 843 msec
